<event>
 8    1  0.2527138E-006  0.9118800E+02  0.7816164E-02  0.1184000E+00
        -11   -1    0    0    0    0  0.00000000000E+00  0.00000000000E+00  0.45593999997E+02  0.45594000000E+02  0.51100000000E-03 0. -1.
         11   -1    0    0    0    0 -0.00000000000E+00 -0.00000000000E+00 -0.45593999997E+02  0.45594000000E+02  0.51100000000E-03 0.  1.
         23    2    1    2    0    0 -0.17763568394E-14  0.71054273576E-14 -0.88817841970E-15  0.91188000000E+02  0.91188000000E+02 0.  0.
    9900012    2    3    3    0    0 -0.13166717520E+02  0.34080744032E+02 -0.45736986796E+01  0.54367105339E+02  0.40000048240E+02 0.  0.
        -12    1    3    3    0    0  0.13166717520E+02 -0.34080744032E+02  0.45736986796E+01  0.36820894661E+02  0.00000000000E+00 0.  1.
         11    1    4    4    0    0 -0.51103600523E+01  0.11172305862E+02 -0.36827896180E+00  0.12291128011E+02  0.51100000000E-03 0. -1.
        -11    1    4    4    0    0 -0.16968553513E+02  0.23626208852E+02  0.46896216634E+01  0.29463911903E+02  0.51100000000E-03 0.  1.
        -12    1    4    4    0    0  0.89121960452E+01 -0.71777068101E+00 -0.88950413812E+01  0.12612065424E+02  0.00000000000E+00 0.  1.
</event>
<event>
 8    1  0.2527138E-006  0.9118800E+02  0.7816164E-02  0.1184000E+00
        -11   -1    0    0    0    0  0.00000000000E+00  0.00000000000E+00  0.45593999997E+02  0.45594000000E+02  0.51100000000E-03 0. -1.
         11   -1    0    0    0    0 -0.00000000000E+00 -0.00000000000E+00 -0.45593999997E+02  0.45594000000E+02  0.51100000000E-03 0.  1.
         23    2    1    2    0    0 -0.35527136788E-14 -0.35527136788E-14  0.35527136788E-14  0.91188000000E+02  0.91188000000E+02 0.  0.
    9900012    2    3    3    0    0 -0.21830801210E+02 -0.26538204416E+02  0.13226090122E+02  0.54366951196E+02  0.39999696841E+02 0.  0.
         12    1    3    3    0    0  0.21830801210E+02  0.26538204416E+02 -0.13226090122E+02  0.36821048804E+02  0.00000000000E+00 0. -1.
         11    1    4    4    0    0  0.29128368776E+01  0.50420419023E+01  0.62074336058E+01  0.85111125860E+01  0.51100000000E-03 0. -1.
        -11    1    4    4    0    0  0.34379681194E+01 -0.71070446070E+01  0.10192924153E+00  0.78955745622E+01  0.51100000000E-03 0.  1.
        -12    1    4    4    0    0 -0.28181606207E+02 -0.24473201711E+02  0.69167272744E+01  0.37960264048E+02  0.00000000000E+00 0.  1.
</event>
<event>
 8    1  0.2527138E-006  0.9118800E+02  0.7816164E-02  0.1184000E+00
        -11   -1    0    0    0    0  0.00000000000E+00  0.00000000000E+00  0.45593999997E+02  0.45594000000E+02  0.51100000000E-03 0.  1.
         11   -1    0    0    0    0 -0.00000000000E+00 -0.00000000000E+00 -0.45593999997E+02  0.45594000000E+02  0.51100000000E-03 0. -1.
         23    2    1    2    0    0  0.00000000000E+00  0.00000000000E+00  0.00000000000E+00  0.91188000000E+02  0.91188000000E+02 0.  0.
    9900012    2    3    3    0    0  0.18139968801E+02 -0.63940006134E+01  0.31398034640E+02  0.54367105237E+02  0.40000048008E+02 0.  0.
         12    1    3    3    0    0 -0.18139968801E+02  0.63940006134E+01 -0.31398034640E+02  0.36820894763E+02  0.00000000000E+00 0. -1.
         11    1    4    4    0    0  0.11131765381E+02  0.19128630822E+01  0.13526461016E+02  0.17622156326E+02  0.51100000000E-03 0. -1.
        -11    1    4    4    0    0  0.16499807850E+02 -0.17855148185E+01  0.14111196723E+01  0.16656019370E+02  0.51100000000E-03 0.  1.
        -12    1    4    4    0    0 -0.94916044304E+01 -0.65213488771E+01  0.16460453951E+02  0.20088929541E+02  0.00000000000E+00 0.  1.
</event>
<event>
 8    1  0.2527138E-006  0.9118800E+02  0.7816164E-02  0.1184000E+00
        -11   -1    0    0    0    0  0.00000000000E+00  0.00000000000E+00  0.45593999997E+02  0.45594000000E+02  0.51100000000E-03 0.  1.
         11   -1    0    0    0    0 -0.00000000000E+00 -0.00000000000E+00 -0.45593999997E+02  0.45594000000E+02  0.51100000000E-03 0. -1.
         23    2    1    2    0    0  0.00000000000E+00  0.44408920985E-15 -0.35527136788E-14  0.91188000000E+02  0.91188000000E+02 0.  0.
    9900012    2    3    3    0    0 -0.19056259092E+02  0.33497037703E+01 -0.31327565519E+02  0.54367110722E+02  0.40000060512E+02 0.  0.
        -12    1    3    3    0    0  0.19056259092E+02 -0.33497037703E+01  0.31327565519E+02  0.36820889278E+02  0.00000000000E+00 0.  1.
         11    1    4    4    0    0 -0.41464838960E+01 -0.15428042853E+02 -0.14102016249E+02  0.21309263186E+02  0.51100000000E-03 0. -1.
        -11    1    4    4    0    0  0.25921808046E+00  0.75503831656E+01 -0.72294981701E-01  0.75551774821E+01  0.51100000000E-03 0.  1.
         12    1    4    4    0    0 -0.15168993276E+02  0.11227363457E+02 -0.17153254288E+02  0.25502670054E+02  0.00000000000E+00 0. -1.
</event>
<event>
 8    1  0.2527138E-006  0.9118800E+02  0.7816164E-02  0.1184000E+00
        -11   -1    0    0    0    0  0.00000000000E+00  0.00000000000E+00  0.45593999997E+02  0.45594000000E+02  0.51100000000E-03 0. -1.
         11   -1    0    0    0    0 -0.00000000000E+00 -0.00000000000E+00 -0.45593999997E+02  0.45594000000E+02  0.51100000000E-03 0.  1.
         23    2    1    2    0    0  0.00000000000E+00 -0.44408920985E-15 -0.88817841970E-15  0.91188000000E+02  0.91188000000E+02 0.  0.
    9900012    2    3    3    0    0  0.35822662177E+02  0.37980858589E+01  0.76222665550E+01  0.54366979793E+02  0.39999762033E+02 0.  0.
        -12    1    3    3    0    0 -0.35822662177E+02 -0.37980858589E+01 -0.76222665550E+01  0.36821020207E+02  0.00000000000E+00 0.  1.
         11    1    4    4    0    0  0.20182567954E+02  0.10481167443E+02 -0.11290192213E+02  0.25390142983E+02  0.51100000000E-03 0. -1.
        -11    1    4    4    0    0  0.54844841581E+01  0.97991657170E+00 -0.68359562932E+00  0.56131191163E+01  0.51100000000E-03 0.  1.
         12    1    4    4    0    0  0.10155610065E+02 -0.76629981558E+01  0.19596054398E+02  0.23363717694E+02  0.00000000000E+00 0. -1.
</event>
<event>
 8    1  0.2527138E-006  0.9118800E+02  0.7816164E-02  0.1184000E+00
        -11   -1    0    0    0    0  0.00000000000E+00  0.00000000000E+00  0.45593999997E+02  0.45594000000E+02  0.51100000000E-03 0. -1.
         11   -1    0    0    0    0 -0.00000000000E+00 -0.00000000000E+00 -0.45593999997E+02  0.45594000000E+02  0.51100000000E-03 0.  1.
         23    2    1    2    0    0  0.17763568394E-14  0.00000000000E+00  0.00000000000E+00  0.91188000000E+02  0.91188000000E+02 0.  0.
    9900012    2    3    3    0    0  0.88941540007E+01 -0.35699440994E+02 -0.14936245462E+01  0.54366987291E+02  0.39999779126E+02 0.  0.
        -12    1    3    3    0    0 -0.88941540007E+01  0.35699440994E+02  0.14936245462E+01  0.36821012709E+02  0.00000000000E+00 0.  1.
         11    1    4    4    0    0  0.69605215276E+01 -0.59114415436E+01  0.39376855516E+01  0.99448161785E+01  0.51100000000E-03 0. -1.
        -11    1    4    4    0    0 -0.15273001123E+02 -0.13897022236E+02 -0.31713062356E+01  0.20891361225E+02  0.51100000000E-03 0.  1.
        -12    1    4    4    0    0  0.17206633596E+02 -0.15890977214E+02 -0.22600038622E+01  0.23530809888E+02  0.00000000000E+00 0.  1.
</event>
<event>
 8    1  0.2527138E-006  0.9118800E+02  0.7816164E-02  0.1184000E+00
        -11   -1    0    0    0    0  0.00000000000E+00  0.00000000000E+00  0.45593999997E+02  0.45594000000E+02  0.51100000000E-03 0. -1.
         11   -1    0    0    0    0 -0.00000000000E+00 -0.00000000000E+00 -0.45593999997E+02  0.45594000000E+02  0.51100000000E-03 0.  1.
         23    2    1    2    0    0  0.00000000000E+00  0.00000000000E+00  0.00000000000E+00  0.91188000000E+02  0.91188000000E+02 0.  0.
    9900012    2    3    3    0    0 -0.34754768122E+02 -0.95243132758E+01 -0.75612251054E+01  0.54367101373E+02  0.40000039200E+02 0.  0.
        -12    1    3    3    0    0  0.34754768122E+02  0.95243132758E+01  0.75612251054E+01  0.36820898627E+02  0.00000000000E+00 0.  1.
         11    1    4    4    0    0 -0.90938755699E+01 -0.63926424723E+01 -0.97974240979E+01  0.14817353673E+02  0.51100000000E-03 0. -1.
        -11    1    4    4    0    0 -0.11158079583E+02 -0.15535953249E+02 -0.38648934166E+01  0.19514250811E+02  0.51100000000E-03 0.  1.
         12    1    4    4    0    0 -0.14502812970E+02  0.12404282445E+02  0.61010924092E+01  0.20035496889E+02  0.00000000000E+00 0. -1.
</event>
<event>
 8    1  0.2527138E-006  0.9118800E+02  0.7816164E-02  0.1184000E+00
        -11   -1    0    0    0    0  0.00000000000E+00  0.00000000000E+00  0.45593999997E+02  0.45594000000E+02  0.51100000000E-03 0. -1.
         11   -1    0    0    0    0 -0.00000000000E+00 -0.00000000000E+00 -0.45593999997E+02  0.45594000000E+02  0.51100000000E-03 0.  1.
         23    2    1    2    0    0  0.00000000000E+00  0.00000000000E+00  0.00000000000E+00  0.91188000000E+02  0.91188000000E+02 0.  0.
    9900012    2    3    3    0    0  0.18460644843E+02 -0.27222026442E+02  0.16551286683E+02  0.54367092590E+02  0.40000019178E+02 0.  0.
        -12    1    3    3    0    0 -0.18460644843E+02  0.27222026442E+02 -0.16551286683E+02  0.36820907410E+02  0.00000000000E+00 0.  1.
         11    1    4    4    0    0 -0.95010291859E+00  0.81711143884E+01  0.98099891242E+01  0.12802565867E+02  0.51100000000E-03 0. -1.
        -11    1    4    4    0    0  0.11190867900E+02 -0.26726534676E+02  0.34836271422E+01  0.29183537114E+02  0.51100000000E-03 0.  1.
         12    1    4    4    0    0  0.82198798617E+01 -0.86666061537E+01  0.32576704161E+01  0.12380989609E+02  0.00000000000E+00 0. -1.
</event>
<event>
 8    1  0.2527138E-006  0.9118800E+02  0.7816164E-02  0.1184000E+00
        -11   -1    0    0    0    0  0.00000000000E+00  0.00000000000E+00  0.45593999997E+02  0.45594000000E+02  0.51100000000E-03 0. -1.
         11   -1    0    0    0    0 -0.00000000000E+00 -0.00000000000E+00 -0.45593999997E+02  0.45594000000E+02  0.51100000000E-03 0.  1.
         23    2    1    2    0    0  0.22204460493E-15  0.71054273576E-14  0.35527136788E-14  0.91188000000E+02  0.91188000000E+02 0.  0.
    9900012    2    3    3    0    0  0.97526823839E+00  0.31510144103E+02  0.19024726509E+02  0.54367074587E+02  0.39999978135E+02 0.  0.
        -12    1    3    3    0    0 -0.97526823839E+00 -0.31510144103E+02 -0.19024726509E+02  0.36820925413E+02  0.00000000000E+00 0.  1.
         11    1    4    4    0    0 -0.18456349859E+01  0.23210117869E+02  0.25762116741E+01  0.23425473460E+02  0.51100000000E-03 0. -1.
        -11    1    4    4    0    0  0.34350632601E+01  0.12778010239E+01 -0.62105897397E+01  0.72113702050E+01  0.51100000000E-03 0.  1.
         12    1    4    4    0    0 -0.61416003585E+00  0.70222252105E+01  0.22659104575E+02  0.23730230922E+02  0.00000000000E+00 0. -1.
</event>
<event>
 8    1  0.2527138E-006  0.9118800E+02  0.7816164E-02  0.1184000E+00
        -11   -1    0    0    0    0  0.00000000000E+00  0.00000000000E+00  0.45593999997E+02  0.45594000000E+02  0.51100000000E-03 0. -1.
         11   -1    0    0    0    0 -0.00000000000E+00 -0.00000000000E+00 -0.45593999997E+02  0.45594000000E+02  0.51100000000E-03 0.  1.
         23    2    1    2    0    0 -0.44408920985E-15 -0.17763568394E-14  0.00000000000E+00  0.91188000000E+02  0.91188000000E+02 0.  0.
    9900012    2    3    3    0    0 -0.31439025183E+01  0.10385182825E+02 -0.35185870959E+02  0.54367059483E+02  0.39999943704E+02 0.  0.
         12    1    3    3    0    0  0.31439025183E+01 -0.10385182825E+02  0.35185870959E+02  0.36820940517E+02  0.00000000000E+00 0. -1.
         11    1    4    4    0    0 -0.53344534374E+01  0.18725147037E+02 -0.16732678831E+02  0.25672359965E+02  0.51100000000E-03 0. -1.
        -11    1    4    4    0    0  0.26260957674E+00  0.59510372291E+01 -0.10886348516E+02  0.12409528281E+02  0.51100000000E-03 0.  1.
        -12    1    4    4    0    0  0.19279413423E+01 -0.14291001440E+02 -0.75668436122E+01  0.16285171238E+02  0.00000000000E+00 0.  1.
</event>
<event>
 8    1  0.2527138E-006  0.9118800E+02  0.7816164E-02  0.1184000E+00
        -11   -1    0    0    0    0  0.00000000000E+00  0.00000000000E+00  0.45593999997E+02  0.45594000000E+02  0.51100000000E-03 0.  1.
         11   -1    0    0    0    0 -0.00000000000E+00 -0.00000000000E+00 -0.45593999997E+02  0.45594000000E+02  0.51100000000E-03 0. -1.
         23    2    1    2    0    0  0.00000000000E+00 -0.35527136788E-14  0.00000000000E+00  0.91188000000E+02  0.91188000000E+02 0.  0.
    9900012    2    3    3    0    0  0.27029962268E+02  0.24972251064E+02  0.12437452450E+01  0.54367094449E+02  0.40000023414E+02 0.  0.
        -12    1    3    3    0    0 -0.27029962268E+02 -0.24972251064E+02 -0.12437452450E+01  0.36820905551E+02  0.00000000000E+00 0.  1.
         11    1    4    4    0    0  0.11404241626E+02  0.21875802869E+02  0.15675082008E+01  0.24719720072E+02  0.51100000000E-03 0. -1.
        -11    1    4    4    0    0  0.43644793620E+01 -0.10851966349E+02  0.42982126979E+00  0.11704640119E+02  0.51100000000E-03 0.  1.
        -12    1    4    4    0    0  0.11261241280E+02  0.13948414543E+02 -0.75358422559E+00  0.17942734257E+02  0.00000000000E+00 0.  1.
</event>
<event>
 8    1  0.2527138E-006  0.9118800E+02  0.7816164E-02  0.1184000E+00
        -11   -1    0    0    0    0  0.00000000000E+00  0.00000000000E+00  0.45593999997E+02  0.45594000000E+02  0.51100000000E-03 0.  1.
         11   -1    0    0    0    0 -0.00000000000E+00 -0.00000000000E+00 -0.45593999997E+02  0.45594000000E+02  0.51100000000E-03 0. -1.
         23    2    1    2    0    0 -0.17763568394E-14  0.00000000000E+00  0.44408920985E-15  0.91188000000E+02  0.91188000000E+02 0.  0.
    9900012    2    3    3    0    0 -0.67140238090E+01  0.36189833160E+02 -0.99861404358E+00  0.54367090589E+02  0.40000014616E+02 0.  0.
         12    1    3    3    0    0  0.67140238090E+01 -0.36189833160E+02  0.99861404358E+00  0.36820909411E+02  0.00000000000E+00 0. -1.
         11    1    4    4    0    0 -0.15757299287E+02  0.14355739355E+02 -0.57602626317E+01  0.22080768988E+02  0.51100000000E-03 0. -1.
        -11    1    4    4    0    0 -0.83690034774E-01  0.20086903273E+02 -0.28318103541E+01  0.20285705244E+02  0.51100000000E-03 0.  1.
         12    1    4    4    0    0  0.91269655130E+01  0.17471905314E+01  0.75934589422E+01  0.12000616356E+02  0.00000000000E+00 0. -1.
</event>
<event>
 8    1  0.2527138E-006  0.9118800E+02  0.7816164E-02  0.1184000E+00
        -11   -1    0    0    0    0  0.00000000000E+00  0.00000000000E+00  0.45593999997E+02  0.45594000000E+02  0.51100000000E-03 0. -1.
         11   -1    0    0    0    0 -0.00000000000E+00 -0.00000000000E+00 -0.45593999997E+02  0.45594000000E+02  0.51100000000E-03 0.  1.
         23    2    1    2    0    0  0.17763568394E-14  0.00000000000E+00  0.00000000000E+00  0.91188000000E+02  0.91188000000E+02 0.  0.
    9900012    2    3    3    0    0  0.15364863018E+02  0.28847784615E+02 -0.16955946657E+02  0.54367111638E+02  0.40000062601E+02 0.  0.
         12    1    3    3    0    0 -0.15364863018E+02 -0.28847784615E+02  0.16955946657E+02  0.36820888362E+02  0.00000000000E+00 0. -1.
         11    1    4    4    0    0 -0.54719540921E+01  0.21158692345E+02 -0.18356429862E+02  0.28541041692E+02  0.51100000000E-03 0. -1.
        -11    1    4    4    0    0  0.11308353701E+02  0.81741111889E+01 -0.44361934088E+01  0.14641542588E+02  0.51100000000E-03 0.  1.
         12    1    4    4    0    0  0.95284634096E+01 -0.48501891855E+00  0.58366766145E+01  0.11184527357E+02  0.00000000000E+00 0. -1.
</event>
<event>
 8    1  0.2527138E-006  0.9118800E+02  0.7816164E-02  0.1184000E+00
        -11   -1    0    0    0    0  0.00000000000E+00  0.00000000000E+00  0.45593999997E+02  0.45594000000E+02  0.51100000000E-03 0. -1.
         11   -1    0    0    0    0 -0.00000000000E+00 -0.00000000000E+00 -0.45593999997E+02  0.45594000000E+02  0.51100000000E-03 0.  1.
         23    2    1    2    0    0  0.35527136788E-14  0.00000000000E+00  0.00000000000E+00  0.91188000000E+02  0.91188000000E+02 0.  0.
    9900012    2    3    3    0    0 -0.25017420225E+02 -0.25795525260E+02 -0.80311370427E+01  0.54367087459E+02  0.40000007479E+02 0.  0.
         12    1    3    3    0    0  0.25017420225E+02  0.25795525260E+02  0.80311370427E+01  0.36820912541E+02  0.00000000000E+00 0. -1.
         11    1    4    4    0    0  0.14707293729E+01 -0.14375648891E+02 -0.16808783740E+01  0.14548115971E+02  0.51100000000E-03 0. -1.
        -11    1    4    4    0    0 -0.13585500936E+02 -0.76861469217E+01 -0.16702315027E+02  0.22860665295E+02  0.51100000000E-03 0.  1.
         12    1    4    4    0    0 -0.12902648662E+02 -0.37337294471E+01  0.10352056359E+02  0.16958306193E+02  0.00000000000E+00 0. -1.
</event>
<event>
 8    1  0.2527138E-006  0.9118800E+02  0.7816164E-02  0.1184000E+00
        -11   -1    0    0    0    0  0.00000000000E+00  0.00000000000E+00  0.45593999997E+02  0.45594000000E+02  0.51100000000E-03 0.  1.
         11   -1    0    0    0    0 -0.00000000000E+00 -0.00000000000E+00 -0.45593999997E+02  0.45594000000E+02  0.51100000000E-03 0. -1.
         23    2    1    2    0    0 -0.35527136788E-14  0.00000000000E+00 -0.88817841970E-15  0.91188000000E+02  0.91188000000E+02 0.  0.
    9900012    2    3    3    0    0  0.27140276384E+02 -0.24708563992E+02 -0.29448331364E+01  0.54367085034E+02  0.40000001952E+02 0.  0.
        -12    1    3    3    0    0 -0.27140276384E+02  0.24708563992E+02  0.29448331364E+01  0.36820914966E+02  0.00000000000E+00 0.  1.
         11    1    4    4    0    0  0.24802582441E+02 -0.26040529505E+02 -0.88862547213E+01  0.37043795646E+02  0.51100000000E-03 0.  1.
        -11    1    4    4    0    0  0.69281932787E+01 -0.13603247527E+01 -0.23755732636E+01  0.74494089787E+01  0.51100000000E-03 0. -1.
        -12    1    4    4    0    0 -0.45904993354E+01  0.26922902656E+01  0.83169948485E+01  0.98738804091E+01  0.00000000000E+00 0.  1.
</event>
<event>
 8    1  0.2527138E-006  0.9118800E+02  0.7816164E-02  0.1184000E+00
        -11   -1    0    0    0    0  0.00000000000E+00  0.00000000000E+00  0.45593999997E+02  0.45594000000E+02  0.51100000000E-03 0. -1.
         11   -1    0    0    0    0 -0.00000000000E+00 -0.00000000000E+00 -0.45593999997E+02  0.45594000000E+02  0.51100000000E-03 0.  1.
         23    2    1    2    0    0  0.00000000000E+00  0.00000000000E+00  0.35527136788E-14  0.91188000000E+02  0.91188000000E+02 0.  0.
    9900012    2    3    3    0    0  0.25720410300E+02  0.17883413610E+02  0.19350044294E+02  0.54367079282E+02  0.39999988840E+02 0.  0.
        -12    1    3    3    0    0 -0.25720410300E+02 -0.17883413610E+02 -0.19350044294E+02  0.36820920718E+02  0.00000000000E+00 0.  1.
         11    1    4    4    0    0  0.12420941152E+02  0.52755915588E+00  0.10003962955E+02  0.15957361086E+02  0.51100000000E-03 0. -1.
        -11    1    4    4    0    0  0.18023453744E+02  0.21071791560E+01  0.12633790502E+02  0.22111032349E+02  0.51100000000E-03 0.  1.
        -12    1    4    4    0    0 -0.47239845958E+01  0.15248675298E+02 -0.32877091627E+01  0.16298685847E+02  0.00000000000E+00 0.  1.
</event>
<event>
 8    1  0.2527138E-006  0.9118800E+02  0.7816164E-02  0.1184000E+00
        -11   -1    0    0    0    0  0.00000000000E+00  0.00000000000E+00  0.45593999997E+02  0.45594000000E+02  0.51100000000E-03 0.  1.
         11   -1    0    0    0    0 -0.00000000000E+00 -0.00000000000E+00 -0.45593999997E+02  0.45594000000E+02  0.51100000000E-03 0. -1.
         23    2    1    2    0    0  0.17763568394E-14  0.00000000000E+00 -0.17763568394E-14  0.91188000000E+02  0.91188000000E+02 0.  0.
    9900012    2    3    3    0    0 -0.13806583230E+02  0.30678971926E+02 -0.14965058129E+02  0.54367163185E+02  0.40000180113E+02 0.  0.
         12    1    3    3    0    0  0.13806583230E+02 -0.30678971926E+02  0.14965058129E+02  0.36820836815E+02  0.00000000000E+00 0. -1.
         11    1    4    4    0    0  0.66981559252E+01  0.64527251419E-01 -0.29510901405E+01  0.73197260770E+01  0.51100000000E-03 0. -1.
        -11    1    4    4    0    0  0.65501272268E+01  0.51460893651E+01 -0.20611594116E+01  0.85810710766E+01  0.51100000000E-03 0.  1.
        -12    1    4    4    0    0 -0.27054866382E+02  0.25468355310E+02 -0.99528085764E+01  0.38466366032E+02  0.00000000000E+00 0.  1.
</event>
<event>
 8    1  0.2527138E-006  0.9118800E+02  0.7816164E-02  0.1184000E+00
        -11   -1    0    0    0    0  0.00000000000E+00  0.00000000000E+00  0.45593999997E+02  0.45594000000E+02  0.51100000000E-03 0.  1.
         11   -1    0    0    0    0 -0.00000000000E+00 -0.00000000000E+00 -0.45593999997E+02  0.45594000000E+02  0.51100000000E-03 0. -1.
         23    2    1    2    0    0  0.15543122345E-14  0.00000000000E+00  0.35527136788E-14  0.91188000000E+02  0.91188000000E+02 0.  0.
    9900012    2    3    3    0    0  0.19435571876E+01 -0.31895784269E+02  0.18293787592E+02  0.54367066645E+02  0.39999960031E+02 0.  0.
         12    1    3    3    0    0 -0.19435571876E+01  0.31895784269E+02 -0.18293787592E+02  0.36820933355E+02  0.00000000000E+00 0. -1.
         11    1    4    4    0    0  0.16717187458E+02 -0.21581727869E+02  0.96322298115E+01  0.28948491942E+02  0.51100000000E-03 0.  1.
        -11    1    4    4    0    0 -0.53680174392E+01 -0.95308728383E+01 -0.20640073071E+01  0.11131633964E+02  0.51100000000E-03 0. -1.
         12    1    4    4    0    0 -0.94056128315E+01 -0.78318356137E+00  0.10725565087E+02  0.14286940739E+02  0.00000000000E+00 0. -1.
</event>
<event>
 8    1  0.2527138E-006  0.9118800E+02  0.7816164E-02  0.1184000E+00
        -11   -1    0    0    0    0  0.00000000000E+00  0.00000000000E+00  0.45593999997E+02  0.45594000000E+02  0.51100000000E-03 0.  1.
         11   -1    0    0    0    0 -0.00000000000E+00 -0.00000000000E+00 -0.45593999997E+02  0.45594000000E+02  0.51100000000E-03 0. -1.
         23    2    1    2    0    0 -0.88817841970E-15  0.00000000000E+00  0.22204460493E-15  0.91188000000E+02  0.91188000000E+02 0.  0.
    9900012    2    3    3    0    0  0.60049939041E+01 -0.36308272774E+02  0.11955612941E+01  0.54367082162E+02  0.39999995404E+02 0.  0.
         12    1    3    3    0    0 -0.60049939041E+01  0.36308272774E+02 -0.11955612941E+01  0.36820917838E+02  0.00000000000E+00 0. -1.
         11    1    4    4    0    0  0.18514497987E+02 -0.30681247754E+02 -0.11474045711E+01  0.35853063146E+02  0.51100000000E-03 0. -1.
        -11    1    4    4    0    0  0.62136569153E+00 -0.48048605806E+01 -0.98290315010E+00  0.49435694984E+01  0.51100000000E-03 0.  1.
        -12    1    4    4    0    0 -0.13130869775E+02 -0.82216443998E+00  0.33258690153E+01  0.13570449518E+02  0.00000000000E+00 0.  1.
</event>
<event>
 8    1  0.2527138E-006  0.9118800E+02  0.7816164E-02  0.1184000E+00
        -11   -1    0    0    0    0  0.00000000000E+00  0.00000000000E+00  0.45593999997E+02  0.45594000000E+02  0.51100000000E-03 0.  1.
         11   -1    0    0    0    0 -0.00000000000E+00 -0.00000000000E+00 -0.45593999997E+02  0.45594000000E+02  0.51100000000E-03 0. -1.
         23    2    1    2    0    0  0.00000000000E+00  0.00000000000E+00 -0.35527136788E-14  0.91188000000E+02  0.91188000000E+02 0.  0.
    9900012    2    3    3    0    0 -0.23884718402E+02  0.10296090166E+02  0.26063207438E+02  0.54367081655E+02  0.39999994248E+02 0.  0.
         12    1    3    3    0    0  0.23884718402E+02 -0.10296090166E+02 -0.26063207438E+02  0.36820918345E+02  0.00000000000E+00 0. -1.
         11    1    4    4    0    0 -0.65591291006E+00  0.96871360155E+01 -0.54319906612E+01  0.11125526897E+02  0.51100000000E-03 0. -1.
        -11    1    4    4    0    0 -0.77553175286E+01  0.33674887866E+01  0.24720187901E+02  0.26126090806E+02  0.51100000000E-03 0.  1.
        -12    1    4    4    0    0 -0.15473487963E+02 -0.27585346364E+01  0.67750101978E+01  0.17115463951E+02  0.00000000000E+00 0.  1.
</event>
<event>
 8    1  0.2527138E-006  0.9118800E+02  0.7816164E-02  0.1184000E+00
        -11   -1    0    0    0    0  0.00000000000E+00  0.00000000000E+00  0.45593999997E+02  0.45594000000E+02  0.51100000000E-03 0. -1.
         11   -1    0    0    0    0 -0.00000000000E+00 -0.00000000000E+00 -0.45593999997E+02  0.45594000000E+02  0.51100000000E-03 0.  1.
         23    2    1    2    0    0 -0.35527136788E-14 -0.88817841970E-15  0.35527136788E-14  0.91188000000E+02  0.91188000000E+02 0.  0.
    9900012    2    3    3    0    0  0.26249271695E+02  0.67149839534E+01 -0.24933210584E+02  0.54367078446E+02  0.39999986934E+02 0.  0.
         12    1    3    3    0    0 -0.26249271695E+02 -0.67149839534E+01  0.24933210584E+02  0.36820921554E+02  0.00000000000E+00 0. -1.
         11    1    4    4    0    0 -0.66677532937E+00  0.20096235580E+01 -0.49011263316E+01  0.53389339539E+01  0.51100000000E-03 0. -1.
        -11    1    4    4    0    0  0.32827141180E+02  0.46211072735E+01 -0.24826593886E+02  0.41416610131E+02  0.51100000000E-03 0.  1.
         12    1    4    4    0    0 -0.59110941560E+01  0.84253121837E-01  0.47945096332E+01  0.76115343613E+01  0.00000000000E+00 0. -1.
</event>
<event>
 8    1  0.2527138E-006  0.9118800E+02  0.7816164E-02  0.1184000E+00
        -11   -1    0    0    0    0  0.00000000000E+00  0.00000000000E+00  0.45593999997E+02  0.45594000000E+02  0.51100000000E-03 0.  1.
         11   -1    0    0    0    0 -0.00000000000E+00 -0.00000000000E+00 -0.45593999997E+02  0.45594000000E+02  0.51100000000E-03 0. -1.
         23    2    1    2    0    0  0.00000000000E+00  0.35527136788E-14 -0.71054273576E-14  0.91188000000E+02  0.91188000000E+02 0.  0.
    9900012    2    3    3    0    0 -0.20962641241E+01  0.12494727865E+02 -0.34572619116E+02  0.54367101855E+02  0.40000040298E+02 0.  0.
        -12    1    3    3    0    0  0.20962641241E+01 -0.12494727865E+02  0.34572619116E+02  0.36820898145E+02  0.00000000000E+00 0.  1.
         11    1    4    4    0    0 -0.77708846824E+01  0.22027595994E+02 -0.32480620521E+02  0.40007403611E+02  0.51100000000E-03 0. -1.
        -11    1    4    4    0    0  0.78545512499E+01 -0.61429374867E+01 -0.37398085654E+00  0.99784526979E+01  0.51100000000E-03 0.  1.
        -12    1    4    4    0    0 -0.21799306916E+01 -0.33899306427E+01 -0.17180177387E+01  0.43812455459E+01  0.00000000000E+00 0.  1.
</event>
<event>
 8    1  0.2527138E-006  0.9118800E+02  0.7816164E-02  0.1184000E+00
        -11   -1    0    0    0    0  0.00000000000E+00  0.00000000000E+00  0.45593999997E+02  0.45594000000E+02  0.51100000000E-03 0.  1.
         11   -1    0    0    0    0 -0.00000000000E+00 -0.00000000000E+00 -0.45593999997E+02  0.45594000000E+02  0.51100000000E-03 0. -1.
         23    2    1    2    0    0  0.17763568394E-14  0.00000000000E+00  0.35527136788E-14  0.91188000000E+02  0.91188000000E+02 0.  0.
    9900012    2    3    3    0    0 -0.13930268063E+02  0.23458737363E+02  0.24727088107E+02  0.54366897175E+02  0.39999573688E+02 0.  0.
         12    1    3    3    0    0  0.13930268063E+02 -0.23458737363E+02 -0.24727088107E+02  0.36821102825E+02  0.00000000000E+00 0. -1.
         11    1    4    4    0    0 -0.10456679462E+02  0.67749862918E+00 -0.25585283351E+01  0.10786436727E+02  0.51100000000E-03 0. -1.
        -11    1    4    4    0    0 -0.48712658186E+01  0.52148638353E+00 -0.31671216091E+01  0.58336813653E+01  0.51100000000E-03 0.  1.
        -12    1    4    4    0    0  0.13976772172E+01  0.22259752350E+02  0.30452738052E+02  0.37746779083E+02  0.00000000000E+00 0.  1.
</event>
<event>
 8    1  0.2527138E-006  0.9118800E+02  0.7816164E-02  0.1184000E+00
        -11   -1    0    0    0    0  0.00000000000E+00  0.00000000000E+00  0.45593999997E+02  0.45594000000E+02  0.51100000000E-03 0. -1.
         11   -1    0    0    0    0 -0.00000000000E+00 -0.00000000000E+00 -0.45593999997E+02  0.45594000000E+02  0.51100000000E-03 0.  1.
         23    2    1    2    0    0  0.00000000000E+00  0.35527136788E-14 -0.35527136788E-14  0.91188000000E+02  0.91188000000E+02 0.  0.
    9900012    2    3    3    0    0  0.35425413635E+01 -0.20659928771E+02  0.30272044849E+02  0.54367096216E+02  0.40000027443E+02 0.  0.
        -12    1    3    3    0    0 -0.35425413635E+01  0.20659928771E+02 -0.30272044849E+02  0.36820903784E+02  0.00000000000E+00 0.  1.
         11    1    4    4    0    0  0.15787845156E+02 -0.19454972405E+02  0.10905957254E+02  0.27325663942E+02  0.51100000000E-03 0. -1.
        -11    1    4    4    0    0  0.94865613040E+00  0.29042147267E+01  0.97197211785E+01  0.10188591251E+02  0.51100000000E-03 0.  1.
        -12    1    4    4    0    0 -0.13193959923E+02 -0.41091710929E+01  0.96463664160E+01  0.16852841023E+02  0.00000000000E+00 0.  1.
</event>
<event>
 8    1  0.2527138E-006  0.9118800E+02  0.7816164E-02  0.1184000E+00
        -11   -1    0    0    0    0  0.00000000000E+00  0.00000000000E+00  0.45593999997E+02  0.45594000000E+02  0.51100000000E-03 0. -1.
         11   -1    0    0    0    0 -0.00000000000E+00 -0.00000000000E+00 -0.45593999997E+02  0.45594000000E+02  0.51100000000E-03 0.  1.
         23    2    1    2    0    0  0.35527136788E-14  0.00000000000E+00  0.00000000000E+00  0.91188000000E+02  0.91188000000E+02 0.  0.
    9900012    2    3    3    0    0 -0.22161697268E+02 -0.22908381875E+01  0.29315359281E+02  0.54367094862E+02  0.40000024356E+02 0.  0.
         12    1    3    3    0    0  0.22161697268E+02  0.22908381875E+01 -0.29315359281E+02  0.36820905138E+02  0.00000000000E+00 0. -1.
         11    1    4    4    0    0 -0.27708851100E+01  0.75136738246E+00  0.80430764364E+01  0.85401074969E+01  0.51100000000E-03 0. -1.
        -11    1    4    4    0    0 -0.27825582464E+02  0.29077557225E+01  0.81669794915E+01  0.29144770321E+02  0.51100000000E-03 0.  1.
        -12    1    4    4    0    0  0.84347703057E+01 -0.59499612925E+01  0.13105303354E+02  0.16682217043E+02  0.00000000000E+00 0.  1.
</event>
<event>
 8    1  0.2527138E-006  0.9118800E+02  0.7816164E-02  0.1184000E+00
        -11   -1    0    0    0    0  0.00000000000E+00  0.00000000000E+00  0.45593999997E+02  0.45594000000E+02  0.51100000000E-03 0.  1.
         11   -1    0    0    0    0 -0.00000000000E+00 -0.00000000000E+00 -0.45593999997E+02  0.45594000000E+02  0.51100000000E-03 0. -1.
         23    2    1    2    0    0  0.17763568394E-14 -0.88817841970E-15  0.00000000000E+00  0.91188000000E+02  0.91188000000E+02 0.  0.
    9900012    2    3    3    0    0 -0.11205716172E+02 -0.46117326877E+01  0.34769910575E+02  0.54367043539E+02  0.39999907356E+02 0.  0.
         12    1    3    3    0    0  0.11205716172E+02  0.46117326877E+01 -0.34769910575E+02  0.36820956461E+02  0.00000000000E+00 0. -1.
         11    1    4    4    0    0  0.77514774716E+01  0.10691838397E+01  0.33725838812E-02  0.78248686067E+01  0.51100000000E-03 0. -1.
        -11    1    4    4    0    0 -0.10887044140E+02 -0.90394115027E+01  0.42153203683E+01  0.14765080985E+02  0.51100000000E-03 0.  1.
        -12    1    4    4    0    0 -0.80701495037E+01  0.33584949752E+01  0.30551217623E+02  0.31777093948E+02  0.00000000000E+00 0.  1.
</event>
<event>
 8    1  0.2527138E-006  0.9118800E+02  0.7816164E-02  0.1184000E+00
        -11   -1    0    0    0    0  0.00000000000E+00  0.00000000000E+00  0.45593999997E+02  0.45594000000E+02  0.51100000000E-03 0.  1.
         11   -1    0    0    0    0 -0.00000000000E+00 -0.00000000000E+00 -0.45593999997E+02  0.45594000000E+02  0.51100000000E-03 0. -1.
         23    2    1    2    0    0  0.00000000000E+00  0.35527136788E-14  0.88817841970E-15  0.91188000000E+02  0.91188000000E+02 0.  0.
    9900012    2    3    3    0    0 -0.20806441357E+02 -0.30048540328E+02 -0.44673134531E+01  0.54367086550E+02  0.40000005409E+02 0.  0.
        -12    1    3    3    0    0  0.20806441357E+02  0.30048540328E+02  0.44673134531E+01  0.36820913450E+02  0.00000000000E+00 0.  1.
         11    1    4    4    0    0 -0.15540565471E+02 -0.35114456438E+02  0.77446393183E+01  0.39172868985E+02  0.51100000000E-03 0. -1.
        -11    1    4    4    0    0 -0.40565519219E+01  0.24910895232E+00 -0.58547925147E+01  0.71271498102E+01  0.51100000000E-03 0.  1.
         12    1    4    4    0    0 -0.12093239639E+01  0.48168071571E+01 -0.63571602566E+01  0.80670677552E+01  0.00000000000E+00 0. -1.
</event>
<event>
 8    1  0.2527138E-006  0.9118800E+02  0.7816164E-02  0.1184000E+00
        -11   -1    0    0    0    0  0.00000000000E+00  0.00000000000E+00  0.45593999997E+02  0.45594000000E+02  0.51100000000E-03 0.  1.
         11   -1    0    0    0    0 -0.00000000000E+00 -0.00000000000E+00 -0.45593999997E+02  0.45594000000E+02  0.51100000000E-03 0. -1.
         23    2    1    2    0    0  0.00000000000E+00  0.00000000000E+00  0.00000000000E+00  0.91188000000E+02  0.91188000000E+02 0.  0.
    9900012    2    3    3    0    0  0.35847391339E+02 -0.66546164045E+01 -0.51439738489E+01  0.54367084038E+02  0.39999999682E+02 0.  0.
        -12    1    3    3    0    0 -0.35847391339E+02  0.66546164045E+01  0.51439738489E+01  0.36820915962E+02  0.00000000000E+00 0.  1.
         11    1    4    4    0    0  0.19700642173E+02 -0.81288261631E+01 -0.14444180840E+02  0.25745436046E+02  0.51100000000E-03 0. -1.
        -11    1    4    4    0    0  0.65532473621E+01 -0.10063607069E+02  0.32377398258E+01  0.12438014217E+02  0.51100000000E-03 0.  1.
        -12    1    4    4    0    0  0.95935018039E+01  0.11537816828E+02  0.60624671652E+01  0.16183633774E+02  0.00000000000E+00 0.  1.
</event>
<event>
 8    1  0.2527138E-006  0.9118800E+02  0.7816164E-02  0.1184000E+00
        -11   -1    0    0    0    0  0.00000000000E+00  0.00000000000E+00  0.45593999997E+02  0.45594000000E+02  0.51100000000E-03 0.  1.
         11   -1    0    0    0    0 -0.00000000000E+00 -0.00000000000E+00 -0.45593999997E+02  0.45594000000E+02  0.51100000000E-03 0. -1.
         23    2    1    2    0    0  0.00000000000E+00  0.00000000000E+00  0.35527136788E-14  0.91188000000E+02  0.91188000000E+02 0.  0.
    9900012    2    3    3    0    0  0.11251963450E+02  0.17543360817E+02 -0.30354640324E+02  0.54367076880E+02  0.39999983362E+02 0.  0.
        -12    1    3    3    0    0 -0.11251963450E+02 -0.17543360817E+02  0.30354640324E+02  0.36820923120E+02  0.00000000000E+00 0.  1.
         11    1    4    4    0    0  0.43963731159E+01  0.21802920911E+02 -0.31129988013E+02  0.38259268299E+02  0.51100000000E-03 0. -1.
        -11    1    4    4    0    0 -0.34089762921E+01 -0.43325517923E+01  0.17819526921E+01  0.57937449073E+01  0.51100000000E-03 0.  1.
         12    1    4    4    0    0  0.10264566627E+02  0.72991698541E-01 -0.10066050026E+01  0.10314063673E+02  0.00000000000E+00 0. -1.
</event>
<event>
 8    1  0.2527138E-006  0.9118800E+02  0.7816164E-02  0.1184000E+00
        -11   -1    0    0    0    0  0.00000000000E+00  0.00000000000E+00  0.45593999997E+02  0.45594000000E+02  0.51100000000E-03 0.  1.
         11   -1    0    0    0    0 -0.00000000000E+00 -0.00000000000E+00 -0.45593999997E+02  0.45594000000E+02  0.51100000000E-03 0. -1.
         23    2    1    2    0    0  0.00000000000E+00 -0.35527136788E-14 -0.35527136788E-14  0.91188000000E+02  0.91188000000E+02 0.  0.
    9900012    2    3    3    0    0 -0.36828306328E+01 -0.22255713812E+02 -0.29101698302E+02  0.54366961411E+02  0.39999720127E+02 0.  0.
        -12    1    3    3    0    0  0.36828306328E+01  0.22255713812E+02  0.29101698302E+02  0.36821038589E+02  0.00000000000E+00 0.  1.
         11    1    4    4    0    0  0.59822607766E+01 -0.16302809049E+02 -0.32792097154E+00  0.17368838744E+02  0.51100000000E-03 0. -1.
        -11    1    4    4    0    0  0.31556890298E+01 -0.80480240619E+01 -0.52172392467E+01  0.10096962423E+02  0.51100000000E-03 0.  1.
        -12    1    4    4    0    0 -0.12820780439E+02  0.20951192994E+01 -0.23556538084E+02  0.26901160244E+02  0.00000000000E+00 0.  1.
</event>
<event>
 8    1  0.2527138E-006  0.9118800E+02  0.7816164E-02  0.1184000E+00
        -11   -1    0    0    0    0  0.00000000000E+00  0.00000000000E+00  0.45593999997E+02  0.45594000000E+02  0.51100000000E-03 0. -1.
         11   -1    0    0    0    0 -0.00000000000E+00 -0.00000000000E+00 -0.45593999997E+02  0.45594000000E+02  0.51100000000E-03 0.  1.
         23    2    1    2    0    0  0.00000000000E+00  0.17763568394E-14  0.13322676296E-14  0.91188000000E+02  0.91188000000E+02 0.  0.
    9900012    2    3    3    0    0  0.34561634359E+02  0.12667317622E+02 -0.90166829352E+00  0.54367075093E+02  0.39999979289E+02 0.  0.
         12    1    3    3    0    0 -0.34561634359E+02 -0.12667317622E+02  0.90166829352E+00  0.36820924907E+02  0.00000000000E+00 0. -1.
         11    1    4    4    0    0  0.23537097982E+02  0.16508799876E+02  0.67794712499E+01  0.29538054869E+02  0.51100000000E-03 0. -1.
        -11    1    4    4    0    0  0.83802249737E+01 -0.54988048153E+01  0.53968731933E+01  0.11383815948E+02  0.51100000000E-03 0.  1.
        -12    1    4    4    0    0  0.26443114038E+01  0.16573225605E+01 -0.13078012737E+02  0.13445204276E+02  0.00000000000E+00 0.  1.
</event>
<event>
 8    1  0.2527138E-006  0.9118800E+02  0.7816164E-02  0.1184000E+00
        -11   -1    0    0    0    0  0.00000000000E+00  0.00000000000E+00  0.45593999997E+02  0.45594000000E+02  0.51100000000E-03 0. -1.
         11   -1    0    0    0    0 -0.00000000000E+00 -0.00000000000E+00 -0.45593999997E+02  0.45594000000E+02  0.51100000000E-03 0.  1.
         23    2    1    2    0    0 -0.71054273576E-14  0.17763568394E-14 -0.44408920985E-15  0.91188000000E+02  0.91188000000E+02 0.  0.
    9900012    2    3    3    0    0 -0.34357008461E+02  0.12665703247E+02 -0.38673422774E+01  0.54367076527E+02  0.39999982558E+02 0.  0.
        -12    1    3    3    0    0  0.34357008461E+02 -0.12665703247E+02  0.38673422774E+01  0.36820923473E+02  0.00000000000E+00 0.  1.
         11    1    4    4    0    0 -0.16282311149E+02 -0.36847957817E+00  0.29740731439E+01  0.16555800944E+02  0.51100000000E-03 0. -1.
        -11    1    4    4    0    0 -0.14156887619E+02 -0.75232031924E+01 -0.90059772455E+00  0.16056996290E+02  0.51100000000E-03 0.  1.
         12    1    4    4    0    0 -0.39178096926E+01  0.20557386017E+02 -0.59408176968E+01  0.21754279293E+02  0.00000000000E+00 0. -1.
</event>
<event>
 8    1  0.2527138E-006  0.9118800E+02  0.7816164E-02  0.1184000E+00
        -11   -1    0    0    0    0  0.00000000000E+00  0.00000000000E+00  0.45593999997E+02  0.45594000000E+02  0.51100000000E-03 0.  1.
         11   -1    0    0    0    0 -0.00000000000E+00 -0.00000000000E+00 -0.45593999997E+02  0.45594000000E+02  0.51100000000E-03 0. -1.
         23    2    1    2    0    0  0.00000000000E+00  0.35527136788E-14  0.00000000000E+00  0.91188000000E+02  0.91188000000E+02 0.  0.
    9900012    2    3    3    0    0  0.19048841113E+02  0.20768164608E+02 -0.23698200950E+02  0.54367085601E+02  0.40000003244E+02 0.  0.
        -12    1    3    3    0    0 -0.19048841113E+02 -0.20768164608E+02  0.23698200950E+02  0.36820914399E+02  0.00000000000E+00 0.  1.
         11    1    4    4    0    0  0.15532614392E+01  0.39022778483E+01  0.57718443496E-01  0.42004434508E+01  0.51100000000E-03 0. -1.
        -11    1    4    4    0    0 -0.46719748938E+01  0.13172227840E+02  0.39199988138E+01  0.14515554644E+02  0.51100000000E-03 0.  1.
         12    1    4    4    0    0  0.22167554567E+02  0.36936589198E+01 -0.27675918207E+02  0.35651087506E+02  0.00000000000E+00 0. -1.
</event>
<event>
 8    1  0.2527138E-006  0.9118800E+02  0.7816164E-02  0.1184000E+00
        -11   -1    0    0    0    0  0.00000000000E+00  0.00000000000E+00  0.45593999997E+02  0.45594000000E+02  0.51100000000E-03 0.  1.
         11   -1    0    0    0    0 -0.00000000000E+00 -0.00000000000E+00 -0.45593999997E+02  0.45594000000E+02  0.51100000000E-03 0. -1.
         23    2    1    2    0    0  0.00000000000E+00 -0.35527136788E-14  0.00000000000E+00  0.91188000000E+02  0.91188000000E+02 0.  0.
    9900012    2    3    3    0    0  0.21224829641E+02 -0.20826672092E+02  0.21714884281E+02  0.54367083892E+02  0.39999999348E+02 0.  0.
         12    1    3    3    0    0 -0.21224829641E+02  0.20826672092E+02 -0.21714884281E+02  0.36820916108E+02  0.00000000000E+00 0. -1.
         11    1    4    4    0    0  0.31040924310E+02 -0.11593357775E+02  0.11812939747E+02  0.35177982777E+02  0.51100000000E-03 0. -1.
        -11    1    4    4    0    0  0.18697149821E+01 -0.84325649977E+00  0.12175248160E+01  0.23852217040E+01  0.51100000000E-03 0.  1.
        -12    1    4    4    0    0 -0.11685809652E+02 -0.83900578174E+01  0.86844197177E+01  0.16803879410E+02  0.00000000000E+00 0.  1.
</event>
<event>
 8    1  0.2527138E-006  0.9118800E+02  0.7816164E-02  0.1184000E+00
        -11   -1    0    0    0    0  0.00000000000E+00  0.00000000000E+00  0.45593999997E+02  0.45594000000E+02  0.51100000000E-03 0.  1.
         11   -1    0    0    0    0 -0.00000000000E+00 -0.00000000000E+00 -0.45593999997E+02  0.45594000000E+02  0.51100000000E-03 0. -1.
         23    2    1    2    0    0  0.00000000000E+00  0.35527136788E-14  0.00000000000E+00  0.91188000000E+02  0.91188000000E+02 0.  0.
    9900012    2    3    3    0    0 -0.26266387453E+02 -0.25375615796E+02  0.46834670010E+01  0.54367084069E+02  0.39999999752E+02 0.  0.
         12    1    3    3    0    0  0.26266387453E+02  0.25375615796E+02 -0.46834670010E+01  0.36820915931E+02  0.00000000000E+00 0. -1.
         11    1    4    4    0    0 -0.24751333292E+02 -0.20195499089E+02 -0.71824537928E+01  0.32742546112E+02  0.51100000000E-03 0. -1.
        -11    1    4    4    0    0 -0.27985581290E+01 -0.11081180665E+02  0.49837926470E+01  0.12468467506E+02  0.51100000000E-03 0.  1.
        -12    1    4    4    0    0  0.12835039675E+01  0.59010639583E+01  0.68821281469E+01  0.91560704510E+01  0.00000000000E+00 0.  1.
</event>
<event>
 8    1  0.2527138E-006  0.9118800E+02  0.7816164E-02  0.1184000E+00
        -11   -1    0    0    0    0  0.00000000000E+00  0.00000000000E+00  0.45593999997E+02  0.45594000000E+02  0.51100000000E-03 0.  1.
         11   -1    0    0    0    0 -0.00000000000E+00 -0.00000000000E+00 -0.45593999997E+02  0.45594000000E+02  0.51100000000E-03 0. -1.
         23    2    1    2    0    0  0.71054273576E-14  0.11102230246E-15  0.00000000000E+00  0.91188000000E+02  0.91188000000E+02 0.  0.
    9900012    2    3    3    0    0 -0.34402709809E+02 -0.66578494945E+00 -0.13106862191E+02  0.54367088165E+02  0.40000009091E+02 0.  0.
        -12    1    3    3    0    0  0.34402709809E+02  0.66578494945E+00  0.13106862191E+02  0.36820911835E+02  0.00000000000E+00 0.  1.
         11    1    4    4    0    0 -0.28622128504E+02 -0.11077136424E+01 -0.29852579385E+01  0.28798698492E+02  0.51100000000E-03 0. -1.
        -11    1    4    4    0    0  0.72621436789E+00  0.55404698579E+01 -0.14974263399E+02  0.15982889544E+02  0.51100000000E-03 0.  1.
        -12    1    4    4    0    0 -0.65067956731E+01 -0.50985411649E+01  0.48526591464E+01  0.95855001295E+01  0.00000000000E+00 0.  1.
</event>
<event>
 8    1  0.2527138E-006  0.9118800E+02  0.7816164E-02  0.1184000E+00
        -11   -1    0    0    0    0  0.00000000000E+00  0.00000000000E+00  0.45593999997E+02  0.45594000000E+02  0.51100000000E-03 0. -1.
         11   -1    0    0    0    0 -0.00000000000E+00 -0.00000000000E+00 -0.45593999997E+02  0.45594000000E+02  0.51100000000E-03 0.  1.
         23    2    1    2    0    0  0.00000000000E+00  0.35527136788E-14  0.17763568394E-14  0.91188000000E+02  0.91188000000E+02 0.  0.
    9900012    2    3    3    0    0 -0.32048462762E+02 -0.16883929117E+02  0.66036837083E+01  0.54367086563E+02  0.40000005437E+02 0.  0.
        -12    1    3    3    0    0  0.32048462762E+02  0.16883929117E+02 -0.66036837083E+01  0.36820913437E+02  0.00000000000E+00 0.  1.
         11    1    4    4    0    0 -0.15872356389E+01  0.95185656591E+01  0.13980571322E+01  0.97507421864E+01  0.51100000000E-03 0. -1.
        -11    1    4    4    0    0 -0.31221442542E+01 -0.23990285730E+01 -0.54346745335E+01  0.67110960643E+01  0.51100000000E-03 0.  1.
         12    1    4    4    0    0 -0.27339082869E+02 -0.24003466203E+02  0.10640301110E+02  0.37905248312E+02  0.00000000000E+00 0. -1.
</event>
<event>
 8    1  0.2527138E-006  0.9118800E+02  0.7816164E-02  0.1184000E+00
        -11   -1    0    0    0    0  0.00000000000E+00  0.00000000000E+00  0.45593999997E+02  0.45594000000E+02  0.51100000000E-03 0. -1.
         11   -1    0    0    0    0 -0.00000000000E+00 -0.00000000000E+00 -0.45593999997E+02  0.45594000000E+02  0.51100000000E-03 0.  1.
         23    2    1    2    0    0  0.00000000000E+00  0.00000000000E+00  0.00000000000E+00  0.91188000000E+02  0.91188000000E+02 0.  0.
    9900012    2    3    3    0    0 -0.43691035491E+01 -0.31122323049E+02  0.19185701014E+02  0.54367093151E+02  0.40000020456E+02 0.  0.
        -12    1    3    3    0    0  0.43691035491E+01  0.31122323049E+02 -0.19185701014E+02  0.36820906849E+02  0.00000000000E+00 0.  1.
         11    1    4    4    0    0 -0.14323617815E+01 -0.99921685318E+01  0.25879493301E+02  0.27778467669E+02  0.51100000000E-03 0. -1.
        -11    1    4    4    0    0 -0.31804215852E+01 -0.90082519765E+01  0.40620790266E+01  0.10380952336E+02  0.51100000000E-03 0.  1.
        -12    1    4    4    0    0  0.24367981760E+00 -0.12121902541E+02 -0.10755871314E+02  0.16207673145E+02  0.00000000000E+00 0.  1.
</event>
<event>
 8    1  0.2527138E-006  0.9118800E+02  0.7816164E-02  0.1184000E+00
        -11   -1    0    0    0    0  0.00000000000E+00  0.00000000000E+00  0.45593999997E+02  0.45594000000E+02  0.51100000000E-03 0.  1.
         11   -1    0    0    0    0 -0.00000000000E+00 -0.00000000000E+00 -0.45593999997E+02  0.45594000000E+02  0.51100000000E-03 0. -1.
         23    2    1    2    0    0 -0.17763568394E-14 -0.88817841970E-15  0.00000000000E+00  0.91188000000E+02  0.91188000000E+02 0.  0.
    9900012    2    3    3    0    0 -0.89959285915E+01 -0.69420693150E+01 -0.35023709181E+02  0.54367092049E+02  0.40000017943E+02 0.  0.
        -12    1    3    3    0    0  0.89959285915E+01  0.69420693150E+01  0.35023709181E+02  0.36820907951E+02  0.00000000000E+00 0.  1.
         11    1    4    4    0    0 -0.12104577164E+02 -0.41249564538E+01 -0.13634073030E+02  0.18692886394E+02  0.51100000000E-03 0. -1.
        -11    1    4    4    0    0 -0.14271356201E+00 -0.78210457781E+00 -0.28010891125E+02  0.28022171162E+02  0.51100000000E-03 0.  1.
        -12    1    4    4    0    0  0.32513621344E+01 -0.20350082834E+01  0.66212549751E+01  0.76520344934E+01  0.00000000000E+00 0.  1.
</event>
<event>
 8    1  0.2527138E-006  0.9118800E+02  0.7816164E-02  0.1184000E+00
        -11   -1    0    0    0    0  0.00000000000E+00  0.00000000000E+00  0.45593999997E+02  0.45594000000E+02  0.51100000000E-03 0. -1.
         11   -1    0    0    0    0 -0.00000000000E+00 -0.00000000000E+00 -0.45593999997E+02  0.45594000000E+02  0.51100000000E-03 0.  1.
         23    2    1    2    0    0  0.00000000000E+00  0.00000000000E+00  0.00000000000E+00  0.91188000000E+02  0.91188000000E+02 0.  0.
    9900012    2    3    3    0    0  0.31023328087E+02  0.19395052081E+02  0.41430072694E+01  0.54367089636E+02  0.40000012442E+02 0.  0.
        -12    1    3    3    0    0 -0.31023328087E+02 -0.19395052081E+02 -0.41430072694E+01  0.36820910364E+02  0.00000000000E+00 0.  1.
         11    1    4    4    0    0 -0.61995421063E+01  0.66276557951E+01 -0.18321965246E+01  0.92583523389E+01  0.51100000000E-03 0. -1.
        -11    1    4    4    0    0 -0.26033581640E+01 -0.63908570009E+00  0.15127357389E+00  0.26849186612E+01  0.51100000000E-03 0.  1.
         12    1    4    4    0    0  0.39826228357E+02  0.13406481986E+02  0.58239302201E+01  0.42423818636E+02  0.00000000000E+00 0. -1.
</event>
<event>
 8    1  0.2527138E-006  0.9118800E+02  0.7816164E-02  0.1184000E+00
        -11   -1    0    0    0    0  0.00000000000E+00  0.00000000000E+00  0.45593999997E+02  0.45594000000E+02  0.51100000000E-03 0.  1.
         11   -1    0    0    0    0 -0.00000000000E+00 -0.00000000000E+00 -0.45593999997E+02  0.45594000000E+02  0.51100000000E-03 0. -1.
         23    2    1    2    0    0  0.00000000000E+00  0.17763568394E-14  0.17763568394E-14  0.91188000000E+02  0.91188000000E+02 0.  0.
    9900012    2    3    3    0    0  0.32136716532E+02  0.10100337144E+02  0.14865803256E+02  0.54367116438E+02  0.40000073543E+02 0.  0.
         12    1    3    3    0    0 -0.32136716532E+02 -0.10100337144E+02 -0.14865803256E+02  0.36820883562E+02  0.00000000000E+00 0. -1.
         11    1    4    4    0    0 -0.88852027446E+00 -0.38859159861E+01 -0.23521182472E+01  0.46284200154E+01  0.51100000000E-03 0. -1.
        -11    1    4    4    0    0  0.19704209528E+01  0.13614344550E+02 -0.89574038358E+00  0.13785328700E+02  0.51100000000E-03 0.  1.
         12    1    4    4    0    0  0.31054815853E+02  0.37190857996E+00  0.18113661887E+02  0.35953367723E+02  0.00000000000E+00 0. -1.
</event>
<event>
 8    1  0.2527138E-006  0.9118800E+02  0.7816164E-02  0.1184000E+00
        -11   -1    0    0    0    0  0.00000000000E+00  0.00000000000E+00  0.45593999997E+02  0.45594000000E+02  0.51100000000E-03 0. -1.
         11   -1    0    0    0    0 -0.00000000000E+00 -0.00000000000E+00 -0.45593999997E+02  0.45594000000E+02  0.51100000000E-03 0.  1.
         23    2    1    2    0    0  0.88817841970E-15  0.00000000000E+00 -0.35527136788E-14  0.91188000000E+02  0.91188000000E+02 0.  0.
    9900012    2    3    3    0    0 -0.63062864270E+01 -0.26562946595E+02 -0.24706675808E+02  0.54367092762E+02  0.40000019570E+02 0.  0.
         12    1    3    3    0    0  0.63062864270E+01  0.26562946595E+02  0.24706675808E+02  0.36820907238E+02  0.00000000000E+00 0. -1.
         11    1    4    4    0    0  0.21067030206E+01  0.25199471004E+01  0.24069275574E+01  0.40720549521E+01  0.51100000000E-03 0. -1.
        -11    1    4    4    0    0  0.46628394397E+01 -0.18297923629E+01  0.43716244405E+01  0.66484067446E+01  0.51100000000E-03 0.  1.
        -12    1    4    4    0    0 -0.13075828887E+02 -0.27253101333E+02 -0.31485227806E+02  0.43646631065E+02  0.00000000000E+00 0.  1.
</event>
<event>
 8    1  0.2527138E-006  0.9118800E+02  0.7816164E-02  0.1184000E+00
        -11   -1    0    0    0    0  0.00000000000E+00  0.00000000000E+00  0.45593999997E+02  0.45594000000E+02  0.51100000000E-03 0.  1.
         11   -1    0    0    0    0 -0.00000000000E+00 -0.00000000000E+00 -0.45593999997E+02  0.45594000000E+02  0.51100000000E-03 0. -1.
         23    2    1    2    0    0  0.00000000000E+00  0.00000000000E+00  0.00000000000E+00  0.91188000000E+02  0.91188000000E+02 0.  0.
    9900012    2    3    3    0    0 -0.32413542097E+02 -0.12299455517E+02  0.12404211775E+02  0.54367098503E+02  0.40000032657E+02 0.  0.
         12    1    3    3    0    0  0.32413542097E+02  0.12299455517E+02 -0.12404211775E+02  0.36820901497E+02  0.00000000000E+00 0. -1.
         11    1    4    4    0    0  0.40940127974E+01  0.88212698553E+01  0.48961904391E+01  0.10887994477E+02  0.51100000000E-03 0. -1.
        -11    1    4    4    0    0 -0.23363897237E+02 -0.17466523029E+02  0.56083916974E+01  0.29705305562E+02  0.51100000000E-03 0.  1.
        -12    1    4    4    0    0 -0.13143657657E+02 -0.36542023432E+01  0.18996296384E+01  0.13773798464E+02  0.00000000000E+00 0.  1.
</event>
<event>
 8    1  0.2527138E-006  0.9118800E+02  0.7816164E-02  0.1184000E+00
        -11   -1    0    0    0    0  0.00000000000E+00  0.00000000000E+00  0.45593999997E+02  0.45594000000E+02  0.51100000000E-03 0. -1.
         11   -1    0    0    0    0 -0.00000000000E+00 -0.00000000000E+00 -0.45593999997E+02  0.45594000000E+02  0.51100000000E-03 0.  1.
         23    2    1    2    0    0 -0.35527136788E-14  0.00000000000E+00  0.35527136788E-14  0.91188000000E+02  0.91188000000E+02 0.  0.
    9900012    2    3    3    0    0 -0.23248870644E+02  0.10645418763E+02  0.26494245772E+02  0.54367082224E+02  0.39999995546E+02 0.  0.
         12    1    3    3    0    0  0.23248870644E+02 -0.10645418763E+02 -0.26494245772E+02  0.36820917776E+02  0.00000000000E+00 0. -1.
         11    1    4    4    0    0 -0.43548023953E+01  0.12918617363E+02 -0.21002110043E+01  0.13793689318E+02  0.51100000000E-03 0. -1.
        -11    1    4    4    0    0  0.80039885845E+00  0.65181180098E+01  0.10673651147E+02  0.12532091996E+02  0.51100000000E-03 0.  1.
        -12    1    4    4    0    0 -0.19694467107E+02 -0.87913166096E+01  0.17920805629E+02  0.28041300910E+02  0.00000000000E+00 0.  1.
</event>
<event>
 8    1  0.2527138E-006  0.9118800E+02  0.7816164E-02  0.1184000E+00
        -11   -1    0    0    0    0  0.00000000000E+00  0.00000000000E+00  0.45593999997E+02  0.45594000000E+02  0.51100000000E-03 0. -1.
         11   -1    0    0    0    0 -0.00000000000E+00 -0.00000000000E+00 -0.45593999997E+02  0.45594000000E+02  0.51100000000E-03 0.  1.
         23    2    1    2    0    0 -0.44408920985E-15  0.00000000000E+00  0.00000000000E+00  0.91188000000E+02  0.91188000000E+02 0.  0.
    9900012    2    3    3    0    0 -0.33618693261E+01 -0.23960333013E+02  0.27755723702E+02  0.54367083095E+02  0.39999997533E+02 0.  0.
        -12    1    3    3    0    0  0.33618693261E+01  0.23960333013E+02 -0.27755723702E+02  0.36820916905E+02  0.00000000000E+00 0.  1.
         11    1    4    4    0    0  0.11429063076E+00 -0.15502719365E+02  0.68129000546E+01  0.16934077402E+02  0.51100000000E-03 0. -1.
        -11    1    4    4    0    0 -0.53537994004E+01  0.67889798382E+01 -0.28572140112E+01  0.91058820237E+01  0.51100000000E-03 0.  1.
        -12    1    4    4    0    0  0.18776394436E+01 -0.15246593486E+02  0.23800037659E+02  0.28327123669E+02  0.00000000000E+00 0.  1.
</event>
<event>
 8    1  0.2527138E-006  0.9118800E+02  0.7816164E-02  0.1184000E+00
        -11   -1    0    0    0    0  0.00000000000E+00  0.00000000000E+00  0.45593999997E+02  0.45594000000E+02  0.51100000000E-03 0. -1.
         11   -1    0    0    0    0 -0.00000000000E+00 -0.00000000000E+00 -0.45593999997E+02  0.45594000000E+02  0.51100000000E-03 0.  1.
         23    2    1    2    0    0  0.00000000000E+00  0.17763568394E-14  0.00000000000E+00  0.91188000000E+02  0.91188000000E+02 0.  0.
    9900012    2    3    3    0    0 -0.33933116689E+02 -0.59456745027E+01  0.12998918782E+02  0.54367090953E+02  0.40000015445E+02 0.  0.
        -12    1    3    3    0    0  0.33933116689E+02  0.59456745027E+01 -0.12998918782E+02  0.36820909047E+02  0.00000000000E+00 0.  1.
         11    1    4    4    0    0 -0.48706081257E-02  0.24792584871E+01  0.38406135409E+01  0.45713301128E+01  0.51100000000E-03 0.  1.
        -11    1    4    4    0    0 -0.13609736475E+02  0.87080165338E+01  0.15588470594E+02  0.22451166887E+02  0.51100000000E-03 0. -1.
        -12    1    4    4    0    0 -0.20318509606E+02 -0.17132949524E+02 -0.64301653524E+01  0.27344593953E+02  0.00000000000E+00 0.  1.
</event>
<event>
 8    1  0.2527138E-006  0.9118800E+02  0.7816164E-02  0.1184000E+00
        -11   -1    0    0    0    0  0.00000000000E+00  0.00000000000E+00  0.45593999997E+02  0.45594000000E+02  0.51100000000E-03 0.  1.
         11   -1    0    0    0    0 -0.00000000000E+00 -0.00000000000E+00 -0.45593999997E+02  0.45594000000E+02  0.51100000000E-03 0. -1.
         23    2    1    2    0    0  0.00000000000E+00 -0.35527136788E-14  0.00000000000E+00  0.91188000000E+02  0.91188000000E+02 0.  0.
    9900012    2    3    3    0    0 -0.24456875436E+02 -0.23468572808E+02 -0.14382889177E+02  0.54367079767E+02  0.39999989944E+02 0.  0.
        -12    1    3    3    0    0  0.24456875436E+02  0.23468572808E+02  0.14382889177E+02  0.36820920233E+02  0.00000000000E+00 0.  1.
         11    1    4    4    0    0 -0.15612008163E+02 -0.22065390107E+02 -0.22108409959E+02  0.34919880163E+02  0.51100000000E-03 0. -1.
        -11    1    4    4    0    0 -0.68684641337E+01  0.45543057127E+01 -0.14122347965E+01  0.83613340719E+01  0.51100000000E-03 0.  1.
        -12    1    4    4    0    0 -0.19764031400E+01 -0.59574884140E+01  0.91377555787E+01  0.11085865532E+02  0.00000000000E+00 0.  1.
</event>
<event>
 8    1  0.2527138E-006  0.9118800E+02  0.7816164E-02  0.1184000E+00
        -11   -1    0    0    0    0  0.00000000000E+00  0.00000000000E+00  0.45593999997E+02  0.45594000000E+02  0.51100000000E-03 0.  1.
         11   -1    0    0    0    0 -0.00000000000E+00 -0.00000000000E+00 -0.45593999997E+02  0.45594000000E+02  0.51100000000E-03 0. -1.
         23    2    1    2    0    0 -0.71054273576E-14  0.17763568394E-14 -0.17763568394E-14  0.91188000000E+02  0.91188000000E+02 0.  0.
    9900012    2    3    3    0    0  0.32607035302E+02 -0.11372055857E+02  0.12776443256E+02  0.54367083283E+02  0.39999997961E+02 0.  0.
         12    1    3    3    0    0 -0.32607035302E+02  0.11372055857E+02 -0.12776443256E+02  0.36820916717E+02  0.00000000000E+00 0. -1.
         11    1    4    4    0    0  0.23887903181E+02 -0.15832750540E+02  0.12358244078E+01  0.28685103630E+02  0.51100000000E-03 0. -1.
        -11    1    4    4    0    0  0.56784632997E+01 -0.72190781691E+01  0.30084086333E+00  0.91896975219E+01  0.51100000000E-03 0.  1.
        -12    1    4    4    0    0  0.30406688214E+01  0.11679772852E+02  0.11239777985E+02  0.16492282132E+02  0.00000000000E+00 0.  1.
</event>
<event>
 8    1  0.2527138E-006  0.9118800E+02  0.7816164E-02  0.1184000E+00
        -11   -1    0    0    0    0  0.00000000000E+00  0.00000000000E+00  0.45593999997E+02  0.45594000000E+02  0.51100000000E-03 0. -1.
         11   -1    0    0    0    0 -0.00000000000E+00 -0.00000000000E+00 -0.45593999997E+02  0.45594000000E+02  0.51100000000E-03 0.  1.
         23    2    1    2    0    0  0.35527136788E-14 -0.35527136788E-14 -0.35527136788E-14  0.91188000000E+02  0.91188000000E+02 0.  0.
    9900012    2    3    3    0    0 -0.23889142193E+02  0.22260534581E+02  0.17016408975E+02  0.54367072677E+02  0.39999973782E+02 0.  0.
        -12    1    3    3    0    0  0.23889142193E+02 -0.22260534581E+02 -0.17016408975E+02  0.36820927323E+02  0.00000000000E+00 0.  1.
         11    1    4    4    0    0 -0.45700360261E+00 -0.61022474177E+01  0.16302159677E+01  0.63327624463E+01  0.51100000000E-03 0. -1.
        -11    1    4    4    0    0  0.85580492037E+00  0.17867413541E+02  0.11565914869E+02  0.21301343989E+02  0.51100000000E-03 0.  1.
        -12    1    4    4    0    0 -0.24287943511E+02  0.10495368457E+02  0.38202781382E+01  0.26732966242E+02  0.00000000000E+00 0.  1.
</event>
<event>
 8    1  0.2527138E-006  0.9118800E+02  0.7816164E-02  0.1184000E+00
        -11   -1    0    0    0    0  0.00000000000E+00  0.00000000000E+00  0.45593999997E+02  0.45594000000E+02  0.51100000000E-03 0.  1.
         11   -1    0    0    0    0 -0.00000000000E+00 -0.00000000000E+00 -0.45593999997E+02  0.45594000000E+02  0.51100000000E-03 0. -1.
         23    2    1    2    0    0  0.88817841970E-15  0.00000000000E+00  0.17763568394E-14  0.91188000000E+02  0.91188000000E+02 0.  0.
    9900012    2    3    3    0    0  0.44753817401E+01 -0.35013763894E+02 -0.10478015424E+02  0.54367061514E+02  0.39999948334E+02 0.  0.
         12    1    3    3    0    0 -0.44753817401E+01  0.35013763894E+02  0.10478015424E+02  0.36820938486E+02  0.00000000000E+00 0. -1.
         11    1    4    4    0    0  0.93062880561E+01 -0.29926991989E+01 -0.17742960586E+01  0.99353597139E+01  0.51100000000E-03 0. -1.
        -11    1    4    4    0    0  0.99415123900E+01 -0.14992907913E+02  0.41774433408E+01  0.18468134432E+02  0.51100000000E-03 0.  1.
         12    1    4    4    0    0 -0.14772418706E+02 -0.17028156782E+02 -0.12881162706E+02  0.25963567368E+02  0.00000000000E+00 0. -1.
</event>
<event>
 8    1  0.2527138E-006  0.9118800E+02  0.7816164E-02  0.1184000E+00
        -11   -1    0    0    0    0  0.00000000000E+00  0.00000000000E+00  0.45593999997E+02  0.45594000000E+02  0.51100000000E-03 0.  1.
         11   -1    0    0    0    0 -0.00000000000E+00 -0.00000000000E+00 -0.45593999997E+02  0.45594000000E+02  0.51100000000E-03 0. -1.
         23    2    1    2    0    0  0.44408920985E-15 -0.35527136788E-14 -0.71054273576E-14  0.91188000000E+02  0.91188000000E+02 0.  0.
    9900012    2    3    3    0    0 -0.31884553043E+01 -0.17542440186E+02 -0.32216041943E+02  0.54367125304E+02  0.40000093756E+02 0.  0.
        -12    1    3    3    0    0  0.31884553043E+01  0.17542440186E+02  0.32216041943E+02  0.36820874696E+02  0.00000000000E+00 0.  1.
         11    1    4    4    0    0  0.62378606047E+01 -0.40801636011E+00 -0.27026901101E+01  0.68104270326E+01  0.51100000000E-03 0. -1.
        -11    1    4    4    0    0 -0.27945227114E+01  0.21730138585E+01 -0.26718077735E+02  0.26951568128E+02  0.51100000000E-03 0.  1.
         12    1    4    4    0    0 -0.66317931976E+01 -0.19307437685E+02 -0.27952740974E+01  0.20605130144E+02  0.00000000000E+00 0. -1.
</event>
<event>
 8    1  0.2527138E-006  0.9118800E+02  0.7816164E-02  0.1184000E+00
        -11   -1    0    0    0    0  0.00000000000E+00  0.00000000000E+00  0.45593999997E+02  0.45594000000E+02  0.51100000000E-03 0.  1.
         11   -1    0    0    0    0 -0.00000000000E+00 -0.00000000000E+00 -0.45593999997E+02  0.45594000000E+02  0.51100000000E-03 0. -1.
         23    2    1    2    0    0 -0.17763568394E-14  0.35527136788E-14 -0.35527136788E-14  0.91188000000E+02  0.91188000000E+02 0.  0.
    9900012    2    3    3    0    0  0.96882305535E+01 -0.24655599106E+02  0.25573829728E+02  0.54367066477E+02  0.39999959647E+02 0.  0.
         12    1    3    3    0    0 -0.96882305535E+01  0.24655599106E+02 -0.25573829728E+02  0.36820933523E+02  0.00000000000E+00 0. -1.
         11    1    4    4    0    0 -0.74314640707E+01 -0.20807996106E+02  0.15324630720E+02  0.26889471307E+02  0.51100000000E-03 0. -1.
        -11    1    4    4    0    0  0.11736155491E+02 -0.10822027535E+02  0.34103357049E+01  0.16324338135E+02  0.51100000000E-03 0.  1.
         12    1    4    4    0    0  0.53835391333E+01  0.69744245350E+01  0.68388633038E+01  0.11153257035E+02  0.00000000000E+00 0. -1.
</event>
<event>
 8    1  0.2527138E-006  0.9118800E+02  0.7816164E-02  0.1184000E+00
        -11   -1    0    0    0    0  0.00000000000E+00  0.00000000000E+00  0.45593999997E+02  0.45594000000E+02  0.51100000000E-03 0. -1.
         11   -1    0    0    0    0 -0.00000000000E+00 -0.00000000000E+00 -0.45593999997E+02  0.45594000000E+02  0.51100000000E-03 0.  1.
         23    2    1    2    0    0  0.35527136788E-14  0.00000000000E+00  0.35527136788E-14  0.91188000000E+02  0.91188000000E+02 0.  0.
    9900012    2    3    3    0    0 -0.30009826869E+02 -0.80892820848E+01 -0.19742171685E+02  0.54367088330E+02  0.40000009467E+02 0.  0.
         12    1    3    3    0    0  0.30009826869E+02  0.80892820848E+01  0.19742171685E+02  0.36820911670E+02  0.00000000000E+00 0. -1.
         11    1    4    4    0    0 -0.87303515567E+01 -0.77413682579E+01  0.73928623870E+01  0.13813118234E+02  0.51100000000E-03 0.  1.
        -11    1    4    4    0    0 -0.23431973954E+01 -0.88730632540E+01 -0.10505193102E+02  0.13949226069E+02  0.51100000000E-03 0. -1.
         12    1    4    4    0    0 -0.18936277917E+02  0.85251494271E+01 -0.16629840970E+02  0.26604744027E+02  0.00000000000E+00 0. -1.
</event>
<event>
 8    1  0.2527138E-006  0.9118800E+02  0.7816164E-02  0.1184000E+00
        -11   -1    0    0    0    0  0.00000000000E+00  0.00000000000E+00  0.45593999997E+02  0.45594000000E+02  0.51100000000E-03 0.  1.
         11   -1    0    0    0    0 -0.00000000000E+00 -0.00000000000E+00 -0.45593999997E+02  0.45594000000E+02  0.51100000000E-03 0. -1.
         23    2    1    2    0    0 -0.35527136788E-14  0.00000000000E+00 -0.35527136788E-14  0.91188000000E+02  0.91188000000E+02 0.  0.
    9900012    2    3    3    0    0  0.17956859814E+02  0.16436477270E+02  0.27625573480E+02  0.54367096840E+02  0.40000028866E+02 0.  0.
         12    1    3    3    0    0 -0.17956859814E+02 -0.16436477270E+02 -0.27625573480E+02  0.36820903160E+02  0.00000000000E+00 0. -1.
         11    1    4    4    0    0  0.18253461522E+02  0.17434033826E+02  0.30160947723E+01  0.25421078280E+02  0.51100000000E-03 0. -1.
        -11    1    4    4    0    0  0.47600846150E+00 -0.63070115401E+01  0.36326883408E+01  0.72939292199E+01  0.51100000000E-03 0.  1.
         12    1    4    4    0    0 -0.77261016926E+00  0.53094549833E+01  0.20976790367E+02  0.21652089340E+02  0.00000000000E+00 0. -1.
</event>
<event>
 8    1  0.2527138E-006  0.9118800E+02  0.7816164E-02  0.1184000E+00
        -11   -1    0    0    0    0  0.00000000000E+00  0.00000000000E+00  0.45593999997E+02  0.45594000000E+02  0.51100000000E-03 0.  1.
         11   -1    0    0    0    0 -0.00000000000E+00 -0.00000000000E+00 -0.45593999997E+02  0.45594000000E+02  0.51100000000E-03 0. -1.
         23    2    1    2    0    0  0.44408920985E-15  0.00000000000E+00  0.00000000000E+00  0.91188000000E+02  0.91188000000E+02 0.  0.
    9900012    2    3    3    0    0  0.14655955547E+01  0.11283977953E+02  0.35018406057E+02  0.54367287194E+02  0.40000462814E+02 0.  0.
         12    1    3    3    0    0 -0.14655955547E+01 -0.11283977953E+02 -0.35018406057E+02  0.36820712806E+02  0.00000000000E+00 0. -1.
         11    1    4    4    0    0 -0.54077950696E+01 -0.38685960007E+00 -0.43615420736E+01  0.69582294721E+01  0.51100000000E-03 0. -1.
        -11    1    4    4    0    0  0.75628581546E+01  0.18094114962E+02  0.26155430149E+02  0.32690982645E+02  0.51100000000E-03 0.  1.
        -12    1    4    4    0    0 -0.68946753032E+00 -0.64232774091E+01  0.13224517981E+02  0.14718075077E+02  0.00000000000E+00 0.  1.
</event>
<event>
 8    1  0.2527138E-006  0.9118800E+02  0.7816164E-02  0.1184000E+00
        -11   -1    0    0    0    0  0.00000000000E+00  0.00000000000E+00  0.45593999997E+02  0.45594000000E+02  0.51100000000E-03 0. -1.
         11   -1    0    0    0    0 -0.00000000000E+00 -0.00000000000E+00 -0.45593999997E+02  0.45594000000E+02  0.51100000000E-03 0.  1.
         23    2    1    2    0    0  0.00000000000E+00 -0.88817841970E-15 -0.71054273576E-14  0.91188000000E+02  0.91188000000E+02 0.  0.
    9900012    2    3    3    0    0 -0.85394319717E+01 -0.29911915874E+01  0.35691902032E+02  0.54367068504E+02  0.39999964270E+02 0.  0.
        -12    1    3    3    0    0  0.85394319717E+01  0.29911915874E+01 -0.35691902032E+02  0.36820931496E+02  0.00000000000E+00 0.  1.
         11    1    4    4    0    0 -0.69231470499E+00  0.11724759306E+02  0.93292591771E+01  0.14999478574E+02  0.51100000000E-03 0. -1.
        -11    1    4    4    0    0  0.14030006324E+01  0.17601106833E+01 -0.34215031235E+01  0.40954956082E+01  0.51100000000E-03 0.  1.
         12    1    4    4    0    0 -0.92501178991E+01 -0.16476061576E+02  0.29784145979E+02  0.35272094323E+02  0.00000000000E+00 0. -1.
</event>
<event>
 8    1  0.2527138E-006  0.9118800E+02  0.7816164E-02  0.1184000E+00
        -11   -1    0    0    0    0  0.00000000000E+00  0.00000000000E+00  0.45593999997E+02  0.45594000000E+02  0.51100000000E-03 0. -1.
         11   -1    0    0    0    0 -0.00000000000E+00 -0.00000000000E+00 -0.45593999997E+02  0.45594000000E+02  0.51100000000E-03 0.  1.
         23    2    1    2    0    0  0.17763568394E-14  0.00000000000E+00  0.88817841970E-15  0.91188000000E+02  0.91188000000E+02 0.  0.
    9900012    2    3    3    0    0 -0.15761698702E+02  0.32551461612E+02 -0.69102525110E+01  0.54367076753E+02  0.39999983073E+02 0.  0.
         12    1    3    3    0    0  0.15761698702E+02 -0.32551461612E+02  0.69102525110E+01  0.36820923247E+02  0.00000000000E+00 0. -1.
         11    1    4    4    0    0 -0.45123954083E+01 -0.35443370641E+01  0.71027854733E+01  0.91309144824E+01  0.51100000000E-03 0. -1.
        -11    1    4    4    0    0 -0.75054520296E+01  0.58979381589E+01 -0.11142253632E+02  0.14671990354E+02  0.51100000000E-03 0.  1.
         12    1    4    4    0    0 -0.37438512639E+01  0.30197860517E+02 -0.28707843520E+01  0.30564171916E+02  0.00000000000E+00 0. -1.
</event>
<event>
 8    1  0.2527138E-006  0.9118800E+02  0.7816164E-02  0.1184000E+00
        -11   -1    0    0    0    0  0.00000000000E+00  0.00000000000E+00  0.45593999997E+02  0.45594000000E+02  0.51100000000E-03 0. -1.
         11   -1    0    0    0    0 -0.00000000000E+00 -0.00000000000E+00 -0.45593999997E+02  0.45594000000E+02  0.51100000000E-03 0.  1.
         23    2    1    2    0    0  0.00000000000E+00 -0.17763568394E-14  0.00000000000E+00  0.91188000000E+02  0.91188000000E+02 0.  0.
    9900012    2    3    3    0    0 -0.29013540510E+02  0.11152521758E+02  0.19738709084E+02  0.54367069665E+02  0.39999966914E+02 0.  0.
        -12    1    3    3    0    0  0.29013540510E+02 -0.11152521758E+02 -0.19738709084E+02  0.36820930335E+02  0.00000000000E+00 0.  1.
         11    1    4    4    0    0 -0.18153661906E+02  0.92821811140E+01  0.58969952876E+01  0.21224723332E+02  0.51100000000E-03 0. -1.
        -11    1    4    4    0    0 -0.45547563723E+01  0.10840925663E+02 -0.38113869015E+01  0.12361154687E+02  0.51100000000E-03 0.  1.
         12    1    4    4    0    0 -0.63051222312E+01 -0.89705850189E+01  0.17653100698E+02  0.20781191645E+02  0.00000000000E+00 0. -1.
</event>
<event>
 8    1  0.2527138E-006  0.9118800E+02  0.7816164E-02  0.1184000E+00
        -11   -1    0    0    0    0  0.00000000000E+00  0.00000000000E+00  0.45593999997E+02  0.45594000000E+02  0.51100000000E-03 0. -1.
         11   -1    0    0    0    0 -0.00000000000E+00 -0.00000000000E+00 -0.45593999997E+02  0.45594000000E+02  0.51100000000E-03 0.  1.
         23    2    1    2    0    0  0.00000000000E+00  0.00000000000E+00  0.00000000000E+00  0.91188000000E+02  0.91188000000E+02 0.  0.
    9900012    2    3    3    0    0  0.64568218020E+00 -0.78087311172E+01  0.35977583248E+02  0.54367086330E+02  0.40000004907E+02 0.  0.
        -12    1    3    3    0    0 -0.64568218020E+00  0.78087311172E+01 -0.35977583248E+02  0.36820913670E+02  0.00000000000E+00 0.  1.
         11    1    4    4    0    0  0.12290603834E+02 -0.90385559207E+01  0.24577864754E+02  0.28927942752E+02  0.51100000000E-03 0. -1.
        -11    1    4    4    0    0  0.18760728921E+01  0.61149771418E+01  0.87211284565E+01  0.10815298274E+02  0.51100000000E-03 0.  1.
        -12    1    4    4    0    0 -0.13520994546E+02 -0.48851523383E+01  0.26785900370E+01  0.14623845304E+02  0.00000000000E+00 0.  1.
</event>
<event>
 8    1  0.2527138E-006  0.9118800E+02  0.7816164E-02  0.1184000E+00
        -11   -1    0    0    0    0  0.00000000000E+00  0.00000000000E+00  0.45593999997E+02  0.45594000000E+02  0.51100000000E-03 0.  1.
         11   -1    0    0    0    0 -0.00000000000E+00 -0.00000000000E+00 -0.45593999997E+02  0.45594000000E+02  0.51100000000E-03 0. -1.
         23    2    1    2    0    0 -0.71054273576E-14 -0.88817841970E-15  0.10658141036E-13  0.91188000000E+02  0.91188000000E+02 0.  0.
    9900012    2    3    3    0    0 -0.18293519576E+02  0.31188353668E+01  0.31802457376E+02  0.54367132443E+02  0.40000110030E+02 0.  0.
         12    1    3    3    0    0  0.18293519576E+02 -0.31188353668E+01 -0.31802457376E+02  0.36820867557E+02  0.00000000000E+00 0. -1.
         11    1    4    4    0    0  0.16844411104E+01  0.91533436072E+01 -0.32388889112E-01  0.93070989222E+01  0.51100000000E-03 0. -1.
        -11    1    4    4    0    0 -0.78409127420E+01  0.93186358972E+01  0.14295254430E+02  0.18779541717E+02  0.51100000000E-03 0.  1.
         12    1    4    4    0    0 -0.12137047945E+02 -0.15353144138E+02  0.17539591835E+02  0.26280491804E+02  0.00000000000E+00 0. -1.
</event>
<event>
 8    1  0.2527138E-006  0.9118800E+02  0.7816164E-02  0.1184000E+00
        -11   -1    0    0    0    0  0.00000000000E+00  0.00000000000E+00  0.45593999997E+02  0.45594000000E+02  0.51100000000E-03 0.  1.
         11   -1    0    0    0    0 -0.00000000000E+00 -0.00000000000E+00 -0.45593999997E+02  0.45594000000E+02  0.51100000000E-03 0. -1.
         23    2    1    2    0    0  0.17763568394E-14  0.00000000000E+00 -0.71054273576E-14  0.91188000000E+02  0.91188000000E+02 0.  0.
    9900012    2    3    3    0    0 -0.11027737716E+02 -0.26458460445E+02 -0.23111006545E+02  0.54367085403E+02  0.40000002793E+02 0.  0.
        -12    1    3    3    0    0  0.11027737716E+02  0.26458460445E+02  0.23111006545E+02  0.36820914597E+02  0.00000000000E+00 0.  1.
         11    1    4    4    0    0  0.76032544115E+01 -0.14494877417E+02  0.28424803001E+01  0.16612966126E+02  0.51100000000E-03 0. -1.
        -11    1    4    4    0    0 -0.68335397214E+01 -0.18924448769E+01  0.47843621183E+00  0.71068638798E+01  0.51100000000E-03 0.  1.
         12    1    4    4    0    0 -0.11797452406E+02 -0.10071138151E+02 -0.26431923057E+02  0.30647255398E+02  0.00000000000E+00 0. -1.
</event>
<event>
 8    1  0.2527138E-006  0.9118800E+02  0.7816164E-02  0.1184000E+00
        -11   -1    0    0    0    0  0.00000000000E+00  0.00000000000E+00  0.45593999997E+02  0.45594000000E+02  0.51100000000E-03 0.  1.
         11   -1    0    0    0    0 -0.00000000000E+00 -0.00000000000E+00 -0.45593999997E+02  0.45594000000E+02  0.51100000000E-03 0. -1.
         23    2    1    2    0    0 -0.17763568394E-14 -0.17763568394E-14  0.35527136788E-14  0.91188000000E+02  0.91188000000E+02 0.  0.
    9900012    2    3    3    0    0 -0.15369944920E+02  0.14545448363E+02 -0.30132615044E+02  0.54367085233E+02  0.40000002405E+02 0.  0.
        -12    1    3    3    0    0  0.15369944920E+02 -0.14545448363E+02  0.30132615044E+02  0.36820914767E+02  0.00000000000E+00 0.  1.
         11    1    4    4    0    0 -0.14004545201E+02  0.14945397865E+02 -0.19660395485E+02  0.28390550444E+02  0.51100000000E-03 0. -1.
        -11    1    4    4    0    0  0.31029028646E+00  0.30492261574E+01 -0.17609553437E+02  0.17874295307E+02  0.51100000000E-03 0.  1.
        -12    1    4    4    0    0 -0.16756900054E+01 -0.34491756599E+01  0.71373338780E+01  0.81022394813E+01  0.00000000000E+00 0.  1.
</event>
<event>
 8    1  0.2527138E-006  0.9118800E+02  0.7816164E-02  0.1184000E+00
        -11   -1    0    0    0    0  0.00000000000E+00  0.00000000000E+00  0.45593999997E+02  0.45594000000E+02  0.51100000000E-03 0.  1.
         11   -1    0    0    0    0 -0.00000000000E+00 -0.00000000000E+00 -0.45593999997E+02  0.45594000000E+02  0.51100000000E-03 0. -1.
         23    2    1    2    0    0  0.00000000000E+00 -0.17763568394E-14 -0.35527136788E-14  0.91188000000E+02  0.91188000000E+02 0.  0.
    9900012    2    3    3    0    0  0.17575811635E+02  0.13437917386E+02  0.29432844771E+02  0.54367093851E+02  0.40000022052E+02 0.  0.
         12    1    3    3    0    0 -0.17575811635E+02 -0.13437917386E+02 -0.29432844771E+02  0.36820906149E+02  0.00000000000E+00 0. -1.
         11    1    4    4    0    0 -0.69820411931E+01  0.53991024232E+01  0.35982607560E+01  0.95313528382E+01  0.51100000000E-03 0.  1.
        -11    1    4    4    0    0 -0.34782034394E+00  0.11128096697E+02  0.49426445478E+01  0.12181348468E+02  0.51100000000E-03 0. -1.
         12    1    4    4    0    0  0.24905673172E+02 -0.30892817344E+01  0.20891939467E+02  0.32654392545E+02  0.00000000000E+00 0. -1.
</event>
<event>
 8    1  0.2527138E-006  0.9118800E+02  0.7816164E-02  0.1184000E+00
        -11   -1    0    0    0    0  0.00000000000E+00  0.00000000000E+00  0.45593999997E+02  0.45594000000E+02  0.51100000000E-03 0. -1.
         11   -1    0    0    0    0 -0.00000000000E+00 -0.00000000000E+00 -0.45593999997E+02  0.45594000000E+02  0.51100000000E-03 0.  1.
         23    2    1    2    0    0  0.00000000000E+00 -0.17763568394E-14  0.00000000000E+00  0.91188000000E+02  0.91188000000E+02 0.  0.
    9900012    2    3    3    0    0 -0.33388340427E+02 -0.14640513817E+02 -0.51627525026E+01  0.54367082919E+02  0.39999997130E+02 0.  0.
         12    1    3    3    0    0  0.33388340427E+02  0.14640513817E+02  0.51627525026E+01  0.36820917081E+02  0.00000000000E+00 0. -1.
         11    1    4    4    0    0 -0.24991235614E+01  0.17016122835E+01  0.44597408063E+01  0.53879858258E+01  0.51100000000E-03 0. -1.
        -11    1    4    4    0    0  0.24494228160E+01 -0.16105537588E+01  0.79810012898E+01  0.85023489337E+01  0.51100000000E-03 0.  1.
        -12    1    4    4    0    0 -0.33338639682E+02 -0.14731572342E+02 -0.17603494599E+02  0.40476748159E+02  0.00000000000E+00 0.  1.
</event>
<event>
 8    1  0.2527138E-006  0.9118800E+02  0.7816164E-02  0.1184000E+00
        -11   -1    0    0    0    0  0.00000000000E+00  0.00000000000E+00  0.45593999997E+02  0.45594000000E+02  0.51100000000E-03 0.  1.
         11   -1    0    0    0    0 -0.00000000000E+00 -0.00000000000E+00 -0.45593999997E+02  0.45594000000E+02  0.51100000000E-03 0. -1.
         23    2    1    2    0    0 -0.35527136788E-14 -0.35527136788E-14  0.22204460493E-14  0.91188000000E+02  0.91188000000E+02 0.  0.
    9900012    2    3    3    0    0 -0.22070716939E+02  0.29233073096E+02 -0.37536827087E+01  0.54367092316E+02  0.40000018552E+02 0.  0.
        -12    1    3    3    0    0  0.22070716939E+02 -0.29233073096E+02  0.37536827087E+01  0.36820907684E+02  0.00000000000E+00 0.  1.
         11    1    4    4    0    0 -0.64355003656E+01  0.23379161730E+02 -0.14801908468E+02  0.28409459035E+02  0.51100000000E-03 0. -1.
        -11    1    4    4    0    0 -0.28117042812E+01  0.71334995890E+01  0.10574318501E+02  0.13061726891E+02  0.51100000000E-03 0.  1.
         12    1    4    4    0    0 -0.12823512292E+02 -0.12795882229E+01  0.47390725808E+00  0.12895906390E+02  0.00000000000E+00 0. -1.
</event>
<event>
 8    1  0.2527138E-006  0.9118800E+02  0.7816164E-02  0.1184000E+00
        -11   -1    0    0    0    0  0.00000000000E+00  0.00000000000E+00  0.45593999997E+02  0.45594000000E+02  0.51100000000E-03 0. -1.
         11   -1    0    0    0    0 -0.00000000000E+00 -0.00000000000E+00 -0.45593999997E+02  0.45594000000E+02  0.51100000000E-03 0.  1.
         23    2    1    2    0    0  0.35527136788E-14 -0.17763568394E-14  0.35527136788E-14  0.91188000000E+02  0.91188000000E+02 0.  0.
    9900012    2    3    3    0    0  0.28476612044E+02 -0.13755065456E+02  0.18859017120E+02  0.54367057780E+02  0.39999939821E+02 0.  0.
        -12    1    3    3    0    0 -0.28476612044E+02  0.13755065456E+02 -0.18859017120E+02  0.36820942220E+02  0.00000000000E+00 0.  1.
         11    1    4    4    0    0 -0.31644269838E+01  0.24415363827E+01  0.45456135536E+01  0.60528754227E+01  0.51100000000E-03 0. -1.
        -11    1    4    4    0    0  0.92960672791E+01 -0.16802550389E+02 -0.37614622520E+01  0.19567604988E+02  0.51100000000E-03 0.  1.
         12    1    4    4    0    0  0.22344971749E+02  0.60594854981E+00  0.18074865818E+02  0.28746577370E+02  0.00000000000E+00 0. -1.
</event>
<event>
 8    1  0.2527138E-006  0.9118800E+02  0.7816164E-02  0.1184000E+00
        -11   -1    0    0    0    0  0.00000000000E+00  0.00000000000E+00  0.45593999997E+02  0.45594000000E+02  0.51100000000E-03 0.  1.
         11   -1    0    0    0    0 -0.00000000000E+00 -0.00000000000E+00 -0.45593999997E+02  0.45594000000E+02  0.51100000000E-03 0. -1.
         23    2    1    2    0    0  0.71054273576E-14  0.22204460493E-15  0.00000000000E+00  0.91188000000E+02  0.91188000000E+02 0.  0.
    9900012    2    3    3    0    0 -0.34267301771E+02  0.15194503546E+01 -0.13387381151E+02  0.54367100036E+02  0.40000036153E+02 0.  0.
         12    1    3    3    0    0  0.34267301771E+02 -0.15194503546E+01  0.13387381151E+02  0.36820899964E+02  0.00000000000E+00 0. -1.
         11    1    4    4    0    0 -0.83485420749E+01 -0.69514071685E+01 -0.83149412945E+01  0.13680587173E+02  0.51100000000E-03 0. -1.
        -11    1    4    4    0    0 -0.27671149400E+02 -0.33967772084E+01 -0.64384922014E+01  0.28612668289E+02  0.51100000000E-03 0.  1.
        -12    1    4    4    0    0  0.17523897044E+01  0.11867634732E+02  0.13660523447E+01  0.12073844574E+02  0.00000000000E+00 0.  1.
</event>
<event>
 8    1  0.2527138E-006  0.9118800E+02  0.7816164E-02  0.1184000E+00
        -11   -1    0    0    0    0  0.00000000000E+00  0.00000000000E+00  0.45593999997E+02  0.45594000000E+02  0.51100000000E-03 0.  1.
         11   -1    0    0    0    0 -0.00000000000E+00 -0.00000000000E+00 -0.45593999997E+02  0.45594000000E+02  0.51100000000E-03 0. -1.
         23    2    1    2    0    0 -0.35527136788E-14  0.00000000000E+00  0.35527136788E-14  0.91188000000E+02  0.91188000000E+02 0.  0.
    9900012    2    3    3    0    0  0.18529692320E+02  0.15597186062E+02 -0.27733670632E+02  0.54367106512E+02  0.40000050915E+02 0.  0.
        -12    1    3    3    0    0 -0.18529692320E+02 -0.15597186062E+02  0.27733670632E+02  0.36820893488E+02  0.00000000000E+00 0.  1.
         11    1    4    4    0    0  0.22694905647E+01 -0.33203219225E+01 -0.12387757231E+02  0.13024271748E+02  0.51100000000E-03 0. -1.
        -11    1    4    4    0    0  0.42915241183E+00 -0.65904720832E+01 -0.81152014418E+01  0.10463029617E+02  0.51100000000E-03 0.  1.
         12    1    4    4    0    0  0.15831049344E+02  0.25507980068E+02 -0.72307119598E+01  0.30879805147E+02  0.00000000000E+00 0. -1.
</event>
<event>
 8    1  0.2527138E-006  0.9118800E+02  0.7816164E-02  0.1184000E+00
        -11   -1    0    0    0    0  0.00000000000E+00  0.00000000000E+00  0.45593999997E+02  0.45594000000E+02  0.51100000000E-03 0. -1.
         11   -1    0    0    0    0 -0.00000000000E+00 -0.00000000000E+00 -0.45593999997E+02  0.45594000000E+02  0.51100000000E-03 0.  1.
         23    2    1    2    0    0  0.17763568394E-14  0.00000000000E+00  0.00000000000E+00  0.91188000000E+02  0.91188000000E+02 0.  0.
    9900012    2    3    3    0    0  0.20593943621E+01 -0.32919616032E+02  0.16365763070E+02  0.54367076251E+02  0.39999981930E+02 0.  0.
        -12    1    3    3    0    0 -0.20593943621E+01  0.32919616032E+02 -0.16365763070E+02  0.36820923749E+02  0.00000000000E+00 0.  1.
         11    1    4    4    0    0 -0.12134381329E+02 -0.39546025867E+01 -0.10621299989E+01  0.12806647191E+02  0.51100000000E-03 0. -1.
        -11    1    4    4    0    0  0.15424443105E+02 -0.11862167896E+02  0.42058783882E+01  0.19907633851E+02  0.51100000000E-03 0.  1.
         12    1    4    4    0    0 -0.12306674133E+01 -0.17102845549E+02  0.13222014681E+02  0.21652795210E+02  0.00000000000E+00 0. -1.
</event>
<event>
 8    1  0.2527138E-006  0.9118800E+02  0.7816164E-02  0.1184000E+00
        -11   -1    0    0    0    0  0.00000000000E+00  0.00000000000E+00  0.45593999997E+02  0.45594000000E+02  0.51100000000E-03 0.  1.
         11   -1    0    0    0    0 -0.00000000000E+00 -0.00000000000E+00 -0.45593999997E+02  0.45594000000E+02  0.51100000000E-03 0. -1.
         23    2    1    2    0    0  0.00000000000E+00 -0.44408920985E-15 -0.17763568394E-14  0.91188000000E+02  0.91188000000E+02 0.  0.
    9900012    2    3    3    0    0 -0.33509307030E+02 -0.29094131501E+01 -0.14981371065E+02  0.54367084456E+02  0.40000000634E+02 0.  0.
        -12    1    3    3    0    0  0.33509307030E+02  0.29094131501E+01  0.14981371065E+02  0.36820915544E+02  0.00000000000E+00 0.  1.
         11    1    4    4    0    0  0.61390495315E+01 -0.21538152032E+01 -0.14595379425E+01  0.66676157918E+01  0.51100000000E-03 0. -1.
        -11    1    4    4    0    0 -0.34377374188E+02  0.18375445527E+00 -0.13525453095E+01  0.34404461932E+02  0.51100000000E-03 0.  1.
        -12    1    4    4    0    0 -0.52709823741E+01 -0.93935240211E+00 -0.12169287813E+02  0.13295006732E+02  0.00000000000E+00 0.  1.
</event>
<event>
 8    1  0.2527138E-006  0.9118800E+02  0.7816164E-02  0.1184000E+00
        -11   -1    0    0    0    0  0.00000000000E+00  0.00000000000E+00  0.45593999997E+02  0.45594000000E+02  0.51100000000E-03 0. -1.
         11   -1    0    0    0    0 -0.00000000000E+00 -0.00000000000E+00 -0.45593999997E+02  0.45594000000E+02  0.51100000000E-03 0.  1.
         23    2    1    2    0    0  0.44408920985E-15  0.00000000000E+00  0.71054273576E-14  0.91188000000E+02  0.91188000000E+02 0.  0.
    9900012    2    3    3    0    0 -0.14639239851E+01 -0.80639693114E+01  0.35897195439E+02  0.54367091335E+02  0.40000016317E+02 0.  0.
        -12    1    3    3    0    0  0.14639239851E+01  0.80639693114E+01 -0.35897195439E+02  0.36820908665E+02  0.00000000000E+00 0.  1.
         11    1    4    4    0    0  0.30016499544E+01 -0.16886560733E+02  0.51877774550E+01  0.17918673808E+02  0.51100000000E-03 0.  1.
        -11    1    4    4    0    0  0.35234958681E+01  0.21271164549E+00  0.20752328227E+02  0.21050401338E+02  0.51100000000E-03 0. -1.
        -12    1    4    4    0    0 -0.79890698075E+01  0.86098797762E+01  0.99570897570E+01  0.15398016190E+02  0.00000000000E+00 0.  1.
</event>
<event>
 8    1  0.2527138E-006  0.9118800E+02  0.7816164E-02  0.1184000E+00
        -11   -1    0    0    0    0  0.00000000000E+00  0.00000000000E+00  0.45593999997E+02  0.45594000000E+02  0.51100000000E-03 0.  1.
         11   -1    0    0    0    0 -0.00000000000E+00 -0.00000000000E+00 -0.45593999997E+02  0.45594000000E+02  0.51100000000E-03 0. -1.
         23    2    1    2    0    0  0.17763568394E-14  0.00000000000E+00  0.35527136788E-14  0.91188000000E+02  0.91188000000E+02 0.  0.
    9900012    2    3    3    0    0  0.59098710561E+01  0.21477156698E+02 -0.29318684475E+02  0.54367080741E+02  0.39999992165E+02 0.  0.
        -12    1    3    3    0    0 -0.59098710561E+01 -0.21477156698E+02  0.29318684475E+02  0.36820919259E+02  0.00000000000E+00 0.  1.
         11    1    4    4    0    0 -0.43861377284E+01  0.31104856538E+01 -0.18901040358E+02  0.19651021654E+02  0.51100000000E-03 0. -1.
        -11    1    4    4    0    0  0.52568823178E+01 -0.59080441173E+01 -0.22794044618E+00  0.79114950612E+01  0.51100000000E-03 0.  1.
         12    1    4    4    0    0  0.50391264667E+01  0.24274715162E+02 -0.10189703671E+02  0.26804564026E+02  0.00000000000E+00 0. -1.
</event>
<event>
 8    1  0.2527138E-006  0.9118800E+02  0.7816164E-02  0.1184000E+00
        -11   -1    0    0    0    0  0.00000000000E+00  0.00000000000E+00  0.45593999997E+02  0.45594000000E+02  0.51100000000E-03 0. -1.
         11   -1    0    0    0    0 -0.00000000000E+00 -0.00000000000E+00 -0.45593999997E+02  0.45594000000E+02  0.51100000000E-03 0.  1.
         23    2    1    2    0    0 -0.71054273576E-14  0.88817841970E-15 -0.13322676296E-14  0.91188000000E+02  0.91188000000E+02 0.  0.
    9900012    2    3    3    0    0 -0.35986826880E+02  0.72334498052E+01 -0.28991846332E+01  0.54367085066E+02  0.40000002026E+02 0.  0.
         12    1    3    3    0    0  0.35986826880E+02 -0.72334498052E+01  0.28991846332E+01  0.36820914934E+02  0.00000000000E+00 0. -1.
         11    1    4    4    0    0 -0.26139534735E+02 -0.58357972317E+00 -0.94629437587E+01  0.27805811376E+02  0.51100000000E-03 0. -1.
        -11    1    4    4    0    0 -0.12384471256E+02  0.20908660668E+01 -0.49132680540E+01  0.13486550798E+02  0.51100000000E-03 0.  1.
         12    1    4    4    0    0  0.25371791102E+01  0.57261634616E+01  0.11477027180E+02  0.13074722892E+02  0.00000000000E+00 0. -1.
</event>
<event>
 8    1  0.2527138E-006  0.9118800E+02  0.7816164E-02  0.1184000E+00
        -11   -1    0    0    0    0  0.00000000000E+00  0.00000000000E+00  0.45593999997E+02  0.45594000000E+02  0.51100000000E-03 0.  1.
         11   -1    0    0    0    0 -0.00000000000E+00 -0.00000000000E+00 -0.45593999997E+02  0.45594000000E+02  0.51100000000E-03 0. -1.
         23    2    1    2    0    0 -0.35527136788E-14  0.00000000000E+00  0.00000000000E+00  0.91188000000E+02  0.91188000000E+02 0.  0.
    9900012    2    3    3    0    0 -0.18417277397E+02  0.94399957430E+01 -0.30454412201E+02  0.54367070505E+02  0.39999968830E+02 0.  0.
        -12    1    3    3    0    0  0.18417277397E+02 -0.94399957430E+01  0.30454412201E+02  0.36820929495E+02  0.00000000000E+00 0.  1.
         11    1    4    4    0    0  0.79378992014E+00 -0.83110087584E+01  0.68412468097E+00  0.83768129894E+01  0.51100000000E-03 0.  1.
        -11    1    4    4    0    0  0.21101670833E+01  0.36815739200E+00 -0.12685657537E+02  0.12865234254E+02  0.51100000000E-03 0. -1.
         12    1    4    4    0    0 -0.21321234400E+02  0.17382847109E+02 -0.18452879345E+02  0.33125023262E+02  0.00000000000E+00 0. -1.
</event>
<event>
 8    1  0.2527138E-006  0.9118800E+02  0.7816164E-02  0.1184000E+00
        -11   -1    0    0    0    0  0.00000000000E+00  0.00000000000E+00  0.45593999997E+02  0.45594000000E+02  0.51100000000E-03 0.  1.
         11   -1    0    0    0    0 -0.00000000000E+00 -0.00000000000E+00 -0.45593999997E+02  0.45594000000E+02  0.51100000000E-03 0. -1.
         23    2    1    2    0    0  0.17763568394E-14  0.00000000000E+00 -0.17763568394E-14  0.91188000000E+02  0.91188000000E+02 0.  0.
    9900012    2    3    3    0    0  0.60449420615E+01 -0.34096366858E+02  0.12517485669E+02  0.54366932594E+02  0.39999654434E+02 0.  0.
         12    1    3    3    0    0 -0.60449420615E+01  0.34096366858E+02 -0.12517485669E+02  0.36821067406E+02  0.00000000000E+00 0. -1.
         11    1    4    4    0    0 -0.12585435063E+02 -0.44835762814E+01  0.76352346600E+01  0.15388061625E+02  0.51100000000E-03 0. -1.
        -11    1    4    4    0    0 -0.63556864275E+00 -0.13502402942E+02  0.25593246896E+01  0.13757506163E+02  0.51100000000E-03 0.  1.
         12    1    4    4    0    0  0.19265945767E+02 -0.16110387634E+02  0.23229263192E+01  0.25221364806E+02  0.00000000000E+00 0. -1.
</event>
<event>
 8    1  0.2527138E-006  0.9118800E+02  0.7816164E-02  0.1184000E+00
        -11   -1    0    0    0    0  0.00000000000E+00  0.00000000000E+00  0.45593999997E+02  0.45594000000E+02  0.51100000000E-03 0.  1.
         11   -1    0    0    0    0 -0.00000000000E+00 -0.00000000000E+00 -0.45593999997E+02  0.45594000000E+02  0.51100000000E-03 0. -1.
         23    2    1    2    0    0  0.35527136788E-14  0.00000000000E+00  0.00000000000E+00  0.91188000000E+02  0.91188000000E+02 0.  0.
    9900012    2    3    3    0    0  0.26186924538E+02  0.73786063753E+01 -0.24810905391E+02  0.54367083728E+02  0.39999998975E+02 0.  0.
        -12    1    3    3    0    0 -0.26186924538E+02 -0.73786063753E+01  0.24810905391E+02  0.36820916272E+02  0.00000000000E+00 0.  1.
         11    1    4    4    0    0  0.28564918713E+02  0.93507754530E+01 -0.18151235034E+02  0.35112090741E+02  0.51100000000E-03 0. -1.
        -11    1    4    4    0    0 -0.83906883885E+01 -0.35266875145E+01 -0.88253181994E+01  0.12677831756E+02  0.51100000000E-03 0.  1.
         12    1    4    4    0    0  0.60126942133E+01  0.15545184368E+01  0.21656478433E+01  0.65771612307E+01  0.00000000000E+00 0. -1.
</event>
<event>
 8    1  0.2527138E-006  0.9118800E+02  0.7816164E-02  0.1184000E+00
        -11   -1    0    0    0    0  0.00000000000E+00  0.00000000000E+00  0.45593999997E+02  0.45594000000E+02  0.51100000000E-03 0.  1.
         11   -1    0    0    0    0 -0.00000000000E+00 -0.00000000000E+00 -0.45593999997E+02  0.45594000000E+02  0.51100000000E-03 0. -1.
         23    2    1    2    0    0 -0.17763568394E-14  0.00000000000E+00 -0.17763568394E-14  0.91188000000E+02  0.91188000000E+02 0.  0.
    9900012    2    3    3    0    0  0.12144804147E+02  0.30897340288E+02  0.15926140048E+02  0.54367029869E+02  0.39999876191E+02 0.  0.
         12    1    3    3    0    0 -0.12144804147E+02 -0.30897340288E+02 -0.15926140048E+02  0.36820970131E+02  0.00000000000E+00 0. -1.
         11    1    4    4    0    0  0.12152545192E+02  0.17449935512E+01 -0.36714505390E+01  0.12814402306E+02  0.51100000000E-03 0. -1.
        -11    1    4    4    0    0  0.10922780961E+02  0.11524045711E+02  0.78044221283E+01  0.17692364977E+02  0.51100000000E-03 0.  1.
         12    1    4    4    0    0 -0.10930522006E+02  0.17628301026E+02  0.11793168458E+02  0.23860262586E+02  0.00000000000E+00 0. -1.
</event>
<event>
 8    1  0.2527138E-006  0.9118800E+02  0.7816164E-02  0.1184000E+00
        -11   -1    0    0    0    0  0.00000000000E+00  0.00000000000E+00  0.45593999997E+02  0.45594000000E+02  0.51100000000E-03 0.  1.
         11   -1    0    0    0    0 -0.00000000000E+00 -0.00000000000E+00 -0.45593999997E+02  0.45594000000E+02  0.51100000000E-03 0. -1.
         23    2    1    2    0    0  0.35527136788E-14  0.35527136788E-14  0.00000000000E+00  0.91188000000E+02  0.91188000000E+02 0.  0.
    9900012    2    3    3    0    0  0.16671009668E+02 -0.19127565721E+02  0.26683206739E+02  0.54367083992E+02  0.39999999577E+02 0.  0.
         12    1    3    3    0    0 -0.16671009668E+02  0.19127565721E+02 -0.26683206739E+02  0.36820916008E+02  0.00000000000E+00 0. -1.
         11    1    4    4    0    0 -0.40888285164E+01 -0.60398064042E+01  0.34640558046E+01  0.80744945919E+01  0.51100000000E-03 0. -1.
        -11    1    4    4    0    0  0.16157793904E+01 -0.14940461649E+02 -0.13527360281E+01  0.15088340940E+02  0.51100000000E-03 0.  1.
         12    1    4    4    0    0  0.19144058794E+02  0.18527023323E+01  0.24571886963E+02  0.31204248460E+02  0.00000000000E+00 0. -1.
</event>
<event>
 8    1  0.2527138E-006  0.9118800E+02  0.7816164E-02  0.1184000E+00
        -11   -1    0    0    0    0  0.00000000000E+00  0.00000000000E+00  0.45593999997E+02  0.45594000000E+02  0.51100000000E-03 0.  1.
         11   -1    0    0    0    0 -0.00000000000E+00 -0.00000000000E+00 -0.45593999997E+02  0.45594000000E+02  0.51100000000E-03 0. -1.
         23    2    1    2    0    0  0.00000000000E+00  0.00000000000E+00 -0.35527136788E-14  0.91188000000E+02  0.91188000000E+02 0.  0.
    9900012    2    3    3    0    0 -0.16436793649E+02  0.26109956190E+02 -0.20096820190E+02  0.54367079595E+02  0.39999989553E+02 0.  0.
         12    1    3    3    0    0  0.16436793649E+02 -0.26109956190E+02  0.20096820190E+02  0.36820920405E+02  0.00000000000E+00 0. -1.
         11    1    4    4    0    0 -0.23506411043E+02  0.32006851508E+01 -0.10677877408E+02  0.26015626300E+02  0.51100000000E-03 0. -1.
        -11    1    4    4    0    0  0.53401100504E+00  0.54311853136E+01  0.27127484621E+01  0.60944192623E+01  0.51100000000E-03 0.  1.
        -12    1    4    4    0    0  0.65356063894E+01  0.17478085726E+02 -0.12131691244E+02  0.22257034033E+02  0.00000000000E+00 0.  1.
</event>
<event>
 8    1  0.2527138E-006  0.9118800E+02  0.7816164E-02  0.1184000E+00
        -11   -1    0    0    0    0  0.00000000000E+00  0.00000000000E+00  0.45593999997E+02  0.45594000000E+02  0.51100000000E-03 0.  1.
         11   -1    0    0    0    0 -0.00000000000E+00 -0.00000000000E+00 -0.45593999997E+02  0.45594000000E+02  0.51100000000E-03 0. -1.
         23    2    1    2    0    0  0.35527136788E-14 -0.35527136788E-14  0.00000000000E+00  0.91188000000E+02  0.91188000000E+02 0.  0.
    9900012    2    3    3    0    0  0.24777345211E+02 -0.20231641456E+02 -0.18235919741E+02  0.54367015215E+02  0.39999842785E+02 0.  0.
        -12    1    3    3    0    0 -0.24777345211E+02  0.20231641456E+02  0.18235919741E+02  0.36820984785E+02  0.00000000000E+00 0.  1.
         11    1    4    4    0    0  0.15314994040E+02 -0.12769795091E+02  0.89274406661E+01  0.21847560647E+02  0.51100000000E-03 0.  1.
        -11    1    4    4    0    0 -0.32547777843E+01 -0.20334841904E+01 -0.81653989659E+01  0.90223265797E+01  0.51100000000E-03 0. -1.
        -12    1    4    4    0    0  0.12717128956E+02 -0.54283621742E+01 -0.18997961442E+02  0.23497127989E+02  0.00000000000E+00 0.  1.
</event>
<event>
 8    1  0.2527138E-006  0.9118800E+02  0.7816164E-02  0.1184000E+00
        -11   -1    0    0    0    0  0.00000000000E+00  0.00000000000E+00  0.45593999997E+02  0.45594000000E+02  0.51100000000E-03 0.  1.
         11   -1    0    0    0    0 -0.00000000000E+00 -0.00000000000E+00 -0.45593999997E+02  0.45594000000E+02  0.51100000000E-03 0. -1.
         23    2    1    2    0    0  0.00000000000E+00  0.00000000000E+00  0.00000000000E+00  0.91188000000E+02  0.91188000000E+02 0.  0.
    9900012    2    3    3    0    0  0.10613625471E+02 -0.19268701556E+02 -0.29527076936E+02  0.54367079619E+02  0.39999989608E+02 0.  0.
        -12    1    3    3    0    0 -0.10613625471E+02  0.19268701556E+02  0.29527076936E+02  0.36820920381E+02  0.00000000000E+00 0.  1.
         11    1    4    4    0    0  0.13094929094E+02 -0.13703378483E+02 -0.30887013548E+02  0.36239030837E+02  0.51100000000E-03 0. -1.
        -11    1    4    4    0    0 -0.98700819617E+00 -0.80641116717E+01 -0.60742971403E+01  0.10144021305E+02  0.51100000000E-03 0.  1.
        -12    1    4    4    0    0 -0.14942954264E+01  0.24987885981E+01  0.74342337521E+01  0.79840274774E+01  0.00000000000E+00 0.  1.
</event>
<event>
 8    1  0.2527138E-006  0.9118800E+02  0.7816164E-02  0.1184000E+00
        -11   -1    0    0    0    0  0.00000000000E+00  0.00000000000E+00  0.45593999997E+02  0.45594000000E+02  0.51100000000E-03 0.  1.
         11   -1    0    0    0    0 -0.00000000000E+00 -0.00000000000E+00 -0.45593999997E+02  0.45594000000E+02  0.51100000000E-03 0. -1.
         23    2    1    2    0    0 -0.17763568394E-14  0.00000000000E+00 -0.71054273576E-14  0.91188000000E+02  0.91188000000E+02 0.  0.
    9900012    2    3    3    0    0 -0.27843319306E+01 -0.17369360793E+02  0.32347062068E+02  0.54367087150E+02  0.40000006776E+02 0.  0.
         12    1    3    3    0    0  0.27843319306E+01  0.17369360793E+02 -0.32347062068E+02  0.36820912850E+02  0.00000000000E+00 0. -1.
         11    1    4    4    0    0  0.98825550073E+01 -0.11023745314E+02  0.22111903281E+02  0.26610601669E+02  0.51100000000E-03 0. -1.
        -11    1    4    4    0    0 -0.15266644491E+01 -0.12203161122E+02  0.87271443892E+01  0.15080149043E+02  0.51100000000E-03 0.  1.
         12    1    4    4    0    0 -0.11140222489E+02  0.58575456430E+01  0.15080143980E+01  0.12676336438E+02  0.00000000000E+00 0. -1.
</event>
<event>
 8    1  0.2527138E-006  0.9118800E+02  0.7816164E-02  0.1184000E+00
        -11   -1    0    0    0    0  0.00000000000E+00  0.00000000000E+00  0.45593999997E+02  0.45594000000E+02  0.51100000000E-03 0. -1.
         11   -1    0    0    0    0 -0.00000000000E+00 -0.00000000000E+00 -0.45593999997E+02  0.45594000000E+02  0.51100000000E-03 0.  1.
         23    2    1    2    0    0  0.00000000000E+00  0.35527136788E-14  0.00000000000E+00  0.91188000000E+02  0.91188000000E+02 0.  0.
    9900012    2    3    3    0    0  0.29588603030E+02 -0.18105545358E+02  0.12348423024E+02  0.54367085383E+02  0.40000002749E+02 0.  0.
        -12    1    3    3    0    0 -0.29588603030E+02  0.18105545358E+02 -0.12348423024E+02  0.36820914617E+02  0.00000000000E+00 0.  1.
         11    1    4    4    0    0  0.63060577370E+01  0.87168624089E+01  0.83815156154E+01  0.13638176517E+02  0.51100000000E-03 0. -1.
        -11    1    4    4    0    0 -0.31909855080E+01 -0.62159783009E+01  0.67224524532E+00  0.70194507393E+01  0.51100000000E-03 0.  1.
         12    1    4    4    0    0  0.26473530801E+02 -0.20606429466E+02  0.32946621637E+01  0.33709458127E+02  0.00000000000E+00 0. -1.
</event>
<event>
 8    1  0.2527138E-006  0.9118800E+02  0.7816164E-02  0.1184000E+00
        -11   -1    0    0    0    0  0.00000000000E+00  0.00000000000E+00  0.45593999997E+02  0.45594000000E+02  0.51100000000E-03 0.  1.
         11   -1    0    0    0    0 -0.00000000000E+00 -0.00000000000E+00 -0.45593999997E+02  0.45594000000E+02  0.51100000000E-03 0. -1.
         23    2    1    2    0    0 -0.35527136788E-14 -0.17763568394E-14  0.00000000000E+00  0.91188000000E+02  0.91188000000E+02 0.  0.
    9900012    2    3    3    0    0 -0.29956957454E+02 -0.12534826253E+02  0.17356246823E+02  0.54367075611E+02  0.39999980470E+02 0.  0.
        -12    1    3    3    0    0  0.29956957454E+02  0.12534826253E+02 -0.17356246823E+02  0.36820924389E+02  0.00000000000E+00 0.  1.
         11    1    4    4    0    0 -0.26015371625E+02 -0.17237493131E+02  0.42068757499E+01  0.31490133916E+02  0.51100000000E-03 0. -1.
        -11    1    4    4    0    0 -0.69989299860E+01  0.93529470955E+01  0.12757496426E+02  0.17297871419E+02  0.51100000000E-03 0.  1.
        -12    1    4    4    0    0  0.30573441569E+01 -0.46502802176E+01  0.39187464679E+00  0.55790702751E+01  0.00000000000E+00 0.  1.
</event>
<event>
 8    1  0.2527138E-006  0.9118800E+02  0.7816164E-02  0.1184000E+00
        -11   -1    0    0    0    0  0.00000000000E+00  0.00000000000E+00  0.45593999997E+02  0.45594000000E+02  0.51100000000E-03 0. -1.
         11   -1    0    0    0    0 -0.00000000000E+00 -0.00000000000E+00 -0.45593999997E+02  0.45594000000E+02  0.51100000000E-03 0.  1.
         23    2    1    2    0    0  0.00000000000E+00  0.00000000000E+00  0.17763568394E-14  0.91188000000E+02  0.91188000000E+02 0.  0.
    9900012    2    3    3    0    0 -0.18491578871E+02  0.29283270100E+02  0.12503264546E+02  0.54367081744E+02  0.39999994451E+02 0.  0.
        -12    1    3    3    0    0  0.18491578871E+02 -0.29283270100E+02 -0.12503264546E+02  0.36820918256E+02  0.00000000000E+00 0.  1.
         11    1    4    4    0    0 -0.13339041597E+02  0.23667480810E+02  0.19359900331E+02  0.33359937346E+02  0.51100000000E-03 0. -1.
        -11    1    4    4    0    0 -0.65749988910E+01  0.10110511044E+02  0.72180607418E+00  0.12081972035E+02  0.51100000000E-03 0.  1.
        -12    1    4    4    0    0  0.14224616167E+01 -0.44947217542E+01 -0.75784418588E+01  0.89251723628E+01  0.00000000000E+00 0.  1.
</event>
<event>
 8    1  0.2527138E-006  0.9118800E+02  0.7816164E-02  0.1184000E+00
        -11   -1    0    0    0    0  0.00000000000E+00  0.00000000000E+00  0.45593999997E+02  0.45594000000E+02  0.51100000000E-03 0. -1.
         11   -1    0    0    0    0 -0.00000000000E+00 -0.00000000000E+00 -0.45593999997E+02  0.45594000000E+02  0.51100000000E-03 0.  1.
         23    2    1    2    0    0  0.00000000000E+00 -0.13322676296E-14 -0.17763568394E-14  0.91188000000E+02  0.91188000000E+02 0.  0.
    9900012    2    3    3    0    0  0.33608058456E+02 -0.18731255252E+01 -0.14925463171E+02  0.54367086876E+02  0.40000006152E+02 0.  0.
         12    1    3    3    0    0 -0.33608058456E+02  0.18731255252E+01  0.14925463171E+02  0.36820913124E+02  0.00000000000E+00 0. -1.
         11    1    4    4    0    0  0.15845108872E+02 -0.83430035300E+01 -0.50682385113E+01  0.18610755625E+02  0.51100000000E-03 0. -1.
        -11    1    4    4    0    0  0.13258504158E+01  0.11121723473E+02 -0.14243203973E+02  0.18119588075E+02  0.51100000000E-03 0.  1.
         12    1    4    4    0    0  0.16437099168E+02 -0.46518454682E+01  0.43859793135E+01  0.17636743176E+02  0.00000000000E+00 0. -1.
</event>
<event>
 8    1  0.2527138E-006  0.9118800E+02  0.7816164E-02  0.1184000E+00
        -11   -1    0    0    0    0  0.00000000000E+00  0.00000000000E+00  0.45593999997E+02  0.45594000000E+02  0.51100000000E-03 0.  1.
         11   -1    0    0    0    0 -0.00000000000E+00 -0.00000000000E+00 -0.45593999997E+02  0.45594000000E+02  0.51100000000E-03 0. -1.
         23    2    1    2    0    0  0.35527136788E-14 -0.35527136788E-14 -0.17763568394E-14  0.91188000000E+02  0.91188000000E+02 0.  0.
    9900012    2    3    3    0    0  0.27564769349E+02 -0.20367555305E+02 -0.13458217963E+02  0.54367116671E+02  0.40000074076E+02 0.  0.
         12    1    3    3    0    0 -0.27564769349E+02  0.20367555305E+02  0.13458217963E+02  0.36820883329E+02  0.00000000000E+00 0. -1.
         11    1    4    4    0    0  0.24513278198E+01  0.51003451938E+01 -0.22108339758E+01  0.60753861034E+01  0.51100000000E-03 0. -1.
        -11    1    4    4    0    0  0.22026377907E+02 -0.66369962299E+01 -0.16721561583E+02  0.28439790166E+02  0.51100000000E-03 0.  1.
        -12    1    4    4    0    0  0.30870636222E+01 -0.18830904269E+02  0.54741775954E+01  0.19851940402E+02  0.00000000000E+00 0.  1.
</event>
<event>
 8    1  0.2527138E-006  0.9118800E+02  0.7816164E-02  0.1184000E+00
        -11   -1    0    0    0    0  0.00000000000E+00  0.00000000000E+00  0.45593999997E+02  0.45594000000E+02  0.51100000000E-03 0. -1.
         11   -1    0    0    0    0 -0.00000000000E+00 -0.00000000000E+00 -0.45593999997E+02  0.45594000000E+02  0.51100000000E-03 0.  1.
         23    2    1    2    0    0 -0.33306690739E-15  0.00000000000E+00  0.71054273576E-14  0.91188000000E+02  0.91188000000E+02 0.  0.
    9900012    2    3    3    0    0 -0.66496957561E+00 -0.99679743750E+01  0.35439780668E+02  0.54367071828E+02  0.39999971845E+02 0.  0.
        -12    1    3    3    0    0  0.66496957561E+00  0.99679743750E+01 -0.35439780668E+02  0.36820928172E+02  0.00000000000E+00 0.  1.
         11    1    4    4    0    0  0.71969064912E+00  0.26882827645E+00 -0.18707756001E+01  0.20223809927E+01  0.51100000000E-03 0. -1.
        -11    1    4    4    0    0  0.32682323386E+00 -0.48864189327E+01 -0.65206821948E+01  0.81549494149E+01  0.51100000000E-03 0.  1.
         12    1    4    4    0    0 -0.17114834586E+01 -0.53503837187E+01  0.43831238463E+02  0.44189741420E+02  0.00000000000E+00 0. -1.
</event>
<event>
 8    1  0.2527138E-006  0.9118800E+02  0.7816164E-02  0.1184000E+00
        -11   -1    0    0    0    0  0.00000000000E+00  0.00000000000E+00  0.45593999997E+02  0.45594000000E+02  0.51100000000E-03 0. -1.
         11   -1    0    0    0    0 -0.00000000000E+00 -0.00000000000E+00 -0.45593999997E+02  0.45594000000E+02  0.51100000000E-03 0.  1.
         23    2    1    2    0    0  0.00000000000E+00  0.17763568394E-14  0.00000000000E+00  0.91188000000E+02  0.91188000000E+02 0.  0.
    9900012    2    3    3    0    0  0.67917661451E+01  0.13929966320E+02 -0.33400714338E+02  0.54367085191E+02  0.40000002310E+02 0.  0.
         12    1    3    3    0    0 -0.67917661451E+01 -0.13929966320E+02  0.33400714338E+02  0.36820914809E+02  0.00000000000E+00 0. -1.
         11    1    4    4    0    0  0.59523577288E+01  0.64789356067E+01 -0.72665574465E+01  0.11410960806E+02  0.51100000000E-03 0. -1.
        -11    1    4    4    0    0 -0.34252540044E+01  0.61475475482E+01 -0.33562313868E+02  0.34292180134E+02  0.51100000000E-03 0.  1.
        -12    1    4    4    0    0  0.42646624208E+01  0.13034831655E+01  0.74281569767E+01  0.86639442517E+01  0.00000000000E+00 0.  1.
</event>
<event>
 8    1  0.2527138E-006  0.9118800E+02  0.7816164E-02  0.1184000E+00
        -11   -1    0    0    0    0  0.00000000000E+00  0.00000000000E+00  0.45593999997E+02  0.45594000000E+02  0.51100000000E-03 0. -1.
         11   -1    0    0    0    0 -0.00000000000E+00 -0.00000000000E+00 -0.45593999997E+02  0.45594000000E+02  0.51100000000E-03 0.  1.
         23    2    1    2    0    0  0.00000000000E+00  0.00000000000E+00  0.00000000000E+00  0.91188000000E+02  0.91188000000E+02 0.  0.
    9900012    2    3    3    0    0  0.30817362561E+02  0.13582105265E+02 -0.14886128343E+02  0.54367078832E+02  0.39999987813E+02 0.  0.
         12    1    3    3    0    0 -0.30817362561E+02 -0.13582105265E+02  0.14886128343E+02  0.36820921168E+02  0.00000000000E+00 0. -1.
         11    1    4    4    0    0  0.49308178184E+01  0.13273509442E+02  0.65328015668E+01  0.15594117924E+02  0.51100000000E-03 0. -1.
        -11    1    4    4    0    0  0.40292822587E+01 -0.14771035032E+01 -0.15464447546E+02  0.16048865644E+02  0.51100000000E-03 0.  1.
         12    1    4    4    0    0  0.21857262484E+02  0.17856993259E+01 -0.59544823635E+01  0.22724095264E+02  0.00000000000E+00 0. -1.
</event>
<event>
 8    1  0.2527138E-006  0.9118800E+02  0.7816164E-02  0.1184000E+00
        -11   -1    0    0    0    0  0.00000000000E+00  0.00000000000E+00  0.45593999997E+02  0.45594000000E+02  0.51100000000E-03 0.  1.
         11   -1    0    0    0    0 -0.00000000000E+00 -0.00000000000E+00 -0.45593999997E+02  0.45594000000E+02  0.51100000000E-03 0. -1.
         23    2    1    2    0    0  0.00000000000E+00  0.00000000000E+00  0.71054273576E-14  0.91188000000E+02  0.91188000000E+02 0.  0.
    9900012    2    3    3    0    0  0.18655398174E+02 -0.80039108207E+01  0.30719609065E+02  0.54367070482E+02  0.39999968779E+02 0.  0.
         12    1    3    3    0    0 -0.18655398174E+02  0.80039108207E+01 -0.30719609065E+02  0.36820929518E+02  0.00000000000E+00 0. -1.
         11    1    4    4    0    0  0.27130101090E+01  0.75674209211E+01  0.34500497187E+01  0.87480927391E+01  0.51100000000E-03 0. -1.
        -11    1    4    4    0    0  0.66011642315E+01 -0.72604591310E+01  0.31044468081E+02  0.32558388085E+02  0.51100000000E-03 0.  1.
         12    1    4    4    0    0  0.93412238333E+01 -0.83108726108E+01 -0.37749087353E+01  0.13060589658E+02  0.00000000000E+00 0. -1.
</event>
<event>
 8    1  0.2527138E-006  0.9118800E+02  0.7816164E-02  0.1184000E+00
        -11   -1    0    0    0    0  0.00000000000E+00  0.00000000000E+00  0.45593999997E+02  0.45594000000E+02  0.51100000000E-03 0. -1.
         11   -1    0    0    0    0 -0.00000000000E+00 -0.00000000000E+00 -0.45593999997E+02  0.45594000000E+02  0.51100000000E-03 0.  1.
         23    2    1    2    0    0  0.00000000000E+00  0.00000000000E+00  0.00000000000E+00  0.91188000000E+02  0.91188000000E+02 0.  0.
    9900012    2    3    3    0    0  0.13159170153E+02 -0.32947296605E+02 -0.98535403128E+01  0.54367077016E+02  0.39999983674E+02 0.  0.
        -12    1    3    3    0    0 -0.13159170153E+02  0.32947296605E+02  0.98535403128E+01  0.36820922984E+02  0.00000000000E+00 0.  1.
         11    1    4    4    0    0  0.11899951432E+02 -0.21640502143E+02 -0.16336299609E+02  0.29610722082E+02  0.51100000000E-03 0. -1.
        -11    1    4    4    0    0 -0.27543660456E+01 -0.90059263956E+01 -0.61871197793E+01  0.11268260468E+02  0.51100000000E-03 0.  1.
         12    1    4    4    0    0  0.40135847666E+01 -0.23008680669E+01  0.12669879075E+02  0.13488094466E+02  0.00000000000E+00 0. -1.
</event>
<event>
 8    1  0.2527138E-006  0.9118800E+02  0.7816164E-02  0.1184000E+00
        -11   -1    0    0    0    0  0.00000000000E+00  0.00000000000E+00  0.45593999997E+02  0.45594000000E+02  0.51100000000E-03 0. -1.
         11   -1    0    0    0    0 -0.00000000000E+00 -0.00000000000E+00 -0.45593999997E+02  0.45594000000E+02  0.51100000000E-03 0.  1.
         23    2    1    2    0    0  0.44408920985E-15 -0.17763568394E-14  0.00000000000E+00  0.91188000000E+02  0.91188000000E+02 0.  0.
    9900012    2    3    3    0    0 -0.23768132562E+01  0.10016032424E+02  0.35352648627E+02  0.54367083231E+02  0.39999997841E+02 0.  0.
        -12    1    3    3    0    0  0.23768132562E+01 -0.10016032424E+02 -0.35352648627E+02  0.36820916769E+02  0.00000000000E+00 0.  1.
         11    1    4    4    0    0  0.72726619895E+01  0.84046807015E+01  0.77820578155E+01  0.13568002587E+02  0.51100000000E-03 0. -1.
        -11    1    4    4    0    0 -0.14448244837E+02 -0.50777724359E+01  0.39943875522E+01  0.15826897484E+02  0.51100000000E-03 0.  1.
        -12    1    4    4    0    0  0.47987695915E+01  0.66891241583E+01  0.23576203260E+02  0.24972183159E+02  0.00000000000E+00 0.  1.
</event>
<event>
 8    1  0.2527138E-006  0.9118800E+02  0.7816164E-02  0.1184000E+00
        -11   -1    0    0    0    0  0.00000000000E+00  0.00000000000E+00  0.45593999997E+02  0.45594000000E+02  0.51100000000E-03 0. -1.
         11   -1    0    0    0    0 -0.00000000000E+00 -0.00000000000E+00 -0.45593999997E+02  0.45594000000E+02  0.51100000000E-03 0.  1.
         23    2    1    2    0    0  0.00000000000E+00  0.00000000000E+00  0.35527136788E-14  0.91188000000E+02  0.91188000000E+02 0.  0.
    9900012    2    3    3    0    0  0.94627979202E+01 -0.18320965852E+02 -0.30505370919E+02  0.54367082180E+02  0.39999995445E+02 0.  0.
         12    1    3    3    0    0 -0.94627979202E+01  0.18320965852E+02  0.30505370919E+02  0.36820917820E+02  0.00000000000E+00 0. -1.
         11    1    4    4    0    0  0.14861072110E+02 -0.26672028825E+01 -0.27242940235E+02  0.31147122313E+02  0.51100000000E-03 0. -1.
        -11    1    4    4    0    0  0.53685061795E+01 -0.44064730557E+01 -0.32066179221E+01  0.76498537338E+01  0.51100000000E-03 0.  1.
         12    1    4    4    0    0 -0.10766780369E+02 -0.11247289914E+02 -0.55812761781E-01  0.15570106133E+02  0.00000000000E+00 0. -1.
</event>
<event>
 8    1  0.2527138E-006  0.9118800E+02  0.7816164E-02  0.1184000E+00
        -11   -1    0    0    0    0  0.00000000000E+00  0.00000000000E+00  0.45593999997E+02  0.45594000000E+02  0.51100000000E-03 0.  1.
         11   -1    0    0    0    0 -0.00000000000E+00 -0.00000000000E+00 -0.45593999997E+02  0.45594000000E+02  0.51100000000E-03 0. -1.
         23    2    1    2    0    0  0.35527136788E-14 -0.88817841970E-15  0.00000000000E+00  0.91188000000E+02  0.91188000000E+02 0.  0.
    9900012    2    3    3    0    0  0.24187579694E+02  0.22094911581E+01  0.27674162072E+02  0.54367080551E+02  0.39999991733E+02 0.  0.
         12    1    3    3    0    0 -0.24187579694E+02 -0.22094911581E+01 -0.27674162072E+02  0.36820919449E+02  0.00000000000E+00 0. -1.
         11    1    4    4    0    0 -0.40031254164E+01  0.29440179471E+01 -0.53498687627E+00  0.49978461352E+01  0.51100000000E-03 0. -1.
        -11    1    4    4    0    0  0.33415287014E+02  0.34568231715E+01  0.25356719847E+02  0.42089122993E+02  0.51100000000E-03 0.  1.
        -12    1    4    4    0    0 -0.52245819035E+01 -0.41913499605E+01  0.28524291015E+01  0.72801114234E+01  0.00000000000E+00 0.  1.
</event>
<event>
 8    1  0.2527138E-006  0.9118800E+02  0.7816164E-02  0.1184000E+00
        -11   -1    0    0    0    0  0.00000000000E+00  0.00000000000E+00  0.45593999997E+02  0.45594000000E+02  0.51100000000E-03 0.  1.
         11   -1    0    0    0    0 -0.00000000000E+00 -0.00000000000E+00 -0.45593999997E+02  0.45594000000E+02  0.51100000000E-03 0. -1.
         23    2    1    2    0    0  0.35527136788E-14 -0.88817841970E-15  0.35527136788E-14  0.91188000000E+02  0.91188000000E+02 0.  0.
    9900012    2    3    3    0    0 -0.25156326305E+02  0.70213475210E+01 -0.25954561512E+02  0.54367091028E+02  0.40000015618E+02 0.  0.
        -12    1    3    3    0    0  0.25156326305E+02 -0.70213475210E+01  0.25954561512E+02  0.36820908972E+02  0.00000000000E+00 0.  1.
         11    1    4    4    0    0 -0.11547443444E+02  0.14249160423E+02 -0.19527372428E+02  0.26789929023E+02  0.51100000000E-03 0. -1.
        -11    1    4    4    0    0 -0.49972912093E+01  0.72779427670E+01 -0.60519050243E+01  0.10703594024E+02  0.51100000000E-03 0.  1.
        -12    1    4    4    0    0 -0.86115916522E+01 -0.14505755669E+02 -0.37528406045E+00  0.16873567982E+02  0.00000000000E+00 0.  1.
</event>
<event>
 8    1  0.2527138E-006  0.9118800E+02  0.7816164E-02  0.1184000E+00
        -11   -1    0    0    0    0  0.00000000000E+00  0.00000000000E+00  0.45593999997E+02  0.45594000000E+02  0.51100000000E-03 0. -1.
         11   -1    0    0    0    0 -0.00000000000E+00 -0.00000000000E+00 -0.45593999997E+02  0.45594000000E+02  0.51100000000E-03 0.  1.
         23    2    1    2    0    0  0.00000000000E+00  0.00000000000E+00 -0.88817841970E-15  0.91188000000E+02  0.91188000000E+02 0.  0.
    9900012    2    3    3    0    0 -0.34181180804E+02  0.13391011545E+02 -0.28469662714E+01  0.54367115596E+02  0.40000071624E+02 0.  0.
         12    1    3    3    0    0  0.34181180804E+02 -0.13391011545E+02  0.28469662714E+01  0.36820884404E+02  0.00000000000E+00 0. -1.
         11    1    4    4    0    0 -0.83427819257E+00  0.12781728267E+02  0.47059156260E-01  0.12809012937E+02  0.51100000000E-03 0. -1.
        -11    1    4    4    0    0 -0.11543019078E+02  0.94224996437E+01 -0.88067924739E+01  0.17308506085E+02  0.51100000000E-03 0.  1.
         12    1    4    4    0    0 -0.21803883533E+02 -0.88132163656E+01  0.59127670462E+01  0.24249596574E+02  0.00000000000E+00 0. -1.
</event>
<event>
 8    1  0.2527138E-006  0.9118800E+02  0.7816164E-02  0.1184000E+00
        -11   -1    0    0    0    0  0.00000000000E+00  0.00000000000E+00  0.45593999997E+02  0.45594000000E+02  0.51100000000E-03 0.  1.
         11   -1    0    0    0    0 -0.00000000000E+00 -0.00000000000E+00 -0.45593999997E+02  0.45594000000E+02  0.51100000000E-03 0. -1.
         23    2    1    2    0    0 -0.53290705182E-14  0.00000000000E+00 -0.35527136788E-14  0.91188000000E+02  0.91188000000E+02 0.  0.
    9900012    2    3    3    0    0 -0.12646570142E+02  0.22343931525E+02 -0.26393046444E+02  0.54367083214E+02  0.39999997803E+02 0.  0.
        -12    1    3    3    0    0  0.12646570142E+02 -0.22343931525E+02  0.26393046444E+02  0.36820916786E+02  0.00000000000E+00 0.  1.
         11    1    4    4    0    0 -0.87506186708E+01 -0.13705675019E+01 -0.76009047241E+01  0.11671569530E+02  0.51100000000E-03 0. -1.
        -11    1    4    4    0    0  0.43875701783E+01  0.25048528769E+02 -0.40744479391E+01  0.25754236386E+02  0.51100000000E-03 0.  1.
        -12    1    4    4    0    0 -0.82835216499E+01 -0.13340297422E+01 -0.14717693781E+02  0.16941277299E+02  0.00000000000E+00 0.  1.
</event>
<event>
 8    1  0.2527138E-006  0.9118800E+02  0.7816164E-02  0.1184000E+00
        -11   -1    0    0    0    0  0.00000000000E+00  0.00000000000E+00  0.45593999997E+02  0.45594000000E+02  0.51100000000E-03 0. -1.
         11   -1    0    0    0    0 -0.00000000000E+00 -0.00000000000E+00 -0.45593999997E+02  0.45594000000E+02  0.51100000000E-03 0.  1.
         23    2    1    2    0    0  0.17763568394E-14  0.35527136788E-14  0.00000000000E+00  0.91188000000E+02  0.91188000000E+02 0.  0.
    9900012    2    3    3    0    0 -0.15866517058E+02 -0.28683926303E+02 -0.16770990374E+02  0.54367080540E+02  0.39999991708E+02 0.  0.
         12    1    3    3    0    0  0.15866517058E+02  0.28683926303E+02  0.16770990374E+02  0.36820919460E+02  0.00000000000E+00 0. -1.
         11    1    4    4    0    0  0.21309802811E+01 -0.29272214529E+01 -0.38960998310E+01  0.53187683299E+01  0.51100000000E-03 0. -1.
        -11    1    4    4    0    0 -0.31850498859E+01 -0.92575092745E+01 -0.22756652186E+02  0.24773195993E+02  0.51100000000E-03 0.  1.
         12    1    4    4    0    0 -0.14812447454E+02 -0.16499195576E+02  0.98817616425E+01  0.24275116218E+02  0.00000000000E+00 0. -1.
</event>
<event>
 8    1  0.2527138E-006  0.9118800E+02  0.7816164E-02  0.1184000E+00
        -11   -1    0    0    0    0  0.00000000000E+00  0.00000000000E+00  0.45593999997E+02  0.45594000000E+02  0.51100000000E-03 0.  1.
         11   -1    0    0    0    0 -0.00000000000E+00 -0.00000000000E+00 -0.45593999997E+02  0.45594000000E+02  0.51100000000E-03 0. -1.
         23    2    1    2    0    0  0.35527136788E-14  0.13322676296E-14  0.00000000000E+00  0.91188000000E+02  0.91188000000E+02 0.  0.
    9900012    2    3    3    0    0  0.13211509099E+02 -0.23350076905E+01  0.34289715367E+02  0.54367070985E+02  0.39999969924E+02 0.  0.
         12    1    3    3    0    0 -0.13211509099E+02  0.23350076905E+01 -0.34289715367E+02  0.36820929015E+02  0.00000000000E+00 0. -1.
         11    1    4    4    0    0 -0.34245473102E+01  0.15200939632E+01  0.16712574671E+02  0.17127415518E+02  0.51100000000E-03 0. -1.
        -11    1    4    4    0    0  0.30770115220E+01  0.63607530604E+01  0.18933250266E+02  0.20208788813E+02  0.51100000000E-03 0.  1.
         12    1    4    4    0    0  0.13559044887E+02 -0.10215854714E+02 -0.13561095698E+01  0.17030866653E+02  0.00000000000E+00 0. -1.
</event>
<event>
 8    1  0.2527138E-006  0.9118800E+02  0.7816164E-02  0.1184000E+00
        -11   -1    0    0    0    0  0.00000000000E+00  0.00000000000E+00  0.45593999997E+02  0.45594000000E+02  0.51100000000E-03 0.  1.
         11   -1    0    0    0    0 -0.00000000000E+00 -0.00000000000E+00 -0.45593999997E+02  0.45594000000E+02  0.51100000000E-03 0. -1.
         23    2    1    2    0    0  0.00000000000E+00 -0.17763568394E-14  0.00000000000E+00  0.91188000000E+02  0.91188000000E+02 0.  0.
    9900012    2    3    3    0    0  0.23976640934E+02  0.14826998184E+02 -0.23686737287E+02  0.54367072405E+02  0.39999973163E+02 0.  0.
        -12    1    3    3    0    0 -0.23976640934E+02 -0.14826998184E+02  0.23686737287E+02  0.36820927595E+02  0.00000000000E+00 0.  1.
         11    1    4    4    0    0  0.17555483024E+02 -0.11270721326E+00 -0.10587815632E+02  0.20501451833E+02  0.51100000000E-03 0. -1.
        -11    1    4    4    0    0  0.16187637047E+01 -0.66929623699E+01  0.18564226904E+01  0.71317912675E+01  0.51100000000E-03 0.  1.
        -12    1    4    4    0    0  0.48023942051E+01  0.21632667767E+02 -0.14955344346E+02  0.26733829305E+02  0.00000000000E+00 0.  1.
</event>
<event>
 8    1  0.2527138E-006  0.9118800E+02  0.7816164E-02  0.1184000E+00
        -11   -1    0    0    0    0  0.00000000000E+00  0.00000000000E+00  0.45593999997E+02  0.45594000000E+02  0.51100000000E-03 0.  1.
         11   -1    0    0    0    0 -0.00000000000E+00 -0.00000000000E+00 -0.45593999997E+02  0.45594000000E+02  0.51100000000E-03 0. -1.
         23    2    1    2    0    0  0.71054273576E-14  0.00000000000E+00  0.00000000000E+00  0.91188000000E+02  0.91188000000E+02 0.  0.
    9900012    2    3    3    0    0  0.27685914162E+02 -0.20875065704E+02 -0.12389514635E+02  0.54367105334E+02  0.40000048230E+02 0.  0.
        -12    1    3    3    0    0 -0.27685914162E+02  0.20875065704E+02  0.12389514635E+02  0.36820894666E+02  0.00000000000E+00 0.  1.
         11    1    4    4    0    0  0.86559065294E+01 -0.12514191836E+02 -0.61772292524E+01  0.16422176368E+02  0.51100000000E-03 0. -1.
        -11    1    4    4    0    0  0.97875263099E+01  0.10976295645E+02  0.22979040695E+01  0.14884727096E+02  0.51100000000E-03 0.  1.
        -12    1    4    4    0    0  0.92424813226E+01 -0.19337169512E+02 -0.85101894523E+01  0.23060201870E+02  0.00000000000E+00 0.  1.
</event>
<event>
 8    1  0.2527138E-006  0.9118800E+02  0.7816164E-02  0.1184000E+00
        -11   -1    0    0    0    0  0.00000000000E+00  0.00000000000E+00  0.45593999997E+02  0.45594000000E+02  0.51100000000E-03 0. -1.
         11   -1    0    0    0    0 -0.00000000000E+00 -0.00000000000E+00 -0.45593999997E+02  0.45594000000E+02  0.51100000000E-03 0.  1.
         23    2    1    2    0    0 -0.71054273576E-14  0.17763568394E-14  0.35527136788E-14  0.91188000000E+02  0.91188000000E+02 0.  0.
    9900012    2    3    3    0    0  0.31538711807E+02 -0.82168203283E+01 -0.17133970842E+02  0.54367089697E+02  0.40000012582E+02 0.  0.
         12    1    3    3    0    0 -0.31538711807E+02  0.82168203283E+01  0.17133970842E+02  0.36820910303E+02  0.00000000000E+00 0. -1.
         11    1    4    4    0    0  0.50573443904E+00 -0.75493573317E+01  0.11435287634E+01  0.76522037178E+01  0.51100000000E-03 0. -1.
        -11    1    4    4    0    0 -0.44794628704E+01  0.52995717040E+01 -0.22090552076E+01  0.72822368146E+01  0.51100000000E-03 0.  1.
        -12    1    4    4    0    0  0.35512440238E+02 -0.59670347006E+01 -0.16068444398E+02  0.39432649165E+02  0.00000000000E+00 0.  1.
</event>
<event>
 8    1  0.2527138E-006  0.9118800E+02  0.7816164E-02  0.1184000E+00
        -11   -1    0    0    0    0  0.00000000000E+00  0.00000000000E+00  0.45593999997E+02  0.45594000000E+02  0.51100000000E-03 0. -1.
         11   -1    0    0    0    0 -0.00000000000E+00 -0.00000000000E+00 -0.45593999997E+02  0.45594000000E+02  0.51100000000E-03 0.  1.
         23    2    1    2    0    0  0.00000000000E+00  0.00000000000E+00  0.00000000000E+00  0.91188000000E+02  0.91188000000E+02 0.  0.
    9900012    2    3    3    0    0 -0.27060667472E+02  0.13838121713E+02 -0.20784775142E+02  0.54367079123E+02  0.39999988476E+02 0.  0.
         12    1    3    3    0    0  0.27060667472E+02 -0.13838121713E+02  0.20784775142E+02  0.36820920877E+02  0.00000000000E+00 0. -1.
         11    1    4    4    0    0 -0.47917813223E+01 -0.10212065657E+02 -0.14947259779E+02  0.18726132233E+02  0.51100000000E-03 0. -1.
        -11    1    4    4    0    0 -0.49801723719E+01  0.14654701255E+02 -0.22694008350E+01  0.15643291410E+02  0.51100000000E-03 0.  1.
         12    1    4    4    0    0 -0.17288713777E+02  0.93954861150E+01 -0.35681145274E+01  0.19997655480E+02  0.00000000000E+00 0. -1.
</event>
<event>
 8    1  0.2527138E-006  0.9118800E+02  0.7816164E-02  0.1184000E+00
        -11   -1    0    0    0    0  0.00000000000E+00  0.00000000000E+00  0.45593999997E+02  0.45594000000E+02  0.51100000000E-03 0. -1.
         11   -1    0    0    0    0 -0.00000000000E+00 -0.00000000000E+00 -0.45593999997E+02  0.45594000000E+02  0.51100000000E-03 0.  1.
         23    2    1    2    0    0 -0.11102230246E-14  0.66613381478E-15  0.14210854715E-13  0.91188000000E+02  0.91188000000E+02 0.  0.
    9900012    2    3    3    0    0 -0.19521778707E+01 -0.73906838759E+00 -0.36761683421E+02  0.54367101200E+02  0.40000038805E+02 0.  0.
         12    1    3    3    0    0  0.19521778707E+01  0.73906838759E+00  0.36761683421E+02  0.36820898800E+02  0.00000000000E+00 0. -1.
         11    1    4    4    0    0 -0.14448241909E+02  0.24250785986E+01  0.18854834945E+00  0.14651561392E+02  0.51100000000E-03 0. -1.
        -11    1    4    4    0    0  0.12144849667E+02 -0.89438441562E+00 -0.29357151339E+02  0.31782693906E+02  0.51100000000E-03 0.  1.
         12    1    4    4    0    0  0.35121437098E+00 -0.22697625706E+01 -0.75930804312E+01  0.79328459015E+01  0.00000000000E+00 0. -1.
</event>
<event>
 8    1  0.2527138E-006  0.9118800E+02  0.7816164E-02  0.1184000E+00
        -11   -1    0    0    0    0  0.00000000000E+00  0.00000000000E+00  0.45593999997E+02  0.45594000000E+02  0.51100000000E-03 0.  1.
         11   -1    0    0    0    0 -0.00000000000E+00 -0.00000000000E+00 -0.45593999997E+02  0.45594000000E+02  0.51100000000E-03 0. -1.
         23    2    1    2    0    0 -0.11102230246E-15  0.35527136788E-14 -0.35527136788E-14  0.91188000000E+02  0.91188000000E+02 0.  0.
    9900012    2    3    3    0    0 -0.93591566848E+00  0.27386872323E+02  0.24593973816E+02  0.54367078477E+02  0.39999987004E+02 0.  0.
         12    1    3    3    0    0  0.93591566848E+00 -0.27386872323E+02 -0.24593973816E+02  0.36820921523E+02  0.00000000000E+00 0. -1.
         11    1    4    4    0    0  0.34596574805E+01  0.12956617270E+00 -0.70290437819E+00  0.35327173821E+01  0.51100000000E-03 0. -1.
        -11    1    4    4    0    0  0.12443852971E+01 -0.12663715204E+01  0.21428856878E+02  0.21502281250E+02  0.51100000000E-03 0.  1.
        -12    1    4    4    0    0 -0.56399584461E+01  0.28523677670E+02  0.38680213154E+01  0.29332079845E+02  0.00000000000E+00 0.  1.
</event>
<event>
 8    1  0.2527138E-006  0.9118800E+02  0.7816164E-02  0.1184000E+00
        -11   -1    0    0    0    0  0.00000000000E+00  0.00000000000E+00  0.45593999997E+02  0.45594000000E+02  0.51100000000E-03 0.  1.
         11   -1    0    0    0    0 -0.00000000000E+00 -0.00000000000E+00 -0.45593999997E+02  0.45594000000E+02  0.51100000000E-03 0. -1.
         23    2    1    2    0    0  0.71054273576E-14 -0.44408920985E-15 -0.22204460493E-15  0.91188000000E+02  0.91188000000E+02 0.  0.
    9900012    2    3    3    0    0 -0.36707063557E+02 -0.26427054849E+01  0.11775648121E+01  0.54367094713E+02  0.40000024017E+02 0.  0.
         12    1    3    3    0    0  0.36707063557E+02  0.26427054849E+01 -0.11775648121E+01  0.36820905287E+02  0.00000000000E+00 0. -1.
         11    1    4    4    0    0 -0.20517065872E+02  0.86845291876E+01 -0.61700990759E+01  0.23117983521E+02  0.51100000000E-03 0.  1.
        -11    1    4    4    0    0 -0.60324295049E+01 -0.15890640119E+02 -0.14481558138E+01  0.17058716383E+02  0.51100000000E-03 0. -1.
        -12    1    4    4    0    0 -0.10157568180E+02  0.45634054465E+01  0.87958197018E+01  0.14190394809E+02  0.00000000000E+00 0.  1.
</event>
<event>
 8    1  0.2527138E-006  0.9118800E+02  0.7816164E-02  0.1184000E+00
        -11   -1    0    0    0    0  0.00000000000E+00  0.00000000000E+00  0.45593999997E+02  0.45594000000E+02  0.51100000000E-03 0. -1.
         11   -1    0    0    0    0 -0.00000000000E+00 -0.00000000000E+00 -0.45593999997E+02  0.45594000000E+02  0.51100000000E-03 0.  1.
         23    2    1    2    0    0  0.71054273576E-14  0.00000000000E+00  0.00000000000E+00  0.91188000000E+02  0.91188000000E+02 0.  0.
    9900012    2    3    3    0    0 -0.34781271127E+02  0.10491290542E+02 -0.59981353774E+01  0.54367059946E+02  0.39999944759E+02 0.  0.
        -12    1    3    3    0    0  0.34781271127E+02 -0.10491290542E+02  0.59981353774E+01  0.36820940054E+02  0.00000000000E+00 0.  1.
         11    1    4    4    0    0 -0.36132045721E+01  0.38430319903E+01 -0.11810573636E+02  0.12934983264E+02  0.51100000000E-03 0. -1.
        -11    1    4    4    0    0  0.41975165502E+01  0.50512574439E+00 -0.20304396769E+01  0.46900941088E+01  0.51100000000E-03 0.  1.
         12    1    4    4    0    0 -0.35365583105E+02  0.61431328073E+01  0.78428779359E+01  0.36741982573E+02  0.00000000000E+00 0. -1.
</event>
<event>
 8    1  0.2527138E-006  0.9118800E+02  0.7816164E-02  0.1184000E+00
        -11   -1    0    0    0    0  0.00000000000E+00  0.00000000000E+00  0.45593999997E+02  0.45594000000E+02  0.51100000000E-03 0. -1.
         11   -1    0    0    0    0 -0.00000000000E+00 -0.00000000000E+00 -0.45593999997E+02  0.45594000000E+02  0.51100000000E-03 0.  1.
         23    2    1    2    0    0  0.00000000000E+00  0.19984014443E-14  0.71054273576E-14  0.91188000000E+02  0.91188000000E+02 0.  0.
    9900012    2    3    3    0    0  0.12531577261E+02  0.16013766553E+01  0.34585771403E+02  0.54367076337E+02  0.39999982126E+02 0.  0.
        -12    1    3    3    0    0 -0.12531577261E+02 -0.16013766553E+01 -0.34585771403E+02  0.36820923663E+02  0.00000000000E+00 0.  1.
         11    1    4    4    0    0 -0.45091915014E+01 -0.48830143484E+01  0.72724413711E+01  0.98521591989E+01  0.51100000000E-03 0. -1.
        -11    1    4    4    0    0  0.62696408077E+01  0.14409728120E+02  0.19407563677E+01  0.15833988629E+02  0.51100000000E-03 0.  1.
        -12    1    4    4    0    0  0.10771127955E+02 -0.79253371163E+01  0.25372573664E+02  0.28680928510E+02  0.00000000000E+00 0.  1.
</event>
<event>
 8    1  0.2527138E-006  0.9118800E+02  0.7816164E-02  0.1184000E+00
        -11   -1    0    0    0    0  0.00000000000E+00  0.00000000000E+00  0.45593999997E+02  0.45594000000E+02  0.51100000000E-03 0. -1.
         11   -1    0    0    0    0 -0.00000000000E+00 -0.00000000000E+00 -0.45593999997E+02  0.45594000000E+02  0.51100000000E-03 0.  1.
         23    2    1    2    0    0  0.00000000000E+00 -0.71054273576E-14 -0.22204460493E-14  0.91188000000E+02  0.91188000000E+02 0.  0.
    9900012    2    3    3    0    0 -0.20300575559E+02  0.30636588752E+02  0.22503656730E+01  0.54367108049E+02  0.40000054420E+02 0.  0.
        -12    1    3    3    0    0  0.20300575559E+02 -0.30636588752E+02 -0.22503656730E+01  0.36820891951E+02  0.00000000000E+00 0.  1.
         11    1    4    4    0    0 -0.11815707227E+02  0.34314903527E+01 -0.95882182120E+01  0.15598717642E+02  0.51100000000E-03 0. -1.
        -11    1    4    4    0    0  0.67655263235E+01  0.50650574291E+01 -0.17720914271E+01  0.86352453052E+01  0.51100000000E-03 0.  1.
         12    1    4    4    0    0 -0.15250394655E+02  0.22140040970E+02  0.13610675312E+02  0.30133145102E+02  0.00000000000E+00 0. -1.
</event>
<event>
 8    1  0.2527138E-006  0.9118800E+02  0.7816164E-02  0.1184000E+00
        -11   -1    0    0    0    0  0.00000000000E+00  0.00000000000E+00  0.45593999997E+02  0.45594000000E+02  0.51100000000E-03 0.  1.
         11   -1    0    0    0    0 -0.00000000000E+00 -0.00000000000E+00 -0.45593999997E+02  0.45594000000E+02  0.51100000000E-03 0. -1.
         23    2    1    2    0    0  0.35527136788E-14 -0.35527136788E-14  0.35527136788E-14  0.91188000000E+02  0.91188000000E+02 0.  0.
    9900012    2    3    3    0    0 -0.22689806520E+02  0.12629272623E+02  0.26104648397E+02  0.54367102200E+02  0.40000041085E+02 0.  0.
         12    1    3    3    0    0  0.22689806520E+02 -0.12629272623E+02 -0.26104648397E+02  0.36820897800E+02  0.00000000000E+00 0. -1.
         11    1    4    4    0    0 -0.15889320891E+02  0.41016942283E+01 -0.52449998677E+01  0.17228013170E+02  0.51100000000E-03 0. -1.
        -11    1    4    4    0    0  0.10862228083E+01 -0.44694811026E+01  0.57226182551E+01  0.73419684874E+01  0.51100000000E-03 0.  1.
        -12    1    4    4    0    0 -0.78867084372E+01  0.12997059497E+02  0.25627030009E+02  0.29797120543E+02  0.00000000000E+00 0.  1.
</event>
<event>
 8    1  0.2527138E-006  0.9118800E+02  0.7816164E-02  0.1184000E+00
        -11   -1    0    0    0    0  0.00000000000E+00  0.00000000000E+00  0.45593999997E+02  0.45594000000E+02  0.51100000000E-03 0. -1.
         11   -1    0    0    0    0 -0.00000000000E+00 -0.00000000000E+00 -0.45593999997E+02  0.45594000000E+02  0.51100000000E-03 0.  1.
         23    2    1    2    0    0  0.00000000000E+00  0.00000000000E+00  0.71054273576E-14  0.91188000000E+02  0.91188000000E+02 0.  0.
    9900012    2    3    3    0    0  0.14924801425E+01 -0.17983219624E+02  0.32095904339E+02  0.54367207499E+02  0.40000281135E+02 0.  0.
        -12    1    3    3    0    0 -0.14924801425E+01  0.17983219624E+02 -0.32095904339E+02  0.36820792501E+02  0.00000000000E+00 0.  1.
         11    1    4    4    0    0  0.31520318603E+01  0.40623929613E+01  0.63654990405E+01  0.81827819057E+01  0.51100000000E-03 0. -1.
        -11    1    4    4    0    0 -0.18118035329E+01 -0.19752010019E+02 -0.51200067976E+00  0.19841539174E+02  0.51100000000E-03 0.  1.
         12    1    4    4    0    0  0.15225181518E+00 -0.22936025659E+01  0.26242405979E+02  0.26342886419E+02  0.00000000000E+00 0. -1.
</event>
<event>
 8    1  0.2527138E-006  0.9118800E+02  0.7816164E-02  0.1184000E+00
        -11   -1    0    0    0    0  0.00000000000E+00  0.00000000000E+00  0.45593999997E+02  0.45594000000E+02  0.51100000000E-03 0.  1.
         11   -1    0    0    0    0 -0.00000000000E+00 -0.00000000000E+00 -0.45593999997E+02  0.45594000000E+02  0.51100000000E-03 0. -1.
         23    2    1    2    0    0 -0.71054273576E-14  0.00000000000E+00  0.00000000000E+00  0.91188000000E+02  0.91188000000E+02 0.  0.
    9900012    2    3    3    0    0  0.20998998234E+02 -0.29057196695E+02 -0.83965073856E+01  0.54367082808E+02  0.39999996877E+02 0.  0.
        -12    1    3    3    0    0 -0.20998998234E+02  0.29057196695E+02  0.83965073856E+01  0.36820917192E+02  0.00000000000E+00 0.  1.
         11    1    4    4    0    0  0.21423024645E+02 -0.11971339748E+02 -0.54656770428E+01  0.25142247037E+02  0.51100000000E-03 0. -1.
        -11    1    4    4    0    0 -0.91760257623E+01 -0.13775210353E+02  0.46385843128E+01  0.17189308705E+02  0.51100000000E-03 0.  1.
        -12    1    4    4    0    0  0.87519993510E+01 -0.33106465945E+01 -0.75694146556E+01  0.12035527065E+02  0.00000000000E+00 0.  1.
</event>
<event>
 8    1  0.2527138E-006  0.9118800E+02  0.7816164E-02  0.1184000E+00
        -11   -1    0    0    0    0  0.00000000000E+00  0.00000000000E+00  0.45593999997E+02  0.45594000000E+02  0.51100000000E-03 0.  1.
         11   -1    0    0    0    0 -0.00000000000E+00 -0.00000000000E+00 -0.45593999997E+02  0.45594000000E+02  0.51100000000E-03 0. -1.
         23    2    1    2    0    0 -0.35527136788E-14  0.17763568394E-14 -0.35527136788E-14  0.91188000000E+02  0.91188000000E+02 0.  0.
    9900012    2    3    3    0    0 -0.20935100708E+02  0.14902772084E+02 -0.26370552219E+02  0.54367121660E+02  0.40000085448E+02 0.  0.
        -12    1    3    3    0    0  0.20935100708E+02 -0.14902772084E+02  0.26370552219E+02  0.36820878340E+02  0.00000000000E+00 0.  1.
         11    1    4    4    0    0 -0.16170878288E+02  0.14592813838E+02 -0.84640032671E+00  0.21798254841E+02  0.51100000000E-03 0.  1.
        -11    1    4    4    0    0 -0.58873548172E+00  0.92279919869E+01 -0.70267685980E+01  0.11613695483E+02  0.51100000000E-03 0. -1.
        -12    1    4    4    0    0 -0.41754869381E+01 -0.89180337418E+01 -0.18497383294E+02  0.20955171336E+02  0.00000000000E+00 0.  1.
</event>
<event>
 8    1  0.2527138E-006  0.9118800E+02  0.7816164E-02  0.1184000E+00
        -11   -1    0    0    0    0  0.00000000000E+00  0.00000000000E+00  0.45593999997E+02  0.45594000000E+02  0.51100000000E-03 0.  1.
         11   -1    0    0    0    0 -0.00000000000E+00 -0.00000000000E+00 -0.45593999997E+02  0.45594000000E+02  0.51100000000E-03 0. -1.
         23    2    1    2    0    0  0.00000000000E+00  0.00000000000E+00  0.35527136788E-14  0.91188000000E+02  0.91188000000E+02 0.  0.
    9900012    2    3    3    0    0 -0.34708417406E+02  0.45691750313E+01 -0.11411701758E+02  0.54367101908E+02  0.40000040421E+02 0.  0.
         12    1    3    3    0    0  0.34708417406E+02 -0.45691750313E+01  0.11411701758E+02  0.36820898092E+02  0.00000000000E+00 0. -1.
         11    1    4    4    0    0 -0.16487101302E+02 -0.14257114419E+01 -0.18690234643E+02  0.24963614196E+02  0.51100000000E-03 0. -1.
        -11    1    4    4    0    0 -0.88726557223E+01  0.73402108153E+01 -0.60966404758E+01  0.13029648488E+02  0.51100000000E-03 0.  1.
        -12    1    4    4    0    0 -0.93486603812E+01 -0.13453243421E+01  0.13375173361E+02  0.16373839224E+02  0.00000000000E+00 0.  1.
</event>
<event>
 8    1  0.2527138E-006  0.9118800E+02  0.7816164E-02  0.1184000E+00
        -11   -1    0    0    0    0  0.00000000000E+00  0.00000000000E+00  0.45593999997E+02  0.45594000000E+02  0.51100000000E-03 0. -1.
         11   -1    0    0    0    0 -0.00000000000E+00 -0.00000000000E+00 -0.45593999997E+02  0.45594000000E+02  0.51100000000E-03 0.  1.
         23    2    1    2    0    0  0.00000000000E+00  0.00000000000E+00  0.88817841970E-15  0.91188000000E+02  0.91188000000E+02 0.  0.
    9900012    2    3    3    0    0  0.67885373107E+01  0.35335208905E+02 -0.78178271121E+01  0.54367086812E+02  0.40000006006E+02 0.  0.
         12    1    3    3    0    0 -0.67885373107E+01 -0.35335208905E+02  0.78178271121E+01  0.36820913188E+02  0.00000000000E+00 0. -1.
         11    1    4    4    0    0 -0.25617090678E+01  0.22448120286E+02  0.14356955895E+02  0.26769434819E+02  0.51100000000E-03 0. -1.
        -11    1    4    4    0    0  0.75687917076E+01  0.11444368879E+02 -0.16388925450E+02  0.21374214947E+02  0.51100000000E-03 0.  1.
         12    1    4    4    0    0  0.17814546709E+01  0.14427197408E+01 -0.57858575569E+01  0.62234370459E+01  0.00000000000E+00 0. -1.
</event>
<event>
 8    1  0.2527138E-006  0.9118800E+02  0.7816164E-02  0.1184000E+00
        -11   -1    0    0    0    0  0.00000000000E+00  0.00000000000E+00  0.45593999997E+02  0.45594000000E+02  0.51100000000E-03 0. -1.
         11   -1    0    0    0    0 -0.00000000000E+00 -0.00000000000E+00 -0.45593999997E+02  0.45594000000E+02  0.51100000000E-03 0.  1.
         23    2    1    2    0    0 -0.35527136788E-14  0.00000000000E+00  0.22204460493E-15  0.91188000000E+02  0.91188000000E+02 0.  0.
    9900012    2    3    3    0    0 -0.16644585565E+02 -0.32800068399E+02 -0.17008757893E+01  0.54367086187E+02  0.40000004580E+02 0.  0.
        -12    1    3    3    0    0  0.16644585565E+02  0.32800068399E+02  0.17008757893E+01  0.36820913813E+02  0.00000000000E+00 0.  1.
         11    1    4    4    0    0 -0.17346874656E+02 -0.17345644711E+02  0.26945982507E+01  0.24678863644E+02  0.51100000000E-03 0. -1.
        -11    1    4    4    0    0  0.64474742186E+01 -0.35826466371E+01  0.84921036891E+01  0.11248160119E+02  0.51100000000E-03 0.  1.
        -12    1    4    4    0    0 -0.57451851277E+01 -0.11871777051E+02 -0.12887577729E+02  0.18440062424E+02  0.00000000000E+00 0.  1.
</event>
<event>
 8    1  0.2527138E-006  0.9118800E+02  0.7816164E-02  0.1184000E+00
        -11   -1    0    0    0    0  0.00000000000E+00  0.00000000000E+00  0.45593999997E+02  0.45594000000E+02  0.51100000000E-03 0.  1.
         11   -1    0    0    0    0 -0.00000000000E+00 -0.00000000000E+00 -0.45593999997E+02  0.45594000000E+02  0.51100000000E-03 0. -1.
         23    2    1    2    0    0  0.00000000000E+00  0.55511151231E-15 -0.35527136788E-14  0.91188000000E+02  0.91188000000E+02 0.  0.
    9900012    2    3    3    0    0 -0.28840833557E+02  0.27247481136E+00 -0.22889125512E+02  0.54367082175E+02  0.39999995434E+02 0.  0.
        -12    1    3    3    0    0  0.28840833557E+02 -0.27247481136E+00  0.22889125512E+02  0.36820917825E+02  0.00000000000E+00 0.  1.
         11    1    4    4    0    0 -0.40646954840E+01 -0.28808147132E+01 -0.42200437291E+01  0.65291356339E+01  0.51100000000E-03 0. -1.
        -11    1    4    4    0    0 -0.20428851505E+02 -0.11359621661E+02 -0.22249013592E+02  0.32270692341E+02  0.51100000000E-03 0.  1.
        -12    1    4    4    0    0 -0.43472865679E+01  0.14512911185E+02  0.35799318090E+01  0.15567254200E+02  0.00000000000E+00 0.  1.
</event>
<event>
 8    1  0.2527138E-006  0.9118800E+02  0.7816164E-02  0.1184000E+00
        -11   -1    0    0    0    0  0.00000000000E+00  0.00000000000E+00  0.45593999997E+02  0.45594000000E+02  0.51100000000E-03 0.  1.
         11   -1    0    0    0    0 -0.00000000000E+00 -0.00000000000E+00 -0.45593999997E+02  0.45594000000E+02  0.51100000000E-03 0. -1.
         23    2    1    2    0    0 -0.71054273576E-14  0.00000000000E+00  0.00000000000E+00  0.91188000000E+02  0.91188000000E+02 0.  0.
    9900012    2    3    3    0    0 -0.35094146001E+02  0.51321319256E+01  0.98915894230E+01  0.54367062981E+02  0.39999951677E+02 0.  0.
         12    1    3    3    0    0  0.35094146001E+02 -0.51321319256E+01 -0.98915894230E+01  0.36820937019E+02  0.00000000000E+00 0. -1.
         11    1    4    4    0    0  0.75133715890E+01  0.54896013599E+01  0.17227625247E+01  0.94633179543E+01  0.51100000000E-03 0. -1.
        -11    1    4    4    0    0 -0.27565175548E+02 -0.29398368714E+01  0.10133158995E+02  0.29515461293E+02  0.51100000000E-03 0.  1.
         12    1    4    4    0    0 -0.15042342042E+02  0.25823674370E+01 -0.19643320965E+01  0.15388283734E+02  0.00000000000E+00 0. -1.
</event>
<event>
 8    1  0.2527138E-006  0.9118800E+02  0.7816164E-02  0.1184000E+00
        -11   -1    0    0    0    0  0.00000000000E+00  0.00000000000E+00  0.45593999997E+02  0.45594000000E+02  0.51100000000E-03 0.  1.
         11   -1    0    0    0    0 -0.00000000000E+00 -0.00000000000E+00 -0.45593999997E+02  0.45594000000E+02  0.51100000000E-03 0. -1.
         23    2    1    2    0    0  0.00000000000E+00  0.35527136788E-14  0.35527136788E-14  0.91188000000E+02  0.91188000000E+02 0.  0.
    9900012    2    3    3    0    0  0.24604933076E+02  0.17341991514E+02  0.21204543947E+02  0.54367080873E+02  0.39999992465E+02 0.  0.
         12    1    3    3    0    0 -0.24604933076E+02 -0.17341991514E+02 -0.21204543947E+02  0.36820919127E+02  0.00000000000E+00 0. -1.
         11    1    4    4    0    0  0.11908321645E+02  0.20234265025E+02  0.23650245645E+01  0.23597180911E+02  0.51100000000E-03 0. -1.
        -11    1    4    4    0    0  0.14731229185E+02  0.27179250409E+01  0.19691447231E+02  0.24741651605E+02  0.51100000000E-03 0.  1.
         12    1    4    4    0    0 -0.20346177542E+01 -0.56101985511E+01 -0.85192784859E+00  0.60282483565E+01  0.00000000000E+00 0. -1.
</event>
<event>
 8    1  0.2527138E-006  0.9118800E+02  0.7816164E-02  0.1184000E+00
        -11   -1    0    0    0    0  0.00000000000E+00  0.00000000000E+00  0.45593999997E+02  0.45594000000E+02  0.51100000000E-03 0. -1.
         11   -1    0    0    0    0 -0.00000000000E+00 -0.00000000000E+00 -0.45593999997E+02  0.45594000000E+02  0.51100000000E-03 0.  1.
         23    2    1    2    0    0  0.00000000000E+00  0.00000000000E+00  0.00000000000E+00  0.91188000000E+02  0.91188000000E+02 0.  0.
    9900012    2    3    3    0    0 -0.19026217023E+02 -0.16050750097E+02 -0.27132183087E+02  0.54367097350E+02  0.40000030029E+02 0.  0.
         12    1    3    3    0    0  0.19026217023E+02  0.16050750097E+02  0.27132183087E+02  0.36820902650E+02  0.00000000000E+00 0. -1.
         11    1    4    4    0    0 -0.17467776704E+02 -0.65265689671E+00 -0.25262587708E+02  0.30720473987E+02  0.51100000000E-03 0. -1.
        -11    1    4    4    0    0 -0.23825823587E+01  0.23285141330E+01 -0.46128506568E+01  0.56900850791E+01  0.51100000000E-03 0.  1.
         12    1    4    4    0    0  0.82414203995E+00 -0.17726607333E+02  0.27432552772E+01  0.17956538284E+02  0.00000000000E+00 0. -1.
</event>
<event>
 8    1  0.2527138E-006  0.9118800E+02  0.7816164E-02  0.1184000E+00
        -11   -1    0    0    0    0  0.00000000000E+00  0.00000000000E+00  0.45593999997E+02  0.45594000000E+02  0.51100000000E-03 0.  1.
         11   -1    0    0    0    0 -0.00000000000E+00 -0.00000000000E+00 -0.45593999997E+02  0.45594000000E+02  0.51100000000E-03 0. -1.
         23    2    1    2    0    0  0.17763568394E-14  0.00000000000E+00  0.00000000000E+00  0.91188000000E+02  0.91188000000E+02 0.  0.
    9900012    2    3    3    0    0 -0.91715685910E+01 -0.28768994739E+01  0.35544145327E+02  0.54367075405E+02  0.39999980000E+02 0.  0.
         12    1    3    3    0    0  0.91715685910E+01  0.28768994739E+01 -0.35544145327E+02  0.36820924595E+02  0.00000000000E+00 0. -1.
         11    1    4    4    0    0  0.25995933972E+01 -0.60320535832E+01  0.20224404626E+02  0.21264291641E+02  0.51100000000E-03 0. -1.
        -11    1    4    4    0    0 -0.53157190308E+01 -0.22256399707E+01  0.21763020050E+02  0.22513093614E+02  0.51100000000E-03 0.  1.
         12    1    4    4    0    0 -0.64554429575E+01  0.53807940800E+01 -0.64432793488E+01  0.10589690150E+02  0.00000000000E+00 0. -1.
</event>
<event>
 8    1  0.2527138E-006  0.9118800E+02  0.7816164E-02  0.1184000E+00
        -11   -1    0    0    0    0  0.00000000000E+00  0.00000000000E+00  0.45593999997E+02  0.45594000000E+02  0.51100000000E-03 0. -1.
         11   -1    0    0    0    0 -0.00000000000E+00 -0.00000000000E+00 -0.45593999997E+02  0.45594000000E+02  0.51100000000E-03 0.  1.
         23    2    1    2    0    0  0.35527136788E-14  0.00000000000E+00  0.35527136788E-14  0.91188000000E+02  0.91188000000E+02 0.  0.
    9900012    2    3    3    0    0  0.27273963933E+02  0.11336363284E+02  0.21986300483E+02  0.54367086784E+02  0.40000005942E+02 0.  0.
        -12    1    3    3    0    0 -0.27273963933E+02 -0.11336363284E+02 -0.21986300483E+02  0.36820913216E+02  0.00000000000E+00 0.  1.
         11    1    4    4    0    0  0.24074362163E+01  0.68575816384E+01  0.20310989054E+02  0.21572168450E+02  0.51100000000E-03 0. -1.
        -11    1    4    4    0    0  0.22795233131E+02  0.16018419758E+01  0.90768987746E+01  0.24588180959E+02  0.51100000000E-03 0.  1.
        -12    1    4    4    0    0  0.20712945850E+01  0.28769396699E+01 -0.74015873449E+01  0.82067373752E+01  0.00000000000E+00 0.  1.
</event>
<event>
 8    1  0.2527138E-006  0.9118800E+02  0.7816164E-02  0.1184000E+00
        -11   -1    0    0    0    0  0.00000000000E+00  0.00000000000E+00  0.45593999997E+02  0.45594000000E+02  0.51100000000E-03 0.  1.
         11   -1    0    0    0    0 -0.00000000000E+00 -0.00000000000E+00 -0.45593999997E+02  0.45594000000E+02  0.51100000000E-03 0. -1.
         23    2    1    2    0    0  0.88817841970E-15  0.00000000000E+00  0.00000000000E+00  0.91188000000E+02  0.91188000000E+02 0.  0.
    9900012    2    3    3    0    0 -0.78637417816E+01  0.35886301973E+02 -0.24730044575E+01  0.54367070420E+02  0.39999968636E+02 0.  0.
        -12    1    3    3    0    0  0.78637417816E+01 -0.35886301973E+02  0.24730044575E+01  0.36820929580E+02  0.00000000000E+00 0.  1.
         11    1    4    4    0    0 -0.98665970672E+01  0.24634300594E+02 -0.29193553775E+01  0.26696837631E+02  0.51100000000E-03 0. -1.
        -11    1    4    4    0    0  0.71801574344E+00  0.16656822432E+02  0.78386909333E+01  0.18423093007E+02  0.51100000000E-03 0.  1.
         12    1    4    4    0    0  0.12848395422E+01 -0.54048210530E+01 -0.73923400133E+01  0.92471397814E+01  0.00000000000E+00 0. -1.
</event>
<event>
 8    1  0.2527138E-006  0.9118800E+02  0.7816164E-02  0.1184000E+00
        -11   -1    0    0    0    0  0.00000000000E+00  0.00000000000E+00  0.45593999997E+02  0.45594000000E+02  0.51100000000E-03 0.  1.
         11   -1    0    0    0    0 -0.00000000000E+00 -0.00000000000E+00 -0.45593999997E+02  0.45594000000E+02  0.51100000000E-03 0. -1.
         23    2    1    2    0    0 -0.35527136788E-14 -0.35527136788E-14  0.00000000000E+00  0.91188000000E+02  0.91188000000E+02 0.  0.
    9900012    2    3    3    0    0 -0.20472154218E+02 -0.25389245413E+02  0.17090229643E+02  0.54366826333E+02  0.39999412188E+02 0.  0.
         12    1    3    3    0    0  0.20472154218E+02  0.25389245413E+02 -0.17090229643E+02  0.36821173667E+02  0.00000000000E+00 0. -1.
         11    1    4    4    0    0 -0.14029150073E+02  0.42457956625E+01 -0.45264309045E+01  0.15340547890E+02  0.51100000000E-03 0. -1.
        -11    1    4    4    0    0 -0.18756004743E+01  0.45904394931E+00  0.21751631304E+01  0.29085964642E+01  0.51100000000E-03 0.  1.
        -12    1    4    4    0    0 -0.45674036712E+01 -0.30094085024E+02  0.19441497417E+02  0.36117681979E+02  0.00000000000E+00 0.  1.
</event>
<event>
 8    1  0.2527138E-006  0.9118800E+02  0.7816164E-02  0.1184000E+00
        -11   -1    0    0    0    0  0.00000000000E+00  0.00000000000E+00  0.45593999997E+02  0.45594000000E+02  0.51100000000E-03 0. -1.
         11   -1    0    0    0    0 -0.00000000000E+00 -0.00000000000E+00 -0.45593999997E+02  0.45594000000E+02  0.51100000000E-03 0.  1.
         23    2    1    2    0    0  0.71054273576E-14 -0.17763568394E-14  0.35527136788E-14  0.91188000000E+02  0.91188000000E+02 0.  0.
    9900012    2    3    3    0    0  0.23673326658E+02 -0.64216912609E+01  0.27461169719E+02  0.54367077197E+02  0.39999984087E+02 0.  0.
        -12    1    3    3    0    0 -0.23673326658E+02  0.64216912609E+01 -0.27461169719E+02  0.36820922803E+02  0.00000000000E+00 0.  1.
         11    1    4    4    0    0 -0.74704651309E+01  0.34916070517E+01 -0.13286440782E+01  0.83525124617E+01  0.51100000000E-03 0.  1.
        -11    1    4    4    0    0  0.22703695606E+02 -0.62228805454E+01  0.28270028234E+02  0.36788266242E+02  0.51100000000E-03 0. -1.
         12    1    4    4    0    0  0.84400961824E+01 -0.36904177672E+01  0.51978556352E+00  0.92262984938E+01  0.00000000000E+00 0. -1.
</event>
<event>
 8    1  0.2527138E-006  0.9118800E+02  0.7816164E-02  0.1184000E+00
        -11   -1    0    0    0    0  0.00000000000E+00  0.00000000000E+00  0.45593999997E+02  0.45594000000E+02  0.51100000000E-03 0. -1.
         11   -1    0    0    0    0 -0.00000000000E+00 -0.00000000000E+00 -0.45593999997E+02  0.45594000000E+02  0.51100000000E-03 0.  1.
         23    2    1    2    0    0  0.00000000000E+00  0.44408920985E-15  0.00000000000E+00  0.91188000000E+02  0.91188000000E+02 0.  0.
    9900012    2    3    3    0    0  0.32239234052E+02 -0.28131815021E+01 -0.17564117975E+02  0.54367076021E+02  0.39999981406E+02 0.  0.
         12    1    3    3    0    0 -0.32239234052E+02  0.28131815021E+01  0.17564117975E+02  0.36820923979E+02  0.00000000000E+00 0. -1.
         11    1    4    4    0    0  0.89351222169E+01  0.62791166475E-01 -0.14618957174E+02  0.17133425252E+02  0.51100000000E-03 0. -1.
        -11    1    4    4    0    0 -0.30667587972E+01 -0.49019928316E+01 -0.84298450093E+01  0.10222369118E+02  0.51100000000E-03 0.  1.
         12    1    4    4    0    0  0.26370870632E+02  0.20260201630E+01  0.54846842076E+01  0.27011281651E+02  0.00000000000E+00 0. -1.
</event>
<event>
 8    1  0.2527138E-006  0.9118800E+02  0.7816164E-02  0.1184000E+00
        -11   -1    0    0    0    0  0.00000000000E+00  0.00000000000E+00  0.45593999997E+02  0.45594000000E+02  0.51100000000E-03 0.  1.
         11   -1    0    0    0    0 -0.00000000000E+00 -0.00000000000E+00 -0.45593999997E+02  0.45594000000E+02  0.51100000000E-03 0. -1.
         23    2    1    2    0    0  0.71054273576E-14  0.88817841970E-15  0.88817841970E-15  0.91188000000E+02  0.91188000000E+02 0.  0.
    9900012    2    3    3    0    0 -0.35462165755E+02 -0.70646192756E+01 -0.69502467334E+01  0.54367082369E+02  0.39999995877E+02 0.  0.
        -12    1    3    3    0    0  0.35462165755E+02  0.70646192756E+01  0.69502467334E+01  0.36820917631E+02  0.00000000000E+00 0.  1.
         11    1    4    4    0    0 -0.11864795448E+00 -0.53565040056E+01  0.94017065618E+01  0.10821196747E+02  0.51100000000E-03 0.  1.
        -11    1    4    4    0    0 -0.96463834153E+01  0.78060835453E+01 -0.18598997458E+01  0.12547783893E+02  0.51100000000E-03 0. -1.
         12    1    4    4    0    0 -0.25697134385E+02 -0.95141988154E+01 -0.14492053549E+02  0.30998101729E+02  0.00000000000E+00 0. -1.
</event>
<event>
 8    1  0.2527138E-006  0.9118800E+02  0.7816164E-02  0.1184000E+00
        -11   -1    0    0    0    0  0.00000000000E+00  0.00000000000E+00  0.45593999997E+02  0.45594000000E+02  0.51100000000E-03 0. -1.
         11   -1    0    0    0    0 -0.00000000000E+00 -0.00000000000E+00 -0.45593999997E+02  0.45594000000E+02  0.51100000000E-03 0.  1.
         23    2    1    2    0    0  0.71054273576E-14 -0.35527136788E-14 -0.17763568394E-14  0.91188000000E+02  0.91188000000E+02 0.  0.
    9900012    2    3    3    0    0 -0.27050191664E+02 -0.21245582160E+02  0.13141268728E+02  0.54367074236E+02  0.39999977336E+02 0.  0.
         12    1    3    3    0    0  0.27050191664E+02  0.21245582160E+02 -0.13141268728E+02  0.36820925764E+02  0.00000000000E+00 0. -1.
         11    1    4    4    0    0 -0.21966046915E+00  0.34718207591E+01  0.10257997659E+01  0.36268520132E+01  0.51100000000E-03 0. -1.
        -11    1    4    4    0    0  0.67715933895E+01  0.91011105438E+00  0.32260466599E+01  0.75558028348E+01  0.51100000000E-03 0.  1.
        -12    1    4    4    0    0 -0.33602124584E+02 -0.25627513973E+02  0.88894223017E+01  0.43184419388E+02  0.00000000000E+00 0.  1.
</event>
<event>
 8    1  0.2527138E-006  0.9118800E+02  0.7816164E-02  0.1184000E+00
        -11   -1    0    0    0    0  0.00000000000E+00  0.00000000000E+00  0.45593999997E+02  0.45594000000E+02  0.51100000000E-03 0.  1.
         11   -1    0    0    0    0 -0.00000000000E+00 -0.00000000000E+00 -0.45593999997E+02  0.45594000000E+02  0.51100000000E-03 0. -1.
         23    2    1    2    0    0 -0.35527136788E-14  0.71054273576E-14 -0.35527136788E-14  0.91188000000E+02  0.91188000000E+02 0.  0.
    9900012    2    3    3    0    0 -0.16548509848E+02  0.29001486904E+02 -0.15519029819E+02  0.54367086006E+02  0.40000004167E+02 0.  0.
        -12    1    3    3    0    0  0.16548509848E+02 -0.29001486904E+02  0.15519029819E+02  0.36820913994E+02  0.00000000000E+00 0.  1.
         11    1    4    4    0    0 -0.14101324293E+01 -0.37282551185E+01 -0.83443724830E+01  0.92475354605E+01  0.51100000000E-03 0. -1.
        -11    1    4    4    0    0  0.55741568574E+01  0.23209522451E+01  0.32785349749E+01  0.68707230943E+01  0.51100000000E-03 0.  1.
         12    1    4    4    0    0 -0.20712534276E+02  0.30408789778E+02 -0.10453192311E+02  0.38248827451E+02  0.00000000000E+00 0. -1.
</event>
<event>
 8    1  0.2527138E-006  0.9118800E+02  0.7816164E-02  0.1184000E+00
        -11   -1    0    0    0    0  0.00000000000E+00  0.00000000000E+00  0.45593999997E+02  0.45594000000E+02  0.51100000000E-03 0.  1.
         11   -1    0    0    0    0 -0.00000000000E+00 -0.00000000000E+00 -0.45593999997E+02  0.45594000000E+02  0.51100000000E-03 0. -1.
         23    2    1    2    0    0 -0.35527136788E-14 -0.35527136788E-14  0.00000000000E+00  0.91188000000E+02  0.91188000000E+02 0.  0.
    9900012    2    3    3    0    0  0.17148179952E+02  0.27810907516E+02  0.16978623652E+02  0.54367077773E+02  0.39999985399E+02 0.  0.
         12    1    3    3    0    0 -0.17148179952E+02 -0.27810907516E+02 -0.16978623652E+02  0.36820922227E+02  0.00000000000E+00 0. -1.
         11    1    4    4    0    0  0.14918183305E+02  0.45659139097E+01 -0.80013166247E+01  0.17533420401E+02  0.51100000000E-03 0. -1.
        -11    1    4    4    0    0  0.29633934407E+01  0.50642197726E+01  0.14942358723E+02  0.16053102724E+02  0.51100000000E-03 0.  1.
         12    1    4    4    0    0 -0.73339679419E+00  0.18180773834E+02  0.10037581553E+02  0.20780554648E+02  0.00000000000E+00 0. -1.
</event>
<event>
 8    1  0.2527138E-006  0.9118800E+02  0.7816164E-02  0.1184000E+00
        -11   -1    0    0    0    0  0.00000000000E+00  0.00000000000E+00  0.45593999997E+02  0.45594000000E+02  0.51100000000E-03 0.  1.
         11   -1    0    0    0    0 -0.00000000000E+00 -0.00000000000E+00 -0.45593999997E+02  0.45594000000E+02  0.51100000000E-03 0. -1.
         23    2    1    2    0    0  0.00000000000E+00 -0.35527136788E-14  0.00000000000E+00  0.91188000000E+02  0.91188000000E+02 0.  0.
    9900012    2    3    3    0    0  0.18525103137E+02 -0.30231093982E+02 -0.99338598254E+01  0.54367081209E+02  0.39999993231E+02 0.  0.
        -12    1    3    3    0    0 -0.18525103137E+02  0.30231093982E+02  0.99338598254E+01  0.36820918791E+02  0.00000000000E+00 0.  1.
         11    1    4    4    0    0  0.15368926128E+02 -0.75682904243E+01  0.81315235002E+01  0.18963242997E+02  0.51100000000E-03 0. -1.
        -11    1    4    4    0    0 -0.16795097509E+00 -0.19921589174E+02 -0.21921403649E+02  0.29621712661E+02  0.51100000000E-03 0.  1.
        -12    1    4    4    0    0  0.33241279837E+01 -0.27412143837E+01  0.38560203232E+01  0.57821255505E+01  0.00000000000E+00 0.  1.
</event>
<event>
 8    1  0.2527138E-006  0.9118800E+02  0.7816164E-02  0.1184000E+00
        -11   -1    0    0    0    0  0.00000000000E+00  0.00000000000E+00  0.45593999997E+02  0.45594000000E+02  0.51100000000E-03 0.  1.
         11   -1    0    0    0    0 -0.00000000000E+00 -0.00000000000E+00 -0.45593999997E+02  0.45594000000E+02  0.51100000000E-03 0. -1.
         23    2    1    2    0    0  0.35527136788E-14  0.00000000000E+00  0.00000000000E+00  0.91188000000E+02  0.91188000000E+02 0.  0.
    9900012    2    3    3    0    0 -0.17126519553E+02 -0.16098999937E+02 -0.28342268777E+02  0.54367086508E+02  0.40000005312E+02 0.  0.
        -12    1    3    3    0    0  0.17126519553E+02  0.16098999937E+02  0.28342268777E+02  0.36820913492E+02  0.00000000000E+00 0.  1.
         11    1    4    4    0    0 -0.32886056589E+00 -0.74255476352E+01 -0.24665284268E+01  0.78313900232E+01  0.51100000000E-03 0. -1.
        -11    1    4    4    0    0  0.39896448027E+01 -0.12685924230E+02 -0.20925445523E+02  0.24793632445E+02  0.51100000000E-03 0.  1.
        -12    1    4    4    0    0 -0.20787303789E+02  0.40124719283E+01 -0.49502948275E+01  0.21742064039E+02  0.00000000000E+00 0.  1.
</event>
<event>
 8    1  0.2527138E-006  0.9118800E+02  0.7816164E-02  0.1184000E+00
        -11   -1    0    0    0    0  0.00000000000E+00  0.00000000000E+00  0.45593999997E+02  0.45594000000E+02  0.51100000000E-03 0.  1.
         11   -1    0    0    0    0 -0.00000000000E+00 -0.00000000000E+00 -0.45593999997E+02  0.45594000000E+02  0.51100000000E-03 0. -1.
         23    2    1    2    0    0  0.00000000000E+00  0.17763568394E-14  0.71054273576E-14  0.91188000000E+02  0.91188000000E+02 0.  0.
    9900012    2    3    3    0    0 -0.20005648036E+01 -0.12159216573E+02 -0.34697715163E+02  0.54367078708E+02  0.39999987532E+02 0.  0.
        -12    1    3    3    0    0  0.20005648036E+01  0.12159216573E+02  0.34697715163E+02  0.36820921292E+02  0.00000000000E+00 0.  1.
         11    1    4    4    0    0  0.61699544348E+01 -0.16337423442E+02 -0.32075773402E+02  0.36521705629E+02  0.51100000000E-03 0. -1.
        -11    1    4    4    0    0 -0.12255274297E+02  0.27941101731E+01 -0.41999649135E+01  0.13252867813E+02  0.51100000000E-03 0.  1.
         12    1    4    4    0    0  0.40847550582E+01  0.13840966959E+01  0.15780231524E+01  0.45925052660E+01  0.00000000000E+00 0. -1.
</event>
<event>
 8    1  0.2527138E-006  0.9118800E+02  0.7816164E-02  0.1184000E+00
        -11   -1    0    0    0    0  0.00000000000E+00  0.00000000000E+00  0.45593999997E+02  0.45594000000E+02  0.51100000000E-03 0.  1.
         11   -1    0    0    0    0 -0.00000000000E+00 -0.00000000000E+00 -0.45593999997E+02  0.45594000000E+02  0.51100000000E-03 0. -1.
         23    2    1    2    0    0 -0.17763568394E-14 -0.35527136788E-14  0.35527136788E-14  0.91188000000E+02  0.91188000000E+02 0.  0.
    9900012    2    3    3    0    0  0.11221707653E+02  0.17689079079E+02 -0.30281177667E+02  0.54367082545E+02  0.39999996278E+02 0.  0.
        -12    1    3    3    0    0 -0.11221707653E+02 -0.17689079079E+02  0.30281177667E+02  0.36820917455E+02  0.00000000000E+00 0.  1.
         11    1    4    4    0    0 -0.11394150245E+01  0.17156477516E+02 -0.26212827341E+02  0.31348928288E+02  0.51100000000E-03 0. -1.
        -11    1    4    4    0    0  0.88503606462E+01 -0.62807518872E+01 -0.88333723467E+01  0.13993040953E+02  0.51100000000E-03 0.  1.
        -12    1    4    4    0    0  0.35107620310E+01  0.68133534507E+01  0.47650220211E+01  0.90251133037E+01  0.00000000000E+00 0.  1.
</event>
<event>
 8    1  0.2527138E-006  0.9118800E+02  0.7816164E-02  0.1184000E+00
        -11   -1    0    0    0    0  0.00000000000E+00  0.00000000000E+00  0.45593999997E+02  0.45594000000E+02  0.51100000000E-03 0. -1.
         11   -1    0    0    0    0 -0.00000000000E+00 -0.00000000000E+00 -0.45593999997E+02  0.45594000000E+02  0.51100000000E-03 0.  1.
         23    2    1    2    0    0  0.00000000000E+00  0.00000000000E+00  0.00000000000E+00  0.91188000000E+02  0.91188000000E+02 0.  0.
    9900012    2    3    3    0    0 -0.16238736130E+02  0.36810344430E+01 -0.32841039755E+02  0.54367075815E+02  0.39999980935E+02 0.  0.
         12    1    3    3    0    0  0.16238736130E+02 -0.36810344430E+01  0.32841039755E+02  0.36820924185E+02  0.00000000000E+00 0. -1.
         11    1    4    4    0    0 -0.77517718205E+01  0.16415754198E+01 -0.14606656794E+02  0.16617435397E+02  0.51100000000E-03 0. -1.
        -11    1    4    4    0    0 -0.16947394805E+02  0.24428312913E+01 -0.22493497179E+02  0.28269047225E+02  0.51100000000E-03 0.  1.
        -12    1    4    4    0    0  0.84604304959E+01 -0.40337226804E+00  0.42591142180E+01  0.94805931926E+01  0.00000000000E+00 0.  1.
</event>
<event>
 8    1  0.2527138E-006  0.9118800E+02  0.7816164E-02  0.1184000E+00
        -11   -1    0    0    0    0  0.00000000000E+00  0.00000000000E+00  0.45593999997E+02  0.45594000000E+02  0.51100000000E-03 0. -1.
         11   -1    0    0    0    0 -0.00000000000E+00 -0.00000000000E+00 -0.45593999997E+02  0.45594000000E+02  0.51100000000E-03 0.  1.
         23    2    1    2    0    0  0.00000000000E+00  0.00000000000E+00  0.00000000000E+00  0.91188000000E+02  0.91188000000E+02 0.  0.
    9900012    2    3    3    0    0  0.12033424306E+02  0.33052435892E+02  0.10886366375E+02  0.54367084859E+02  0.40000001554E+02 0.  0.
        -12    1    3    3    0    0 -0.12033424306E+02 -0.33052435892E+02 -0.10886366375E+02  0.36820915141E+02  0.00000000000E+00 0.  1.
         11    1    4    4    0    0 -0.16290032398E+01 -0.45539789376E+01  0.64167331677E+00  0.48789466718E+01  0.51100000000E-03 0. -1.
        -11    1    4    4    0    0  0.58388681153E+01  0.17423734995E+02 -0.90566069881E+01  0.20486606660E+02  0.51100000000E-03 0.  1.
        -12    1    4    4    0    0  0.78235594301E+01  0.20182679835E+02  0.19301300046E+02  0.29001531527E+02  0.00000000000E+00 0.  1.
</event>
<event>
 8    1  0.2527138E-006  0.9118800E+02  0.7816164E-02  0.1184000E+00
        -11   -1    0    0    0    0  0.00000000000E+00  0.00000000000E+00  0.45593999997E+02  0.45594000000E+02  0.51100000000E-03 0.  1.
         11   -1    0    0    0    0 -0.00000000000E+00 -0.00000000000E+00 -0.45593999997E+02  0.45594000000E+02  0.51100000000E-03 0. -1.
         23    2    1    2    0    0  0.00000000000E+00 -0.27755575616E-15  0.00000000000E+00  0.91188000000E+02  0.91188000000E+02 0.  0.
    9900012    2    3    3    0    0 -0.27046332569E+02  0.22032418552E+00 -0.24984536625E+02  0.54367085854E+02  0.40000003821E+02 0.  0.
        -12    1    3    3    0    0  0.27046332569E+02 -0.22032418552E+00  0.24984536625E+02  0.36820914146E+02  0.00000000000E+00 0.  1.
         11    1    4    4    0    0  0.31103946407E+01  0.39549414417E+01 -0.14535794903E+02  0.15381984603E+02  0.51100000000E-03 0. -1.
        -11    1    4    4    0    0 -0.23596343381E+01  0.14154813490E+01  0.57702917227E+01  0.63927872235E+01  0.51100000000E-03 0.  1.
         12    1    4    4    0    0 -0.27797092871E+02 -0.51500986052E+01 -0.16219033445E+02  0.32592314027E+02  0.00000000000E+00 0. -1.
</event>
<event>
 8    1  0.2527138E-006  0.9118800E+02  0.7816164E-02  0.1184000E+00
        -11   -1    0    0    0    0  0.00000000000E+00  0.00000000000E+00  0.45593999997E+02  0.45594000000E+02  0.51100000000E-03 0.  1.
         11   -1    0    0    0    0 -0.00000000000E+00 -0.00000000000E+00 -0.45593999997E+02  0.45594000000E+02  0.51100000000E-03 0. -1.
         23    2    1    2    0    0 -0.88817841970E-15 -0.17763568394E-14  0.00000000000E+00  0.91188000000E+02  0.91188000000E+02 0.  0.
    9900012    2    3    3    0    0  0.60967460189E+01  0.84802332035E+01 -0.35308589612E+02  0.54367066177E+02  0.39999958964E+02 0.  0.
        -12    1    3    3    0    0 -0.60967460189E+01 -0.84802332035E+01  0.35308589612E+02  0.36820933823E+02  0.00000000000E+00 0.  1.
         11    1    4    4    0    0  0.10066831888E+02 -0.97428338599E+00 -0.21250984215E+01  0.10334717023E+02  0.51100000000E-03 0.  1.
        -11    1    4    4    0    0  0.65506793326E+00  0.11312205648E+01 -0.34407176920E+02  0.34431999620E+02  0.51100000000E-03 0. -1.
         12    1    4    4    0    0 -0.46251538025E+01  0.83232960247E+01  0.12236857299E+01  0.96003495341E+01  0.00000000000E+00 0. -1.
</event>
<event>
 8    1  0.2527138E-006  0.9118800E+02  0.7816164E-02  0.1184000E+00
        -11   -1    0    0    0    0  0.00000000000E+00  0.00000000000E+00  0.45593999997E+02  0.45594000000E+02  0.51100000000E-03 0. -1.
         11   -1    0    0    0    0 -0.00000000000E+00 -0.00000000000E+00 -0.45593999997E+02  0.45594000000E+02  0.51100000000E-03 0.  1.
         23    2    1    2    0    0 -0.44408920985E-15 -0.71054273576E-14  0.00000000000E+00  0.91188000000E+02  0.91188000000E+02 0.  0.
    9900012    2    3    3    0    0 -0.20079399268E+01  0.35590721036E+02  0.92222240031E+01  0.54367073040E+02  0.39999974609E+02 0.  0.
        -12    1    3    3    0    0  0.20079399268E+01 -0.35590721036E+02 -0.92222240031E+01  0.36820926960E+02  0.00000000000E+00 0.  1.
         11    1    4    4    0    0 -0.12175745037E+02  0.17455165966E+00  0.19140007167E+00  0.12178500307E+02  0.51100000000E-03 0. -1.
        -11    1    4    4    0    0  0.14179749296E+01  0.82146845306E+01 -0.56433647142E+01  0.10066740306E+02  0.51100000000E-03 0.  1.
         12    1    4    4    0    0  0.87498301804E+01  0.27201484846E+02  0.14674188646E+02  0.32121832426E+02  0.00000000000E+00 0. -1.
</event>
<event>
 8    1  0.2527138E-006  0.9118800E+02  0.7816164E-02  0.1184000E+00
        -11   -1    0    0    0    0  0.00000000000E+00  0.00000000000E+00  0.45593999997E+02  0.45594000000E+02  0.51100000000E-03 0.  1.
         11   -1    0    0    0    0 -0.00000000000E+00 -0.00000000000E+00 -0.45593999997E+02  0.45594000000E+02  0.51100000000E-03 0. -1.
         23    2    1    2    0    0  0.00000000000E+00  0.00000000000E+00  0.00000000000E+00  0.91188000000E+02  0.91188000000E+02 0.  0.
    9900012    2    3    3    0    0  0.20722473425E+02  0.29991968523E+02 -0.51806571447E+01  0.54367105264E+02  0.40000048070E+02 0.  0.
        -12    1    3    3    0    0 -0.20722473425E+02 -0.29991968523E+02  0.51806571447E+01  0.36820894736E+02  0.00000000000E+00 0.  1.
         11    1    4    4    0    0  0.17390737772E+02  0.11029195391E+02 -0.23301522192E+01  0.20724635603E+02  0.51100000000E-03 0. -1.
        -11    1    4    4    0    0 -0.82502734864E+01  0.88782758459E+01 -0.10902936121E+02  0.16302294652E+02  0.51100000000E-03 0.  1.
        -12    1    4    4    0    0  0.11582009139E+02  0.10084497286E+02  0.80524311956E+01  0.17340175010E+02  0.00000000000E+00 0.  1.
</event>
<event>
 8    1  0.2527138E-006  0.9118800E+02  0.7816164E-02  0.1184000E+00
        -11   -1    0    0    0    0  0.00000000000E+00  0.00000000000E+00  0.45593999997E+02  0.45594000000E+02  0.51100000000E-03 0. -1.
         11   -1    0    0    0    0 -0.00000000000E+00 -0.00000000000E+00 -0.45593999997E+02  0.45594000000E+02  0.51100000000E-03 0.  1.
         23    2    1    2    0    0  0.35527136788E-14  0.00000000000E+00  0.88817841970E-15  0.91188000000E+02  0.91188000000E+02 0.  0.
    9900012    2    3    3    0    0  0.31535437501E+02 -0.17619081466E+02  0.71320289323E+01  0.54367059127E+02  0.39999942891E+02 0.  0.
        -12    1    3    3    0    0 -0.31535437501E+02  0.17619081466E+02 -0.71320289323E+01  0.36820940873E+02  0.00000000000E+00 0.  1.
         11    1    4    4    0    0  0.11629558917E+01 -0.50528280304E+01  0.11434972658E+02  0.12555562013E+02  0.51100000000E-03 0. -1.
        -11    1    4    4    0    0  0.28355853597E+02 -0.37121985965E+01  0.47492819904E+01  0.28989490015E+02  0.51100000000E-03 0.  1.
        -12    1    4    4    0    0  0.20166280125E+01 -0.88540548388E+01 -0.90522257160E+01  0.12822007099E+02  0.00000000000E+00 0.  1.
</event>
<event>
 8    1  0.2527138E-006  0.9118800E+02  0.7816164E-02  0.1184000E+00
        -11   -1    0    0    0    0  0.00000000000E+00  0.00000000000E+00  0.45593999997E+02  0.45594000000E+02  0.51100000000E-03 0.  1.
         11   -1    0    0    0    0 -0.00000000000E+00 -0.00000000000E+00 -0.45593999997E+02  0.45594000000E+02  0.51100000000E-03 0. -1.
         23    2    1    2    0    0 -0.71054273576E-14  0.00000000000E+00  0.17763568394E-14  0.91188000000E+02  0.91188000000E+02 0.  0.
    9900012    2    3    3    0    0 -0.35606151236E+02  0.59110836444E+01  0.72829665752E+01  0.54367075000E+02  0.39999979078E+02 0.  0.
         12    1    3    3    0    0  0.35606151236E+02 -0.59110836444E+01 -0.72829665752E+01  0.36820925000E+02  0.00000000000E+00 0. -1.
         11    1    4    4    0    0 -0.13968868250E+02 -0.13367676236E+01 -0.10261822186E+02  0.17384511000E+02  0.51100000000E-03 0. -1.
        -11    1    4    4    0    0 -0.16023007170E+02 -0.67381718353E+01  0.10859230354E+02  0.20495428822E+02  0.51100000000E-03 0.  1.
        -12    1    4    4    0    0 -0.56142758158E+01  0.13986023103E+02  0.66855584072E+01  0.16487135179E+02  0.00000000000E+00 0.  1.
</event>
<event>
 8    1  0.2527138E-006  0.9118800E+02  0.7816164E-02  0.1184000E+00
        -11   -1    0    0    0    0  0.00000000000E+00  0.00000000000E+00  0.45593999997E+02  0.45594000000E+02  0.51100000000E-03 0.  1.
         11   -1    0    0    0    0 -0.00000000000E+00 -0.00000000000E+00 -0.45593999997E+02  0.45594000000E+02  0.51100000000E-03 0. -1.
         23    2    1    2    0    0  0.22204460493E-15  0.00000000000E+00  0.00000000000E+00  0.91188000000E+02  0.91188000000E+02 0.  0.
    9900012    2    3    3    0    0 -0.13641129647E+01 -0.35731094176E+02  0.87867991176E+01  0.54367085645E+02  0.40000003345E+02 0.  0.
        -12    1    3    3    0    0  0.13641129647E+01  0.35731094176E+02 -0.87867991176E+01  0.36820914355E+02  0.00000000000E+00 0.  1.
         11    1    4    4    0    0 -0.30010683019E+01 -0.25144300951E+02  0.14908128436E+02  0.29385278202E+02  0.51100000000E-03 0. -1.
        -11    1    4    4    0    0 -0.57073714075E+01  0.11357900440E+01  0.46505075749E+01  0.74492501886E+01  0.51100000000E-03 0.  1.
         12    1    4    4    0    0  0.73443267448E+01 -0.11722583269E+02 -0.10771836893E+02  0.17532557255E+02  0.00000000000E+00 0. -1.
</event>
<event>
 8    1  0.2527138E-006  0.9118800E+02  0.7816164E-02  0.1184000E+00
        -11   -1    0    0    0    0  0.00000000000E+00  0.00000000000E+00  0.45593999997E+02  0.45594000000E+02  0.51100000000E-03 0. -1.
         11   -1    0    0    0    0 -0.00000000000E+00 -0.00000000000E+00 -0.45593999997E+02  0.45594000000E+02  0.51100000000E-03 0.  1.
         23    2    1    2    0    0  0.00000000000E+00  0.00000000000E+00  0.00000000000E+00  0.91188000000E+02  0.91188000000E+02 0.  0.
    9900012    2    3    3    0    0  0.80792990446E+01  0.55702561412E+01 -0.35489109239E+02  0.54367086091E+02  0.40000004362E+02 0.  0.
         12    1    3    3    0    0 -0.80792990446E+01 -0.55702561412E+01  0.35489109239E+02  0.36820913909E+02  0.00000000000E+00 0. -1.
         11    1    4    4    0    0  0.83634530739E+01  0.18475178456E+02 -0.24442246454E+02  0.31760084671E+02  0.51100000000E-03 0.  1.
        -11    1    4    4    0    0 -0.62204413600E+01 -0.12266487695E+02 -0.76707787869E+01  0.15748062057E+02  0.51100000000E-03 0. -1.
         12    1    4    4    0    0  0.59362873307E+01 -0.63843461959E+00 -0.33760839972E+01  0.68589393635E+01  0.00000000000E+00 0. -1.
</event>
<event>
 8    1  0.2527138E-006  0.9118800E+02  0.7816164E-02  0.1184000E+00
        -11   -1    0    0    0    0  0.00000000000E+00  0.00000000000E+00  0.45593999997E+02  0.45594000000E+02  0.51100000000E-03 0.  1.
         11   -1    0    0    0    0 -0.00000000000E+00 -0.00000000000E+00 -0.45593999997E+02  0.45594000000E+02  0.51100000000E-03 0. -1.
         23    2    1    2    0    0  0.44408920985E-15 -0.35527136788E-14  0.00000000000E+00  0.91188000000E+02  0.91188000000E+02 0.  0.
    9900012    2    3    3    0    0 -0.31843994937E+01 -0.23207433547E+02  0.28408696318E+02  0.54367090201E+02  0.40000013730E+02 0.  0.
         12    1    3    3    0    0  0.31843994937E+01  0.23207433547E+02 -0.28408696318E+02  0.36820909799E+02  0.00000000000E+00 0. -1.
         11    1    4    4    0    0 -0.29279664116E+01 -0.10749223224E+01  0.92056028989E+01  0.97196486716E+01  0.51100000000E-03 0. -1.
        -11    1    4    4    0    0 -0.11436477050E+02  0.25230173609E+01  0.11701348262E+02  0.16555366964E+02  0.51100000000E-03 0.  1.
        -12    1    4    4    0    0  0.11180043968E+02 -0.24655528585E+02  0.75017451578E+01  0.28092074565E+02  0.00000000000E+00 0.  1.
</event>
<event>
 8    1  0.2527138E-006  0.9118800E+02  0.7816164E-02  0.1184000E+00
        -11   -1    0    0    0    0  0.00000000000E+00  0.00000000000E+00  0.45593999997E+02  0.45594000000E+02  0.51100000000E-03 0. -1.
         11   -1    0    0    0    0 -0.00000000000E+00 -0.00000000000E+00 -0.45593999997E+02  0.45594000000E+02  0.51100000000E-03 0.  1.
         23    2    1    2    0    0  0.00000000000E+00  0.88817841970E-15  0.35527136788E-14  0.91188000000E+02  0.91188000000E+02 0.  0.
    9900012    2    3    3    0    0 -0.17970330350E+02  0.63595614273E+01  0.31502435508E+02  0.54367078809E+02  0.39999987760E+02 0.  0.
        -12    1    3    3    0    0  0.17970330350E+02 -0.63595614273E+01 -0.31502435508E+02  0.36820921191E+02  0.00000000000E+00 0.  1.
         11    1    4    4    0    0  0.17203765386E+01 -0.18712022573E+00 -0.19359397083E+01  0.25966463426E+01  0.51100000000E-03 0. -1.
        -11    1    4    4    0    0 -0.23067837659E+01  0.11476630051E+02 -0.21085159230E+01  0.11894541956E+02  0.51100000000E-03 0.  1.
         12    1    4    4    0    0 -0.17383923123E+02 -0.49299483982E+01  0.35546891139E+02  0.39875890511E+02  0.00000000000E+00 0. -1.
</event>
<event>
 8    1  0.2527138E-006  0.9118800E+02  0.7816164E-02  0.1184000E+00
        -11   -1    0    0    0    0  0.00000000000E+00  0.00000000000E+00  0.45593999997E+02  0.45594000000E+02  0.51100000000E-03 0.  1.
         11   -1    0    0    0    0 -0.00000000000E+00 -0.00000000000E+00 -0.45593999997E+02  0.45594000000E+02  0.51100000000E-03 0. -1.
         23    2    1    2    0    0 -0.88817841970E-15  0.00000000000E+00  0.00000000000E+00  0.91188000000E+02  0.91188000000E+02 0.  0.
    9900012    2    3    3    0    0 -0.28354330361E+01  0.15030585378E+02 -0.33493605847E+02  0.54367084613E+02  0.40000000993E+02 0.  0.
        -12    1    3    3    0    0  0.28354330361E+01 -0.15030585378E+02  0.33493605847E+02  0.36820915387E+02  0.00000000000E+00 0.  1.
         11    1    4    4    0    0 -0.14327605902E+02 -0.24931335427E+01 -0.15086922915E+02  0.20954981486E+02  0.51100000000E-03 0.  1.
        -11    1    4    4    0    0  0.46563876888E+01  0.19088874083E+02 -0.17553834725E+02  0.26347754627E+02  0.51100000000E-03 0. -1.
        -12    1    4    4    0    0  0.68357851775E+01 -0.15651551617E+01 -0.85284820578E+00  0.70643485004E+01  0.00000000000E+00 0.  1.
</event>
<event>
 8    1  0.2527138E-006  0.9118800E+02  0.7816164E-02  0.1184000E+00
        -11   -1    0    0    0    0  0.00000000000E+00  0.00000000000E+00  0.45593999997E+02  0.45594000000E+02  0.51100000000E-03 0.  1.
         11   -1    0    0    0    0 -0.00000000000E+00 -0.00000000000E+00 -0.45593999997E+02  0.45594000000E+02  0.51100000000E-03 0. -1.
         23    2    1    2    0    0 -0.17763568394E-14  0.00000000000E+00  0.00000000000E+00  0.91188000000E+02  0.91188000000E+02 0.  0.
    9900012    2    3    3    0    0 -0.14749303893E+02 -0.13934886269E+02 -0.30725511464E+02  0.54367081009E+02  0.39999992775E+02 0.  0.
        -12    1    3    3    0    0  0.14749303893E+02  0.13934886269E+02  0.30725511464E+02  0.36820918991E+02  0.00000000000E+00 0.  1.
         11    1    4    4    0    0 -0.22987558616E+02  0.17097967722E+01 -0.14307930757E+02  0.27130575721E+02  0.51100000000E-03 0. -1.
        -11    1    4    4    0    0  0.39462263893E+01 -0.14892078713E+02 -0.71268398873E+01  0.16974644566E+02  0.51100000000E-03 0.  1.
         12    1    4    4    0    0  0.42920283339E+01 -0.75260432832E+00 -0.92907408192E+01  0.10261860721E+02  0.00000000000E+00 0. -1.
</event>
<event>
 8    1  0.2527138E-006  0.9118800E+02  0.7816164E-02  0.1184000E+00
        -11   -1    0    0    0    0  0.00000000000E+00  0.00000000000E+00  0.45593999997E+02  0.45594000000E+02  0.51100000000E-03 0.  1.
         11   -1    0    0    0    0 -0.00000000000E+00 -0.00000000000E+00 -0.45593999997E+02  0.45594000000E+02  0.51100000000E-03 0. -1.
         23    2    1    2    0    0  0.00000000000E+00  0.00000000000E+00  0.00000000000E+00  0.91188000000E+02  0.91188000000E+02 0.  0.
    9900012    2    3    3    0    0  0.21062894312E+02 -0.22054090843E+02 -0.20633784407E+02  0.54367061682E+02  0.39999948716E+02 0.  0.
        -12    1    3    3    0    0 -0.21062894312E+02  0.22054090843E+02  0.20633784407E+02  0.36820938318E+02  0.00000000000E+00 0.  1.
         11    1    4    4    0    0 -0.12300006915E+00 -0.25184234957E+01  0.17761170660E+00  0.25276732581E+01  0.51100000000E-03 0. -1.
        -11    1    4    4    0    0  0.68381824843E+01 -0.24233393902E+02  0.11308027879E+01  0.25205095415E+02  0.51100000000E-03 0.  1.
        -12    1    4    4    0    0  0.14347711896E+02  0.46977265549E+01 -0.21942198901E+02  0.26634293009E+02  0.00000000000E+00 0.  1.
</event>
<event>
 8    1  0.2527138E-006  0.9118800E+02  0.7816164E-02  0.1184000E+00
        -11   -1    0    0    0    0  0.00000000000E+00  0.00000000000E+00  0.45593999997E+02  0.45594000000E+02  0.51100000000E-03 0.  1.
         11   -1    0    0    0    0 -0.00000000000E+00 -0.00000000000E+00 -0.45593999997E+02  0.45594000000E+02  0.51100000000E-03 0. -1.
         23    2    1    2    0    0  0.00000000000E+00 -0.71054273576E-14  0.00000000000E+00  0.91188000000E+02  0.91188000000E+02 0.  0.
    9900012    2    3    3    0    0 -0.55411844345E+01 -0.23095237009E+02  0.28136858426E+02  0.54367115986E+02  0.40000072514E+02 0.  0.
         12    1    3    3    0    0  0.55411844345E+01  0.23095237009E+02 -0.28136858426E+02  0.36820884014E+02  0.00000000000E+00 0. -1.
         11    1    4    4    0    0 -0.61724218577E+01  0.27139841985E+01  0.90505880479E+01  0.11286170568E+02  0.51100000000E-03 0. -1.
        -11    1    4    4    0    0 -0.11880103294E+02 -0.25175086056E+01  0.69142882197E+01  0.13974336682E+02  0.51100000000E-03 0.  1.
        -12    1    4    4    0    0  0.12511340717E+02 -0.23291712602E+02  0.12171982159E+02  0.29106608736E+02  0.00000000000E+00 0.  1.
</event>
<event>
 8    1  0.2527138E-006  0.9118800E+02  0.7816164E-02  0.1184000E+00
        -11   -1    0    0    0    0  0.00000000000E+00  0.00000000000E+00  0.45593999997E+02  0.45594000000E+02  0.51100000000E-03 0. -1.
         11   -1    0    0    0    0 -0.00000000000E+00 -0.00000000000E+00 -0.45593999997E+02  0.45594000000E+02  0.51100000000E-03 0.  1.
         23    2    1    2    0    0  0.00000000000E+00  0.00000000000E+00  0.00000000000E+00  0.91188000000E+02  0.91188000000E+02 0.  0.
    9900012    2    3    3    0    0 -0.32751200293E+02  0.50128718960E+01  0.16062663129E+02  0.54367093546E+02  0.40000021356E+02 0.  0.
        -12    1    3    3    0    0  0.32751200293E+02 -0.50128718960E+01 -0.16062663129E+02  0.36820906454E+02  0.00000000000E+00 0.  1.
         11    1    4    4    0    0 -0.14631060933E+01 -0.25142130944E+01  0.30346412153E+01  0.42036882010E+01  0.51100000000E-03 0. -1.
        -11    1    4    4    0    0 -0.19782634566E+02  0.22058092801E+02  0.53851328665E+01  0.30114975422E+02  0.51100000000E-03 0.  1.
        -12    1    4    4    0    0 -0.11505459634E+02 -0.14531007811E+02  0.76428890476E+01  0.20048429923E+02  0.00000000000E+00 0.  1.
</event>
<event>
 8    1  0.2527138E-006  0.9118800E+02  0.7816164E-02  0.1184000E+00
        -11   -1    0    0    0    0  0.00000000000E+00  0.00000000000E+00  0.45593999997E+02  0.45594000000E+02  0.51100000000E-03 0.  1.
         11   -1    0    0    0    0 -0.00000000000E+00 -0.00000000000E+00 -0.45593999997E+02  0.45594000000E+02  0.51100000000E-03 0. -1.
         23    2    1    2    0    0  0.00000000000E+00 -0.35527136788E-14 -0.88817841970E-15  0.91188000000E+02  0.91188000000E+02 0.  0.
    9900012    2    3    3    0    0  0.28419533128E+02 -0.22661777609E+02  0.58787652473E+01  0.54367001800E+02  0.39999812203E+02 0.  0.
         12    1    3    3    0    0 -0.28419533128E+02  0.22661777609E+02 -0.58787652473E+01  0.36820998200E+02  0.00000000000E+00 0. -1.
         11    1    4    4    0    0  0.24558368316E+02 -0.52588117691E+01  0.35192879449E+01  0.25360479954E+02  0.51100000000E-03 0. -1.
        -11    1    4    4    0    0 -0.16837163516E+01 -0.21766853518E+02  0.12918631814E+01  0.21870064554E+02  0.51100000000E-03 0.  1.
         12    1    4    4    0    0  0.55448811632E+01  0.43638876780E+01  0.10676141210E+01  0.71364572928E+01  0.00000000000E+00 0. -1.
</event>
<event>
 8    1  0.2527138E-006  0.9118800E+02  0.7816164E-02  0.1184000E+00
        -11   -1    0    0    0    0  0.00000000000E+00  0.00000000000E+00  0.45593999997E+02  0.45594000000E+02  0.51100000000E-03 0. -1.
         11   -1    0    0    0    0 -0.00000000000E+00 -0.00000000000E+00 -0.45593999997E+02  0.45594000000E+02  0.51100000000E-03 0.  1.
         23    2    1    2    0    0  0.88817841970E-15  0.13322676296E-14 -0.71054273576E-14  0.91188000000E+02  0.91188000000E+02 0.  0.
    9900012    2    3    3    0    0  0.76130822910E+01 -0.25435043830E+01  0.35935383210E+02  0.54367079275E+02  0.39999988824E+02 0.  0.
        -12    1    3    3    0    0 -0.76130822910E+01  0.25435043830E+01 -0.35935383210E+02  0.36820920725E+02  0.00000000000E+00 0.  1.
         11    1    4    4    0    0 -0.61318828829E+01 -0.25450731002E+01  0.59883198798E+01  0.89407695428E+01  0.51100000000E-03 0. -1.
        -11    1    4    4    0    0  0.93859380877E+01 -0.87847414289E+01 -0.10654928195E+01  0.12899720577E+02  0.51100000000E-03 0.  1.
         12    1    4    4    0    0  0.43590270862E+01  0.87863101461E+01  0.31012556150E+02  0.32526589156E+02  0.00000000000E+00 0. -1.
</event>
<event>
 8    1  0.2527138E-006  0.9118800E+02  0.7816164E-02  0.1184000E+00
        -11   -1    0    0    0    0  0.00000000000E+00  0.00000000000E+00  0.45593999997E+02  0.45594000000E+02  0.51100000000E-03 0. -1.
         11   -1    0    0    0    0 -0.00000000000E+00 -0.00000000000E+00 -0.45593999997E+02  0.45594000000E+02  0.51100000000E-03 0.  1.
         23    2    1    2    0    0  0.00000000000E+00  0.71054273576E-14  0.00000000000E+00  0.91188000000E+02  0.91188000000E+02 0.  0.
    9900012    2    3    3    0    0 -0.45097046421E+01  0.31094462378E+02 -0.19198344386E+02  0.54367089450E+02  0.40000012019E+02 0.  0.
         12    1    3    3    0    0  0.45097046421E+01 -0.31094462378E+02  0.19198344386E+02  0.36820910550E+02  0.00000000000E+00 0. -1.
         11    1    4    4    0    0  0.17529312888E+00 -0.52534264783E+01 -0.12288946863E+02  0.13365905607E+02  0.51100000000E-03 0. -1.
        -11    1    4    4    0    0  0.63336486100E+01  0.98246664508E+01 -0.17182469120E+01  0.11814886724E+02  0.51100000000E-03 0.  1.
         12    1    4    4    0    0 -0.11018646381E+02  0.26523222406E+02 -0.51911506117E+01  0.29186297119E+02  0.00000000000E+00 0. -1.
</event>
<event>
 8    1  0.2527138E-006  0.9118800E+02  0.7816164E-02  0.1184000E+00
        -11   -1    0    0    0    0  0.00000000000E+00  0.00000000000E+00  0.45593999997E+02  0.45594000000E+02  0.51100000000E-03 0.  1.
         11   -1    0    0    0    0 -0.00000000000E+00 -0.00000000000E+00 -0.45593999997E+02  0.45594000000E+02  0.51100000000E-03 0. -1.
         23    2    1    2    0    0  0.35527136788E-14 -0.88817841970E-15  0.35527136788E-14  0.91188000000E+02  0.91188000000E+02 0.  0.
    9900012    2    3    3    0    0  0.18826336630E+02  0.55471145386E+01  0.31154109976E+02  0.54367082046E+02  0.39999995140E+02 0.  0.
         12    1    3    3    0    0 -0.18826336630E+02 -0.55471145386E+01 -0.31154109976E+02  0.36820917954E+02  0.00000000000E+00 0. -1.
         11    1    4    4    0    0 -0.10653046840E+02 -0.43378579472E+01  0.60459941014E+01  0.12994555147E+02  0.51100000000E-03 0. -1.
        -11    1    4    4    0    0  0.23721125222E+02  0.91667794497E+01  0.14481945443E+02  0.29265139182E+02  0.51100000000E-03 0.  1.
        -12    1    4    4    0    0  0.57582582477E+01  0.71819303609E+00  0.10626170432E+02  0.12107387717E+02  0.00000000000E+00 0.  1.
</event>
<event>
 8    1  0.2527138E-006  0.9118800E+02  0.7816164E-02  0.1184000E+00
        -11   -1    0    0    0    0  0.00000000000E+00  0.00000000000E+00  0.45593999997E+02  0.45594000000E+02  0.51100000000E-03 0. -1.
         11   -1    0    0    0    0 -0.00000000000E+00 -0.00000000000E+00 -0.45593999997E+02  0.45594000000E+02  0.51100000000E-03 0.  1.
         23    2    1    2    0    0  0.35527136788E-14  0.17763568394E-14  0.00000000000E+00  0.91188000000E+02  0.91188000000E+02 0.  0.
    9900012    2    3    3    0    0  0.20384924688E+02  0.14657995436E+02 -0.26932836901E+02  0.54367086265E+02  0.40000004758E+02 0.  0.
         12    1    3    3    0    0 -0.20384924688E+02 -0.14657995436E+02  0.26932836901E+02  0.36820913735E+02  0.00000000000E+00 0. -1.
         11    1    4    4    0    0  0.59539366324E+01 -0.56700903830E+01  0.16139193058E+01  0.83787840503E+01  0.51100000000E-03 0. -1.
        -11    1    4    4    0    0  0.14607267135E+02  0.78390092722E+01 -0.20613151455E+01  0.16705428457E+02  0.51100000000E-03 0.  1.
        -12    1    4    4    0    0 -0.17627907964E+00  0.12489076547E+02 -0.26485441061E+02  0.29282873758E+02  0.00000000000E+00 0.  1.
</event>
<event>
 8    1  0.2527138E-006  0.9118800E+02  0.7816164E-02  0.1184000E+00
        -11   -1    0    0    0    0  0.00000000000E+00  0.00000000000E+00  0.45593999997E+02  0.45594000000E+02  0.51100000000E-03 0.  1.
         11   -1    0    0    0    0 -0.00000000000E+00 -0.00000000000E+00 -0.45593999997E+02  0.45594000000E+02  0.51100000000E-03 0. -1.
         23    2    1    2    0    0  0.35527136788E-14  0.00000000000E+00  0.71054273576E-14  0.91188000000E+02  0.91188000000E+02 0.  0.
    9900012    2    3    3    0    0  0.14613914048E+02 -0.27426044712E+02  0.19749135340E+02  0.54367044567E+02  0.39999909699E+02 0.  0.
         12    1    3    3    0    0 -0.14613914048E+02  0.27426044712E+02 -0.19749135340E+02  0.36820955433E+02  0.00000000000E+00 0. -1.
         11    1    4    4    0    0 -0.30294200589E+01 -0.11037901778E+02 -0.85302185469E+01  0.14275058328E+02  0.51100000000E-03 0. -1.
        -11    1    4    4    0    0  0.41583742402E+01 -0.13009316539E+02  0.18914541555E+02  0.23330115209E+02  0.51100000000E-03 0.  1.
         12    1    4    4    0    0  0.13484959867E+02 -0.33788263949E+01  0.93648123314E+01  0.16761871030E+02  0.00000000000E+00 0. -1.
</event>
<event>
 8    1  0.2527138E-006  0.9118800E+02  0.7816164E-02  0.1184000E+00
        -11   -1    0    0    0    0  0.00000000000E+00  0.00000000000E+00  0.45593999997E+02  0.45594000000E+02  0.51100000000E-03 0.  1.
         11   -1    0    0    0    0 -0.00000000000E+00 -0.00000000000E+00 -0.45593999997E+02  0.45594000000E+02  0.51100000000E-03 0. -1.
         23    2    1    2    0    0  0.00000000000E+00  0.66613381478E-15 -0.71054273576E-14  0.91188000000E+02  0.91188000000E+02 0.  0.
    9900012    2    3    3    0    0  0.22752953661E+02 -0.13791435563E+01  0.28916773341E+02  0.54367099445E+02  0.40000034804E+02 0.  0.
         12    1    3    3    0    0 -0.22752953661E+02  0.13791435563E+01 -0.28916773341E+02  0.36820900555E+02  0.00000000000E+00 0. -1.
         11    1    4    4    0    0 -0.53036789403E+01  0.13366195349E+01 -0.47779833286E+01  0.72625537542E+01  0.51100000000E-03 0. -1.
        -11    1    4    4    0    0  0.73482335982E+01  0.32000132955E+01  0.11759137653E+01  0.81005799515E+01  0.51100000000E-03 0.  1.
         12    1    4    4    0    0  0.20708399003E+02 -0.59157763867E+01  0.32518842904E+02  0.39003965739E+02  0.00000000000E+00 0. -1.
</event>
<event>
 8    1  0.2527138E-006  0.9118800E+02  0.7816164E-02  0.1184000E+00
        -11   -1    0    0    0    0  0.00000000000E+00  0.00000000000E+00  0.45593999997E+02  0.45594000000E+02  0.51100000000E-03 0.  1.
         11   -1    0    0    0    0 -0.00000000000E+00 -0.00000000000E+00 -0.45593999997E+02  0.45594000000E+02  0.51100000000E-03 0. -1.
         23    2    1    2    0    0  0.00000000000E+00  0.71054273576E-14 -0.10658141036E-13  0.91188000000E+02  0.91188000000E+02 0.  0.
    9900012    2    3    3    0    0  0.44098100189E+01 -0.25067439760E+02  0.26607467939E+02  0.54367077814E+02  0.39999985492E+02 0.  0.
         12    1    3    3    0    0 -0.44098100189E+01  0.25067439760E+02 -0.26607467939E+02  0.36820922186E+02  0.00000000000E+00 0. -1.
         11    1    4    4    0    0  0.67350650189E+01  0.80616410490E-02  0.75385425587E+01  0.10108946037E+02  0.51100000000E-03 0. -1.
        -11    1    4    4    0    0 -0.15318672670E+02 -0.19872634754E+02  0.16492970050E+02  0.30026678234E+02  0.51100000000E-03 0.  1.
         12    1    4    4    0    0  0.12993417670E+02 -0.52028666466E+01  0.25759553308E+01  0.14231453543E+02  0.00000000000E+00 0. -1.
</event>
<event>
 8    1  0.2527138E-006  0.9118800E+02  0.7816164E-02  0.1184000E+00
        -11   -1    0    0    0    0  0.00000000000E+00  0.00000000000E+00  0.45593999997E+02  0.45594000000E+02  0.51100000000E-03 0. -1.
         11   -1    0    0    0    0 -0.00000000000E+00 -0.00000000000E+00 -0.45593999997E+02  0.45594000000E+02  0.51100000000E-03 0.  1.
         23    2    1    2    0    0  0.00000000000E+00  0.00000000000E+00  0.00000000000E+00  0.91188000000E+02  0.91188000000E+02 0.  0.
    9900012    2    3    3    0    0 -0.17985528278E+02  0.27220989365E+02  0.17068078819E+02  0.54367071114E+02  0.39999970218E+02 0.  0.
        -12    1    3    3    0    0  0.17985528278E+02 -0.27220989365E+02 -0.17068078819E+02  0.36820928886E+02  0.00000000000E+00 0.  1.
         11    1    4    4    0    0  0.26334243105E+00  0.66166810245E+01 -0.39003231108E+01  0.76852025116E+01  0.51100000000E-03 0. -1.
        -11    1    4    4    0    0  0.25282385100E+01 -0.11727829549E+01 -0.57789344853E+01  0.64158782617E+01  0.51100000000E-03 0.  1.
         12    1    4    4    0    0 -0.20777109219E+02  0.21777091295E+02  0.26747336415E+02  0.40265990341E+02  0.00000000000E+00 0. -1.
</event>
<event>
 8    1  0.2527138E-006  0.9118800E+02  0.7816164E-02  0.1184000E+00
        -11   -1    0    0    0    0  0.00000000000E+00  0.00000000000E+00  0.45593999997E+02  0.45594000000E+02  0.51100000000E-03 0.  1.
         11   -1    0    0    0    0 -0.00000000000E+00 -0.00000000000E+00 -0.45593999997E+02  0.45594000000E+02  0.51100000000E-03 0. -1.
         23    2    1    2    0    0  0.00000000000E+00 -0.17763568394E-14  0.00000000000E+00  0.91188000000E+02  0.91188000000E+02 0.  0.
    9900012    2    3    3    0    0  0.51512842932E+01  0.99761844402E+01  0.35067309144E+02  0.54367134225E+02  0.40000114092E+02 0.  0.
         12    1    3    3    0    0 -0.51512842932E+01 -0.99761844402E+01 -0.35067309144E+02  0.36820865775E+02  0.00000000000E+00 0. -1.
         11    1    4    4    0    0  0.30461568447E+01 -0.10219326929E+02  0.31167141562E+02  0.32940923300E+02  0.51100000000E-03 0. -1.
        -11    1    4    4    0    0  0.23477444778E+01  0.27383653207E+01  0.54612723667E+00  0.36481233508E+01  0.51100000000E-03 0.  1.
         12    1    4    4    0    0 -0.24261702925E+00  0.17457146048E+02  0.33540403447E+01  0.17778087574E+02  0.00000000000E+00 0. -1.
</event>
<event>
 8    1  0.2527138E-006  0.9118800E+02  0.7816164E-02  0.1184000E+00
        -11   -1    0    0    0    0  0.00000000000E+00  0.00000000000E+00  0.45593999997E+02  0.45594000000E+02  0.51100000000E-03 0.  1.
         11   -1    0    0    0    0 -0.00000000000E+00 -0.00000000000E+00 -0.45593999997E+02  0.45594000000E+02  0.51100000000E-03 0. -1.
         23    2    1    2    0    0  0.35527136788E-14  0.00000000000E+00  0.00000000000E+00  0.91188000000E+02  0.91188000000E+02 0.  0.
    9900012    2    3    3    0    0 -0.25634476280E+02  0.17597470290E+02  0.19722628286E+02  0.54367090162E+02  0.40000013642E+02 0.  0.
         12    1    3    3    0    0  0.25634476280E+02 -0.17597470290E+02 -0.19722628286E+02  0.36820909838E+02  0.00000000000E+00 0. -1.
         11    1    4    4    0    0 -0.12966244821E+02  0.29339343080E+01  0.49715591589E+01  0.14193233459E+02  0.51100000000E-03 0. -1.
        -11    1    4    4    0    0  0.36121520691E+01 -0.49127998349E+01  0.13346737278E+02  0.14673739844E+02  0.51100000000E-03 0.  1.
        -12    1    4    4    0    0 -0.16280383528E+02  0.19576335817E+02  0.14043318490E+01  0.25500116859E+02  0.00000000000E+00 0.  1.
</event>
<event>
 8    1  0.2527138E-006  0.9118800E+02  0.7816164E-02  0.1184000E+00
        -11   -1    0    0    0    0  0.00000000000E+00  0.00000000000E+00  0.45593999997E+02  0.45594000000E+02  0.51100000000E-03 0. -1.
         11   -1    0    0    0    0 -0.00000000000E+00 -0.00000000000E+00 -0.45593999997E+02  0.45594000000E+02  0.51100000000E-03 0.  1.
         23    2    1    2    0    0  0.71054273576E-14 -0.17763568394E-14  0.88817841970E-15  0.91188000000E+02  0.91188000000E+02 0.  0.
    9900012    2    3    3    0    0 -0.35901394429E+02  0.81124427211E+01 -0.10264999044E+01  0.54367142447E+02  0.40000132837E+02 0.  0.
         12    1    3    3    0    0  0.35901394429E+02 -0.81124427211E+01  0.10264999044E+01  0.36820857553E+02  0.00000000000E+00 0. -1.
         11    1    4    4    0    0  0.27211132436E+01 -0.11514130988E+01 -0.63218971172E+00  0.30215680534E+01  0.51100000000E-03 0. -1.
        -11    1    4    4    0    0 -0.32811343674E+02  0.53811012485E+00 -0.12692924823E+02  0.35184999318E+02  0.51100000000E-03 0.  1.
         12    1    4    4    0    0 -0.58111639992E+01  0.87257456951E+01  0.12298614630E+02  0.16160575076E+02  0.00000000000E+00 0. -1.
</event>
<event>
 8    1  0.2527138E-006  0.9118800E+02  0.7816164E-02  0.1184000E+00
        -11   -1    0    0    0    0  0.00000000000E+00  0.00000000000E+00  0.45593999997E+02  0.45594000000E+02  0.51100000000E-03 0.  1.
         11   -1    0    0    0    0 -0.00000000000E+00 -0.00000000000E+00 -0.45593999997E+02  0.45594000000E+02  0.51100000000E-03 0. -1.
         23    2    1    2    0    0  0.35527136788E-14  0.00000000000E+00  0.00000000000E+00  0.91188000000E+02  0.91188000000E+02 0.  0.
    9900012    2    3    3    0    0 -0.20143339296E+02 -0.26615304971E+02 -0.15545155259E+02  0.54367076210E+02  0.39999981837E+02 0.  0.
        -12    1    3    3    0    0  0.20143339296E+02  0.26615304971E+02  0.15545155259E+02  0.36820923790E+02  0.00000000000E+00 0.  1.
         11    1    4    4    0    0 -0.25467761528E+01 -0.14247225345E+02 -0.59636904472E+01  0.15653597121E+02  0.51100000000E-03 0. -1.
        -11    1    4    4    0    0 -0.26098471766E+02 -0.10315159050E+02 -0.40217589176E+01  0.28349731565E+02  0.51100000000E-03 0.  1.
         12    1    4    4    0    0  0.85019086227E+01 -0.20529205757E+01 -0.55597058945E+01  0.10363747525E+02  0.00000000000E+00 0. -1.
</event>
<event>
 8    1  0.2527138E-006  0.9118800E+02  0.7816164E-02  0.1184000E+00
        -11   -1    0    0    0    0  0.00000000000E+00  0.00000000000E+00  0.45593999997E+02  0.45594000000E+02  0.51100000000E-03 0.  1.
         11   -1    0    0    0    0 -0.00000000000E+00 -0.00000000000E+00 -0.45593999997E+02  0.45594000000E+02  0.51100000000E-03 0. -1.
         23    2    1    2    0    0  0.00000000000E+00  0.17763568394E-14  0.71054273576E-14  0.91188000000E+02  0.91188000000E+02 0.  0.
    9900012    2    3    3    0    0  0.12350833855E+02  0.92342130031E+01  0.33435832155E+02  0.54367236040E+02  0.40000346199E+02 0.  0.
         12    1    3    3    0    0 -0.12350833855E+02 -0.92342130031E+01 -0.33435832155E+02  0.36820763960E+02  0.00000000000E+00 0. -1.
         11    1    4    4    0    0  0.74402553802E+01 -0.36450447550E+00  0.31099255918E+01  0.80722921828E+01  0.51100000000E-03 0. -1.
        -11    1    4    4    0    0  0.86672791610E+01  0.11024493426E+02  0.36402324078E+02  0.39010131786E+02  0.51100000000E-03 0.  1.
        -12    1    4    4    0    0 -0.37567006867E+01 -0.14257759478E+01 -0.60764175149E+01  0.72848120715E+01  0.00000000000E+00 0.  1.
</event>
<event>
 8    1  0.2527138E-006  0.9118800E+02  0.7816164E-02  0.1184000E+00
        -11   -1    0    0    0    0  0.00000000000E+00  0.00000000000E+00  0.45593999997E+02  0.45594000000E+02  0.51100000000E-03 0.  1.
         11   -1    0    0    0    0 -0.00000000000E+00 -0.00000000000E+00 -0.45593999997E+02  0.45594000000E+02  0.51100000000E-03 0. -1.
         23    2    1    2    0    0  0.17763568394E-14 -0.35527136788E-14  0.00000000000E+00  0.91188000000E+02  0.91188000000E+02 0.  0.
    9900012    2    3    3    0    0  0.13405758094E+02  0.18707553432E+02  0.28741753947E+02  0.54367145509E+02  0.40000139816E+02 0.  0.
         12    1    3    3    0    0 -0.13405758094E+02 -0.18707553432E+02 -0.28741753947E+02  0.36820854491E+02  0.00000000000E+00 0. -1.
         11    1    4    4    0    0 -0.38730610087E+01  0.23835323537E+02  0.15515477582E+02  0.28702844711E+02  0.51100000000E-03 0. -1.
        -11    1    4    4    0    0  0.11795572957E+02 -0.90031153249E+01  0.66328891223E+01  0.16253825559E+02  0.51100000000E-03 0.  1.
        -12    1    4    4    0    0  0.54832461465E+01  0.38753452202E+01  0.65933872434E+01  0.94104752388E+01  0.00000000000E+00 0.  1.
</event>
<event>
 8    1  0.2527138E-006  0.9118800E+02  0.7816164E-02  0.1184000E+00
        -11   -1    0    0    0    0  0.00000000000E+00  0.00000000000E+00  0.45593999997E+02  0.45594000000E+02  0.51100000000E-03 0.  1.
         11   -1    0    0    0    0 -0.00000000000E+00 -0.00000000000E+00 -0.45593999997E+02  0.45594000000E+02  0.51100000000E-03 0. -1.
         23    2    1    2    0    0  0.00000000000E+00  0.88817841970E-15  0.00000000000E+00  0.91188000000E+02  0.91188000000E+02 0.  0.
    9900012    2    3    3    0    0  0.17853193339E+02 -0.24496666959E+01  0.32109823162E+02  0.54367107523E+02  0.40000053220E+02 0.  0.
         12    1    3    3    0    0 -0.17853193339E+02  0.24496666959E+01 -0.32109823162E+02  0.36820892477E+02  0.00000000000E+00 0. -1.
         11    1    4    4    0    0 -0.14130701474E+01 -0.48581698703E+01  0.66228473926E+01  0.83343079843E+01  0.51100000000E-03 0. -1.
        -11    1    4    4    0    0  0.10325473466E+02  0.13693589661E+02  0.45573050400E+00  0.17156266805E+02  0.51100000000E-03 0.  1.
        -12    1    4    4    0    0  0.89407900201E+01 -0.11285086487E+02  0.25031245265E+02  0.28876532734E+02  0.00000000000E+00 0.  1.
</event>
<event>
 8    1  0.2527138E-006  0.9118800E+02  0.7816164E-02  0.1184000E+00
        -11   -1    0    0    0    0  0.00000000000E+00  0.00000000000E+00  0.45593999997E+02  0.45594000000E+02  0.51100000000E-03 0. -1.
         11   -1    0    0    0    0 -0.00000000000E+00 -0.00000000000E+00 -0.45593999997E+02  0.45594000000E+02  0.51100000000E-03 0.  1.
         23    2    1    2    0    0  0.88817841970E-15  0.00000000000E+00 -0.35527136788E-14  0.91188000000E+02  0.91188000000E+02 0.  0.
    9900012    2    3    3    0    0 -0.41412951783E+01 -0.25239184436E+02 -0.26488011141E+02  0.54367061786E+02  0.39999948954E+02 0.  0.
         12    1    3    3    0    0  0.41412951783E+01  0.25239184436E+02  0.26488011141E+02  0.36820938214E+02  0.00000000000E+00 0. -1.
         11    1    4    4    0    0  0.55656283453E+01  0.57117125393E+01  0.10032415351E+01  0.80378089582E+01  0.51100000000E-03 0. -1.
        -11    1    4    4    0    0 -0.47661565608E+01 -0.24426171071E+02 -0.28775812585E+02  0.38044729881E+02  0.51100000000E-03 0.  1.
        -12    1    4    4    0    0 -0.49407669628E+01 -0.65247259041E+01  0.12845599084E+01  0.82845229472E+01  0.00000000000E+00 0.  1.
</event>
<event>
 8    1  0.2527138E-006  0.9118800E+02  0.7816164E-02  0.1184000E+00
        -11   -1    0    0    0    0  0.00000000000E+00  0.00000000000E+00  0.45593999997E+02  0.45594000000E+02  0.51100000000E-03 0.  1.
         11   -1    0    0    0    0 -0.00000000000E+00 -0.00000000000E+00 -0.45593999997E+02  0.45594000000E+02  0.51100000000E-03 0. -1.
         23    2    1    2    0    0  0.35527136788E-14 -0.35527136788E-14  0.17763568394E-14  0.91188000000E+02  0.91188000000E+02 0.  0.
    9900012    2    3    3    0    0 -0.19072869958E+02  0.27994914509E+02 -0.14432264254E+02  0.54367083956E+02  0.39999999496E+02 0.  0.
        -12    1    3    3    0    0  0.19072869958E+02 -0.27994914509E+02  0.14432264254E+02  0.36820916044E+02  0.00000000000E+00 0.  1.
         11    1    4    4    0    0 -0.14284503204E+02  0.18185371682E+02  0.63532798651E+01  0.23981637565E+02  0.51100000000E-03 0. -1.
        -11    1    4    4    0    0 -0.10757559792E+02  0.23008284949E+00 -0.11704142166E+02  0.15898584053E+02  0.51100000000E-03 0.  1.
        -12    1    4    4    0    0  0.59691930378E+01  0.95794599778E+01 -0.90814019530E+01  0.14486862339E+02  0.00000000000E+00 0.  1.
</event>
<event>
 8    1  0.2527138E-006  0.9118800E+02  0.7816164E-02  0.1184000E+00
        -11   -1    0    0    0    0  0.00000000000E+00  0.00000000000E+00  0.45593999997E+02  0.45594000000E+02  0.51100000000E-03 0.  1.
         11   -1    0    0    0    0 -0.00000000000E+00 -0.00000000000E+00 -0.45593999997E+02  0.45594000000E+02  0.51100000000E-03 0. -1.
         23    2    1    2    0    0  0.35527136788E-14  0.00000000000E+00 -0.55511151231E-15  0.91188000000E+02  0.91188000000E+02 0.  0.
    9900012    2    3    3    0    0 -0.31869388099E+02  0.18434897195E+02 -0.52500179712E+00  0.54367096164E+02  0.40000027325E+02 0.  0.
         12    1    3    3    0    0  0.31869388099E+02 -0.18434897195E+02  0.52500179712E+00  0.36820903836E+02  0.00000000000E+00 0. -1.
         11    1    4    4    0    0  0.15629500625E+01 -0.36505133214E+01 -0.94746281884E+01  0.10273151414E+02  0.51100000000E-03 0. -1.
        -11    1    4    4    0    0 -0.31671605231E+02  0.17304284795E+02  0.12145655339E+02  0.38079466829E+02  0.51100000000E-03 0.  1.
        -12    1    4    4    0    0 -0.17607329309E+01  0.47811257221E+01 -0.31960289477E+01  0.60144779207E+01  0.00000000000E+00 0.  1.
</event>
<event>
 8    1  0.2527138E-006  0.9118800E+02  0.7816164E-02  0.1184000E+00
        -11   -1    0    0    0    0  0.00000000000E+00  0.00000000000E+00  0.45593999997E+02  0.45594000000E+02  0.51100000000E-03 0.  1.
         11   -1    0    0    0    0 -0.00000000000E+00 -0.00000000000E+00 -0.45593999997E+02  0.45594000000E+02  0.51100000000E-03 0. -1.
         23    2    1    2    0    0  0.00000000000E+00 -0.44408920985E-15  0.00000000000E+00  0.91188000000E+02  0.91188000000E+02 0.  0.
    9900012    2    3    3    0    0 -0.19228689872E+02  0.12292394412E+01 -0.31377167443E+02  0.54367079580E+02  0.39999989519E+02 0.  0.
        -12    1    3    3    0    0  0.19228689872E+02 -0.12292394412E+01  0.31377167443E+02  0.36820920420E+02  0.00000000000E+00 0.  1.
         11    1    4    4    0    0 -0.33524855966E+01  0.35407851815E+00 -0.29973177100E+02  0.30162159687E+02  0.51100000000E-03 0. -1.
        -11    1    4    4    0    0 -0.83136062830E+00  0.54408286420E+01 -0.56822551768E+01  0.79108660057E+01  0.51100000000E-03 0.  1.
        -12    1    4    4    0    0 -0.15044843647E+02 -0.45656677190E+01  0.42782648335E+01  0.16294053887E+02  0.00000000000E+00 0.  1.
</event>
<event>
 8    1  0.2527138E-006  0.9118800E+02  0.7816164E-02  0.1184000E+00
        -11   -1    0    0    0    0  0.00000000000E+00  0.00000000000E+00  0.45593999997E+02  0.45594000000E+02  0.51100000000E-03 0. -1.
         11   -1    0    0    0    0 -0.00000000000E+00 -0.00000000000E+00 -0.45593999997E+02  0.45594000000E+02  0.51100000000E-03 0.  1.
         23    2    1    2    0    0  0.00000000000E+00  0.00000000000E+00  0.00000000000E+00  0.91188000000E+02  0.91188000000E+02 0.  0.
    9900012    2    3    3    0    0 -0.23012340058E+02  0.20968130215E+02  0.19660883399E+02  0.54367073671E+02  0.39999976049E+02 0.  0.
        -12    1    3    3    0    0  0.23012340058E+02 -0.20968130215E+02 -0.19660883399E+02  0.36820926329E+02  0.00000000000E+00 0.  1.
         11    1    4    4    0    0 -0.17280495568E+01  0.20872288167E+01  0.41540727381E+01  0.49597378942E+01  0.51100000000E-03 0. -1.
        -11    1    4    4    0    0 -0.60697778345E+01  0.27639966446E+02  0.44141614279E+01  0.28640788563E+02  0.51100000000E-03 0.  1.
        -12    1    4    4    0    0 -0.15214512667E+02 -0.87590650481E+01  0.11092649233E+02  0.20766547215E+02  0.00000000000E+00 0.  1.
</event>
<event>
 8    1  0.2527138E-006  0.9118800E+02  0.7816164E-02  0.1184000E+00
        -11   -1    0    0    0    0  0.00000000000E+00  0.00000000000E+00  0.45593999997E+02  0.45594000000E+02  0.51100000000E-03 0.  1.
         11   -1    0    0    0    0 -0.00000000000E+00 -0.00000000000E+00 -0.45593999997E+02  0.45594000000E+02  0.51100000000E-03 0. -1.
         23    2    1    2    0    0  0.00000000000E+00 -0.35527136788E-14  0.17763568394E-14  0.91188000000E+02  0.91188000000E+02 0.  0.
    9900012    2    3    3    0    0 -0.16268355565E+02  0.30789703037E+02  0.11963150305E+02  0.54367052550E+02  0.39999927898E+02 0.  0.
        -12    1    3    3    0    0  0.16268355565E+02 -0.30789703037E+02 -0.11963150305E+02  0.36820947450E+02  0.00000000000E+00 0.  1.
         11    1    4    4    0    0  0.42478061605E+00 -0.30310245603E+01 -0.35288771871E+01  0.46712442582E+01  0.51100000000E-03 0. -1.
        -11    1    4    4    0    0 -0.41583128238E+00  0.25566268645E+02 -0.28479834361E+00  0.25571236154E+02  0.51100000000E-03 0.  1.
        -12    1    4    4    0    0 -0.16277304899E+02  0.82544589524E+01  0.15776825836E+02  0.24124572138E+02  0.00000000000E+00 0.  1.
</event>
<event>
 8    1  0.2527138E-006  0.9118800E+02  0.7816164E-02  0.1184000E+00
        -11   -1    0    0    0    0  0.00000000000E+00  0.00000000000E+00  0.45593999997E+02  0.45594000000E+02  0.51100000000E-03 0. -1.
         11   -1    0    0    0    0 -0.00000000000E+00 -0.00000000000E+00 -0.45593999997E+02  0.45594000000E+02  0.51100000000E-03 0.  1.
         23    2    1    2    0    0 -0.35527136788E-14  0.00000000000E+00  0.00000000000E+00  0.91188000000E+02  0.91188000000E+02 0.  0.
    9900012    2    3    3    0    0 -0.20093527765E+02  0.22911498369E+02  0.20666130579E+02  0.54367142207E+02  0.40000132289E+02 0.  0.
        -12    1    3    3    0    0  0.20093527765E+02 -0.22911498369E+02 -0.20666130579E+02  0.36820857793E+02  0.00000000000E+00 0.  1.
         11    1    4    4    0    0 -0.66302401935E+01 -0.68679275688E+01 -0.50596339490E+01  0.10804092284E+02  0.51100000000E-03 0. -1.
        -11    1    4    4    0    0  0.87435232216E+00  0.70652767593E+01  0.12591778698E+01  0.72296719731E+01  0.51100000000E-03 0.  1.
         12    1    4    4    0    0 -0.14337639893E+02  0.22714149178E+02  0.24466586658E+02  0.36333377950E+02  0.00000000000E+00 0. -1.
</event>
<event>
 8    1  0.2527138E-006  0.9118800E+02  0.7816164E-02  0.1184000E+00
        -11   -1    0    0    0    0  0.00000000000E+00  0.00000000000E+00  0.45593999997E+02  0.45594000000E+02  0.51100000000E-03 0.  1.
         11   -1    0    0    0    0 -0.00000000000E+00 -0.00000000000E+00 -0.45593999997E+02  0.45594000000E+02  0.51100000000E-03 0. -1.
         23    2    1    2    0    0  0.17763568394E-14 -0.17763568394E-14  0.00000000000E+00  0.91188000000E+02  0.91188000000E+02 0.  0.
    9900012    2    3    3    0    0 -0.48316432588E+01  0.70604208795E+01 -0.35813211065E+02  0.54367076514E+02  0.39999982529E+02 0.  0.
        -12    1    3    3    0    0  0.48316432588E+01 -0.70604208795E+01  0.35813211065E+02  0.36820923486E+02  0.00000000000E+00 0.  1.
         11    1    4    4    0    0 -0.13336859126E+02 -0.65058132972E+01 -0.96479040407E+01  0.17699702558E+02  0.51100000000E-03 0. -1.
        -11    1    4    4    0    0  0.46169101016E+01 -0.23372580822E+01  0.68438030460E+00  0.52198669419E+01  0.51100000000E-03 0.  1.
        -12    1    4    4    0    0  0.38883057652E+01  0.15903492259E+02 -0.26849687329E+02  0.31447507014E+02  0.00000000000E+00 0.  1.
</event>
<event>
 8    1  0.2527138E-006  0.9118800E+02  0.7816164E-02  0.1184000E+00
        -11   -1    0    0    0    0  0.00000000000E+00  0.00000000000E+00  0.45593999997E+02  0.45594000000E+02  0.51100000000E-03 0.  1.
         11   -1    0    0    0    0 -0.00000000000E+00 -0.00000000000E+00 -0.45593999997E+02  0.45594000000E+02  0.51100000000E-03 0. -1.
         23    2    1    2    0    0 -0.35527136788E-14 -0.14210854715E-13 -0.35527136788E-14  0.91188000000E+02  0.91188000000E+02 0.  0.
    9900012    2    3    3    0    0  0.88346811944E+01  0.34394566703E+02  0.97335933639E+01  0.54367073202E+02  0.39999974978E+02 0.  0.
         12    1    3    3    0    0 -0.88346811944E+01 -0.34394566703E+02 -0.97335933639E+01  0.36820926798E+02  0.00000000000E+00 0. -1.
         11    1    4    4    0    0 -0.88581552441E+01  0.30922441561E+02  0.36510870214E+01  0.32372746919E+02  0.51100000000E-03 0. -1.
        -11    1    4    4    0    0 -0.88644385027E+00 -0.92816078097E+00 -0.10028605245E+01  0.16288015925E+01  0.51100000000E-03 0.  1.
        -12    1    4    4    0    0  0.18579280289E+02  0.44002859237E+01  0.70853668670E+01  0.20365524690E+02  0.00000000000E+00 0.  1.
</event>
<event>
 8    1  0.2527138E-006  0.9118800E+02  0.7816164E-02  0.1184000E+00
        -11   -1    0    0    0    0  0.00000000000E+00  0.00000000000E+00  0.45593999997E+02  0.45594000000E+02  0.51100000000E-03 0. -1.
         11   -1    0    0    0    0 -0.00000000000E+00 -0.00000000000E+00 -0.45593999997E+02  0.45594000000E+02  0.51100000000E-03 0.  1.
         23    2    1    2    0    0  0.00000000000E+00  0.35527136788E-14  0.00000000000E+00  0.91188000000E+02  0.91188000000E+02 0.  0.
    9900012    2    3    3    0    0 -0.81847871943E+01 -0.84407541554E+01  0.34893298688E+02  0.54367090649E+02  0.40000014752E+02 0.  0.
        -12    1    3    3    0    0  0.81847871943E+01  0.84407541554E+01 -0.34893298688E+02  0.36820909351E+02  0.00000000000E+00 0.  1.
         11    1    4    4    0    0 -0.17417898717E+01  0.62847533242E+01  0.16586836602E+02  0.17822881502E+02  0.51100000000E-03 0. -1.
        -11    1    4    4    0    0  0.11478204280E+00  0.48057063416E+00  0.19901561996E+02  0.19907694322E+02  0.51100000000E-03 0.  1.
        -12    1    4    4    0    0 -0.65577793655E+01 -0.15206078114E+02 -0.15950999109E+01  0.16636514825E+02  0.00000000000E+00 0.  1.
</event>
<event>
 8    1  0.2527138E-006  0.9118800E+02  0.7816164E-02  0.1184000E+00
        -11   -1    0    0    0    0  0.00000000000E+00  0.00000000000E+00  0.45593999997E+02  0.45594000000E+02  0.51100000000E-03 0.  1.
         11   -1    0    0    0    0 -0.00000000000E+00 -0.00000000000E+00 -0.45593999997E+02  0.45594000000E+02  0.51100000000E-03 0. -1.
         23    2    1    2    0    0  0.00000000000E+00  0.71054273576E-14  0.00000000000E+00  0.91188000000E+02  0.91188000000E+02 0.  0.
    9900012    2    3    3    0    0 -0.46071819446E+01  0.35558828912E+02  0.83740310001E+01  0.54367070704E+02  0.39999969284E+02 0.  0.
         12    1    3    3    0    0  0.46071819446E+01 -0.35558828912E+02 -0.83740310001E+01  0.36820929296E+02  0.00000000000E+00 0. -1.
         11    1    4    4    0    0 -0.77512425284E+01  0.16817214137E+02  0.88103808491E+01  0.20506663869E+02  0.51100000000E-03 0. -1.
        -11    1    4    4    0    0 -0.35324127447E+01  0.12548727032E+02  0.12486298259E+02  0.18051485656E+02  0.51100000000E-03 0.  1.
         12    1    4    4    0    0  0.66764733285E+01  0.61928877425E+01 -0.12922648108E+02  0.15808921179E+02  0.00000000000E+00 0. -1.
</event>
<event>
 8    1  0.2527138E-006  0.9118800E+02  0.7816164E-02  0.1184000E+00
        -11   -1    0    0    0    0  0.00000000000E+00  0.00000000000E+00  0.45593999997E+02  0.45594000000E+02  0.51100000000E-03 0.  1.
         11   -1    0    0    0    0 -0.00000000000E+00 -0.00000000000E+00 -0.45593999997E+02  0.45594000000E+02  0.51100000000E-03 0. -1.
         23    2    1    2    0    0  0.00000000000E+00  0.44408920985E-14 -0.35527136788E-14  0.91188000000E+02  0.91188000000E+02 0.  0.
    9900012    2    3    3    0    0  0.32277734729E+02 -0.45040781534E+01  0.17135966367E+02  0.54367079010E+02  0.39999988219E+02 0.  0.
         12    1    3    3    0    0 -0.32277734729E+02  0.45040781534E+01 -0.17135966367E+02  0.36820920990E+02  0.00000000000E+00 0. -1.
         11    1    4    4    0    0  0.12353637148E+02 -0.14638985233E+02  0.11169164157E+02  0.22173463141E+02  0.51100000000E-03 0. -1.
        -11    1    4    4    0    0  0.22638586579E+02  0.13740638186E+02  0.73317395074E+01  0.27478448729E+02  0.51100000000E-03 0.  1.
        -12    1    4    4    0    0 -0.27144889986E+01 -0.36057311065E+01 -0.13649372976E+01  0.47151671404E+01  0.00000000000E+00 0.  1.
</event>
<event>
 8    1  0.2527138E-006  0.9118800E+02  0.7816164E-02  0.1184000E+00
        -11   -1    0    0    0    0  0.00000000000E+00  0.00000000000E+00  0.45593999997E+02  0.45594000000E+02  0.51100000000E-03 0.  1.
         11   -1    0    0    0    0 -0.00000000000E+00 -0.00000000000E+00 -0.45593999997E+02  0.45594000000E+02  0.51100000000E-03 0. -1.
         23    2    1    2    0    0  0.17763568394E-14 -0.35527136788E-14  0.00000000000E+00  0.91188000000E+02  0.91188000000E+02 0.  0.
    9900012    2    3    3    0    0  0.11512374644E+02 -0.24456095939E+02  0.25002886205E+02  0.54367085874E+02  0.40000003866E+02 0.  0.
         12    1    3    3    0    0 -0.11512374644E+02  0.24456095939E+02 -0.25002886205E+02  0.36820914126E+02  0.00000000000E+00 0. -1.
         11    1    4    4    0    0  0.17667142518E+01 -0.12579988563E+02 -0.72816774840E+01  0.14642411644E+02  0.51100000000E-03 0. -1.
        -11    1    4    4    0    0 -0.30390273936E+01 -0.65439177321E+01  0.40474175599E+01  0.82728553685E+01  0.51100000000E-03 0.  1.
        -12    1    4    4    0    0  0.12784687786E+02 -0.53321896436E+01  0.28237146129E+02  0.31451818861E+02  0.00000000000E+00 0.  1.
</event>
<event>
 8    1  0.2527138E-006  0.9118800E+02  0.7816164E-02  0.1184000E+00
        -11   -1    0    0    0    0  0.00000000000E+00  0.00000000000E+00  0.45593999997E+02  0.45594000000E+02  0.51100000000E-03 0. -1.
         11   -1    0    0    0    0 -0.00000000000E+00 -0.00000000000E+00 -0.45593999997E+02  0.45594000000E+02  0.51100000000E-03 0.  1.
         23    2    1    2    0    0  0.35527136788E-14  0.00000000000E+00 -0.35527136788E-14  0.91188000000E+02  0.91188000000E+02 0.  0.
    9900012    2    3    3    0    0  0.19220124075E+02 -0.21070959759E+02 -0.23289064501E+02  0.54367095069E+02  0.40000024829E+02 0.  0.
         12    1    3    3    0    0 -0.19220124075E+02  0.21070959759E+02  0.23289064501E+02  0.36820904931E+02  0.00000000000E+00 0. -1.
         11    1    4    4    0    0 -0.25315263195E+01  0.18588562640E+01  0.18638417027E+01  0.36521060048E+01  0.51100000000E-03 0. -1.
        -11    1    4    4    0    0 -0.14139256521E+01 -0.20608412705E+02 -0.10128006314E+02  0.23006137706E+02  0.51100000000E-03 0.  1.
         12    1    4    4    0    0  0.23165576046E+02 -0.23214033182E+01 -0.15024899889E+02  0.27708851358E+02  0.00000000000E+00 0. -1.
</event>
<event>
 8    1  0.2527138E-006  0.9118800E+02  0.7816164E-02  0.1184000E+00
        -11   -1    0    0    0    0  0.00000000000E+00  0.00000000000E+00  0.45593999997E+02  0.45594000000E+02  0.51100000000E-03 0.  1.
         11   -1    0    0    0    0 -0.00000000000E+00 -0.00000000000E+00 -0.45593999997E+02  0.45594000000E+02  0.51100000000E-03 0. -1.
         23    2    1    2    0    0  0.00000000000E+00  0.00000000000E+00  0.00000000000E+00  0.91188000000E+02  0.91188000000E+02 0.  0.
    9900012    2    3    3    0    0  0.12666491569E+02 -0.23277357003E+01 -0.34495244130E+02  0.54367078912E+02  0.39999987996E+02 0.  0.
        -12    1    3    3    0    0 -0.12666491569E+02  0.23277357003E+01  0.34495244130E+02  0.36820921088E+02  0.00000000000E+00 0.  1.
         11    1    4    4    0    0 -0.11269382694E+01  0.12224186574E+02 -0.10186936685E+02  0.15952253964E+02  0.51100000000E-03 0. -1.
        -11    1    4    4    0    0  0.31388009959E+01 -0.38761989207E+01  0.39638747114E+01  0.63709726693E+01  0.51100000000E-03 0.  1.
        -12    1    4    4    0    0  0.10654628843E+02 -0.10675723354E+02 -0.28272182157E+02  0.32043852278E+02  0.00000000000E+00 0.  1.
</event>
<event>
 8    1  0.2527138E-006  0.9118800E+02  0.7816164E-02  0.1184000E+00
        -11   -1    0    0    0    0  0.00000000000E+00  0.00000000000E+00  0.45593999997E+02  0.45594000000E+02  0.51100000000E-03 0.  1.
         11   -1    0    0    0    0 -0.00000000000E+00 -0.00000000000E+00 -0.45593999997E+02  0.45594000000E+02  0.51100000000E-03 0. -1.
         23    2    1    2    0    0  0.00000000000E+00  0.17763568394E-14  0.00000000000E+00  0.91188000000E+02  0.91188000000E+02 0.  0.
    9900012    2    3    3    0    0 -0.20175594774E+02 -0.10744370908E+02 -0.28866690612E+02  0.54367055450E+02  0.39999934509E+02 0.  0.
        -12    1    3    3    0    0  0.20175594774E+02  0.10744370908E+02  0.28866690612E+02  0.36820944550E+02  0.00000000000E+00 0.  1.
         11    1    4    4    0    0 -0.29033741613E+02 -0.16763582375E+02 -0.19256719098E+02  0.38662605665E+02  0.51100000000E-03 0. -1.
        -11    1    4    4    0    0  0.13152538227E+01  0.37563162151E+01 -0.55918386789E+01  0.68635606064E+01  0.51100000000E-03 0.  1.
         12    1    4    4    0    0  0.75428930167E+01  0.22628952521E+01 -0.40181328354E+01  0.88408891785E+01  0.00000000000E+00 0. -1.
</event>
<event>
 8    1  0.2527138E-006  0.9118800E+02  0.7816164E-02  0.1184000E+00
        -11   -1    0    0    0    0  0.00000000000E+00  0.00000000000E+00  0.45593999997E+02  0.45594000000E+02  0.51100000000E-03 0. -1.
         11   -1    0    0    0    0 -0.00000000000E+00 -0.00000000000E+00 -0.45593999997E+02  0.45594000000E+02  0.51100000000E-03 0.  1.
         23    2    1    2    0    0  0.00000000000E+00  0.35527136788E-14  0.00000000000E+00  0.91188000000E+02  0.91188000000E+02 0.  0.
    9900012    2    3    3    0    0  0.17295587417E+02  0.28380304128E+02 -0.15849324623E+02  0.54367080708E+02  0.39999992089E+02 0.  0.
         12    1    3    3    0    0 -0.17295587417E+02 -0.28380304128E+02  0.15849324623E+02  0.36820919292E+02  0.00000000000E+00 0. -1.
         11    1    4    4    0    0  0.15493160782E+02  0.17604314358E+02 -0.10337019086E+02  0.25628185244E+02  0.51100000000E-03 0. -1.
        -11    1    4    4    0    0  0.85270521826E+01 -0.57965857251E+00 -0.11432829475E+02  0.14274320056E+02  0.51100000000E-03 0.  1.
         12    1    4    4    0    0 -0.67246255479E+01  0.11355648343E+02  0.59205239377E+01  0.14464575408E+02  0.00000000000E+00 0. -1.
</event>
<event>
 8    1  0.2527138E-006  0.9118800E+02  0.7816164E-02  0.1184000E+00
        -11   -1    0    0    0    0  0.00000000000E+00  0.00000000000E+00  0.45593999997E+02  0.45594000000E+02  0.51100000000E-03 0. -1.
         11   -1    0    0    0    0 -0.00000000000E+00 -0.00000000000E+00 -0.45593999997E+02  0.45594000000E+02  0.51100000000E-03 0.  1.
         23    2    1    2    0    0  0.00000000000E+00  0.00000000000E+00  0.17763568394E-14  0.91188000000E+02  0.91188000000E+02 0.  0.
    9900012    2    3    3    0    0  0.14614238710E+02 -0.32299360270E+02  0.99481698432E+01  0.54366936325E+02  0.39999662940E+02 0.  0.
        -12    1    3    3    0    0 -0.14614238710E+02  0.32299360270E+02 -0.99481698432E+01  0.36821063675E+02  0.00000000000E+00 0.  1.
         11    1    4    4    0    0  0.26320530999E+01 -0.58004169212E+01  0.26222244512E+00  0.63750530078E+01  0.51100000000E-03 0.  1.
        -11    1    4    4    0    0  0.62185392591E+00 -0.24809374847E+02  0.20520841976E+02  0.32202433732E+02  0.51100000000E-03 0. -1.
         12    1    4    4    0    0  0.11360331684E+02 -0.16895685010E+01 -0.10834894578E+02  0.15789449585E+02  0.00000000000E+00 0. -1.
</event>
<event>
 8    1  0.2527138E-006  0.9118800E+02  0.7816164E-02  0.1184000E+00
        -11   -1    0    0    0    0  0.00000000000E+00  0.00000000000E+00  0.45593999997E+02  0.45594000000E+02  0.51100000000E-03 0. -1.
         11   -1    0    0    0    0 -0.00000000000E+00 -0.00000000000E+00 -0.45593999997E+02  0.45594000000E+02  0.51100000000E-03 0.  1.
         23    2    1    2    0    0 -0.17763568394E-14  0.00000000000E+00 -0.35527136788E-14  0.91188000000E+02  0.91188000000E+02 0.  0.
    9900012    2    3    3    0    0 -0.12815710923E+02 -0.28783679761E+02  0.19053536707E+02  0.54367083009E+02  0.39999997335E+02 0.  0.
        -12    1    3    3    0    0  0.12815710923E+02  0.28783679761E+02 -0.19053536707E+02  0.36820916991E+02  0.00000000000E+00 0.  1.
         11    1    4    4    0    0 -0.19244147958E+01 -0.26049067196E+02  0.25284354220E+02  0.36353209524E+02  0.51100000000E-03 0. -1.
        -11    1    4    4    0    0  0.23824538978E+01  0.27468747604E+00 -0.33198297460E+01  0.40954620726E+01  0.51100000000E-03 0.  1.
        -12    1    4    4    0    0 -0.13273750025E+02 -0.30093000412E+01 -0.29109877672E+01  0.13918411413E+02  0.00000000000E+00 0.  1.
</event>
<event>
 8    1  0.2527138E-006  0.9118800E+02  0.7816164E-02  0.1184000E+00
        -11   -1    0    0    0    0  0.00000000000E+00  0.00000000000E+00  0.45593999997E+02  0.45594000000E+02  0.51100000000E-03 0. -1.
         11   -1    0    0    0    0 -0.00000000000E+00 -0.00000000000E+00 -0.45593999997E+02  0.45594000000E+02  0.51100000000E-03 0.  1.
         23    2    1    2    0    0 -0.88817841970E-15  0.00000000000E+00 -0.71054273576E-14  0.91188000000E+02  0.91188000000E+02 0.  0.
    9900012    2    3    3    0    0 -0.20059825598E+01 -0.36944425985E+01  0.36580142005E+02  0.54367086632E+02  0.40000005595E+02 0.  0.
        -12    1    3    3    0    0  0.20059825598E+01  0.36944425985E+01 -0.36580142005E+02  0.36820913368E+02  0.00000000000E+00 0.  1.
         11    1    4    4    0    0  0.96587735260E+01 -0.76555614668E+01  0.28565018061E+02  0.31110444942E+02  0.51100000000E-03 0. -1.
        -11    1    4    4    0    0 -0.74364407996E+00  0.95294573775E+01  0.30894946724E+01  0.10045324386E+02  0.51100000000E-03 0.  1.
         12    1    4    4    0    0 -0.10921112006E+02 -0.55683385091E+01  0.49256292720E+01  0.13211317305E+02  0.00000000000E+00 0. -1.
</event>
<event>
 8    1  0.2527138E-006  0.9118800E+02  0.7816164E-02  0.1184000E+00
        -11   -1    0    0    0    0  0.00000000000E+00  0.00000000000E+00  0.45593999997E+02  0.45594000000E+02  0.51100000000E-03 0.  1.
         11   -1    0    0    0    0 -0.00000000000E+00 -0.00000000000E+00 -0.45593999997E+02  0.45594000000E+02  0.51100000000E-03 0. -1.
         23    2    1    2    0    0  0.00000000000E+00  0.88817841970E-15  0.00000000000E+00  0.91188000000E+02  0.91188000000E+02 0.  0.
    9900012    2    3    3    0    0  0.32028986847E+02  0.26496401015E+01 -0.17969509773E+02  0.54367083762E+02  0.39999999053E+02 0.  0.
        -12    1    3    3    0    0 -0.32028986847E+02 -0.26496401015E+01  0.17969509773E+02  0.36820916238E+02  0.00000000000E+00 0.  1.
         11    1    4    4    0    0  0.13768951208E+02 -0.13999199740E+02  0.28550722744E+01  0.19842203725E+02  0.51100000000E-03 0. -1.
        -11    1    4    4    0    0  0.28838268904E+01 -0.18675927087E-01 -0.79306637789E+01  0.84387341799E+01  0.51100000000E-03 0.  1.
         12    1    4    4    0    0  0.15376208748E+02  0.16667515769E+02 -0.12893918268E+02  0.26086145857E+02  0.00000000000E+00 0. -1.
</event>
<event>
 8    1  0.2527138E-006  0.9118800E+02  0.7816164E-02  0.1184000E+00
        -11   -1    0    0    0    0  0.00000000000E+00  0.00000000000E+00  0.45593999997E+02  0.45594000000E+02  0.51100000000E-03 0. -1.
         11   -1    0    0    0    0 -0.00000000000E+00 -0.00000000000E+00 -0.45593999997E+02  0.45594000000E+02  0.51100000000E-03 0.  1.
         23    2    1    2    0    0 -0.35527136788E-14  0.71054273576E-14  0.71054273576E-14  0.91188000000E+02  0.91188000000E+02 0.  0.
    9900012    2    3    3    0    0  0.17066504883E+02 -0.22178796017E+02 -0.23929367292E+02  0.54367092887E+02  0.40000019854E+02 0.  0.
         12    1    3    3    0    0 -0.17066504883E+02  0.22178796017E+02  0.23929367292E+02  0.36820907113E+02  0.00000000000E+00 0. -1.
         11    1    4    4    0    0  0.24763697049E+01  0.86863443496E+00 -0.10219037718E+02  0.10550623908E+02  0.51100000000E-03 0. -1.
        -11    1    4    4    0    0  0.11827405826E+02 -0.13194570595E+02 -0.23649373819E+02  0.29551262309E+02  0.51100000000E-03 0.  1.
         12    1    4    4    0    0  0.27627293525E+01 -0.98528598563E+01  0.99390442454E+01  0.14265206670E+02  0.00000000000E+00 0. -1.
</event>
<event>
 8    1  0.2527138E-006  0.9118800E+02  0.7816164E-02  0.1184000E+00
        -11   -1    0    0    0    0  0.00000000000E+00  0.00000000000E+00  0.45593999997E+02  0.45594000000E+02  0.51100000000E-03 0. -1.
         11   -1    0    0    0    0 -0.00000000000E+00 -0.00000000000E+00 -0.45593999997E+02  0.45594000000E+02  0.51100000000E-03 0.  1.
         23    2    1    2    0    0 -0.35527136788E-14  0.00000000000E+00  0.00000000000E+00  0.91188000000E+02  0.91188000000E+02 0.  0.
    9900012    2    3    3    0    0  0.31367929321E+02  0.86064885393E+01  0.17255741519E+02  0.54367092213E+02  0.40000018318E+02 0.  0.
        -12    1    3    3    0    0 -0.31367929321E+02 -0.86064885393E+01 -0.17255741519E+02  0.36820907787E+02  0.00000000000E+00 0.  1.
         11    1    4    4    0    0  0.36030820150E+02  0.14466034187E+02  0.14916262897E+02  0.41593040822E+02  0.51100000000E-03 0. -1.
        -11    1    4    4    0    0 -0.15267744093E+00 -0.76871308400E+01  0.15668255906E+01  0.78466702265E+01  0.51100000000E-03 0.  1.
        -12    1    4    4    0    0 -0.45102133874E+01  0.18275851919E+01  0.77265303106E+00  0.49273811645E+01  0.00000000000E+00 0.  1.
</event>
<event>
 8    1  0.2527138E-006  0.9118800E+02  0.7816164E-02  0.1184000E+00
        -11   -1    0    0    0    0  0.00000000000E+00  0.00000000000E+00  0.45593999997E+02  0.45594000000E+02  0.51100000000E-03 0. -1.
         11   -1    0    0    0    0 -0.00000000000E+00 -0.00000000000E+00 -0.45593999997E+02  0.45594000000E+02  0.51100000000E-03 0.  1.
         23    2    1    2    0    0  0.00000000000E+00 -0.88817841970E-15  0.00000000000E+00  0.91188000000E+02  0.91188000000E+02 0.  0.
    9900012    2    3    3    0    0 -0.75009585524E+01 -0.43241412601E+01  0.35788507523E+02  0.54367084102E+02  0.39999999827E+02 0.  0.
        -12    1    3    3    0    0  0.75009585524E+01  0.43241412601E+01 -0.35788507523E+02  0.36820915898E+02  0.00000000000E+00 0.  1.
         11    1    4    4    0    0 -0.52867905267E+01 -0.88530662244E+01 -0.52384324062E+01  0.11565816443E+02  0.51100000000E-03 0. -1.
        -11    1    4    4    0    0 -0.43755782889E+01  0.23234047261E+01  0.66843568379E+01  0.83201274919E+01  0.51100000000E-03 0.  1.
         12    1    4    4    0    0  0.21614102632E+01  0.22055202382E+01  0.34342583091E+02  0.34481140167E+02  0.00000000000E+00 0. -1.
</event>
<event>
 8    1  0.2527138E-006  0.9118800E+02  0.7816164E-02  0.1184000E+00
        -11   -1    0    0    0    0  0.00000000000E+00  0.00000000000E+00  0.45593999997E+02  0.45594000000E+02  0.51100000000E-03 0.  1.
         11   -1    0    0    0    0 -0.00000000000E+00 -0.00000000000E+00 -0.45593999997E+02  0.45594000000E+02  0.51100000000E-03 0. -1.
         23    2    1    2    0    0 -0.13322676296E-14  0.00000000000E+00  0.00000000000E+00  0.91188000000E+02  0.91188000000E+02 0.  0.
    9900012    2    3    3    0    0  0.23142329535E+01  0.36222665579E+02 -0.61928847396E+01  0.54366959857E+02  0.39999716585E+02 0.  0.
        -12    1    3    3    0    0 -0.23142329535E+01 -0.36222665579E+02  0.61928847396E+01  0.36821040143E+02  0.00000000000E+00 0.  1.
         11    1    4    4    0    0 -0.75757701210E+01  0.10867831575E+02 -0.80238200182E+01  0.15488180784E+02  0.51100000000E-03 0. -1.
        -11    1    4    4    0    0 -0.46269639632E+01  0.11546364395E+02 -0.96894046510E+01  0.15767431275E+02  0.51100000000E-03 0.  1.
        -12    1    4    4    0    0  0.14516967038E+02  0.13808469609E+02  0.11520339929E+02  0.23111347797E+02  0.00000000000E+00 0.  1.
</event>
<event>
 8    1  0.2527138E-006  0.9118800E+02  0.7816164E-02  0.1184000E+00
        -11   -1    0    0    0    0  0.00000000000E+00  0.00000000000E+00  0.45593999997E+02  0.45594000000E+02  0.51100000000E-03 0.  1.
         11   -1    0    0    0    0 -0.00000000000E+00 -0.00000000000E+00 -0.45593999997E+02  0.45594000000E+02  0.51100000000E-03 0. -1.
         23    2    1    2    0    0  0.35527136788E-14  0.66613381478E-15  0.00000000000E+00  0.91188000000E+02  0.91188000000E+02 0.  0.
    9900012    2    3    3    0    0  0.17041721994E+02 -0.13171823583E+01  0.32613262243E+02  0.54367080239E+02  0.39999991022E+02 0.  0.
         12    1    3    3    0    0 -0.17041721994E+02  0.13171823583E+01 -0.32613262243E+02  0.36820919761E+02  0.00000000000E+00 0. -1.
         11    1    4    4    0    0  0.10563189922E+02  0.14316820171E+01  0.20368978243E+02  0.22989692683E+02  0.51100000000E-03 0. -1.
        -11    1    4    4    0    0  0.46925319142E+01 -0.11393260494E+02  0.17273741649E+02  0.21218114696E+02  0.51100000000E-03 0.  1.
         12    1    4    4    0    0  0.17860001574E+01  0.86443961183E+01 -0.50294576488E+01  0.10159272861E+02  0.00000000000E+00 0. -1.
</event>
<event>
 8    1  0.2527138E-006  0.9118800E+02  0.7816164E-02  0.1184000E+00
        -11   -1    0    0    0    0  0.00000000000E+00  0.00000000000E+00  0.45593999997E+02  0.45594000000E+02  0.51100000000E-03 0. -1.
         11   -1    0    0    0    0 -0.00000000000E+00 -0.00000000000E+00 -0.45593999997E+02  0.45594000000E+02  0.51100000000E-03 0.  1.
         23    2    1    2    0    0  0.00000000000E+00  0.00000000000E+00  0.35527136788E-14  0.91188000000E+02  0.91188000000E+02 0.  0.
    9900012    2    3    3    0    0  0.21861759962E+02 -0.62626554179E+01  0.28958955597E+02  0.54367102255E+02  0.40000041210E+02 0.  0.
        -12    1    3    3    0    0 -0.21861759962E+02  0.62626554179E+01 -0.28958955597E+02  0.36820897745E+02  0.00000000000E+00 0.  1.
         11    1    4    4    0    0  0.13723204471E+02 -0.33355666921E+01  0.11426069416E+02  0.18166106041E+02  0.51100000000E-03 0. -1.
        -11    1    4    4    0    0  0.10986351133E+02 -0.63017209050E+01  0.24714306367E+02  0.27770641639E+02  0.51100000000E-03 0.  1.
        -12    1    4    4    0    0 -0.28477956429E+01  0.33746321793E+01 -0.71814201862E+01  0.84303545750E+01  0.00000000000E+00 0.  1.
</event>
<event>
 8    1  0.2527138E-006  0.9118800E+02  0.7816164E-02  0.1184000E+00
        -11   -1    0    0    0    0  0.00000000000E+00  0.00000000000E+00  0.45593999997E+02  0.45594000000E+02  0.51100000000E-03 0. -1.
         11   -1    0    0    0    0 -0.00000000000E+00 -0.00000000000E+00 -0.45593999997E+02  0.45594000000E+02  0.51100000000E-03 0.  1.
         23    2    1    2    0    0 -0.88817841970E-15  0.00000000000E+00  0.00000000000E+00  0.91188000000E+02  0.91188000000E+02 0.  0.
    9900012    2    3    3    0    0 -0.54626663398E+01  0.60045478113E+01  0.35914969037E+02  0.54367077702E+02  0.39999985237E+02 0.  0.
        -12    1    3    3    0    0  0.54626663398E+01 -0.60045478113E+01 -0.35914969037E+02  0.36820922298E+02  0.00000000000E+00 0.  1.
         11    1    4    4    0    0  0.10727921586E+02 -0.69675791295E+01  0.25588106513E+02  0.28607458043E+02  0.51100000000E-03 0. -1.
        -11    1    4    4    0    0 -0.42420840973E+01 -0.47800088246E+00 -0.11482582739E+01  0.44206628074E+01  0.51100000000E-03 0.  1.
         12    1    4    4    0    0 -0.11948503828E+02  0.13450127823E+02  0.11475120798E+02  0.21338956852E+02  0.00000000000E+00 0. -1.
</event>
<event>
 8    1  0.2527138E-006  0.9118800E+02  0.7816164E-02  0.1184000E+00
        -11   -1    0    0    0    0  0.00000000000E+00  0.00000000000E+00  0.45593999997E+02  0.45594000000E+02  0.51100000000E-03 0.  1.
         11   -1    0    0    0    0 -0.00000000000E+00 -0.00000000000E+00 -0.45593999997E+02  0.45594000000E+02  0.51100000000E-03 0. -1.
         23    2    1    2    0    0  0.71054273576E-14  0.17763568394E-14 -0.11102230246E-14  0.91188000000E+02  0.91188000000E+02 0.  0.
    9900012    2    3    3    0    0  0.35720629636E+02 -0.89184244901E+01 -0.52729331267E+00  0.54367085899E+02  0.40000003924E+02 0.  0.
        -12    1    3    3    0    0 -0.35720629636E+02  0.89184244901E+01  0.52729331267E+00  0.36820914101E+02  0.00000000000E+00 0.  1.
         11    1    4    4    0    0  0.46791112258E+01  0.46247063923E+01  0.81603603727E+01  0.10482054796E+02  0.51100000000E-03 0. -1.
        -11    1    4    4    0    0  0.10113306303E+01  0.12955091714E+01 -0.10222384812E+02  0.10353660472E+02  0.51100000000E-03 0.  1.
         12    1    4    4    0    0  0.30030187780E+02 -0.14838640054E+02  0.15347311267E+01  0.33531370631E+02  0.00000000000E+00 0. -1.
</event>
<event>
 8    1  0.2527138E-006  0.9118800E+02  0.7816164E-02  0.1184000E+00
        -11   -1    0    0    0    0  0.00000000000E+00  0.00000000000E+00  0.45593999997E+02  0.45594000000E+02  0.51100000000E-03 0.  1.
         11   -1    0    0    0    0 -0.00000000000E+00 -0.00000000000E+00 -0.45593999997E+02  0.45594000000E+02  0.51100000000E-03 0. -1.
         23    2    1    2    0    0  0.00000000000E+00  0.00000000000E+00  0.00000000000E+00  0.91188000000E+02  0.91188000000E+02 0.  0.
    9900012    2    3    3    0    0  0.32775847730E+02  0.24025428464E+01 -0.16605763404E+02  0.54367084955E+02  0.40000001772E+02 0.  0.
        -12    1    3    3    0    0 -0.32775847730E+02 -0.24025428464E+01  0.16605763404E+02  0.36820915045E+02  0.00000000000E+00 0.  1.
         11    1    4    4    0    0  0.21530988780E+02  0.16907807111E+02 -0.17382970738E+02  0.32428769497E+02  0.51100000000E-03 0. -1.
        -11    1    4    4    0    0  0.12898684672E+02 -0.81739736897E+01  0.15504266049E+01  0.15349063003E+02  0.51100000000E-03 0.  1.
         12    1    4    4    0    0 -0.16538257227E+01 -0.63312905755E+01 -0.77321927108E+00  0.65892524548E+01  0.00000000000E+00 0. -1.
</event>
<event>
 8    1  0.2527138E-006  0.9118800E+02  0.7816164E-02  0.1184000E+00
        -11   -1    0    0    0    0  0.00000000000E+00  0.00000000000E+00  0.45593999997E+02  0.45594000000E+02  0.51100000000E-03 0.  1.
         11   -1    0    0    0    0 -0.00000000000E+00 -0.00000000000E+00 -0.45593999997E+02  0.45594000000E+02  0.51100000000E-03 0. -1.
         23    2    1    2    0    0  0.00000000000E+00  0.35527136788E-14  0.17763568394E-14  0.91188000000E+02  0.91188000000E+02 0.  0.
    9900012    2    3    3    0    0 -0.14777383289E+02 -0.30946688540E+02 -0.13405644694E+02  0.54367083415E+02  0.39999998262E+02 0.  0.
        -12    1    3    3    0    0  0.14777383289E+02  0.30946688540E+02  0.13405644694E+02  0.36820916585E+02  0.00000000000E+00 0.  1.
         11    1    4    4    0    0 -0.23311044958E+01 -0.11206710558E+02  0.35748354615E+01  0.11991824654E+02  0.51100000000E-03 0. -1.
        -11    1    4    4    0    0 -0.46590806234E+01 -0.26408549292E+02 -0.17645918978E+02  0.32101354564E+02  0.51100000000E-03 0.  1.
        -12    1    4    4    0    0 -0.77871981696E+01  0.66685713093E+01  0.66543882318E+00  0.10273904198E+02  0.00000000000E+00 0.  1.
</event>
<event>
 8    1  0.2527138E-006  0.9118800E+02  0.7816164E-02  0.1184000E+00
        -11   -1    0    0    0    0  0.00000000000E+00  0.00000000000E+00  0.45593999997E+02  0.45594000000E+02  0.51100000000E-03 0.  1.
         11   -1    0    0    0    0 -0.00000000000E+00 -0.00000000000E+00 -0.45593999997E+02  0.45594000000E+02  0.51100000000E-03 0. -1.
         23    2    1    2    0    0  0.00000000000E+00  0.00000000000E+00  0.22204460493E-15  0.91188000000E+02  0.91188000000E+02 0.  0.
    9900012    2    3    3    0    0 -0.14589141059E+02 -0.33774500944E+02 -0.14901144796E+01  0.54367076709E+02  0.39999982973E+02 0.  0.
         12    1    3    3    0    0  0.14589141059E+02  0.33774500944E+02  0.14901144796E+01  0.36820923291E+02  0.00000000000E+00 0. -1.
         11    1    4    4    0    0 -0.11049609866E+02  0.41392820696E+01  0.40354205625E+00  0.11806370344E+02  0.51100000000E-03 0. -1.
        -11    1    4    4    0    0 -0.32577488359E+01 -0.36868821338E+02  0.33899540478E+01  0.37167387628E+02  0.51100000000E-03 0.  1.
        -12    1    4    4    0    0 -0.28178235670E+00 -0.10449616753E+01 -0.52836105836E+01  0.53933187369E+01  0.00000000000E+00 0.  1.
</event>
<event>
 8    1  0.2527138E-006  0.9118800E+02  0.7816164E-02  0.1184000E+00
        -11   -1    0    0    0    0  0.00000000000E+00  0.00000000000E+00  0.45593999997E+02  0.45594000000E+02  0.51100000000E-03 0. -1.
         11   -1    0    0    0    0 -0.00000000000E+00 -0.00000000000E+00 -0.45593999997E+02  0.45594000000E+02  0.51100000000E-03 0.  1.
         23    2    1    2    0    0  0.17763568394E-14  0.00000000000E+00  0.00000000000E+00  0.91188000000E+02  0.91188000000E+02 0.  0.
    9900012    2    3    3    0    0  0.51137807363E+01 -0.18031502939E+02 -0.31693738471E+02  0.54367096835E+02  0.40000028854E+02 0.  0.
         12    1    3    3    0    0 -0.51137807363E+01  0.18031502939E+02  0.31693738471E+02  0.36820903165E+02  0.00000000000E+00 0. -1.
         11    1    4    4    0    0  0.16159688532E+02 -0.36410462627E+01 -0.17908271320E+02  0.24394649686E+02  0.51100000000E-03 0.  1.
        -11    1    4    4    0    0 -0.93934068370E+01  0.96522809758E+00 -0.26576720530E+00  0.94466073145E+01  0.51100000000E-03 0. -1.
        -12    1    4    4    0    0 -0.16525009589E+01 -0.15355684774E+02 -0.13519699945E+02  0.20525839835E+02  0.00000000000E+00 0.  1.
</event>
<event>
 8    1  0.2527138E-006  0.9118800E+02  0.7816164E-02  0.1184000E+00
        -11   -1    0    0    0    0  0.00000000000E+00  0.00000000000E+00  0.45593999997E+02  0.45594000000E+02  0.51100000000E-03 0.  1.
         11   -1    0    0    0    0 -0.00000000000E+00 -0.00000000000E+00 -0.45593999997E+02  0.45594000000E+02  0.51100000000E-03 0. -1.
         23    2    1    2    0    0  0.00000000000E+00  0.00000000000E+00  0.17763568394E-14  0.91188000000E+02  0.91188000000E+02 0.  0.
    9900012    2    3    3    0    0 -0.35074481232E+02 -0.61135050084E+01  0.93906731046E+01  0.54367096717E+02  0.40000028586E+02 0.  0.
         12    1    3    3    0    0  0.35074481232E+02  0.61135050084E+01 -0.93906731046E+01  0.36820903283E+02  0.00000000000E+00 0. -1.
         11    1    4    4    0    0 -0.11301815232E+01  0.62869289050E+01  0.60447982921E+01  0.87944512043E+01  0.51100000000E-03 0. -1.
        -11    1    4    4    0    0 -0.10331725953E+02  0.55133110139E+01 -0.76185793259E+01  0.13970823552E+02  0.51100000000E-03 0.  1.
        -12    1    4    4    0    0 -0.23612573756E+02 -0.17913744927E+02  0.10964454138E+02  0.31601821961E+02  0.00000000000E+00 0.  1.
</event>
<event>
 8    1  0.2527138E-006  0.9118800E+02  0.7816164E-02  0.1184000E+00
        -11   -1    0    0    0    0  0.00000000000E+00  0.00000000000E+00  0.45593999997E+02  0.45594000000E+02  0.51100000000E-03 0.  1.
         11   -1    0    0    0    0 -0.00000000000E+00 -0.00000000000E+00 -0.45593999997E+02  0.45594000000E+02  0.51100000000E-03 0. -1.
         23    2    1    2    0    0  0.35527136788E-14  0.00000000000E+00  0.00000000000E+00  0.91188000000E+02  0.91188000000E+02 0.  0.
    9900012    2    3    3    0    0  0.31318461952E+02 -0.15156776815E+01  0.19303790053E+02  0.54367086808E+02  0.40000005997E+02 0.  0.
        -12    1    3    3    0    0 -0.31318461952E+02  0.15156776815E+01 -0.19303790053E+02  0.36820913192E+02  0.00000000000E+00 0.  1.
         11    1    4    4    0    0 -0.22323039825E+01 -0.37852720835E+01 -0.21072539415E+01  0.48736008507E+01  0.51100000000E-03 0. -1.
        -11    1    4    4    0    0  0.10972847258E+02  0.13370820586E+02  0.14132071326E+01  0.17354520297E+02  0.51100000000E-03 0.  1.
         12    1    4    4    0    0  0.22577918677E+02 -0.11101226184E+02  0.19997836862E+02  0.32138965660E+02  0.00000000000E+00 0. -1.
</event>
<event>
 8    1  0.2527138E-006  0.9118800E+02  0.7816164E-02  0.1184000E+00
        -11   -1    0    0    0    0  0.00000000000E+00  0.00000000000E+00  0.45593999997E+02  0.45594000000E+02  0.51100000000E-03 0.  1.
         11   -1    0    0    0    0 -0.00000000000E+00 -0.00000000000E+00 -0.45593999997E+02  0.45594000000E+02  0.51100000000E-03 0. -1.
         23    2    1    2    0    0 -0.17763568394E-14 -0.17763568394E-14  0.00000000000E+00  0.91188000000E+02  0.91188000000E+02 0.  0.
    9900012    2    3    3    0    0  0.11958187610E+02 -0.11251286301E+02  0.32957391545E+02  0.54367090834E+02  0.40000015175E+02 0.  0.
         12    1    3    3    0    0 -0.11958187610E+02  0.11251286301E+02 -0.32957391545E+02  0.36820909166E+02  0.00000000000E+00 0. -1.
         11    1    4    4    0    0  0.13444843549E+02 -0.81464454852E+00  0.17096670404E+01  0.13577570676E+02  0.51100000000E-03 0. -1.
        -11    1    4    4    0    0  0.28533273432E+01 -0.17521778508E+02  0.19143464954E+02  0.26107976745E+02  0.51100000000E-03 0.  1.
         12    1    4    4    0    0 -0.43399832828E+01  0.70851367552E+01  0.12104259551E+02  0.14681543414E+02  0.00000000000E+00 0. -1.
</event>
<event>
 8    1  0.2527138E-006  0.9118800E+02  0.7816164E-02  0.1184000E+00
        -11   -1    0    0    0    0  0.00000000000E+00  0.00000000000E+00  0.45593999997E+02  0.45594000000E+02  0.51100000000E-03 0. -1.
         11   -1    0    0    0    0 -0.00000000000E+00 -0.00000000000E+00 -0.45593999997E+02  0.45594000000E+02  0.51100000000E-03 0.  1.
         23    2    1    2    0    0  0.00000000000E+00  0.17763568394E-14  0.00000000000E+00  0.91188000000E+02  0.91188000000E+02 0.  0.
    9900012    2    3    3    0    0 -0.84041210726E+01 -0.99180208445E+01  0.34449785319E+02  0.54367026398E+02  0.39999868279E+02 0.  0.
        -12    1    3    3    0    0  0.84041210726E+01  0.99180208445E+01 -0.34449785319E+02  0.36820973602E+02  0.00000000000E+00 0.  1.
         11    1    4    4    0    0  0.71155461970E+01 -0.67623280290E+01  0.37569523746E+00  0.98235037143E+01  0.51100000000E-03 0. -1.
        -11    1    4    4    0    0 -0.46579734889E+01 -0.13123237366E+02  0.15681402273E+02  0.20971944438E+02  0.51100000000E-03 0.  1.
         12    1    4    4    0    0 -0.10861693781E+02  0.99675445508E+01  0.18392687809E+02  0.23571578245E+02  0.00000000000E+00 0. -1.
</event>
<event>
 8    1  0.2527138E-006  0.9118800E+02  0.7816164E-02  0.1184000E+00
        -11   -1    0    0    0    0  0.00000000000E+00  0.00000000000E+00  0.45593999997E+02  0.45594000000E+02  0.51100000000E-03 0.  1.
         11   -1    0    0    0    0 -0.00000000000E+00 -0.00000000000E+00 -0.45593999997E+02  0.45594000000E+02  0.51100000000E-03 0. -1.
         23    2    1    2    0    0 -0.66613381478E-15  0.00000000000E+00  0.00000000000E+00  0.91188000000E+02  0.91188000000E+02 0.  0.
    9900012    2    3    3    0    0 -0.14441747572E+01 -0.34062421050E+02 -0.13908840976E+02  0.54366945889E+02  0.39999684743E+02 0.  0.
        -12    1    3    3    0    0  0.14441747572E+01  0.34062421050E+02  0.13908840976E+02  0.36821054111E+02  0.00000000000E+00 0.  1.
         11    1    4    4    0    0 -0.12616353277E+02 -0.25772972949E+02 -0.67750590620E+01  0.29484231891E+02  0.51100000000E-03 0. -1.
        -11    1    4    4    0    0  0.81542464432E+01 -0.17009678893E-01 -0.12237090303E+02  0.14705046880E+02  0.51100000000E-03 0.  1.
        -12    1    4    4    0    0  0.30179320765E+01 -0.82724384222E+01  0.51033083890E+01  0.10177667119E+02  0.00000000000E+00 0.  1.
</event>
<event>
 8    1  0.2527138E-006  0.9118800E+02  0.7816164E-02  0.1184000E+00
        -11   -1    0    0    0    0  0.00000000000E+00  0.00000000000E+00  0.45593999997E+02  0.45594000000E+02  0.51100000000E-03 0.  1.
         11   -1    0    0    0    0 -0.00000000000E+00 -0.00000000000E+00 -0.45593999997E+02  0.45594000000E+02  0.51100000000E-03 0. -1.
         23    2    1    2    0    0  0.35527136788E-14 -0.17763568394E-14  0.00000000000E+00  0.91188000000E+02  0.91188000000E+02 0.  0.
    9900012    2    3    3    0    0 -0.23847901633E+02 -0.15120752693E+02  0.23630860919E+02  0.54367120569E+02  0.40000082961E+02 0.  0.
         12    1    3    3    0    0  0.23847901633E+02  0.15120752693E+02 -0.23630860919E+02  0.36820879431E+02  0.00000000000E+00 0. -1.
         11    1    4    4    0    0  0.14892973555E+01  0.25838978276E+01  0.32057711803E+01  0.43785275742E+01  0.51100000000E-03 0. -1.
        -11    1    4    4    0    0 -0.11823945144E+02  0.94904882009E+01  0.83461794824E+01  0.17307043574E+02  0.51100000000E-03 0.  1.
        -12    1    4    4    0    0 -0.13513253844E+02 -0.27195138722E+02  0.12078910256E+02  0.32681549421E+02  0.00000000000E+00 0.  1.
</event>
<event>
 8    1  0.2527138E-006  0.9118800E+02  0.7816164E-02  0.1184000E+00
        -11   -1    0    0    0    0  0.00000000000E+00  0.00000000000E+00  0.45593999997E+02  0.45594000000E+02  0.51100000000E-03 0. -1.
         11   -1    0    0    0    0 -0.00000000000E+00 -0.00000000000E+00 -0.45593999997E+02  0.45594000000E+02  0.51100000000E-03 0.  1.
         23    2    1    2    0    0 -0.71054273576E-14 -0.17763568394E-14  0.88817841970E-15  0.91188000000E+02  0.91188000000E+02 0.  0.
    9900012    2    3    3    0    0  0.36571632941E+02  0.14893424425E+01 -0.40096778384E+01  0.54367082124E+02  0.39999995318E+02 0.  0.
        -12    1    3    3    0    0 -0.36571632941E+02 -0.14893424425E+01  0.40096778384E+01  0.36820917876E+02  0.00000000000E+00 0.  1.
         11    1    4    4    0    0 -0.82935558952E+00  0.26914535918E+01  0.31812750559E+01  0.42487956379E+01  0.51100000000E-03 0. -1.
        -11    1    4    4    0    0  0.70168551604E+01 -0.97349358044E+01  0.86629771956E+01  0.14800419103E+02  0.51100000000E-03 0.  1.
        -12    1    4    4    0    0  0.30384133370E+02  0.85328246551E+01 -0.15853930090E+02  0.35317867384E+02  0.00000000000E+00 0.  1.
</event>
<event>
 8    1  0.2527138E-006  0.9118800E+02  0.7816164E-02  0.1184000E+00
        -11   -1    0    0    0    0  0.00000000000E+00  0.00000000000E+00  0.45593999997E+02  0.45594000000E+02  0.51100000000E-03 0. -1.
         11   -1    0    0    0    0 -0.00000000000E+00 -0.00000000000E+00 -0.45593999997E+02  0.45594000000E+02  0.51100000000E-03 0.  1.
         23    2    1    2    0    0  0.00000000000E+00  0.00000000000E+00  0.00000000000E+00  0.91188000000E+02  0.91188000000E+02 0.  0.
    9900012    2    3    3    0    0  0.13701765805E+02  0.33657017654E+01  0.34010463323E+02  0.54367109870E+02  0.40000058570E+02 0.  0.
        -12    1    3    3    0    0 -0.13701765805E+02 -0.33657017654E+01 -0.34010463323E+02  0.36820890130E+02  0.00000000000E+00 0.  1.
         11    1    4    4    0    0 -0.16346714867E+00  0.60524367441E+01  0.37292293433E+02  0.37780601660E+02  0.51100000000E-03 0. -1.
        -11    1    4    4    0    0  0.58417856708E+00 -0.20903775764E+00 -0.30103087413E+01  0.30735842857E+01  0.51100000000E-03 0.  1.
         12    1    4    4    0    0  0.13281054386E+02 -0.24776972211E+01 -0.27152136849E+00  0.13512923924E+02  0.00000000000E+00 0. -1.
</event>
<event>
 8    1  0.2527138E-006  0.9118800E+02  0.7816164E-02  0.1184000E+00
        -11   -1    0    0    0    0  0.00000000000E+00  0.00000000000E+00  0.45593999997E+02  0.45594000000E+02  0.51100000000E-03 0.  1.
         11   -1    0    0    0    0 -0.00000000000E+00 -0.00000000000E+00 -0.45593999997E+02  0.45594000000E+02  0.51100000000E-03 0. -1.
         23    2    1    2    0    0  0.88817841970E-15  0.00000000000E+00 -0.35527136788E-14  0.91188000000E+02  0.91188000000E+02 0.  0.
    9900012    2    3    3    0    0 -0.26961193710E+01 -0.29715365643E+02  0.21575631591E+02  0.54367083478E+02  0.39999998405E+02 0.  0.
         12    1    3    3    0    0  0.26961193710E+01  0.29715365643E+02 -0.21575631591E+02  0.36820916522E+02  0.00000000000E+00 0. -1.
         11    1    4    4    0    0  0.33628550663E+00 -0.22418161048E+02 -0.61813911478E+01  0.23257184471E+02  0.51100000000E-03 0. -1.
        -11    1    4    4    0    0  0.25742796384E+01  0.55768213824E+00  0.12792123814E+01  0.29281922071E+01  0.51100000000E-03 0.  1.
        -12    1    4    4    0    0 -0.56066845161E+01 -0.78548867332E+01  0.26477810357E+02  0.28181706800E+02  0.00000000000E+00 0.  1.
</event>
<event>
 8    1  0.2527138E-006  0.9118800E+02  0.7816164E-02  0.1184000E+00
        -11   -1    0    0    0    0  0.00000000000E+00  0.00000000000E+00  0.45593999997E+02  0.45594000000E+02  0.51100000000E-03 0. -1.
         11   -1    0    0    0    0 -0.00000000000E+00 -0.00000000000E+00 -0.45593999997E+02  0.45594000000E+02  0.51100000000E-03 0.  1.
         23    2    1    2    0    0  0.00000000000E+00 -0.88817841970E-15  0.00000000000E+00  0.91188000000E+02  0.91188000000E+02 0.  0.
    9900012    2    3    3    0    0 -0.72682276659E+01 -0.59581237235E+01 -0.35601311138E+02  0.54367085746E+02  0.40000003576E+02 0.  0.
         12    1    3    3    0    0  0.72682276659E+01  0.59581237235E+01  0.35601311138E+02  0.36820914254E+02  0.00000000000E+00 0. -1.
         11    1    4    4    0    0  0.22262534513E+01  0.13393702192E+02 -0.25775137316E+02  0.29132544804E+02  0.51100000000E-03 0. -1.
        -11    1    4    4    0    0 -0.66202532217E+01 -0.52356872954E+01 -0.59168854378E+01  0.10307749886E+02  0.51100000000E-03 0.  1.
         12    1    4    4    0    0 -0.28742278955E+01 -0.14116138620E+02 -0.39092883845E+01  0.14926791056E+02  0.00000000000E+00 0. -1.
</event>
<event>
 8    1  0.2527138E-006  0.9118800E+02  0.7816164E-02  0.1184000E+00
        -11   -1    0    0    0    0  0.00000000000E+00  0.00000000000E+00  0.45593999997E+02  0.45594000000E+02  0.51100000000E-03 0. -1.
         11   -1    0    0    0    0 -0.00000000000E+00 -0.00000000000E+00 -0.45593999997E+02  0.45594000000E+02  0.51100000000E-03 0.  1.
         23    2    1    2    0    0  0.00000000000E+00  0.71054273576E-14 -0.35527136788E-14  0.91188000000E+02  0.91188000000E+02 0.  0.
    9900012    2    3    3    0    0 -0.86997105219E+01 -0.26311064818E+02  0.24245053311E+02  0.54367086037E+02  0.40000004239E+02 0.  0.
        -12    1    3    3    0    0  0.86997105219E+01  0.26311064818E+02 -0.24245053311E+02  0.36820913963E+02  0.00000000000E+00 0.  1.
         11    1    4    4    0    0 -0.40266082075E+01  0.51542448559E+01  0.11462161410E+01  0.66403031101E+01  0.51100000000E-03 0. -1.
        -11    1    4    4    0    0  0.46965862458E+01  0.14741617540E+01 -0.19529463463E+01  0.52957600903E+01  0.51100000000E-03 0.  1.
         12    1    4    4    0    0 -0.93696885603E+01 -0.32939471428E+02  0.25051783516E+02  0.42431022837E+02  0.00000000000E+00 0. -1.
</event>
<event>
 8    1  0.2527138E-006  0.9118800E+02  0.7816164E-02  0.1184000E+00
        -11   -1    0    0    0    0  0.00000000000E+00  0.00000000000E+00  0.45593999997E+02  0.45594000000E+02  0.51100000000E-03 0.  1.
         11   -1    0    0    0    0 -0.00000000000E+00 -0.00000000000E+00 -0.45593999997E+02  0.45594000000E+02  0.51100000000E-03 0. -1.
         23    2    1    2    0    0  0.17763568394E-14  0.00000000000E+00 -0.13322676296E-14  0.91188000000E+02  0.91188000000E+02 0.  0.
    9900012    2    3    3    0    0  0.12018581269E+02  0.34745655973E+02  0.20178556459E+01  0.54367100417E+02  0.40000037021E+02 0.  0.
         12    1    3    3    0    0 -0.12018581269E+02 -0.34745655973E+02 -0.20178556459E+01  0.36820899583E+02  0.00000000000E+00 0. -1.
         11    1    4    4    0    0  0.94937662198E+01  0.24770193188E+02  0.15958954490E+02  0.30957750181E+02  0.51100000000E-03 0. -1.
        -11    1    4    4    0    0 -0.58089791023E+01  0.78435546053E+01 -0.99101064307E+01  0.13909557749E+02  0.51100000000E-03 0.  1.
         12    1    4    4    0    0  0.83337941511E+01  0.21319081795E+01 -0.40309924137E+01  0.94997924860E+01  0.00000000000E+00 0. -1.
</event>
<event>
 8    1  0.2527138E-006  0.9118800E+02  0.7816164E-02  0.1184000E+00
        -11   -1    0    0    0    0  0.00000000000E+00  0.00000000000E+00  0.45593999997E+02  0.45594000000E+02  0.51100000000E-03 0. -1.
         11   -1    0    0    0    0 -0.00000000000E+00 -0.00000000000E+00 -0.45593999997E+02  0.45594000000E+02  0.51100000000E-03 0.  1.
         23    2    1    2    0    0 -0.88817841970E-15  0.00000000000E+00  0.17763568394E-14  0.91188000000E+02  0.91188000000E+02 0.  0.
    9900012    2    3    3    0    0  0.37100850800E+00 -0.36779321397E+02  0.17099718005E+01  0.54367080222E+02  0.39999990983E+02 0.  0.
         12    1    3    3    0    0 -0.37100850800E+00  0.36779321397E+02 -0.17099718005E+01  0.36820919778E+02  0.00000000000E+00 0. -1.
         11    1    4    4    0    0 -0.15924644663E+01 -0.14140999762E+02  0.10200564528E+02  0.17508721664E+02  0.51100000000E-03 0. -1.
        -11    1    4    4    0    0 -0.46069104784E+01  0.10426291315E+01 -0.11179268767E+02  0.12136175266E+02  0.51100000000E-03 0.  1.
        -12    1    4    4    0    0  0.65703834527E+01 -0.23680950766E+02  0.26886760398E+01  0.24722183292E+02  0.00000000000E+00 0.  1.
</event>
<event>
 8    1  0.2527138E-006  0.9118800E+02  0.7816164E-02  0.1184000E+00
        -11   -1    0    0    0    0  0.00000000000E+00  0.00000000000E+00  0.45593999997E+02  0.45594000000E+02  0.51100000000E-03 0.  1.
         11   -1    0    0    0    0 -0.00000000000E+00 -0.00000000000E+00 -0.45593999997E+02  0.45594000000E+02  0.51100000000E-03 0. -1.
         23    2    1    2    0    0  0.35527136788E-14  0.00000000000E+00  0.00000000000E+00  0.91188000000E+02  0.91188000000E+02 0.  0.
    9900012    2    3    3    0    0  0.28270727003E+02 -0.97591362147E+01  0.21478040947E+02  0.54367068618E+02  0.39999964528E+02 0.  0.
         12    1    3    3    0    0 -0.28270727003E+02  0.97591362147E+01 -0.21478040947E+02  0.36820931382E+02  0.00000000000E+00 0. -1.
         11    1    4    4    0    0  0.16115790295E+02 -0.64337033999E+01  0.70799312704E+01  0.18741309008E+02  0.51100000000E-03 0. -1.
        -11    1    4    4    0    0  0.95558380720E+01  0.82861847089E+01  0.19036036525E+02  0.22854880992E+02  0.51100000000E-03 0.  1.
         12    1    4    4    0    0  0.25990986356E+01 -0.11611617524E+02 -0.46379268488E+01  0.12770878618E+02  0.00000000000E+00 0. -1.
</event>
<event>
 8    1  0.2527138E-006  0.9118800E+02  0.7816164E-02  0.1184000E+00
        -11   -1    0    0    0    0  0.00000000000E+00  0.00000000000E+00  0.45593999997E+02  0.45594000000E+02  0.51100000000E-03 0. -1.
         11   -1    0    0    0    0 -0.00000000000E+00 -0.00000000000E+00 -0.45593999997E+02  0.45594000000E+02  0.51100000000E-03 0.  1.
         23    2    1    2    0    0 -0.53290705182E-14  0.88817841970E-15  0.71054273576E-14  0.91188000000E+02  0.91188000000E+02 0.  0.
    9900012    2    3    3    0    0  0.75075234621E+01 -0.60474455057E+01 -0.35536522180E+02  0.54367096774E+02  0.40000028716E+02 0.  0.
         12    1    3    3    0    0 -0.75075234621E+01  0.60474455057E+01  0.35536522180E+02  0.36820903226E+02  0.00000000000E+00 0. -1.
         11    1    4    4    0    0 -0.11202239206E+02 -0.32650937794E+01 -0.98733294245E+01  0.15285078829E+02  0.51100000000E-03 0. -1.
        -11    1    4    4    0    0  0.88852118364E+01 -0.12706804337E+02 -0.13879106759E+02  0.20809600442E+02  0.51100000000E-03 0.  1.
         12    1    4    4    0    0  0.98245508316E+01  0.99244526108E+01 -0.11784085996E+02  0.18272417504E+02  0.00000000000E+00 0. -1.
</event>
<event>
 8    1  0.2527138E-006  0.9118800E+02  0.7816164E-02  0.1184000E+00
        -11   -1    0    0    0    0  0.00000000000E+00  0.00000000000E+00  0.45593999997E+02  0.45594000000E+02  0.51100000000E-03 0.  1.
         11   -1    0    0    0    0 -0.00000000000E+00 -0.00000000000E+00 -0.45593999997E+02  0.45594000000E+02  0.51100000000E-03 0. -1.
         23    2    1    2    0    0  0.88817841970E-15  0.00000000000E+00 -0.17763568394E-14  0.91188000000E+02  0.91188000000E+02 0.  0.
    9900012    2    3    3    0    0 -0.71357218262E+01 -0.36025094775E+02  0.26558482623E+01  0.54367088692E+02  0.40000010291E+02 0.  0.
         12    1    3    3    0    0  0.71357218262E+01  0.36025094775E+02 -0.26558482623E+01  0.36820911308E+02  0.00000000000E+00 0. -1.
         11    1    4    4    0    0 -0.68211811213E+01 -0.30646362864E+02  0.17522108116E+02  0.35954865343E+02  0.51100000000E-03 0. -1.
        -11    1    4    4    0    0 -0.33366500767E-01 -0.60902130718E+01 -0.35082671549E+01  0.70284953777E+01  0.51100000000E-03 0.  1.
         12    1    4    4    0    0 -0.28117420414E+00  0.71148116080E+00 -0.11357992699E+02  0.11383727972E+02  0.00000000000E+00 0. -1.
</event>
<event>
 8    1  0.2527138E-006  0.9118800E+02  0.7816164E-02  0.1184000E+00
        -11   -1    0    0    0    0  0.00000000000E+00  0.00000000000E+00  0.45593999997E+02  0.45594000000E+02  0.51100000000E-03 0. -1.
         11   -1    0    0    0    0 -0.00000000000E+00 -0.00000000000E+00 -0.45593999997E+02  0.45594000000E+02  0.51100000000E-03 0.  1.
         23    2    1    2    0    0  0.35527136788E-14  0.17763568394E-14  0.00000000000E+00  0.91188000000E+02  0.91188000000E+02 0.  0.
    9900012    2    3    3    0    0  0.99427906297E+01  0.55595583203E+01 -0.35014462288E+02  0.54367077367E+02  0.39999984474E+02 0.  0.
         12    1    3    3    0    0 -0.99427906297E+01 -0.55595583203E+01  0.35014462288E+02  0.36820922633E+02  0.00000000000E+00 0. -1.
         11    1    4    4    0    0  0.57345091103E+01 -0.34870404156E+01  0.54352989944E+01  0.86363488243E+01  0.51100000000E-03 0. -1.
        -11    1    4    4    0    0 -0.15140463440E+01  0.18439701578E+01  0.14773808410E+01  0.28062816475E+01  0.51100000000E-03 0.  1.
        -12    1    4    4    0    0  0.57223278634E+01  0.72026285781E+01 -0.41927142124E+02  0.42924446895E+02  0.00000000000E+00 0.  1.
</event>
<event>
 8    1  0.2527138E-006  0.9118800E+02  0.7816164E-02  0.1184000E+00
        -11   -1    0    0    0    0  0.00000000000E+00  0.00000000000E+00  0.45593999997E+02  0.45594000000E+02  0.51100000000E-03 0. -1.
         11   -1    0    0    0    0 -0.00000000000E+00 -0.00000000000E+00 -0.45593999997E+02  0.45594000000E+02  0.51100000000E-03 0.  1.
         23    2    1    2    0    0  0.35527136788E-14  0.00000000000E+00  0.35527136788E-14  0.91188000000E+02  0.91188000000E+02 0.  0.
    9900012    2    3    3    0    0  0.17457413680E+02 -0.63747413373E+01 -0.31786505875E+02  0.54367074221E+02  0.39999977301E+02 0.  0.
         12    1    3    3    0    0 -0.17457413680E+02  0.63747413373E+01  0.31786505875E+02  0.36820925779E+02  0.00000000000E+00 0. -1.
         11    1    4    4    0    0 -0.43529324728E+00 -0.10906581862E+02 -0.32426409952E+02  0.34214252451E+02  0.51100000000E-03 0.  1.
        -11    1    4    4    0    0  0.65647090430E+01  0.52998440894E+01  0.21291881627E+01  0.87015627725E+01  0.51100000000E-03 0. -1.
        -12    1    4    4    0    0  0.11327997884E+02 -0.76800356432E+00 -0.14892840853E+01  0.11451258997E+02  0.00000000000E+00 0.  1.
</event>
<event>
 8    1  0.2527138E-006  0.9118800E+02  0.7816164E-02  0.1184000E+00
        -11   -1    0    0    0    0  0.00000000000E+00  0.00000000000E+00  0.45593999997E+02  0.45594000000E+02  0.51100000000E-03 0. -1.
         11   -1    0    0    0    0 -0.00000000000E+00 -0.00000000000E+00 -0.45593999997E+02  0.45594000000E+02  0.51100000000E-03 0.  1.
         23    2    1    2    0    0  0.35527136788E-14  0.35527136788E-14  0.66613381478E-15  0.91188000000E+02  0.91188000000E+02 0.  0.
    9900012    2    3    3    0    0  0.27165322005E+02  0.24814793726E+02  0.14320511724E+01  0.54367089122E+02  0.40000011272E+02 0.  0.
         12    1    3    3    0    0 -0.27165322005E+02 -0.24814793726E+02 -0.14320511724E+01  0.36820910878E+02  0.00000000000E+00 0. -1.
         11    1    4    4    0    0 -0.42989879864E+01  0.15010528022E+02 -0.22532207603E+00  0.15615633817E+02  0.51100000000E-03 0. -1.
        -11    1    4    4    0    0  0.15919487277E+02  0.12469793573E+02  0.80071752318E+01  0.21749498439E+02  0.51100000000E-03 0.  1.
        -12    1    4    4    0    0  0.15544822715E+02 -0.26655278689E+01 -0.63498019834E+01  0.17001956866E+02  0.00000000000E+00 0.  1.
</event>
<event>
 8    1  0.2527138E-006  0.9118800E+02  0.7816164E-02  0.1184000E+00
        -11   -1    0    0    0    0  0.00000000000E+00  0.00000000000E+00  0.45593999997E+02  0.45594000000E+02  0.51100000000E-03 0.  1.
         11   -1    0    0    0    0 -0.00000000000E+00 -0.00000000000E+00 -0.45593999997E+02  0.45594000000E+02  0.51100000000E-03 0. -1.
         23    2    1    2    0    0  0.35527136788E-14  0.13322676296E-14  0.71054273576E-14  0.91188000000E+02  0.91188000000E+02 0.  0.
    9900012    2    3    3    0    0 -0.30739943607E+02  0.33379804353E+01 -0.19992653751E+02  0.54366912966E+02  0.39999609687E+02 0.  0.
         12    1    3    3    0    0  0.30739943607E+02 -0.33379804353E+01  0.19992653751E+02  0.36821087034E+02  0.00000000000E+00 0. -1.
         11    1    4    4    0    0 -0.17530470513E+02 -0.35919284146E+01  0.75248007485E+01  0.19412418003E+02  0.51100000000E-03 0.  1.
        -11    1    4    4    0    0 -0.65278966507E+01 -0.17515820734E+01 -0.17900695659E+01  0.69918397975E+01  0.51100000000E-03 0. -1.
         12    1    4    4    0    0 -0.66815764433E+01  0.86814909233E+01 -0.25727384933E+02  0.27962655166E+02  0.00000000000E+00 0. -1.
</event>
<event>
 8    1  0.2527138E-006  0.9118800E+02  0.7816164E-02  0.1184000E+00
        -11   -1    0    0    0    0  0.00000000000E+00  0.00000000000E+00  0.45593999997E+02  0.45594000000E+02  0.51100000000E-03 0.  1.
         11   -1    0    0    0    0 -0.00000000000E+00 -0.00000000000E+00 -0.45593999997E+02  0.45594000000E+02  0.51100000000E-03 0. -1.
         23    2    1    2    0    0  0.00000000000E+00  0.00000000000E+00  0.00000000000E+00  0.91188000000E+02  0.91188000000E+02 0.  0.
    9900012    2    3    3    0    0  0.89124648922E+01 -0.21217367127E+02  0.28743145724E+02  0.54367121080E+02  0.40000084127E+02 0.  0.
         12    1    3    3    0    0 -0.89124648922E+01  0.21217367127E+02 -0.28743145724E+02  0.36820878920E+02  0.00000000000E+00 0. -1.
         11    1    4    4    0    0 -0.39165787444E+00  0.18203062390E+01  0.12086401077E+02  0.12228982049E+02  0.51100000000E-03 0. -1.
        -11    1    4    4    0    0  0.71554877912E+01 -0.27017621477E+02  0.21684988895E+02  0.35375014056E+02  0.51100000000E-03 0.  1.
         12    1    4    4    0    0  0.21486349754E+01  0.39799481103E+01 -0.50282442481E+01  0.67631249757E+01  0.00000000000E+00 0. -1.
</event>
<event>
 8    1  0.2527138E-006  0.9118800E+02  0.7816164E-02  0.1184000E+00
        -11   -1    0    0    0    0  0.00000000000E+00  0.00000000000E+00  0.45593999997E+02  0.45594000000E+02  0.51100000000E-03 0. -1.
         11   -1    0    0    0    0 -0.00000000000E+00 -0.00000000000E+00 -0.45593999997E+02  0.45594000000E+02  0.51100000000E-03 0.  1.
         23    2    1    2    0    0  0.17763568394E-14  0.88817841970E-15  0.00000000000E+00  0.91188000000E+02  0.91188000000E+02 0.  0.
    9900012    2    3    3    0    0  0.75947713335E+01 -0.32795218695E+01 -0.35879575752E+02  0.54367085136E+02  0.40000002184E+02 0.  0.
         12    1    3    3    0    0 -0.75947713335E+01  0.32795218695E+01  0.35879575752E+02  0.36820914864E+02  0.00000000000E+00 0. -1.
         11    1    4    4    0    0 -0.30596234098E+01  0.16818417021E+01 -0.55909954686E+00  0.35358845407E+01  0.51100000000E-03 0. -1.
        -11    1    4    4    0    0  0.28689229551E+01  0.14810663539E+02 -0.17441577959E+02  0.23060683324E+02  0.51100000000E-03 0.  1.
         12    1    4    4    0    0  0.77854717882E+01 -0.19772027111E+02 -0.17878898246E+02  0.27770517271E+02  0.00000000000E+00 0. -1.
</event>
<event>
 8    1  0.2527138E-006  0.9118800E+02  0.7816164E-02  0.1184000E+00
        -11   -1    0    0    0    0  0.00000000000E+00  0.00000000000E+00  0.45593999997E+02  0.45594000000E+02  0.51100000000E-03 0.  1.
         11   -1    0    0    0    0 -0.00000000000E+00 -0.00000000000E+00 -0.45593999997E+02  0.45594000000E+02  0.51100000000E-03 0. -1.
         23    2    1    2    0    0  0.00000000000E+00  0.00000000000E+00  0.00000000000E+00  0.91188000000E+02  0.91188000000E+02 0.  0.
    9900012    2    3    3    0    0 -0.88243233536E+01 -0.28889865249E+02 -0.21054364937E+02  0.54367091814E+02  0.40000017409E+02 0.  0.
        -12    1    3    3    0    0  0.88243233536E+01  0.28889865249E+02  0.21054364937E+02  0.36820908186E+02  0.00000000000E+00 0.  1.
         11    1    4    4    0    0  0.47126179492E+00 -0.23656199182E+02 -0.18432378031E+02  0.29993172683E+02  0.51100000000E-03 0. -1.
        -11    1    4    4    0    0  0.12926661000E+01  0.72626027247E+01 -0.30671706749E+01  0.79889874322E+01  0.51100000000E-03 0.  1.
        -12    1    4    4    0    0 -0.10588251248E+02 -0.12496268791E+02  0.44518376916E+00  0.16384931699E+02  0.00000000000E+00 0.  1.
</event>
<event>
 8    1  0.2527138E-006  0.9118800E+02  0.7816164E-02  0.1184000E+00
        -11   -1    0    0    0    0  0.00000000000E+00  0.00000000000E+00  0.45593999997E+02  0.45594000000E+02  0.51100000000E-03 0.  1.
         11   -1    0    0    0    0 -0.00000000000E+00 -0.00000000000E+00 -0.45593999997E+02  0.45594000000E+02  0.51100000000E-03 0. -1.
         23    2    1    2    0    0  0.00000000000E+00  0.35527136788E-14  0.00000000000E+00  0.91188000000E+02  0.91188000000E+02 0.  0.
    9900012    2    3    3    0    0  0.21402422193E+02  0.18600365907E+02 -0.23489235222E+02  0.54367062221E+02  0.39999949945E+02 0.  0.
        -12    1    3    3    0    0 -0.21402422193E+02 -0.18600365907E+02  0.23489235222E+02  0.36820937779E+02  0.00000000000E+00 0.  1.
         11    1    4    4    0    0  0.14054958953E+02  0.12941588077E+02 -0.53788356727E+01  0.19848386498E+02  0.51100000000E-03 0. -1.
        -11    1    4    4    0    0  0.31981561065E+01  0.14583434355E+02 -0.12325140536E+01  0.14980782730E+02  0.51100000000E-03 0.  1.
         12    1    4    4    0    0  0.41493071336E+01 -0.89246565246E+01 -0.16877885496E+02  0.19537892993E+02  0.00000000000E+00 0. -1.
</event>
<event>
 8    1  0.2527138E-006  0.9118800E+02  0.7816164E-02  0.1184000E+00
        -11   -1    0    0    0    0  0.00000000000E+00  0.00000000000E+00  0.45593999997E+02  0.45594000000E+02  0.51100000000E-03 0.  1.
         11   -1    0    0    0    0 -0.00000000000E+00 -0.00000000000E+00 -0.45593999997E+02  0.45594000000E+02  0.51100000000E-03 0. -1.
         23    2    1    2    0    0  0.00000000000E+00  0.00000000000E+00  0.00000000000E+00  0.91188000000E+02  0.91188000000E+02 0.  0.
    9900012    2    3    3    0    0 -0.17678825281E+01 -0.69826415939E+01 -0.36109513075E+02  0.54367087100E+02  0.40000006661E+02 0.  0.
        -12    1    3    3    0    0  0.17678825281E+01  0.69826415939E+01  0.36109513075E+02  0.36820912900E+02  0.00000000000E+00 0.  1.
         11    1    4    4    0    0  0.17581201831E+01 -0.47294478369E+01 -0.10035181347E+02  0.11232253930E+02  0.51100000000E-03 0. -1.
        -11    1    4    4    0    0 -0.11476819291E+01  0.29801360261E+01 -0.33551638463E+02  0.33703276226E+02  0.51100000000E-03 0.  1.
         12    1    4    4    0    0 -0.23783207821E+01 -0.52333297832E+01  0.74773067352E+01  0.94315569432E+01  0.00000000000E+00 0. -1.
</event>
<event>
 8    1  0.2527138E-006  0.9118800E+02  0.7816164E-02  0.1184000E+00
        -11   -1    0    0    0    0  0.00000000000E+00  0.00000000000E+00  0.45593999997E+02  0.45594000000E+02  0.51100000000E-03 0. -1.
         11   -1    0    0    0    0 -0.00000000000E+00 -0.00000000000E+00 -0.45593999997E+02  0.45594000000E+02  0.51100000000E-03 0.  1.
         23    2    1    2    0    0  0.00000000000E+00 -0.17763568394E-14  0.35527136788E-14  0.91188000000E+02  0.91188000000E+02 0.  0.
    9900012    2    3    3    0    0 -0.24099769461E+02 -0.13980612042E+02  0.24073279743E+02  0.54367092912E+02  0.40000019913E+02 0.  0.
        -12    1    3    3    0    0  0.24099769461E+02  0.13980612042E+02 -0.24073279743E+02  0.36820907088E+02  0.00000000000E+00 0.  1.
         11    1    4    4    0    0 -0.10448174090E+02  0.16584229793E+01  0.97592723591E+01  0.14392988078E+02  0.51100000000E-03 0. -1.
        -11    1    4    4    0    0 -0.21886803719E+02 -0.52203116533E+01  0.33420322006E+01  0.22747593505E+02  0.51100000000E-03 0.  1.
         12    1    4    4    0    0  0.82352083472E+01 -0.10418723368E+02  0.10971975184E+02  0.17226511329E+02  0.00000000000E+00 0. -1.
</event>
<event>
 8    1  0.2527138E-006  0.9118800E+02  0.7816164E-02  0.1184000E+00
        -11   -1    0    0    0    0  0.00000000000E+00  0.00000000000E+00  0.45593999997E+02  0.45594000000E+02  0.51100000000E-03 0.  1.
         11   -1    0    0    0    0 -0.00000000000E+00 -0.00000000000E+00 -0.45593999997E+02  0.45594000000E+02  0.51100000000E-03 0. -1.
         23    2    1    2    0    0  0.00000000000E+00  0.00000000000E+00  0.00000000000E+00  0.91188000000E+02  0.91188000000E+02 0.  0.
    9900012    2    3    3    0    0  0.23616517677E+01  0.32605951157E+02  0.16942677950E+02  0.54367084937E+02  0.40000001731E+02 0.  0.
         12    1    3    3    0    0 -0.23616517677E+01 -0.32605951157E+02 -0.16942677950E+02  0.36820915063E+02  0.00000000000E+00 0. -1.
         11    1    4    4    0    0  0.24264941519E+01 -0.18847965344E+01 -0.51929839767E+01  0.60338557067E+01  0.51100000000E-03 0. -1.
        -11    1    4    4    0    0 -0.53877676269E-01 -0.56319236227E+00  0.11763312651E+02  0.11776910173E+02  0.51100000000E-03 0.  1.
         12    1    4    4    0    0 -0.10964707934E-01  0.35053940054E+02  0.10372349276E+02  0.36556319058E+02  0.00000000000E+00 0. -1.
</event>
<event>
 8    1  0.2527138E-006  0.9118800E+02  0.7816164E-02  0.1184000E+00
        -11   -1    0    0    0    0  0.00000000000E+00  0.00000000000E+00  0.45593999997E+02  0.45594000000E+02  0.51100000000E-03 0. -1.
         11   -1    0    0    0    0 -0.00000000000E+00 -0.00000000000E+00 -0.45593999997E+02  0.45594000000E+02  0.51100000000E-03 0.  1.
         23    2    1    2    0    0 -0.38857805862E-15  0.00000000000E+00  0.00000000000E+00  0.91188000000E+02  0.91188000000E+02 0.  0.
    9900012    2    3    3    0    0  0.33572739617E+00  0.15930637630E+02  0.33194606506E+02  0.54367084351E+02  0.40000000394E+02 0.  0.
        -12    1    3    3    0    0 -0.33572739617E+00 -0.15930637630E+02 -0.33194606506E+02  0.36820915649E+02  0.00000000000E+00 0.  1.
         11    1    4    4    0    0 -0.84006733857E+01  0.14225294839E+02  0.39401401093E+02  0.42724708717E+02  0.51100000000E-03 0. -1.
        -11    1    4    4    0    0  0.34851546098E+01 -0.13426017955E+01 -0.18401969919E+01  0.41635570689E+01  0.51100000000E-03 0.  1.
         12    1    4    4    0    0  0.52512461720E+01  0.30479445868E+01 -0.43665975955E+01  0.74788185648E+01  0.00000000000E+00 0. -1.
</event>
<event>
 8    1  0.2527138E-006  0.9118800E+02  0.7816164E-02  0.1184000E+00
        -11   -1    0    0    0    0  0.00000000000E+00  0.00000000000E+00  0.45593999997E+02  0.45594000000E+02  0.51100000000E-03 0.  1.
         11   -1    0    0    0    0 -0.00000000000E+00 -0.00000000000E+00 -0.45593999997E+02  0.45594000000E+02  0.51100000000E-03 0. -1.
         23    2    1    2    0    0 -0.44408920985E-15  0.00000000000E+00 -0.35527136788E-14  0.91188000000E+02  0.91188000000E+02 0.  0.
    9900012    2    3    3    0    0  0.32668340660E+01 -0.21816495673E+02  0.29481305760E+02  0.54367094558E+02  0.40000023664E+02 0.  0.
         12    1    3    3    0    0 -0.32668340660E+01  0.21816495673E+02 -0.29481305760E+02  0.36820905442E+02  0.00000000000E+00 0. -1.
         11    1    4    4    0    0  0.52475793908E+01 -0.37086419153E+01 -0.71817639790E+01  0.96368484698E+01  0.51100000000E-03 0. -1.
        -11    1    4    4    0    0 -0.25696213617E+01 -0.77117214092E+01  0.17732622001E+01  0.83197391863E+01  0.51100000000E-03 0.  1.
        -12    1    4    4    0    0  0.58887603690E+00 -0.10396132348E+02  0.34889807539E+02  0.36410506902E+02  0.00000000000E+00 0.  1.
</event>
<event>
 8    1  0.2527138E-006  0.9118800E+02  0.7816164E-02  0.1184000E+00
        -11   -1    0    0    0    0  0.00000000000E+00  0.00000000000E+00  0.45593999997E+02  0.45594000000E+02  0.51100000000E-03 0.  1.
         11   -1    0    0    0    0 -0.00000000000E+00 -0.00000000000E+00 -0.45593999997E+02  0.45594000000E+02  0.51100000000E-03 0. -1.
         23    2    1    2    0    0  0.00000000000E+00  0.00000000000E+00  0.00000000000E+00  0.91188000000E+02  0.91188000000E+02 0.  0.
    9900012    2    3    3    0    0 -0.20995785533E+02 -0.10598961713E+02  0.28330479448E+02  0.54367121883E+02  0.40000085957E+02 0.  0.
         12    1    3    3    0    0  0.20995785533E+02  0.10598961713E+02 -0.28330479448E+02  0.36820878117E+02  0.00000000000E+00 0. -1.
         11    1    4    4    0    0  0.19697516614E+01 -0.22225776945E+01  0.51241278804E+01  0.59225383081E+01  0.51100000000E-03 0. -1.
        -11    1    4    4    0    0 -0.75356713752E+01  0.97262419136E+01  0.21279331948E+02  0.24580400592E+02  0.51100000000E-03 0.  1.
         12    1    4    4    0    0 -0.15429865820E+02 -0.18102625932E+02  0.19270196195E+01  0.23864182983E+02  0.00000000000E+00 0. -1.
</event>
<event>
 8    1  0.2527138E-006  0.9118800E+02  0.7816164E-02  0.1184000E+00
        -11   -1    0    0    0    0  0.00000000000E+00  0.00000000000E+00  0.45593999997E+02  0.45594000000E+02  0.51100000000E-03 0.  1.
         11   -1    0    0    0    0 -0.00000000000E+00 -0.00000000000E+00 -0.45593999997E+02  0.45594000000E+02  0.51100000000E-03 0. -1.
         23    2    1    2    0    0  0.00000000000E+00  0.17763568394E-14  0.71054273576E-14  0.91188000000E+02  0.91188000000E+02 0.  0.
    9900012    2    3    3    0    0  0.39182322918E+01  0.43363579723E+01 -0.36354141941E+02  0.54367079574E+02  0.39999989506E+02 0.  0.
        -12    1    3    3    0    0 -0.39182322918E+01 -0.43363579723E+01  0.36354141941E+02  0.36820920426E+02  0.00000000000E+00 0.  1.
         11    1    4    4    0    0 -0.38453544544E+00  0.11468861051E+02 -0.23384930637E+02  0.26048754721E+02  0.51100000000E-03 0. -1.
        -11    1    4    4    0    0  0.11012891227E+02  0.17513994551E+01  0.97657839651E-01  0.11151713345E+02  0.51100000000E-03 0.  1.
         12    1    4    4    0    0 -0.67101234894E+01 -0.88839025341E+01 -0.13066869143E+02  0.17166611508E+02  0.00000000000E+00 0. -1.
</event>
<event>
 8    1  0.2527138E-006  0.9118800E+02  0.7816164E-02  0.1184000E+00
        -11   -1    0    0    0    0  0.00000000000E+00  0.00000000000E+00  0.45593999997E+02  0.45594000000E+02  0.51100000000E-03 0.  1.
         11   -1    0    0    0    0 -0.00000000000E+00 -0.00000000000E+00 -0.45593999997E+02  0.45594000000E+02  0.51100000000E-03 0. -1.
         23    2    1    2    0    0 -0.17763568394E-14  0.71054273576E-14  0.88817841970E-15  0.91188000000E+02  0.91188000000E+02 0.  0.
    9900012    2    3    3    0    0 -0.77233954006E+01  0.35672697697E+02  0.48571395101E+01  0.54367027692E+02  0.39999871228E+02 0.  0.
        -12    1    3    3    0    0  0.77233954006E+01 -0.35672697697E+02 -0.48571395101E+01  0.36820972308E+02  0.00000000000E+00 0.  1.
         11    1    4    4    0    0  0.92400361505E+01  0.23871551589E+02  0.26924576239E+01  0.25738659088E+02  0.51100000000E-03 0. -1.
        -11    1    4    4    0    0 -0.19120679624E+00  0.20802596354E+01 -0.69136094702E+01  0.72223290119E+01  0.51100000000E-03 0.  1.
        -12    1    4    4    0    0 -0.16772224755E+02  0.97208864729E+01  0.90782913564E+01  0.21406039592E+02  0.00000000000E+00 0.  1.
</event>
<event>
 8    1  0.2527138E-006  0.9118800E+02  0.7816164E-02  0.1184000E+00
        -11   -1    0    0    0    0  0.00000000000E+00  0.00000000000E+00  0.45593999997E+02  0.45594000000E+02  0.51100000000E-03 0.  1.
         11   -1    0    0    0    0 -0.00000000000E+00 -0.00000000000E+00 -0.45593999997E+02  0.45594000000E+02  0.51100000000E-03 0. -1.
         23    2    1    2    0    0 -0.35527136788E-14 -0.35527136788E-14  0.35527136788E-14  0.91188000000E+02  0.91188000000E+02 0.  0.
    9900012    2    3    3    0    0  0.26439242618E+02  0.17687706274E+02 -0.18544288989E+02  0.54367093472E+02  0.40000021187E+02 0.  0.
        -12    1    3    3    0    0 -0.26439242618E+02 -0.17687706274E+02  0.18544288989E+02  0.36820906528E+02  0.00000000000E+00 0.  1.
         11    1    4    4    0    0  0.12808967305E+02 -0.13215626095E+01 -0.19481191494E+02  0.23352365907E+02  0.51100000000E-03 0. -1.
        -11    1    4    4    0    0  0.11071341606E+02  0.10397171547E+02 -0.89713530606E+01  0.17639755019E+02  0.51100000000E-03 0.  1.
         12    1    4    4    0    0  0.25589337073E+01  0.86120973370E+01  0.99082555655E+01  0.13374972546E+02  0.00000000000E+00 0. -1.
</event>
<event>
 8    1  0.2527138E-006  0.9118800E+02  0.7816164E-02  0.1184000E+00
        -11   -1    0    0    0    0  0.00000000000E+00  0.00000000000E+00  0.45593999997E+02  0.45594000000E+02  0.51100000000E-03 0. -1.
         11   -1    0    0    0    0 -0.00000000000E+00 -0.00000000000E+00 -0.45593999997E+02  0.45594000000E+02  0.51100000000E-03 0.  1.
         23    2    1    2    0    0  0.88817841970E-15  0.35527136788E-14 -0.35527136788E-14  0.91188000000E+02  0.91188000000E+02 0.  0.
    9900012    2    3    3    0    0  0.73236835564E+01 -0.17928524632E+02  0.31316297181E+02  0.54367098253E+02  0.40000032088E+02 0.  0.
        -12    1    3    3    0    0 -0.73236835564E+01  0.17928524632E+02 -0.31316297181E+02  0.36820901747E+02  0.00000000000E+00 0.  1.
         11    1    4    4    0    0 -0.67090937543E+01  0.40183446945E+01  0.11999543556E+02  0.14322991270E+02  0.51100000000E-03 0. -1.
        -11    1    4    4    0    0  0.17456373154E+02 -0.62851568808E+01  0.13676205108E+02  0.23049224436E+02  0.51100000000E-03 0.  1.
        -12    1    4    4    0    0 -0.34235958430E+01 -0.15661712445E+02  0.56405485165E+01  0.16994882547E+02  0.00000000000E+00 0.  1.
</event>
<event>
 8    1  0.2527138E-006  0.9118800E+02  0.7816164E-02  0.1184000E+00
        -11   -1    0    0    0    0  0.00000000000E+00  0.00000000000E+00  0.45593999997E+02  0.45594000000E+02  0.51100000000E-03 0. -1.
         11   -1    0    0    0    0 -0.00000000000E+00 -0.00000000000E+00 -0.45593999997E+02  0.45594000000E+02  0.51100000000E-03 0.  1.
         23    2    1    2    0    0  0.00000000000E+00  0.00000000000E+00 -0.35527136788E-14  0.91188000000E+02  0.91188000000E+02 0.  0.
    9900012    2    3    3    0    0 -0.23707288198E+02 -0.11657467076E+02  0.25648534354E+02  0.54367090630E+02  0.40000014710E+02 0.  0.
        -12    1    3    3    0    0  0.23707288198E+02  0.11657467076E+02 -0.25648534354E+02  0.36820909370E+02  0.00000000000E+00 0.  1.
         11    1    4    4    0    0  0.16168021653E+01  0.57355420764E+01  0.65949322675E+01  0.88883982824E+01  0.51100000000E-03 0. -1.
        -11    1    4    4    0    0  0.44674014889E+01 -0.26147575209E+01  0.95982603654E+01  0.10905101341E+02  0.51100000000E-03 0.  1.
         12    1    4    4    0    0 -0.29791491852E+02 -0.14778251631E+02  0.94553417209E+01  0.34573591007E+02  0.00000000000E+00 0. -1.
</event>
<event>
 8    1  0.2527138E-006  0.9118800E+02  0.7816164E-02  0.1184000E+00
        -11   -1    0    0    0    0  0.00000000000E+00  0.00000000000E+00  0.45593999997E+02  0.45594000000E+02  0.51100000000E-03 0.  1.
         11   -1    0    0    0    0 -0.00000000000E+00 -0.00000000000E+00 -0.45593999997E+02  0.45594000000E+02  0.51100000000E-03 0. -1.
         23    2    1    2    0    0 -0.66613381478E-15  0.00000000000E+00 -0.35527136788E-14  0.91188000000E+02  0.91188000000E+02 0.  0.
    9900012    2    3    3    0    0  0.19495753515E+01 -0.29532519543E+02  0.21904551542E+02  0.54367082944E+02  0.39999997187E+02 0.  0.
         12    1    3    3    0    0 -0.19495753515E+01  0.29532519543E+02 -0.21904551542E+02  0.36820917056E+02  0.00000000000E+00 0. -1.
         11    1    4    4    0    0  0.48820074802E+01 -0.16430788625E+02 -0.26099908933E+01  0.17338306279E+02  0.51100000000E-03 0. -1.
        -11    1    4    4    0    0 -0.78405315981E+01  0.24541925171E+01  0.17381835580E+02  0.19225639262E+02  0.51100000000E-03 0.  1.
        -12    1    4    4    0    0  0.49080994694E+01 -0.15555923434E+02  0.71327068561E+01  0.17803137403E+02  0.00000000000E+00 0.  1.
</event>
<event>
 8    1  0.2527138E-006  0.9118800E+02  0.7816164E-02  0.1184000E+00
        -11   -1    0    0    0    0  0.00000000000E+00  0.00000000000E+00  0.45593999997E+02  0.45594000000E+02  0.51100000000E-03 0.  1.
         11   -1    0    0    0    0 -0.00000000000E+00 -0.00000000000E+00 -0.45593999997E+02  0.45594000000E+02  0.51100000000E-03 0. -1.
         23    2    1    2    0    0  0.00000000000E+00  0.41633363423E-15  0.35527136788E-14  0.91188000000E+02  0.91188000000E+02 0.  0.
    9900012    2    3    3    0    0  0.27950456515E+02 -0.14883196609E+00 -0.23969346112E+02  0.54367085788E+02  0.40000003672E+02 0.  0.
        -12    1    3    3    0    0 -0.27950456515E+02  0.14883196609E+00  0.23969346112E+02  0.36820914212E+02  0.00000000000E+00 0.  1.
         11    1    4    4    0    0  0.27846528736E+02  0.13009729885E+02 -0.19293233138E+02  0.36289269482E+02  0.51100000000E-03 0. -1.
        -11    1    4    4    0    0 -0.14079996729E+01  0.18678245733E+01 -0.32705511035E+00  0.23618207006E+01  0.51100000000E-03 0.  1.
         12    1    4    4    0    0  0.15119274515E+01 -0.15026386424E+02 -0.43490578637E+01  0.15715995606E+02  0.00000000000E+00 0. -1.
</event>
<event>
 8    1  0.2527138E-006  0.9118800E+02  0.7816164E-02  0.1184000E+00
        -11   -1    0    0    0    0  0.00000000000E+00  0.00000000000E+00  0.45593999997E+02  0.45594000000E+02  0.51100000000E-03 0.  1.
         11   -1    0    0    0    0 -0.00000000000E+00 -0.00000000000E+00 -0.45593999997E+02  0.45594000000E+02  0.51100000000E-03 0. -1.
         23    2    1    2    0    0 -0.17763568394E-14  0.00000000000E+00  0.35527136788E-14  0.91188000000E+02  0.91188000000E+02 0.  0.
    9900012    2    3    3    0    0  0.48316138120E+01  0.19948871073E+02  0.30569239322E+02  0.54367077391E+02  0.39999984528E+02 0.  0.
         12    1    3    3    0    0 -0.48316138120E+01 -0.19948871073E+02 -0.30569239322E+02  0.36820922609E+02  0.00000000000E+00 0. -1.
         11    1    4    4    0    0  0.24769047469E+01  0.30214878688E+01 -0.86432318394E+01  0.94852465945E+01  0.51100000000E-03 0. -1.
        -11    1    4    4    0    0  0.72190431037E+01  0.86171142398E+01  0.14412900254E+02  0.18278428137E+02  0.51100000000E-03 0.  1.
         12    1    4    4    0    0 -0.48643340386E+01  0.83102689641E+01  0.24799570907E+02  0.26603402660E+02  0.00000000000E+00 0. -1.
</event>
<event>
 8    1  0.2527138E-006  0.9118800E+02  0.7816164E-02  0.1184000E+00
        -11   -1    0    0    0    0  0.00000000000E+00  0.00000000000E+00  0.45593999997E+02  0.45594000000E+02  0.51100000000E-03 0.  1.
         11   -1    0    0    0    0 -0.00000000000E+00 -0.00000000000E+00 -0.45593999997E+02  0.45594000000E+02  0.51100000000E-03 0. -1.
         23    2    1    2    0    0  0.00000000000E+00 -0.83266726847E-16  0.00000000000E+00  0.91188000000E+02  0.91188000000E+02 0.  0.
    9900012    2    3    3    0    0  0.36617399836E+02 -0.16292989327E+00 -0.38626569436E+01  0.54367073402E+02  0.39999975433E+02 0.  0.
         12    1    3    3    0    0 -0.36617399836E+02  0.16292989327E+00  0.38626569436E+01  0.36820926598E+02  0.00000000000E+00 0. -1.
         11    1    4    4    0    0  0.11484631211E+02 -0.10068009151E+02 -0.39604806297E+01  0.15778053409E+02  0.51100000000E-03 0. -1.
        -11    1    4    4    0    0  0.27935344315E+02  0.38601103301E+01  0.69362136940E+01  0.29041263306E+02  0.51100000000E-03 0.  1.
         12    1    4    4    0    0 -0.28025756900E+01  0.60449689272E+01 -0.68383900080E+01  0.95477566857E+01  0.00000000000E+00 0. -1.
</event>
<event>
 8    1  0.2527138E-006  0.9118800E+02  0.7816164E-02  0.1184000E+00
        -11   -1    0    0    0    0  0.00000000000E+00  0.00000000000E+00  0.45593999997E+02  0.45594000000E+02  0.51100000000E-03 0.  1.
         11   -1    0    0    0    0 -0.00000000000E+00 -0.00000000000E+00 -0.45593999997E+02  0.45594000000E+02  0.51100000000E-03 0. -1.
         23    2    1    2    0    0 -0.10658141036E-13  0.00000000000E+00  0.00000000000E+00  0.91188000000E+02  0.91188000000E+02 0.  0.
    9900012    2    3    3    0    0  0.20570661391E+02  0.29856047941E+02 -0.64221088170E+01  0.54367093026E+02  0.40000020171E+02 0.  0.
         12    1    3    3    0    0 -0.20570661391E+02 -0.29856047941E+02  0.64221088170E+01  0.36820906974E+02  0.00000000000E+00 0. -1.
         11    1    4    4    0    0 -0.58270226809E+01  0.23594764732E+02  0.19395581434E+01  0.24380914711E+02  0.51100000000E-03 0. -1.
        -11    1    4    4    0    0  0.18995327698E+02  0.71371145276E+01 -0.95691751001E+01  0.22435017060E+02  0.51100000000E-03 0.  1.
         12    1    4    4    0    0  0.74023563741E+01 -0.87583131807E+00  0.12075081398E+01  0.75511612547E+01  0.00000000000E+00 0. -1.
</event>
<event>
 8    1  0.2527138E-006  0.9118800E+02  0.7816164E-02  0.1184000E+00
        -11   -1    0    0    0    0  0.00000000000E+00  0.00000000000E+00  0.45593999997E+02  0.45594000000E+02  0.51100000000E-03 0. -1.
         11   -1    0    0    0    0 -0.00000000000E+00 -0.00000000000E+00 -0.45593999997E+02  0.45594000000E+02  0.51100000000E-03 0.  1.
         23    2    1    2    0    0  0.35527136788E-14  0.00000000000E+00 -0.35527136788E-14  0.91188000000E+02  0.91188000000E+02 0.  0.
    9900012    2    3    3    0    0 -0.27656947445E+02  0.14997447909E+02  0.19129818310E+02  0.54367080208E+02  0.39999990951E+02 0.  0.
        -12    1    3    3    0    0  0.27656947445E+02 -0.14997447909E+02 -0.19129818310E+02  0.36820919792E+02  0.00000000000E+00 0.  1.
         11    1    4    4    0    0 -0.12605277282E+01 -0.19263361185E+01  0.18140852395E+02  0.18286339898E+02  0.51100000000E-03 0. -1.
        -11    1    4    4    0    0 -0.77381920449E+01  0.59552499321E+01 -0.80213108549E+01  0.12636694424E+02  0.51100000000E-03 0.  1.
        -12    1    4    4    0    0 -0.18658227672E+02  0.10968534095E+02  0.90102767694E+01  0.23444045886E+02  0.00000000000E+00 0.  1.
</event>
<event>
 8    1  0.2527138E-006  0.9118800E+02  0.7816164E-02  0.1184000E+00
        -11   -1    0    0    0    0  0.00000000000E+00  0.00000000000E+00  0.45593999997E+02  0.45594000000E+02  0.51100000000E-03 0. -1.
         11   -1    0    0    0    0 -0.00000000000E+00 -0.00000000000E+00 -0.45593999997E+02  0.45594000000E+02  0.51100000000E-03 0.  1.
         23    2    1    2    0    0  0.00000000000E+00  0.00000000000E+00  0.00000000000E+00  0.91188000000E+02  0.91188000000E+02 0.  0.
    9900012    2    3    3    0    0  0.29315877461E+02 -0.20742162441E+02  0.81315928540E+01  0.54367071490E+02  0.39999971075E+02 0.  0.
        -12    1    3    3    0    0 -0.29315877461E+02  0.20742162441E+02 -0.81315928540E+01  0.36820928510E+02  0.00000000000E+00 0.  1.
         11    1    4    4    0    0  0.18877203182E+02  0.23685998440E+01 -0.45853304157E+00  0.19030746648E+02  0.51100000000E-03 0. -1.
        -11    1    4    4    0    0  0.12432570821E+02 -0.88773829728E+01 -0.44691988010E+01  0.15916987273E+02  0.51100000000E-03 0.  1.
        -12    1    4    4    0    0 -0.19938965419E+01 -0.14233379312E+02  0.13059324697E+02  0.19419337568E+02  0.00000000000E+00 0.  1.
</event>
<event>
 8    1  0.2527138E-006  0.9118800E+02  0.7816164E-02  0.1184000E+00
        -11   -1    0    0    0    0  0.00000000000E+00  0.00000000000E+00  0.45593999997E+02  0.45594000000E+02  0.51100000000E-03 0. -1.
         11   -1    0    0    0    0 -0.00000000000E+00 -0.00000000000E+00 -0.45593999997E+02  0.45594000000E+02  0.51100000000E-03 0.  1.
         23    2    1    2    0    0  0.00000000000E+00  0.00000000000E+00  0.35527136788E-14  0.91188000000E+02  0.91188000000E+02 0.  0.
    9900012    2    3    3    0    0  0.12754682014E+02  0.13170672244E+02  0.31931665812E+02  0.54367084718E+02  0.40000001232E+02 0.  0.
        -12    1    3    3    0    0 -0.12754682014E+02 -0.13170672244E+02 -0.31931665812E+02  0.36820915282E+02  0.00000000000E+00 0.  1.
         11    1    4    4    0    0  0.13028173088E+02  0.20018381317E+01 -0.22481257985E+01  0.13371414277E+02  0.51100000000E-03 0. -1.
        -11    1    4    4    0    0  0.47725796230E+01 -0.38750731793E+01  0.14257868191E+02  0.15526767662E+02  0.51100000000E-03 0.  1.
         12    1    4    4    0    0 -0.50460706961E+01  0.15043907291E+02  0.19921923420E+02  0.25468902780E+02  0.00000000000E+00 0. -1.
</event>
<event>
 8    1  0.2527138E-006  0.9118800E+02  0.7816164E-02  0.1184000E+00
        -11   -1    0    0    0    0  0.00000000000E+00  0.00000000000E+00  0.45593999997E+02  0.45594000000E+02  0.51100000000E-03 0.  1.
         11   -1    0    0    0    0 -0.00000000000E+00 -0.00000000000E+00 -0.45593999997E+02  0.45594000000E+02  0.51100000000E-03 0. -1.
         23    2    1    2    0    0  0.00000000000E+00  0.35527136788E-14  0.00000000000E+00  0.91188000000E+02  0.91188000000E+02 0.  0.
    9900012    2    3    3    0    0  0.26243248200E+02  0.18073581887E+02 -0.18450427946E+02  0.54367072124E+02  0.39999972520E+02 0.  0.
         12    1    3    3    0    0 -0.26243248200E+02 -0.18073581887E+02  0.18450427946E+02  0.36820927876E+02  0.00000000000E+00 0. -1.
         11    1    4    4    0    0  0.27133509373E+01  0.15327298367E+02 -0.60417713161E+01  0.16697046129E+02  0.51100000000E-03 0. -1.
        -11    1    4    4    0    0  0.16913919779E+02  0.74538624260E+01  0.44025016135E+01  0.19000599150E+02  0.51100000000E-03 0.  1.
         12    1    4    4    0    0  0.66159774837E+01 -0.47075789061E+01 -0.16811158243E+02  0.18669426845E+02  0.00000000000E+00 0. -1.
</event>
<event>
 8    1  0.2527138E-006  0.9118800E+02  0.7816164E-02  0.1184000E+00
        -11   -1    0    0    0    0  0.00000000000E+00  0.00000000000E+00  0.45593999997E+02  0.45594000000E+02  0.51100000000E-03 0. -1.
         11   -1    0    0    0    0 -0.00000000000E+00 -0.00000000000E+00 -0.45593999997E+02  0.45594000000E+02  0.51100000000E-03 0.  1.
         23    2    1    2    0    0  0.00000000000E+00  0.17763568394E-14 -0.88817841970E-15  0.91188000000E+02  0.91188000000E+02 0.  0.
    9900012    2    3    3    0    0 -0.36440340870E+02  0.51113305862E+01  0.13251677418E+01  0.54367079145E+02  0.39999988526E+02 0.  0.
        -12    1    3    3    0    0  0.36440340870E+02 -0.51113305862E+01 -0.13251677418E+01  0.36820920855E+02  0.00000000000E+00 0.  1.
         11    1    4    4    0    0 -0.20575692956E+02  0.14168374238E+02  0.12231239029E+02  0.27815556395E+02  0.51100000000E-03 0. -1.
        -11    1    4    4    0    0 -0.93990473703E+01 -0.37751766622E+01 -0.14312944281E+02  0.17534378362E+02  0.51100000000E-03 0.  1.
        -12    1    4    4    0    0 -0.64656005443E+01 -0.52818669896E+01  0.34068729943E+01  0.90171443869E+01  0.00000000000E+00 0.  1.
</event>
<event>
 8    1  0.2527138E-006  0.9118800E+02  0.7816164E-02  0.1184000E+00
        -11   -1    0    0    0    0  0.00000000000E+00  0.00000000000E+00  0.45593999997E+02  0.45594000000E+02  0.51100000000E-03 0.  1.
         11   -1    0    0    0    0 -0.00000000000E+00 -0.00000000000E+00 -0.45593999997E+02  0.45594000000E+02  0.51100000000E-03 0. -1.
         23    2    1    2    0    0  0.00000000000E+00 -0.17763568394E-14  0.00000000000E+00  0.91188000000E+02  0.91188000000E+02 0.  0.
    9900012    2    3    3    0    0  0.21457592871E+02 -0.73808242239E+01 -0.28997844560E+02  0.54367084107E+02  0.39999999840E+02 0.  0.
        -12    1    3    3    0    0 -0.21457592871E+02  0.73808242239E+01  0.28997844560E+02  0.36820915893E+02  0.00000000000E+00 0.  1.
         11    1    4    4    0    0  0.10962107067E+02 -0.18449866504E+02 -0.26046368543E+02  0.33748758198E+02  0.51100000000E-03 0. -1.
        -11    1    4    4    0    0  0.72791734211E+01  0.55653291850E+01 -0.82495974853E+01  0.12329440927E+02  0.51100000000E-03 0.  1.
         12    1    4    4    0    0  0.32163123828E+01  0.55037130948E+01  0.52981214681E+01  0.82888849832E+01  0.00000000000E+00 0. -1.
</event>
<event>
 8    1  0.2527138E-006  0.9118800E+02  0.7816164E-02  0.1184000E+00
        -11   -1    0    0    0    0  0.00000000000E+00  0.00000000000E+00  0.45593999997E+02  0.45594000000E+02  0.51100000000E-03 0.  1.
         11   -1    0    0    0    0 -0.00000000000E+00 -0.00000000000E+00 -0.45593999997E+02  0.45594000000E+02  0.51100000000E-03 0. -1.
         23    2    1    2    0    0  0.35527136788E-14  0.72164496601E-15 -0.71054273576E-14  0.91188000000E+02  0.91188000000E+02 0.  0.
    9900012    2    3    3    0    0 -0.24156150726E+02 -0.34380105541E+00  0.27787444247E+02  0.54367083732E+02  0.39999998984E+02 0.  0.
         12    1    3    3    0    0  0.24156150726E+02  0.34380105541E+00 -0.27787444247E+02  0.36820916268E+02  0.00000000000E+00 0. -1.
         11    1    4    4    0    0 -0.33326599841E+01 -0.34793266858E+01 -0.44673861762E+01  0.65703787002E+01  0.51100000000E-03 0. -1.
        -11    1    4    4    0    0 -0.44938246652E+01 -0.89583819029E+01  0.23731618795E+02  0.25761148991E+02  0.51100000000E-03 0.  1.
         12    1    4    4    0    0 -0.16329666076E+02  0.12093907533E+02  0.85232116276E+01  0.22035556041E+02  0.00000000000E+00 0. -1.
</event>
<event>
 8    1  0.2527138E-006  0.9118800E+02  0.7816164E-02  0.1184000E+00
        -11   -1    0    0    0    0  0.00000000000E+00  0.00000000000E+00  0.45593999997E+02  0.45594000000E+02  0.51100000000E-03 0.  1.
         11   -1    0    0    0    0 -0.00000000000E+00 -0.00000000000E+00 -0.45593999997E+02  0.45594000000E+02  0.51100000000E-03 0. -1.
         23    2    1    2    0    0  0.00000000000E+00  0.00000000000E+00  0.00000000000E+00  0.91188000000E+02  0.91188000000E+02 0.  0.
    9900012    2    3    3    0    0 -0.29548495999E+02 -0.14169472825E+02  0.16789653846E+02  0.54367081323E+02  0.39999993493E+02 0.  0.
         12    1    3    3    0    0  0.29548495999E+02  0.14169472825E+02 -0.16789653846E+02  0.36820918677E+02  0.00000000000E+00 0. -1.
         11    1    4    4    0    0 -0.24778554353E+02 -0.57744395968E+01  0.87697690849E+01  0.26911517210E+02  0.51100000000E-03 0. -1.
        -11    1    4    4    0    0 -0.10431150154E+02 -0.14522290484E+02  0.61303046809E+01  0.18902022384E+02  0.51100000000E-03 0.  1.
        -12    1    4    4    0    0  0.56612085079E+01  0.61272572558E+01  0.18895800801E+01  0.85535417301E+01  0.00000000000E+00 0.  1.
</event>
<event>
 8    1  0.2527138E-006  0.9118800E+02  0.7816164E-02  0.1184000E+00
        -11   -1    0    0    0    0  0.00000000000E+00  0.00000000000E+00  0.45593999997E+02  0.45594000000E+02  0.51100000000E-03 0. -1.
         11   -1    0    0    0    0 -0.00000000000E+00 -0.00000000000E+00 -0.45593999997E+02  0.45594000000E+02  0.51100000000E-03 0.  1.
         23    2    1    2    0    0 -0.17763568394E-14  0.00000000000E+00  0.17763568394E-14  0.91188000000E+02  0.91188000000E+02 0.  0.
    9900012    2    3    3    0    0  0.11101559430E+02  0.31630280527E+02 -0.15233218283E+02  0.54367215010E+02  0.40000298257E+02 0.  0.
         12    1    3    3    0    0 -0.11101559430E+02 -0.31630280527E+02  0.15233218283E+02  0.36820784990E+02  0.00000000000E+00 0. -1.
         11    1    4    4    0    0  0.68031428913E+00  0.33634743966E+02 -0.13543630931E+02  0.36265531408E+02  0.51100000000E-03 0. -1.
        -11    1    4    4    0    0  0.74406571082E+01  0.59498043508E+01 -0.78462516797E+00  0.95592461486E+01  0.51100000000E-03 0.  1.
         12    1    4    4    0    0  0.29805880327E+01 -0.79542677899E+01 -0.90496218374E+00  0.85424374536E+01  0.00000000000E+00 0. -1.
</event>
<event>
 8    1  0.2527138E-006  0.9118800E+02  0.7816164E-02  0.1184000E+00
        -11   -1    0    0    0    0  0.00000000000E+00  0.00000000000E+00  0.45593999997E+02  0.45594000000E+02  0.51100000000E-03 0.  1.
         11   -1    0    0    0    0 -0.00000000000E+00 -0.00000000000E+00 -0.45593999997E+02  0.45594000000E+02  0.51100000000E-03 0. -1.
         23    2    1    2    0    0  0.00000000000E+00 -0.44408920985E-15  0.00000000000E+00  0.91188000000E+02  0.91188000000E+02 0.  0.
    9900012    2    3    3    0    0  0.24388875799E+02 -0.34202030347E+01 -0.27372699045E+02  0.54367086044E+02  0.40000004255E+02 0.  0.
        -12    1    3    3    0    0 -0.24388875799E+02  0.34202030347E+01  0.27372699045E+02  0.36820913956E+02  0.00000000000E+00 0.  1.
         11    1    4    4    0    0  0.25787764240E+01 -0.92020330124E+01  0.34539740212E+01  0.10161566622E+02  0.51100000000E-03 0. -1.
        -11    1    4    4    0    0  0.11213263385E+02  0.14182419235E+02 -0.16061112519E+02  0.24183416357E+02  0.51100000000E-03 0.  1.
         12    1    4    4    0    0  0.10596835990E+02 -0.84005892576E+01 -0.14765560548E+02  0.20022103065E+02  0.00000000000E+00 0. -1.
</event>
<event>
 8    1  0.2527138E-006  0.9118800E+02  0.7816164E-02  0.1184000E+00
        -11   -1    0    0    0    0  0.00000000000E+00  0.00000000000E+00  0.45593999997E+02  0.45594000000E+02  0.51100000000E-03 0. -1.
         11   -1    0    0    0    0 -0.00000000000E+00 -0.00000000000E+00 -0.45593999997E+02  0.45594000000E+02  0.51100000000E-03 0.  1.
         23    2    1    2    0    0  0.00000000000E+00  0.17763568394E-14  0.00000000000E+00  0.91188000000E+02  0.91188000000E+02 0.  0.
    9900012    2    3    3    0    0 -0.13673428649E+02 -0.15011162891E+02  0.30716166616E+02  0.54367074509E+02  0.39999977959E+02 0.  0.
        -12    1    3    3    0    0  0.13673428649E+02  0.15011162891E+02 -0.30716166616E+02  0.36820925491E+02  0.00000000000E+00 0.  1.
         11    1    4    4    0    0  0.10510300348E+02  0.16310524204E+01  0.20102647300E+02  0.22742980766E+02  0.51100000000E-03 0. -1.
        -11    1    4    4    0    0 -0.14300635059E+02 -0.98794210540E+01  0.36139271399E+01  0.17753072779E+02  0.51100000000E-03 0.  1.
         12    1    4    4    0    0 -0.98830939378E+01 -0.67627942579E+01  0.69995921760E+01  0.13871020964E+02  0.00000000000E+00 0. -1.
</event>
<event>
 8    1  0.2527138E-006  0.9118800E+02  0.7816164E-02  0.1184000E+00
        -11   -1    0    0    0    0  0.00000000000E+00  0.00000000000E+00  0.45593999997E+02  0.45594000000E+02  0.51100000000E-03 0. -1.
         11   -1    0    0    0    0 -0.00000000000E+00 -0.00000000000E+00 -0.45593999997E+02  0.45594000000E+02  0.51100000000E-03 0.  1.
         23    2    1    2    0    0  0.00000000000E+00  0.00000000000E+00  0.35527136788E-14  0.91188000000E+02  0.91188000000E+02 0.  0.
    9900012    2    3    3    0    0 -0.55103161381E+01  0.28935598025E+02 -0.22094060476E+02  0.54367083046E+02  0.39999997420E+02 0.  0.
         12    1    3    3    0    0  0.55103161381E+01 -0.28935598025E+02  0.22094060476E+02  0.36820916954E+02  0.00000000000E+00 0. -1.
         11    1    4    4    0    0  0.33690979158E+01 -0.77305801051E+01 -0.69567456905E+01  0.10932017215E+02  0.51100000000E-03 0.  1.
        -11    1    4    4    0    0 -0.50314784236E+01  0.52862543684E+01  0.18729041110E+01  0.75344562143E+01  0.51100000000E-03 0. -1.
        -12    1    4    4    0    0 -0.38479356303E+01  0.31379923762E+02 -0.17010218897E+02  0.35900609616E+02  0.00000000000E+00 0.  1.
</event>
<event>
 8    1  0.2527138E-006  0.9118800E+02  0.7816164E-02  0.1184000E+00
        -11   -1    0    0    0    0  0.00000000000E+00  0.00000000000E+00  0.45593999997E+02  0.45594000000E+02  0.51100000000E-03 0.  1.
         11   -1    0    0    0    0 -0.00000000000E+00 -0.00000000000E+00 -0.45593999997E+02  0.45594000000E+02  0.51100000000E-03 0. -1.
         23    2    1    2    0    0  0.14210854715E-13  0.00000000000E+00 -0.17763568394E-14  0.91188000000E+02  0.91188000000E+02 0.  0.
    9900012    2    3    3    0    0 -0.28108938284E+02 -0.19734839649E+02  0.13274262673E+02  0.54367050027E+02  0.39999922147E+02 0.  0.
         12    1    3    3    0    0  0.28108938284E+02  0.19734839649E+02 -0.13274262673E+02  0.36820949973E+02  0.00000000000E+00 0. -1.
         11    1    4    4    0    0 -0.59704479512E+01 -0.41421248918E+01 -0.35764838875E+01  0.80990545507E+01  0.51100000000E-03 0. -1.
        -11    1    4    4    0    0  0.83968594029E+01 -0.29053968566E+01  0.81954022214E+01  0.12087729173E+02  0.51100000000E-03 0.  1.
        -12    1    4    4    0    0 -0.30535349735E+02 -0.12687317900E+02  0.86553443388E+01  0.34180266304E+02  0.00000000000E+00 0.  1.
</event>
<event>
 8    1  0.2527138E-006  0.9118800E+02  0.7816164E-02  0.1184000E+00
        -11   -1    0    0    0    0  0.00000000000E+00  0.00000000000E+00  0.45593999997E+02  0.45594000000E+02  0.51100000000E-03 0.  1.
         11   -1    0    0    0    0 -0.00000000000E+00 -0.00000000000E+00 -0.45593999997E+02  0.45594000000E+02  0.51100000000E-03 0. -1.
         23    2    1    2    0    0  0.17763568394E-14  0.88817841970E-15  0.00000000000E+00  0.91188000000E+02  0.91188000000E+02 0.  0.
    9900012    2    3    3    0    0  0.13022147579E+02  0.50212681822E+01 -0.34073311205E+02  0.54367082057E+02  0.39999995165E+02 0.  0.
        -12    1    3    3    0    0 -0.13022147579E+02 -0.50212681822E+01  0.34073311205E+02  0.36820917943E+02  0.00000000000E+00 0.  1.
         11    1    4    4    0    0 -0.38986389037E+00  0.10842818928E+02 -0.29307374010E+02  0.31251254180E+02  0.51100000000E-03 0. -1.
        -11    1    4    4    0    0 -0.34587399109E+01 -0.17909055023E+01 -0.42469123116E+01  0.57625071569E+01  0.51100000000E-03 0.  1.
        -12    1    4    4    0    0  0.16870751380E+02 -0.40306452439E+01 -0.51902488290E+00  0.17353320721E+02  0.00000000000E+00 0.  1.
</event>
<event>
 8    1  0.2527138E-006  0.9118800E+02  0.7816164E-02  0.1184000E+00
        -11   -1    0    0    0    0  0.00000000000E+00  0.00000000000E+00  0.45593999997E+02  0.45594000000E+02  0.51100000000E-03 0.  1.
         11   -1    0    0    0    0 -0.00000000000E+00 -0.00000000000E+00 -0.45593999997E+02  0.45594000000E+02  0.51100000000E-03 0. -1.
         23    2    1    2    0    0  0.00000000000E+00  0.00000000000E+00  0.00000000000E+00  0.91188000000E+02  0.91188000000E+02 0.  0.
    9900012    2    3    3    0    0  0.14775037642E+02  0.12418269547E+01 -0.33703649038E+02  0.54367084341E+02  0.40000000372E+02 0.  0.
        -12    1    3    3    0    0 -0.14775037642E+02 -0.12418269547E+01  0.33703649038E+02  0.36820915659E+02  0.00000000000E+00 0.  1.
         11    1    4    4    0    0 -0.20536763328E+01  0.36770997779E+00 -0.33822270526E+02  0.33886557525E+02  0.51100000000E-03 0. -1.
        -11    1    4    4    0    0  0.77083123259E+01  0.40591520758E+01  0.45768884158E+01  0.98408689819E+01  0.51100000000E-03 0.  1.
        -12    1    4    4    0    0  0.91204016492E+01 -0.31850350989E+01 -0.44582669275E+01  0.10639657834E+02  0.00000000000E+00 0.  1.
</event>
<event>
 8    1  0.2527138E-006  0.9118800E+02  0.7816164E-02  0.1184000E+00
        -11   -1    0    0    0    0  0.00000000000E+00  0.00000000000E+00  0.45593999997E+02  0.45594000000E+02  0.51100000000E-03 0. -1.
         11   -1    0    0    0    0 -0.00000000000E+00 -0.00000000000E+00 -0.45593999997E+02  0.45594000000E+02  0.51100000000E-03 0.  1.
         23    2    1    2    0    0  0.00000000000E+00  0.00000000000E+00 -0.35527136788E-14  0.91188000000E+02  0.91188000000E+02 0.  0.
    9900012    2    3    3    0    0  0.28838275283E+02 -0.61911071774E+01  0.22040982861E+02  0.54367070424E+02  0.39999968645E+02 0.  0.
        -12    1    3    3    0    0 -0.28838275283E+02  0.61911071774E+01 -0.22040982861E+02  0.36820929576E+02  0.00000000000E+00 0.  1.
         11    1    4    4    0    0  0.34714731259E+01 -0.66199450112E+01  0.80643017892E+01  0.10995806529E+02  0.51100000000E-03 0. -1.
        -11    1    4    4    0    0  0.31457338293E+02 -0.58670569547E+01  0.13065229064E+02  0.34564240199E+02  0.51100000000E-03 0.  1.
        -12    1    4    4    0    0 -0.60905361360E+01  0.62958947885E+01  0.91145200810E+00  0.88070236956E+01  0.00000000000E+00 0.  1.
</event>
<event>
 8    1  0.2527138E-006  0.9118800E+02  0.7816164E-02  0.1184000E+00
        -11   -1    0    0    0    0  0.00000000000E+00  0.00000000000E+00  0.45593999997E+02  0.45594000000E+02  0.51100000000E-03 0.  1.
         11   -1    0    0    0    0 -0.00000000000E+00 -0.00000000000E+00 -0.45593999997E+02  0.45594000000E+02  0.51100000000E-03 0. -1.
         23    2    1    2    0    0  0.00000000000E+00 -0.35527136788E-14 -0.88817841970E-15  0.91188000000E+02  0.91188000000E+02 0.  0.
    9900012    2    3    3    0    0 -0.29551197660E+02  0.20739934456E+02  0.72362712789E+01  0.54367057774E+02  0.39999939808E+02 0.  0.
        -12    1    3    3    0    0  0.29551197660E+02 -0.20739934456E+02 -0.72362712789E+01  0.36820942226E+02  0.00000000000E+00 0.  1.
         11    1    4    4    0    0 -0.11682344176E+02  0.11506451183E+02  0.16922340276E+02  0.23563556289E+02  0.51100000000E-03 0.  1.
        -11    1    4    4    0    0 -0.30086708184E+01  0.90178519909E+01  0.42651699493E+01  0.10419473575E+02  0.51100000000E-03 0. -1.
        -12    1    4    4    0    0 -0.14860182665E+02  0.21563128218E+00 -0.13951238947E+02  0.20384027910E+02  0.00000000000E+00 0.  1.
</event>
<event>
 8    1  0.2527138E-006  0.9118800E+02  0.7816164E-02  0.1184000E+00
        -11   -1    0    0    0    0  0.00000000000E+00  0.00000000000E+00  0.45593999997E+02  0.45594000000E+02  0.51100000000E-03 0. -1.
         11   -1    0    0    0    0 -0.00000000000E+00 -0.00000000000E+00 -0.45593999997E+02  0.45594000000E+02  0.51100000000E-03 0.  1.
         23    2    1    2    0    0  0.00000000000E+00  0.00000000000E+00 -0.35527136788E-14  0.91188000000E+02  0.91188000000E+02 0.  0.
    9900012    2    3    3    0    0  0.24770902062E+02 -0.20339114566E+02  0.18124643181E+02  0.54367083923E+02  0.39999999420E+02 0.  0.
        -12    1    3    3    0    0 -0.24770902062E+02  0.20339114566E+02 -0.18124643181E+02  0.36820916077E+02  0.00000000000E+00 0.  1.
         11    1    4    4    0    0 -0.37683664619E+01 -0.35418705399E+01  0.10945332229E+01  0.52861551197E+01  0.51100000000E-03 0. -1.
        -11    1    4    4    0    0 -0.57866915079E+01 -0.68616686033E+01 -0.10417105663E+01  0.90362301761E+01  0.51100000000E-03 0.  1.
         12    1    4    4    0    0  0.34325960032E+02 -0.99355754224E+01  0.18071820525E+02  0.40044698627E+02  0.00000000000E+00 0. -1.
</event>
<event>
 8    1  0.2527138E-006  0.9118800E+02  0.7816164E-02  0.1184000E+00
        -11   -1    0    0    0    0  0.00000000000E+00  0.00000000000E+00  0.45593999997E+02  0.45594000000E+02  0.51100000000E-03 0.  1.
         11   -1    0    0    0    0 -0.00000000000E+00 -0.00000000000E+00 -0.45593999997E+02  0.45594000000E+02  0.51100000000E-03 0. -1.
         23    2    1    2    0    0  0.00000000000E+00  0.00000000000E+00  0.00000000000E+00  0.91188000000E+02  0.91188000000E+02 0.  0.
    9900012    2    3    3    0    0  0.17540496453E+02  0.32108825647E+02 -0.41393751735E+01  0.54367080306E+02  0.39999991173E+02 0.  0.
         12    1    3    3    0    0 -0.17540496453E+02 -0.32108825647E+02  0.41393751735E+01  0.36820919694E+02  0.00000000000E+00 0. -1.
         11    1    4    4    0    0  0.32583921383E+01 -0.10857576243E+01  0.91923116543E+00  0.35554149043E+01  0.51100000000E-03 0. -1.
        -11    1    4    4    0    0 -0.85554042480E+01  0.21282842726E+02  0.44304625553E+01  0.23362006229E+02  0.51100000000E-03 0.  1.
        -12    1    4    4    0    0  0.22837508563E+02  0.11911740546E+02 -0.94890688943E+01  0.27449659173E+02  0.00000000000E+00 0.  1.
</event>
<event>
 8    1  0.2527138E-006  0.9118800E+02  0.7816164E-02  0.1184000E+00
        -11   -1    0    0    0    0  0.00000000000E+00  0.00000000000E+00  0.45593999997E+02  0.45594000000E+02  0.51100000000E-03 0.  1.
         11   -1    0    0    0    0 -0.00000000000E+00 -0.00000000000E+00 -0.45593999997E+02  0.45594000000E+02  0.51100000000E-03 0. -1.
         23    2    1    2    0    0 -0.88817841970E-15  0.00000000000E+00  0.17763568394E-14  0.91188000000E+02  0.91188000000E+02 0.  0.
    9900012    2    3    3    0    0  0.27306095192E+01  0.33610006047E+02  0.14788241638E+02  0.54367070821E+02  0.39999969552E+02 0.  0.
         12    1    3    3    0    0 -0.27306095192E+01 -0.33610006047E+02 -0.14788241638E+02  0.36820929179E+02  0.00000000000E+00 0. -1.
         11    1    4    4    0    0  0.82555420937E+01  0.89121006621E+01  0.11846129602E+02  0.16967919740E+02  0.51100000000E-03 0. -1.
        -11    1    4    4    0    0 -0.22811249272E+01  0.15910737099E+02 -0.11795272082E+02  0.19936988983E+02  0.51100000000E-03 0.  1.
        -12    1    4    4    0    0 -0.32438076472E+01  0.87871682859E+01  0.14737384117E+02  0.17462162098E+02  0.00000000000E+00 0.  1.
</event>
<event>
 8    1  0.2527138E-006  0.9118800E+02  0.7816164E-02  0.1184000E+00
        -11   -1    0    0    0    0  0.00000000000E+00  0.00000000000E+00  0.45593999997E+02  0.45594000000E+02  0.51100000000E-03 0.  1.
         11   -1    0    0    0    0 -0.00000000000E+00 -0.00000000000E+00 -0.45593999997E+02  0.45594000000E+02  0.51100000000E-03 0. -1.
         23    2    1    2    0    0 -0.35527136788E-14  0.00000000000E+00  0.17763568394E-14  0.91188000000E+02  0.91188000000E+02 0.  0.
    9900012    2    3    3    0    0  0.30990240367E+02  0.17723947167E+02 -0.90137071555E+01  0.54367079074E+02  0.39999988365E+02 0.  0.
        -12    1    3    3    0    0 -0.30990240367E+02 -0.17723947167E+02  0.90137071555E+01  0.36820920926E+02  0.00000000000E+00 0.  1.
         11    1    4    4    0    0  0.30153531421E+01  0.49589436017E+01 -0.14212907621E+02  0.15352205689E+02  0.51100000000E-03 0. -1.
        -11    1    4    4    0    0  0.33163326845E+01  0.10421855071E+02  0.87314013836E+01  0.13994659552E+02  0.51100000000E-03 0.  1.
        -12    1    4    4    0    0  0.24658554540E+02  0.23431484936E+01 -0.35322009177E+01  0.25020213832E+02  0.00000000000E+00 0.  1.
</event>
<event>
 8    1  0.2527138E-006  0.9118800E+02  0.7816164E-02  0.1184000E+00
        -11   -1    0    0    0    0  0.00000000000E+00  0.00000000000E+00  0.45593999997E+02  0.45594000000E+02  0.51100000000E-03 0.  1.
         11   -1    0    0    0    0 -0.00000000000E+00 -0.00000000000E+00 -0.45593999997E+02  0.45594000000E+02  0.51100000000E-03 0. -1.
         23    2    1    2    0    0 -0.44408920985E-15 -0.71054273576E-14  0.17763568394E-14  0.91188000000E+02  0.91188000000E+02 0.  0.
    9900012    2    3    3    0    0  0.17042905692E+01  0.35437362726E+02 -0.98523424822E+01  0.54367082906E+02  0.39999997100E+02 0.  0.
        -12    1    3    3    0    0 -0.17042905692E+01 -0.35437362726E+02  0.98523424822E+01  0.36820917094E+02  0.00000000000E+00 0.  1.
         11    1    4    4    0    0  0.72478868092E+01  0.96967411635E+01 -0.59097102037E+01  0.13471574791E+02  0.51100000000E-03 0. -1.
        -11    1    4    4    0    0  0.16939498304E+01 -0.67799333673E+01  0.14733485580E+01  0.71419688271E+01  0.51100000000E-03 0.  1.
        -12    1    4    4    0    0 -0.72375460704E+01  0.32520554929E+02 -0.54159808365E+01  0.33753539288E+02  0.00000000000E+00 0.  1.
</event>
<event>
 8    1  0.2527138E-006  0.9118800E+02  0.7816164E-02  0.1184000E+00
        -11   -1    0    0    0    0  0.00000000000E+00  0.00000000000E+00  0.45593999997E+02  0.45594000000E+02  0.51100000000E-03 0.  1.
         11   -1    0    0    0    0 -0.00000000000E+00 -0.00000000000E+00 -0.45593999997E+02  0.45594000000E+02  0.51100000000E-03 0. -1.
         23    2    1    2    0    0  0.17763568394E-14  0.17763568394E-14 -0.71054273576E-14  0.91188000000E+02  0.91188000000E+02 0.  0.
    9900012    2    3    3    0    0  0.15476100722E+02 -0.12318104212E+02 -0.31056953214E+02  0.54367085728E+02  0.40000003533E+02 0.  0.
        -12    1    3    3    0    0 -0.15476100722E+02  0.12318104212E+02  0.31056953214E+02  0.36820914272E+02  0.00000000000E+00 0.  1.
         11    1    4    4    0    0  0.13476749948E+02  0.61518380786E+01 -0.22918167441E+01  0.14990674607E+02  0.51100000000E-03 0. -1.
        -11    1    4    4    0    0 -0.87585053831E+01 -0.76285123056E+01 -0.12192192130E+02  0.16839096346E+02  0.51100000000E-03 0.  1.
         12    1    4    4    0    0  0.10757856157E+02 -0.10841429985E+02 -0.16572944340E+02  0.22537314776E+02  0.00000000000E+00 0. -1.
</event>
<event>
 8    1  0.2527138E-006  0.9118800E+02  0.7816164E-02  0.1184000E+00
        -11   -1    0    0    0    0  0.00000000000E+00  0.00000000000E+00  0.45593999997E+02  0.45594000000E+02  0.51100000000E-03 0.  1.
         11   -1    0    0    0    0 -0.00000000000E+00 -0.00000000000E+00 -0.45593999997E+02  0.45594000000E+02  0.51100000000E-03 0. -1.
         23    2    1    2    0    0  0.35527136788E-14 -0.17763568394E-14  0.00000000000E+00  0.91188000000E+02  0.91188000000E+02 0.  0.
    9900012    2    3    3    0    0 -0.23215805024E+02 -0.14715614123E+02  0.24500162998E+02  0.54367069962E+02  0.39999967592E+02 0.  0.
         12    1    3    3    0    0  0.23215805024E+02  0.14715614123E+02 -0.24500162998E+02  0.36820930038E+02  0.00000000000E+00 0. -1.
         11    1    4    4    0    0  0.33394450917E+01 -0.12066669265E+01 -0.16956850141E+01  0.39348807504E+01  0.51100000000E-03 0. -1.
        -11    1    4    4    0    0 -0.14505354211E+02 -0.21949799223E+02  0.90112207418E+01  0.27810089648E+02  0.51100000000E-03 0.  1.
        -12    1    4    4    0    0 -0.12049895905E+02  0.84408520260E+01  0.17184627271E+02  0.22622099564E+02  0.00000000000E+00 0.  1.
</event>
<event>
 8    1  0.2527138E-006  0.9118800E+02  0.7816164E-02  0.1184000E+00
        -11   -1    0    0    0    0  0.00000000000E+00  0.00000000000E+00  0.45593999997E+02  0.45594000000E+02  0.51100000000E-03 0.  1.
         11   -1    0    0    0    0 -0.00000000000E+00 -0.00000000000E+00 -0.45593999997E+02  0.45594000000E+02  0.51100000000E-03 0. -1.
         23    2    1    2    0    0  0.88817841970E-15  0.00000000000E+00  0.00000000000E+00  0.91188000000E+02  0.91188000000E+02 0.  0.
    9900012    2    3    3    0    0  0.74815176727E+01  0.35532759172E+02 -0.61016016955E+01  0.54367087133E+02  0.40000006738E+02 0.  0.
        -12    1    3    3    0    0 -0.74815176727E+01 -0.35532759172E+02  0.61016016955E+01  0.36820912867E+02  0.00000000000E+00 0.  1.
         11    1    4    4    0    0  0.75497252286E+01  0.11417055252E+02 -0.87650300026E+01  0.16253407423E+02  0.51100000000E-03 0. -1.
        -11    1    4    4    0    0 -0.53719618181E+01  0.48381182423E+01  0.13542714219E+02  0.15351562480E+02  0.51100000000E-03 0.  1.
        -12    1    4    4    0    0  0.53037542622E+01  0.19277585678E+02 -0.10879285912E+02  0.22762117230E+02  0.00000000000E+00 0.  1.
</event>
<event>
 8    1  0.2527138E-006  0.9118800E+02  0.7816164E-02  0.1184000E+00
        -11   -1    0    0    0    0  0.00000000000E+00  0.00000000000E+00  0.45593999997E+02  0.45594000000E+02  0.51100000000E-03 0. -1.
         11   -1    0    0    0    0 -0.00000000000E+00 -0.00000000000E+00 -0.45593999997E+02  0.45594000000E+02  0.51100000000E-03 0.  1.
         23    2    1    2    0    0 -0.17763568394E-14  0.71054273576E-14  0.00000000000E+00  0.91188000000E+02  0.91188000000E+02 0.  0.
    9900012    2    3    3    0    0  0.10247809995E+02 -0.30582798035E+02 -0.17761124544E+02  0.54367045498E+02  0.39999911822E+02 0.  0.
         12    1    3    3    0    0 -0.10247809995E+02  0.30582798035E+02  0.17761124544E+02  0.36820954502E+02  0.00000000000E+00 0. -1.
         11    1    4    4    0    0  0.32463523295E+01 -0.18162839260E+02  0.10645959098E+02  0.21301736521E+02  0.51100000000E-03 0. -1.
        -11    1    4    4    0    0  0.17107342926E+01 -0.35066448597E+01 -0.14131498953E+01  0.41497184097E+01  0.51100000000E-03 0.  1.
         12    1    4    4    0    0  0.52907233724E+01 -0.89133139151E+01 -0.26993933747E+02  0.28915590568E+02  0.00000000000E+00 0. -1.
</event>
<event>
 8    1  0.2527138E-006  0.9118800E+02  0.7816164E-02  0.1184000E+00
        -11   -1    0    0    0    0  0.00000000000E+00  0.00000000000E+00  0.45593999997E+02  0.45594000000E+02  0.51100000000E-03 0. -1.
         11   -1    0    0    0    0 -0.00000000000E+00 -0.00000000000E+00 -0.45593999997E+02  0.45594000000E+02  0.51100000000E-03 0.  1.
         23    2    1    2    0    0  0.14432899320E-14  0.00000000000E+00 -0.35527136788E-14  0.91188000000E+02  0.91188000000E+02 0.  0.
    9900012    2    3    3    0    0  0.73708741364E+00  0.33376739904E+02 -0.15531599833E+02  0.54367073099E+02  0.39999974745E+02 0.  0.
        -12    1    3    3    0    0 -0.73708741364E+00 -0.33376739904E+02  0.15531599833E+02  0.36820926901E+02  0.00000000000E+00 0.  1.
         11    1    4    4    0    0  0.12876471709E+02  0.18295799225E+02  0.11990793846E+01  0.22404856272E+02  0.51100000000E-03 0. -1.
        -11    1    4    4    0    0 -0.14425609947E+02  0.13930511969E+02 -0.19652431591E+02  0.28078024392E+02  0.51100000000E-03 0.  1.
        -12    1    4    4    0    0  0.22862256516E+01  0.11504287101E+01  0.29217523728E+01  0.38841924354E+01  0.00000000000E+00 0.  1.
</event>
<event>
 8    1  0.2527138E-006  0.9118800E+02  0.7816164E-02  0.1184000E+00
        -11   -1    0    0    0    0  0.00000000000E+00  0.00000000000E+00  0.45593999997E+02  0.45594000000E+02  0.51100000000E-03 0. -1.
         11   -1    0    0    0    0 -0.00000000000E+00 -0.00000000000E+00 -0.45593999997E+02  0.45594000000E+02  0.51100000000E-03 0.  1.
         23    2    1    2    0    0  0.00000000000E+00  0.00000000000E+00  0.35527136788E-14  0.91188000000E+02  0.91188000000E+02 0.  0.
    9900012    2    3    3    0    0 -0.80978296579E+01  0.31468179754E+02  0.17319315179E+02  0.54367083926E+02  0.39999999427E+02 0.  0.
        -12    1    3    3    0    0  0.80978296579E+01 -0.31468179754E+02 -0.17319315179E+02  0.36820916074E+02  0.00000000000E+00 0.  1.
         11    1    4    4    0    0 -0.35861964991E+01  0.12622875159E+02  0.17013894932E+00  0.13123518208E+02  0.51100000000E-03 0. -1.
        -11    1    4    4    0    0 -0.70791115739E+01  0.55051078516E+01 -0.84126414331E+01  0.12296038764E+02  0.51100000000E-03 0.  1.
         12    1    4    4    0    0  0.25674784152E+01  0.13340196743E+02  0.25561817663E+02  0.28947526955E+02  0.00000000000E+00 0. -1.
</event>
<event>
 8    1  0.2527138E-006  0.9118800E+02  0.7816164E-02  0.1184000E+00
        -11   -1    0    0    0    0  0.00000000000E+00  0.00000000000E+00  0.45593999997E+02  0.45594000000E+02  0.51100000000E-03 0.  1.
         11   -1    0    0    0    0 -0.00000000000E+00 -0.00000000000E+00 -0.45593999997E+02  0.45594000000E+02  0.51100000000E-03 0. -1.
         23    2    1    2    0    0  0.00000000000E+00  0.00000000000E+00  0.35527136788E-14  0.91188000000E+02  0.91188000000E+02 0.  0.
    9900012    2    3    3    0    0  0.19488013700E+02 -0.16282296308E+02  0.26662413959E+02  0.54367079735E+02  0.39999989872E+02 0.  0.
        -12    1    3    3    0    0 -0.19488013700E+02  0.16282296308E+02 -0.26662413959E+02  0.36820920265E+02  0.00000000000E+00 0.  1.
         11    1    4    4    0    0 -0.72451390196E+01 -0.14514334970E+02  0.10151732035E+02  0.19136761027E+02  0.51100000000E-03 0.  1.
        -11    1    4    4    0    0  0.87400092016E+01 -0.32442342461E+01 -0.18236517806E+01  0.94993959158E+01  0.51100000000E-03 0. -1.
        -12    1    4    4    0    0  0.17993143518E+02  0.14762729078E+01  0.18334333705E+02  0.25730922792E+02  0.00000000000E+00 0.  1.
</event>
<event>
 8    1  0.2527138E-006  0.9118800E+02  0.7816164E-02  0.1184000E+00
        -11   -1    0    0    0    0  0.00000000000E+00  0.00000000000E+00  0.45593999997E+02  0.45594000000E+02  0.51100000000E-03 0.  1.
         11   -1    0    0    0    0 -0.00000000000E+00 -0.00000000000E+00 -0.45593999997E+02  0.45594000000E+02  0.51100000000E-03 0. -1.
         23    2    1    2    0    0  0.00000000000E+00 -0.17763568394E-14 -0.17763568394E-14  0.91188000000E+02  0.91188000000E+02 0.  0.
    9900012    2    3    3    0    0  0.31784160513E+02 -0.10225475123E+02 -0.15523805558E+02  0.54367058404E+02  0.39999941243E+02 0.  0.
        -12    1    3    3    0    0 -0.31784160513E+02  0.10225475123E+02  0.15523805558E+02  0.36820941596E+02  0.00000000000E+00 0.  1.
         11    1    4    4    0    0  0.31775728767E+02 -0.12450351776E+01 -0.60825523159E+01  0.32376604118E+02  0.51100000000E-03 0. -1.
        -11    1    4    4    0    0 -0.16273905267E+01  0.42003297690E+01  0.15361719182E+01  0.47593060963E+01  0.51100000000E-03 0.  1.
         12    1    4    4    0    0  0.16358222726E+01 -0.13180769715E+02 -0.10977425160E+02  0.17231148189E+02  0.00000000000E+00 0. -1.
</event>
<event>
 8    1  0.2527138E-006  0.9118800E+02  0.7816164E-02  0.1184000E+00
        -11   -1    0    0    0    0  0.00000000000E+00  0.00000000000E+00  0.45593999997E+02  0.45594000000E+02  0.51100000000E-03 0.  1.
         11   -1    0    0    0    0 -0.00000000000E+00 -0.00000000000E+00 -0.45593999997E+02  0.45594000000E+02  0.51100000000E-03 0. -1.
         23    2    1    2    0    0 -0.88817841970E-15  0.00000000000E+00  0.00000000000E+00  0.91188000000E+02  0.91188000000E+02 0.  0.
    9900012    2    3    3    0    0  0.30417914982E+01  0.17434127431E+02 -0.32288986650E+02  0.54367082661E+02  0.39999996543E+02 0.  0.
        -12    1    3    3    0    0 -0.30417914982E+01 -0.17434127431E+02  0.32288986650E+02  0.36820917339E+02  0.00000000000E+00 0.  1.
         11    1    4    4    0    0  0.21156710945E+00  0.35750521448E+01 -0.70477850898E+01  0.79055065247E+01  0.51100000000E-03 0. -1.
        -11    1    4    4    0    0  0.18083019225E+02  0.98537799380E+01 -0.22417761662E+02  0.30440903429E+02  0.51100000000E-03 0.  1.
        -12    1    4    4    0    0 -0.15252794836E+02  0.40052953479E+01 -0.28234398980E+01  0.16020672707E+02  0.00000000000E+00 0.  1.
</event>
<event>
 8    1  0.2527138E-006  0.9118800E+02  0.7816164E-02  0.1184000E+00
        -11   -1    0    0    0    0  0.00000000000E+00  0.00000000000E+00  0.45593999997E+02  0.45594000000E+02  0.51100000000E-03 0.  1.
         11   -1    0    0    0    0 -0.00000000000E+00 -0.00000000000E+00 -0.45593999997E+02  0.45594000000E+02  0.51100000000E-03 0. -1.
         23    2    1    2    0    0  0.00000000000E+00  0.00000000000E+00 -0.88817841970E-15  0.91188000000E+02  0.91188000000E+02 0.  0.
    9900012    2    3    3    0    0 -0.16810926844E+02  0.32485853281E+02  0.42242084526E+01  0.54367056750E+02  0.39999937472E+02 0.  0.
         12    1    3    3    0    0  0.16810926844E+02 -0.32485853281E+02 -0.42242084526E+01  0.36820943250E+02  0.00000000000E+00 0. -1.
         11    1    4    4    0    0 -0.67000048052E+01 -0.29675392182E+01 -0.90975632917E+01  0.11681695575E+02  0.51100000000E-03 0. -1.
        -11    1    4    4    0    0 -0.92900660613E+00  0.27385311248E+02  0.48842292665E+01  0.27832966446E+02  0.51100000000E-03 0.  1.
         12    1    4    4    0    0 -0.91819154330E+01  0.80680812520E+01  0.84375424778E+01  0.14852394728E+02  0.00000000000E+00 0. -1.
</event>
<event>
 8    1  0.2527138E-006  0.9118800E+02  0.7816164E-02  0.1184000E+00
        -11   -1    0    0    0    0  0.00000000000E+00  0.00000000000E+00  0.45593999997E+02  0.45594000000E+02  0.51100000000E-03 0. -1.
         11   -1    0    0    0    0 -0.00000000000E+00 -0.00000000000E+00 -0.45593999997E+02  0.45594000000E+02  0.51100000000E-03 0.  1.
         23    2    1    2    0    0  0.35527136788E-14  0.00000000000E+00  0.00000000000E+00  0.91188000000E+02  0.91188000000E+02 0.  0.
    9900012    2    3    3    0    0  0.21047046273E+02  0.12506667679E+02  0.27502447976E+02  0.54367088307E+02  0.40000009413E+02 0.  0.
        -12    1    3    3    0    0 -0.21047046273E+02 -0.12506667679E+02 -0.27502447976E+02  0.36820911693E+02  0.00000000000E+00 0.  1.
         11    1    4    4    0    0  0.10848757254E+02  0.97387368165E+01  0.13703429979E+02  0.20008061430E+02  0.51100000000E-03 0. -1.
        -11    1    4    4    0    0 -0.30518471182E+01  0.13667639969E+02  0.38411021964E+01  0.14521439994E+02  0.51100000000E-03 0.  1.
        -12    1    4    4    0    0  0.13250136137E+02 -0.10899709106E+02  0.99579158002E+01  0.19837586883E+02  0.00000000000E+00 0.  1.
</event>
<event>
 8    1  0.2527138E-006  0.9118800E+02  0.7816164E-02  0.1184000E+00
        -11   -1    0    0    0    0  0.00000000000E+00  0.00000000000E+00  0.45593999997E+02  0.45594000000E+02  0.51100000000E-03 0.  1.
         11   -1    0    0    0    0 -0.00000000000E+00 -0.00000000000E+00 -0.45593999997E+02  0.45594000000E+02  0.51100000000E-03 0. -1.
         23    2    1    2    0    0 -0.35527136788E-14  0.35527136788E-14 -0.88817841970E-15  0.91188000000E+02  0.91188000000E+02 0.  0.
    9900012    2    3    3    0    0  0.25649709235E+02 -0.25930315585E+02  0.50484681270E+01  0.54367137971E+02  0.40000122631E+02 0.  0.
        -12    1    3    3    0    0 -0.25649709235E+02  0.25930315585E+02 -0.50484681270E+01  0.36820862029E+02  0.00000000000E+00 0.  1.
         11    1    4    4    0    0 -0.37312744752E+01 -0.70893309388E+01 -0.77728360443E+01  0.11162347549E+02  0.51100000000E-03 0. -1.
        -11    1    4    4    0    0 -0.70763348874E+00 -0.39031510958E+01 -0.40021656634E+01  0.56349502118E+01  0.51100000000E-03 0.  1.
        -12    1    4    4    0    0  0.30088617199E+02 -0.14937833550E+02  0.16823469835E+02  0.37569840210E+02  0.00000000000E+00 0.  1.
</event>
<event>
 8    1  0.2527138E-006  0.9118800E+02  0.7816164E-02  0.1184000E+00
        -11   -1    0    0    0    0  0.00000000000E+00  0.00000000000E+00  0.45593999997E+02  0.45594000000E+02  0.51100000000E-03 0. -1.
         11   -1    0    0    0    0 -0.00000000000E+00 -0.00000000000E+00 -0.45593999997E+02  0.45594000000E+02  0.51100000000E-03 0.  1.
         23    2    1    2    0    0  0.35527136788E-14  0.35527136788E-14  0.35527136788E-14  0.91188000000E+02  0.91188000000E+02 0.  0.
    9900012    2    3    3    0    0 -0.21057534027E+02  0.17066271060E+02 -0.24921934048E+02  0.54367080078E+02  0.39999990654E+02 0.  0.
         12    1    3    3    0    0  0.21057534027E+02 -0.17066271060E+02  0.24921934048E+02  0.36820919922E+02  0.00000000000E+00 0. -1.
         11    1    4    4    0    0 -0.45317493518E+01  0.17323696773E+02  0.44881529573E+01  0.18460518392E+02  0.51100000000E-03 0. -1.
        -11    1    4    4    0    0 -0.99637152191E+01 -0.23334404594E+01 -0.26549002390E+02  0.28452945252E+02  0.51100000000E-03 0.  1.
         12    1    4    4    0    0 -0.65620694563E+01  0.20760147465E+01 -0.28610846159E+01  0.74536164347E+01  0.00000000000E+00 0. -1.
</event>
<event>
 8    1  0.2527138E-006  0.9118800E+02  0.7816164E-02  0.1184000E+00
        -11   -1    0    0    0    0  0.00000000000E+00  0.00000000000E+00  0.45593999997E+02  0.45594000000E+02  0.51100000000E-03 0.  1.
         11   -1    0    0    0    0 -0.00000000000E+00 -0.00000000000E+00 -0.45593999997E+02  0.45594000000E+02  0.51100000000E-03 0. -1.
         23    2    1    2    0    0  0.17763568394E-14  0.00000000000E+00  0.00000000000E+00  0.91188000000E+02  0.91188000000E+02 0.  0.
    9900012    2    3    3    0    0 -0.10212277737E+02 -0.17415226258E+02 -0.30792849577E+02  0.54367077860E+02  0.39999985597E+02 0.  0.
        -12    1    3    3    0    0  0.10212277737E+02  0.17415226258E+02  0.30792849577E+02  0.36820922140E+02  0.00000000000E+00 0.  1.
         11    1    4    4    0    0  0.11534059789E+02  0.26944503120E+01 -0.92493080520E+00  0.11880660544E+02  0.51100000000E-03 0. -1.
        -11    1    4    4    0    0 -0.55524730502E+01 -0.38443079234E+01 -0.37812144315E+01  0.77399123523E+01  0.51100000000E-03 0.  1.
         12    1    4    4    0    0 -0.16193864476E+02 -0.16265368646E+02 -0.26086704340E+02  0.34746504964E+02  0.00000000000E+00 0. -1.
</event>
<event>
 8    1  0.2527138E-006  0.9118800E+02  0.7816164E-02  0.1184000E+00
        -11   -1    0    0    0    0  0.00000000000E+00  0.00000000000E+00  0.45593999997E+02  0.45594000000E+02  0.51100000000E-03 0.  1.
         11   -1    0    0    0    0 -0.00000000000E+00 -0.00000000000E+00 -0.45593999997E+02  0.45594000000E+02  0.51100000000E-03 0. -1.
         23    2    1    2    0    0  0.71054273576E-14  0.00000000000E+00  0.00000000000E+00  0.91188000000E+02  0.91188000000E+02 0.  0.
    9900012    2    3    3    0    0  0.29038983993E+02 -0.98246780235E+01 -0.20395933389E+02  0.54367068610E+02  0.39999964511E+02 0.  0.
        -12    1    3    3    0    0 -0.29038983993E+02  0.98246780235E+01  0.20395933389E+02  0.36820931390E+02  0.00000000000E+00 0.  1.
         11    1    4    4    0    0  0.10318841313E+01  0.32075927142E+01 -0.63359915914E+01  0.71762264170E+01  0.51100000000E-03 0.  1.
        -11    1    4    4    0    0  0.34926134195E+02 -0.97963745537E+01 -0.15449704880E+02  0.39427112313E+02  0.51100000000E-03 0. -1.
         12    1    4    4    0    0 -0.69190343336E+01 -0.32358961840E+01  0.13897630830E+01  0.77637298800E+01  0.00000000000E+00 0. -1.
</event>
<event>
 8    1  0.2527138E-006  0.9118800E+02  0.7816164E-02  0.1184000E+00
        -11   -1    0    0    0    0  0.00000000000E+00  0.00000000000E+00  0.45593999997E+02  0.45594000000E+02  0.51100000000E-03 0. -1.
         11   -1    0    0    0    0 -0.00000000000E+00 -0.00000000000E+00 -0.45593999997E+02  0.45594000000E+02  0.51100000000E-03 0.  1.
         23    2    1    2    0    0 -0.88817841970E-15  0.17763568394E-14 -0.71054273576E-14  0.91188000000E+02  0.91188000000E+02 0.  0.
    9900012    2    3    3    0    0 -0.45975189244E+01 -0.38157144101E+01  0.36332946352E+02  0.54367084105E+02  0.39999999835E+02 0.  0.
        -12    1    3    3    0    0  0.45975189244E+01  0.38157144101E+01 -0.36332946352E+02  0.36820915895E+02  0.00000000000E+00 0.  1.
         11    1    4    4    0    0 -0.22894521729E+01  0.71798752393E+01  0.38110949503E+01  0.84449182758E+01  0.51100000000E-03 0.  1.
        -11    1    4    4    0    0  0.13364914847E+02 -0.40204067377E+00  0.11439612304E+02  0.17596798445E+02  0.51100000000E-03 0. -1.
         12    1    4    4    0    0 -0.15672981599E+02 -0.10593548976E+02  0.21082239098E+02  0.28325367385E+02  0.00000000000E+00 0. -1.
</event>
<event>
 8    1  0.2527138E-006  0.9118800E+02  0.7816164E-02  0.1184000E+00
        -11   -1    0    0    0    0  0.00000000000E+00  0.00000000000E+00  0.45593999997E+02  0.45594000000E+02  0.51100000000E-03 0.  1.
         11   -1    0    0    0    0 -0.00000000000E+00 -0.00000000000E+00 -0.45593999997E+02  0.45594000000E+02  0.51100000000E-03 0. -1.
         23    2    1    2    0    0  0.00000000000E+00  0.00000000000E+00  0.71054273576E-14  0.91188000000E+02  0.91188000000E+02 0.  0.
    9900012    2    3    3    0    0  0.46651364280E+01 -0.13911597202E+02  0.33771048120E+02  0.54367085756E+02  0.40000003598E+02 0.  0.
         12    1    3    3    0    0 -0.46651364280E+01  0.13911597202E+02 -0.33771048120E+02  0.36820914244E+02  0.00000000000E+00 0. -1.
         11    1    4    4    0    0 -0.82483627939E+01 -0.15076487846E+02  0.82318177541E+01  0.19055151491E+02  0.51100000000E-03 0. -1.
        -11    1    4    4    0    0  0.15349132130E+02  0.58450425215E+00  0.74886319591E+01  0.17088508163E+02  0.51100000000E-03 0.  1.
        -12    1    4    4    0    0 -0.24356329082E+01  0.58038639212E+00  0.18050598407E+02  0.18223426102E+02  0.00000000000E+00 0.  1.
</event>
<event>
 8    1  0.2527138E-006  0.9118800E+02  0.7816164E-02  0.1184000E+00
        -11   -1    0    0    0    0  0.00000000000E+00  0.00000000000E+00  0.45593999997E+02  0.45594000000E+02  0.51100000000E-03 0. -1.
         11   -1    0    0    0    0 -0.00000000000E+00 -0.00000000000E+00 -0.45593999997E+02  0.45594000000E+02  0.51100000000E-03 0.  1.
         23    2    1    2    0    0 -0.71054273576E-14  0.00000000000E+00  0.00000000000E+00  0.91188000000E+02  0.91188000000E+02 0.  0.
    9900012    2    3    3    0    0  0.26484414853E+02  0.24942595838E+02  0.56764582451E+01  0.54367088884E+02  0.40000010728E+02 0.  0.
        -12    1    3    3    0    0 -0.26484414853E+02 -0.24942595838E+02 -0.56764582451E+01  0.36820911116E+02  0.00000000000E+00 0.  1.
         11    1    4    4    0    0  0.72540136232E+00 -0.28591581428E+01 -0.26100736838E+01  0.39387151862E+01  0.51100000000E-03 0. -1.
        -11    1    4    4    0    0 -0.65568030744E+01  0.48790322992E+01  0.70425520988E+01  0.10788612657E+02  0.51100000000E-03 0.  1.
         12    1    4    4    0    0  0.32315816565E+02  0.22922721682E+02  0.12439798301E+01  0.39639761041E+02  0.00000000000E+00 0. -1.
</event>
<event>
 8    1  0.2527138E-006  0.9118800E+02  0.7816164E-02  0.1184000E+00
        -11   -1    0    0    0    0  0.00000000000E+00  0.00000000000E+00  0.45593999997E+02  0.45594000000E+02  0.51100000000E-03 0.  1.
         11   -1    0    0    0    0 -0.00000000000E+00 -0.00000000000E+00 -0.45593999997E+02  0.45594000000E+02  0.51100000000E-03 0. -1.
         23    2    1    2    0    0 -0.17763568394E-14  0.00000000000E+00 -0.35527136788E-14  0.91188000000E+02  0.91188000000E+02 0.  0.
    9900012    2    3    3    0    0  0.13330953707E+02  0.26240567836E+02  0.22124621525E+02  0.54367073820E+02  0.39999976388E+02 0.  0.
         12    1    3    3    0    0 -0.13330953707E+02 -0.26240567836E+02 -0.22124621525E+02  0.36820926180E+02  0.00000000000E+00 0. -1.
         11    1    4    4    0    0  0.13986009028E+02 -0.61126484238E+00  0.38683394330E+01  0.14523985109E+02  0.51100000000E-03 0. -1.
        -11    1    4    4    0    0  0.83949836065E+01  0.18143227600E+01  0.26747553699E+01  0.89956563619E+01  0.51100000000E-03 0.  1.
        -12    1    4    4    0    0 -0.90500389274E+01  0.25037509919E+02  0.15581526722E+02  0.30847432349E+02  0.00000000000E+00 0.  1.
</event>
<event>
 8    1  0.2527138E-006  0.9118800E+02  0.7816164E-02  0.1184000E+00
        -11   -1    0    0    0    0  0.00000000000E+00  0.00000000000E+00  0.45593999997E+02  0.45594000000E+02  0.51100000000E-03 0. -1.
         11   -1    0    0    0    0 -0.00000000000E+00 -0.00000000000E+00 -0.45593999997E+02  0.45594000000E+02  0.51100000000E-03 0.  1.
         23    2    1    2    0    0 -0.88817841970E-15  0.00000000000E+00  0.71054273576E-14  0.91188000000E+02  0.91188000000E+02 0.  0.
    9900012    2    3    3    0    0 -0.71872986430E+01  0.39599057508E+01  0.35894874236E+02  0.54367080515E+02  0.39999991649E+02 0.  0.
        -12    1    3    3    0    0  0.71872986430E+01 -0.39599057508E+01 -0.35894874236E+02  0.36820919485E+02  0.00000000000E+00 0.  1.
         11    1    4    4    0    0 -0.12130805717E+01  0.41222613746E+01  0.16231223651E+01  0.45933789074E+01  0.51100000000E-03 0. -1.
        -11    1    4    4    0    0 -0.10120986745E+02  0.11880444164E+02  0.28452414820E+01  0.15864259377E+02  0.51100000000E-03 0.  1.
         12    1    4    4    0    0  0.41467686741E+01 -0.12042799787E+02  0.31426510389E+02  0.33909442230E+02  0.00000000000E+00 0. -1.
</event>
<event>
 8    1  0.2527138E-006  0.9118800E+02  0.7816164E-02  0.1184000E+00
        -11   -1    0    0    0    0  0.00000000000E+00  0.00000000000E+00  0.45593999997E+02  0.45594000000E+02  0.51100000000E-03 0. -1.
         11   -1    0    0    0    0 -0.00000000000E+00 -0.00000000000E+00 -0.45593999997E+02  0.45594000000E+02  0.51100000000E-03 0.  1.
         23    2    1    2    0    0  0.00000000000E+00 -0.35527136788E-14  0.11102230246E-15  0.91188000000E+02  0.91188000000E+02 0.  0.
    9900012    2    3    3    0    0 -0.28753470209E+02 -0.22991704901E+02  0.63151997385E+00  0.54367090712E+02  0.40000014896E+02 0.  0.
         12    1    3    3    0    0  0.28753470209E+02  0.22991704901E+02 -0.63151997385E+00  0.36820909288E+02  0.00000000000E+00 0. -1.
         11    1    4    4    0    0  0.51704185950E+01 -0.39193916800E+01 -0.25090022023E+01  0.69562886585E+01  0.51100000000E-03 0. -1.
        -11    1    4    4    0    0 -0.30719152819E+02 -0.11540812203E+02  0.12374759147E+02  0.35071232662E+02  0.51100000000E-03 0.  1.
        -12    1    4    4    0    0 -0.32047359842E+01 -0.75315010188E+01 -0.92342369710E+01  0.12339569391E+02  0.00000000000E+00 0.  1.
</event>
<event>
 8    1  0.2527138E-006  0.9118800E+02  0.7816164E-02  0.1184000E+00
        -11   -1    0    0    0    0  0.00000000000E+00  0.00000000000E+00  0.45593999997E+02  0.45594000000E+02  0.51100000000E-03 0.  1.
         11   -1    0    0    0    0 -0.00000000000E+00 -0.00000000000E+00 -0.45593999997E+02  0.45594000000E+02  0.51100000000E-03 0. -1.
         23    2    1    2    0    0  0.00000000000E+00  0.00000000000E+00  0.35527136788E-14  0.91188000000E+02  0.91188000000E+02 0.  0.
    9900012    2    3    3    0    0  0.33268110700E+02  0.10072317044E+02  0.12147569481E+02  0.54367052097E+02  0.39999926866E+02 0.  0.
         12    1    3    3    0    0 -0.33268110700E+02 -0.10072317044E+02 -0.12147569481E+02  0.36820947903E+02  0.00000000000E+00 0. -1.
         11    1    4    4    0    0  0.72070959713E+01  0.53206507605E+01 -0.14236425064E+02  0.16820444576E+02  0.51100000000E-03 0. -1.
        -11    1    4    4    0    0  0.12733617647E+02  0.40569537716E+01  0.12871008756E+02  0.18554426936E+02  0.51100000000E-03 0.  1.
         12    1    4    4    0    0  0.13327397081E+02  0.69471251239E+00  0.13512985789E+02  0.18992180585E+02  0.00000000000E+00 0. -1.
</event>
<event>
 8    1  0.2527138E-006  0.9118800E+02  0.7816164E-02  0.1184000E+00
        -11   -1    0    0    0    0  0.00000000000E+00  0.00000000000E+00  0.45593999997E+02  0.45594000000E+02  0.51100000000E-03 0.  1.
         11   -1    0    0    0    0 -0.00000000000E+00 -0.00000000000E+00 -0.45593999997E+02  0.45594000000E+02  0.51100000000E-03 0. -1.
         23    2    1    2    0    0  0.00000000000E+00  0.35527136788E-14  0.35527136788E-14  0.91188000000E+02  0.91188000000E+02 0.  0.
    9900012    2    3    3    0    0 -0.17286786035E+02  0.20199959593E+02  0.25473699972E+02  0.54367072129E+02  0.39999972533E+02 0.  0.
         12    1    3    3    0    0  0.17286786035E+02 -0.20199959593E+02 -0.25473699972E+02  0.36820927871E+02  0.00000000000E+00 0. -1.
         11    1    4    4    0    0  0.32605286944E+01 -0.15275445054E+01 -0.24210227635E+01  0.43388697912E+01  0.51100000000E-03 0. -1.
        -11    1    4    4    0    0 -0.23822826038E+02  0.12888527665E+02  0.83741213193E+01  0.28350786478E+02  0.51100000000E-03 0.  1.
        -12    1    4    4    0    0  0.32755113080E+01  0.88389764332E+01  0.19520601416E+02  0.21677415860E+02  0.00000000000E+00 0.  1.
</event>
<event>
 8    1  0.2527138E-006  0.9118800E+02  0.7816164E-02  0.1184000E+00
        -11   -1    0    0    0    0  0.00000000000E+00  0.00000000000E+00  0.45593999997E+02  0.45594000000E+02  0.51100000000E-03 0. -1.
         11   -1    0    0    0    0 -0.00000000000E+00 -0.00000000000E+00 -0.45593999997E+02  0.45594000000E+02  0.51100000000E-03 0.  1.
         23    2    1    2    0    0 -0.13322676296E-14 -0.88817841970E-15  0.00000000000E+00  0.91188000000E+02  0.91188000000E+02 0.  0.
    9900012    2    3    3    0    0 -0.20171420370E+01  0.63962373041E+01  0.36204939656E+02  0.54367104178E+02  0.40000045595E+02 0.  0.
        -12    1    3    3    0    0  0.20171420370E+01 -0.63962373041E+01 -0.36204939656E+02  0.36820895822E+02  0.00000000000E+00 0.  1.
         11    1    4    4    0    0  0.13221008175E+02  0.12079174558E+01  0.98068743129E+01  0.16505420497E+02  0.51100000000E-03 0. -1.
        -11    1    4    4    0    0 -0.13918110056E+02 -0.53514465372E+00  0.36936983738E+01  0.14409842999E+02  0.51100000000E-03 0.  1.
         12    1    4    4    0    0 -0.13200401559E+01  0.57234645020E+01  0.22704366969E+02  0.23451840682E+02  0.00000000000E+00 0. -1.
</event>
<event>
 8    1  0.2527138E-006  0.9118800E+02  0.7816164E-02  0.1184000E+00
        -11   -1    0    0    0    0  0.00000000000E+00  0.00000000000E+00  0.45593999997E+02  0.45594000000E+02  0.51100000000E-03 0.  1.
         11   -1    0    0    0    0 -0.00000000000E+00 -0.00000000000E+00 -0.45593999997E+02  0.45594000000E+02  0.51100000000E-03 0. -1.
         23    2    1    2    0    0  0.00000000000E+00  0.00000000000E+00  0.00000000000E+00  0.91188000000E+02  0.91188000000E+02 0.  0.
    9900012    2    3    3    0    0  0.82387156068E+01 -0.14682625675E+02  0.32746386365E+02  0.54367058247E+02  0.39999940887E+02 0.  0.
         12    1    3    3    0    0 -0.82387156068E+01  0.14682625675E+02 -0.32746386365E+02  0.36820941753E+02  0.00000000000E+00 0. -1.
         11    1    4    4    0    0  0.52741810666E+01 -0.14109223810E+02 -0.20524702692E+01  0.15201967534E+02  0.51100000000E-03 0. -1.
        -11    1    4    4    0    0  0.66942378375E+01 -0.75291259572E+01  0.19885115097E+02  0.22291665720E+02  0.51100000000E-03 0.  1.
        -12    1    4    4    0    0 -0.37297032973E+01  0.69557240926E+01  0.14913741538E+02  0.16873424993E+02  0.00000000000E+00 0.  1.
</event>
<event>
 8    1  0.2527138E-006  0.9118800E+02  0.7816164E-02  0.1184000E+00
        -11   -1    0    0    0    0  0.00000000000E+00  0.00000000000E+00  0.45593999997E+02  0.45594000000E+02  0.51100000000E-03 0.  1.
         11   -1    0    0    0    0 -0.00000000000E+00 -0.00000000000E+00 -0.45593999997E+02  0.45594000000E+02  0.51100000000E-03 0. -1.
         23    2    1    2    0    0  0.00000000000E+00  0.00000000000E+00  0.17763568394E-14  0.91188000000E+02  0.91188000000E+02 0.  0.
    9900012    2    3    3    0    0 -0.23703835005E+02 -0.27413948547E+02  0.65104398987E+01  0.54367052204E+02  0.39999927110E+02 0.  0.
         12    1    3    3    0    0  0.23703835005E+02  0.27413948547E+02 -0.65104398987E+01  0.36820947796E+02  0.00000000000E+00 0. -1.
         11    1    4    4    0    0 -0.17418110007E+02 -0.69743646673E+01  0.16695648335E+02  0.25115274084E+02  0.51100000000E-03 0. -1.
        -11    1    4    4    0    0 -0.79233359825E+01 -0.19544160138E+02 -0.13786438185E+02  0.25195621181E+02  0.51100000000E-03 0.  1.
        -12    1    4    4    0    0  0.16376109845E+01 -0.89542374134E+00  0.36012297485E+01  0.40561569391E+01  0.00000000000E+00 0.  1.
</event>
<event>
 8    1  0.2527138E-006  0.9118800E+02  0.7816164E-02  0.1184000E+00
        -11   -1    0    0    0    0  0.00000000000E+00  0.00000000000E+00  0.45593999997E+02  0.45594000000E+02  0.51100000000E-03 0.  1.
         11   -1    0    0    0    0 -0.00000000000E+00 -0.00000000000E+00 -0.45593999997E+02  0.45594000000E+02  0.51100000000E-03 0. -1.
         23    2    1    2    0    0 -0.35527136788E-14  0.13322676296E-14  0.00000000000E+00  0.91188000000E+02  0.91188000000E+02 0.  0.
    9900012    2    3    3    0    0  0.28370763006E+02 -0.34572166316E+01  0.23214757295E+02  0.54367116026E+02  0.40000072605E+02 0.  0.
        -12    1    3    3    0    0 -0.28370763006E+02  0.34572166316E+01 -0.23214757295E+02  0.36820883974E+02  0.00000000000E+00 0.  1.
         11    1    4    4    0    0  0.17230959712E+02  0.46869625815E+01  0.19218031863E+02  0.26233687118E+02  0.51100000000E-03 0. -1.
        -11    1    4    4    0    0  0.98710495288E+01  0.60377061840E+01 -0.34374914694E+01  0.12070951190E+02  0.51100000000E-03 0.  1.
        -12    1    4    4    0    0  0.12687537644E+01 -0.14181885397E+02  0.74342169007E+01  0.16062477718E+02  0.00000000000E+00 0.  1.
</event>
<event>
 8    1  0.2527138E-006  0.9118800E+02  0.7816164E-02  0.1184000E+00
        -11   -1    0    0    0    0  0.00000000000E+00  0.00000000000E+00  0.45593999997E+02  0.45594000000E+02  0.51100000000E-03 0. -1.
         11   -1    0    0    0    0 -0.00000000000E+00 -0.00000000000E+00 -0.45593999997E+02  0.45594000000E+02  0.51100000000E-03 0.  1.
         23    2    1    2    0    0  0.00000000000E+00 -0.35527136788E-14  0.00000000000E+00  0.91188000000E+02  0.91188000000E+02 0.  0.
    9900012    2    3    3    0    0 -0.22183678632E+02 -0.16761782618E+02 -0.24139331794E+02  0.54367078045E+02  0.39999986019E+02 0.  0.
         12    1    3    3    0    0  0.22183678632E+02  0.16761782618E+02  0.24139331794E+02  0.36820921955E+02  0.00000000000E+00 0. -1.
         11    1    4    4    0    0  0.37576233788E+01  0.12433030000E+01 -0.68063924501E+01  0.78735325142E+01  0.51100000000E-03 0. -1.
        -11    1    4    4    0    0 -0.21066382669E+02 -0.64360847233E+01 -0.23751563841E+02  0.32393710045E+02  0.51100000000E-03 0.  1.
        -12    1    4    4    0    0 -0.48749193422E+01 -0.11569000894E+02  0.64186244978E+01  0.14099835486E+02  0.00000000000E+00 0.  1.
</event>
<event>
 8    1  0.2527138E-006  0.9118800E+02  0.7816164E-02  0.1184000E+00
        -11   -1    0    0    0    0  0.00000000000E+00  0.00000000000E+00  0.45593999997E+02  0.45594000000E+02  0.51100000000E-03 0. -1.
         11   -1    0    0    0    0 -0.00000000000E+00 -0.00000000000E+00 -0.45593999997E+02  0.45594000000E+02  0.51100000000E-03 0.  1.
         23    2    1    2    0    0  0.00000000000E+00  0.00000000000E+00 -0.35527136788E-14  0.91188000000E+02  0.91188000000E+02 0.  0.
    9900012    2    3    3    0    0  0.20683179728E+02  0.25640041480E+02 -0.16449119466E+02  0.54367093141E+02  0.40000020433E+02 0.  0.
         12    1    3    3    0    0 -0.20683179728E+02 -0.25640041480E+02  0.16449119466E+02  0.36820906859E+02  0.00000000000E+00 0. -1.
         11    1    4    4    0    0  0.54030734900E+01 -0.35031495915E+01 -0.16628047202E+02  0.17831354806E+02  0.51100000000E-03 0. -1.
        -11    1    4    4    0    0  0.59520845774E+01  0.23658438315E+02 -0.43938368630E+01  0.24788199147E+02  0.51100000000E-03 0.  1.
         12    1    4    4    0    0  0.93280216604E+01  0.54847527560E+01  0.45727645990E+01  0.11747539188E+02  0.00000000000E+00 0. -1.
</event>
<event>
 8    1  0.2527138E-006  0.9118800E+02  0.7816164E-02  0.1184000E+00
        -11   -1    0    0    0    0  0.00000000000E+00  0.00000000000E+00  0.45593999997E+02  0.45594000000E+02  0.51100000000E-03 0. -1.
         11   -1    0    0    0    0 -0.00000000000E+00 -0.00000000000E+00 -0.45593999997E+02  0.45594000000E+02  0.51100000000E-03 0.  1.
         23    2    1    2    0    0  0.44408920985E-15  0.00000000000E+00  0.71054273576E-14  0.91188000000E+02  0.91188000000E+02 0.  0.
    9900012    2    3    3    0    0  0.34909551756E+01  0.17529733800E+02  0.32191629379E+02  0.54367091032E+02  0.40000015625E+02 0.  0.
        -12    1    3    3    0    0 -0.34909551756E+01 -0.17529733800E+02 -0.32191629379E+02  0.36820908968E+02  0.00000000000E+00 0.  1.
         11    1    4    4    0    0  0.10465071559E+01  0.20788310242E+02  0.22728030017E+02  0.30819026082E+02  0.51100000000E-03 0. -1.
        -11    1    4    4    0    0 -0.40037140219E+01  0.64413260724E+01  0.91656795192E+01  0.11896641915E+02  0.51100000000E-03 0.  1.
        -12    1    4    4    0    0  0.64481620416E+01 -0.96999025138E+01  0.29791984285E+00  0.11651423034E+02  0.00000000000E+00 0.  1.
</event>
<event>
 8    1  0.2527138E-006  0.9118800E+02  0.7816164E-02  0.1184000E+00
        -11   -1    0    0    0    0  0.00000000000E+00  0.00000000000E+00  0.45593999997E+02  0.45594000000E+02  0.51100000000E-03 0.  1.
         11   -1    0    0    0    0 -0.00000000000E+00 -0.00000000000E+00 -0.45593999997E+02  0.45594000000E+02  0.51100000000E-03 0. -1.
         23    2    1    2    0    0 -0.35527136788E-14 -0.17763568394E-14  0.00000000000E+00  0.91188000000E+02  0.91188000000E+02 0.  0.
    9900012    2    3    3    0    0 -0.30725893540E+02 -0.10761851658E+02  0.17201199068E+02  0.54367092429E+02  0.40000018812E+02 0.  0.
         12    1    3    3    0    0  0.30725893540E+02  0.10761851658E+02 -0.17201199068E+02  0.36820907571E+02  0.00000000000E+00 0. -1.
         11    1    4    4    0    0 -0.24335061906E+02 -0.18973001545E+01  0.10886641712E+02  0.26726652501E+02  0.51100000000E-03 0. -1.
        -11    1    4    4    0    0  0.56777866713E+01 -0.31998284170E+00  0.10784842430E+02  0.12192312209E+02  0.51100000000E-03 0.  1.
         12    1    4    4    0    0 -0.12068618305E+02 -0.85445686617E+01 -0.44702850741E+01  0.15448127720E+02  0.00000000000E+00 0. -1.
</event>
<event>
 8    1  0.2527138E-006  0.9118800E+02  0.7816164E-02  0.1184000E+00
        -11   -1    0    0    0    0  0.00000000000E+00  0.00000000000E+00  0.45593999997E+02  0.45594000000E+02  0.51100000000E-03 0. -1.
         11   -1    0    0    0    0 -0.00000000000E+00 -0.00000000000E+00 -0.45593999997E+02  0.45594000000E+02  0.51100000000E-03 0.  1.
         23    2    1    2    0    0  0.44408920985E-15  0.35527136788E-14  0.35527136788E-14  0.91188000000E+02  0.91188000000E+02 0.  0.
    9900012    2    3    3    0    0 -0.29131450628E+01  0.21770020080E+02  0.29552656451E+02  0.54367086218E+02  0.40000004651E+02 0.  0.
        -12    1    3    3    0    0  0.29131450628E+01 -0.21770020080E+02 -0.29552656451E+02  0.36820913782E+02  0.00000000000E+00 0.  1.
         11    1    4    4    0    0 -0.20436922596E+01  0.10715324287E+02  0.71920809837E+01  0.13066020120E+02  0.51100000000E-03 0. -1.
        -11    1    4    4    0    0  0.81572326466E+01 -0.87124367073E+01  0.32678887118E+01  0.12374412904E+02  0.51100000000E-03 0.  1.
        -12    1    4    4    0    0 -0.90266854498E+01  0.19767132500E+02  0.19092686755E+02  0.28926653194E+02  0.00000000000E+00 0.  1.
</event>
<event>
 8    1  0.2527138E-006  0.9118800E+02  0.7816164E-02  0.1184000E+00
        -11   -1    0    0    0    0  0.00000000000E+00  0.00000000000E+00  0.45593999997E+02  0.45594000000E+02  0.51100000000E-03 0. -1.
         11   -1    0    0    0    0 -0.00000000000E+00 -0.00000000000E+00 -0.45593999997E+02  0.45594000000E+02  0.51100000000E-03 0.  1.
         23    2    1    2    0    0  0.00000000000E+00  0.00000000000E+00  0.17763568394E-14  0.91188000000E+02  0.91188000000E+02 0.  0.
    9900012    2    3    3    0    0  0.34380896361E+02  0.58271405263E+01  0.11822810227E+02  0.54367076017E+02  0.39999981396E+02 0.  0.
        -12    1    3    3    0    0 -0.34380896361E+02 -0.58271405263E+01 -0.11822810227E+02  0.36820923983E+02  0.00000000000E+00 0.  1.
         11    1    4    4    0    0  0.80991220876E+01 -0.81430419119E+01  0.14747160144E+02  0.18691806834E+02  0.51100000000E-03 0.  1.
        -11    1    4    4    0    0  0.12530839313E+02 -0.48580303765E+00  0.59006328986E+01  0.13859127222E+02  0.51100000000E-03 0. -1.
        -12    1    4    4    0    0  0.13750934960E+02  0.14455985476E+02 -0.88249828152E+01  0.21816141961E+02  0.00000000000E+00 0.  1.
</event>
<event>
 8    1  0.2527138E-006  0.9118800E+02  0.7816164E-02  0.1184000E+00
        -11   -1    0    0    0    0  0.00000000000E+00  0.00000000000E+00  0.45593999997E+02  0.45594000000E+02  0.51100000000E-03 0.  1.
         11   -1    0    0    0    0 -0.00000000000E+00 -0.00000000000E+00 -0.45593999997E+02  0.45594000000E+02  0.51100000000E-03 0. -1.
         23    2    1    2    0    0 -0.17763568394E-14 -0.17763568394E-14  0.00000000000E+00  0.91188000000E+02  0.91188000000E+02 0.  0.
    9900012    2    3    3    0    0 -0.71760059330E+01 -0.14520129036E+02 -0.33067382693E+02  0.54367068364E+02  0.39999963950E+02 0.  0.
        -12    1    3    3    0    0  0.71760059330E+01  0.14520129036E+02  0.33067382693E+02  0.36820931636E+02  0.00000000000E+00 0.  1.
         11    1    4    4    0    0  0.52724487042E+01 -0.15727818011E+02 -0.18832758423E+02  0.25096528939E+02  0.51100000000E-03 0. -1.
        -11    1    4    4    0    0  0.63785110790E+00 -0.82771244686E+01 -0.96239641430E+00  0.83572633453E+01  0.51100000000E-03 0.  1.
         12    1    4    4    0    0 -0.13086305745E+02  0.94848134438E+01 -0.13272227856E+02  0.20913276079E+02  0.00000000000E+00 0. -1.
</event>
<event>
 8    1  0.2527138E-006  0.9118800E+02  0.7816164E-02  0.1184000E+00
        -11   -1    0    0    0    0  0.00000000000E+00  0.00000000000E+00  0.45593999997E+02  0.45594000000E+02  0.51100000000E-03 0. -1.
         11   -1    0    0    0    0 -0.00000000000E+00 -0.00000000000E+00 -0.45593999997E+02  0.45594000000E+02  0.51100000000E-03 0.  1.
         23    2    1    2    0    0  0.00000000000E+00  0.22204460493E-15 -0.17763568394E-14  0.91188000000E+02  0.91188000000E+02 0.  0.
    9900012    2    3    3    0    0  0.35598474542E+02 -0.76570643207E+00 -0.93777586755E+01  0.54367081301E+02  0.39999993442E+02 0.  0.
         12    1    3    3    0    0 -0.35598474542E+02  0.76570643207E+00  0.93777586755E+01  0.36820918699E+02  0.00000000000E+00 0. -1.
         11    1    4    4    0    0 -0.60105230492E+01 -0.61020084289E+01 -0.40933296540E+01  0.94929575007E+01  0.51100000000E-03 0. -1.
        -11    1    4    4    0    0  0.10251593735E+01 -0.26124494320E+01 -0.18829293816E+01  0.33795365205E+01  0.51100000000E-03 0.  1.
        -12    1    4    4    0    0  0.40583838218E+02  0.79487514289E+01 -0.34014996399E+01  0.41494587280E+02  0.00000000000E+00 0.  1.
</event>
<event>
 8    1  0.2527138E-006  0.9118800E+02  0.7816164E-02  0.1184000E+00
        -11   -1    0    0    0    0  0.00000000000E+00  0.00000000000E+00  0.45593999997E+02  0.45594000000E+02  0.51100000000E-03 0.  1.
         11   -1    0    0    0    0 -0.00000000000E+00 -0.00000000000E+00 -0.45593999997E+02  0.45594000000E+02  0.51100000000E-03 0. -1.
         23    2    1    2    0    0  0.00000000000E+00  0.00000000000E+00  0.00000000000E+00  0.91188000000E+02  0.91188000000E+02 0.  0.
    9900012    2    3    3    0    0  0.18789661465E+02  0.13153101415E+02  0.28804995147E+02  0.54367038575E+02  0.39999896040E+02 0.  0.
         12    1    3    3    0    0 -0.18789661465E+02 -0.13153101415E+02 -0.28804995147E+02  0.36820961425E+02  0.00000000000E+00 0. -1.
         11    1    4    4    0    0  0.20101160838E+01  0.15973546800E+02  0.10809806856E+02  0.19391923282E+02  0.51100000000E-03 0. -1.
        -11    1    4    4    0    0  0.22128698763E+01 -0.97162822440E+01  0.15841852177E+02  0.18715427176E+02  0.51100000000E-03 0.  1.
         12    1    4    4    0    0  0.14566675505E+02  0.68958368590E+01  0.21533361147E+01  0.16259688117E+02  0.00000000000E+00 0. -1.
</event>
<event>
 8    1  0.2527138E-006  0.9118800E+02  0.7816164E-02  0.1184000E+00
        -11   -1    0    0    0    0  0.00000000000E+00  0.00000000000E+00  0.45593999997E+02  0.45594000000E+02  0.51100000000E-03 0. -1.
         11   -1    0    0    0    0 -0.00000000000E+00 -0.00000000000E+00 -0.45593999997E+02  0.45594000000E+02  0.51100000000E-03 0.  1.
         23    2    1    2    0    0  0.00000000000E+00 -0.44408920985E-15  0.00000000000E+00  0.91188000000E+02  0.91188000000E+02 0.  0.
    9900012    2    3    3    0    0 -0.36178125969E+02 -0.30115391780E+01 -0.61525200989E+01  0.54367086508E+02  0.40000005312E+02 0.  0.
         12    1    3    3    0    0  0.36178125969E+02  0.30115391780E+01  0.61525200989E+01  0.36820913492E+02  0.00000000000E+00 0. -1.
         11    1    4    4    0    0 -0.63358778473E+01  0.14486142088E+01  0.38358230794E+01  0.75468781744E+01  0.51100000000E-03 0.  1.
        -11    1    4    4    0    0  0.24312963509E+01 -0.44749309834E+01  0.82905195217E+01  0.97297956532E+01  0.51100000000E-03 0. -1.
         12    1    4    4    0    0 -0.32273544472E+02  0.14777596585E-01 -0.18278862700E+02  0.37090412680E+02  0.00000000000E+00 0. -1.
</event>
<event>
 8    1  0.2527138E-006  0.9118800E+02  0.7816164E-02  0.1184000E+00
        -11   -1    0    0    0    0  0.00000000000E+00  0.00000000000E+00  0.45593999997E+02  0.45594000000E+02  0.51100000000E-03 0. -1.
         11   -1    0    0    0    0 -0.00000000000E+00 -0.00000000000E+00 -0.45593999997E+02  0.45594000000E+02  0.51100000000E-03 0.  1.
         23    2    1    2    0    0  0.35527136788E-14  0.00000000000E+00  0.88817841970E-15  0.91188000000E+02  0.91188000000E+02 0.  0.
    9900012    2    3    3    0    0 -0.20429357851E+02  0.29923221138E+02  0.65594601882E+01  0.54367023051E+02  0.39999860650E+02 0.  0.
        -12    1    3    3    0    0  0.20429357851E+02 -0.29923221138E+02 -0.65594601882E+01  0.36820976949E+02  0.00000000000E+00 0.  1.
         11    1    4    4    0    0  0.29649964819E+01 -0.17201661854E+01 -0.60071509793E+01  0.69163602417E+01  0.51100000000E-03 0. -1.
        -11    1    4    4    0    0  0.80689893569E+00  0.11625186064E+01  0.81599697498E+01  0.82817656319E+01  0.51100000000E-03 0.  1.
         12    1    4    4    0    0 -0.24201253269E+02  0.30480868717E+02  0.44066414177E+01  0.39168897178E+02  0.00000000000E+00 0. -1.
</event>
<event>
 8    1  0.2527138E-006  0.9118800E+02  0.7816164E-02  0.1184000E+00
        -11   -1    0    0    0    0  0.00000000000E+00  0.00000000000E+00  0.45593999997E+02  0.45594000000E+02  0.51100000000E-03 0.  1.
         11   -1    0    0    0    0 -0.00000000000E+00 -0.00000000000E+00 -0.45593999997E+02  0.45594000000E+02  0.51100000000E-03 0. -1.
         23    2    1    2    0    0 -0.71054273576E-14 -0.11102230246E-14  0.00000000000E+00  0.91188000000E+02  0.91188000000E+02 0.  0.
    9900012    2    3    3    0    0 -0.36431252209E+02  0.14567289873E+01 -0.51400646518E+01  0.54367102924E+02  0.40000042737E+02 0.  0.
         12    1    3    3    0    0  0.36431252209E+02 -0.14567289873E+01  0.51400646518E+01  0.36820897076E+02  0.00000000000E+00 0. -1.
         11    1    4    4    0    0 -0.11905280619E+02  0.65069182222E+01  0.10414327942E+02  0.17103622953E+02  0.51100000000E-03 0.  1.
        -11    1    4    4    0    0 -0.49880412556E+01  0.86391331592E+01 -0.53042375333E+01  0.11298234967E+02  0.51100000000E-03 0. -1.
        -12    1    4    4    0    0 -0.19537930334E+02 -0.13689322394E+02 -0.10250155061E+02  0.25965245004E+02  0.00000000000E+00 0.  1.
</event>
<event>
 8    1  0.2527138E-006  0.9118800E+02  0.7816164E-02  0.1184000E+00
        -11   -1    0    0    0    0  0.00000000000E+00  0.00000000000E+00  0.45593999997E+02  0.45594000000E+02  0.51100000000E-03 0. -1.
         11   -1    0    0    0    0 -0.00000000000E+00 -0.00000000000E+00 -0.45593999997E+02  0.45594000000E+02  0.51100000000E-03 0.  1.
         23    2    1    2    0    0  0.00000000000E+00  0.00000000000E+00 -0.35527136788E-14  0.91188000000E+02  0.91188000000E+02 0.  0.
    9900012    2    3    3    0    0  0.16172004905E+02  0.19647404819E+02 -0.26612508145E+02  0.54367084089E+02  0.39999999797E+02 0.  0.
         12    1    3    3    0    0 -0.16172004905E+02 -0.19647404819E+02  0.26612508145E+02  0.36820915911E+02  0.00000000000E+00 0. -1.
         11    1    4    4    0    0  0.44237001258E+01  0.16189641607E+02 -0.80414493635E+01  0.18610172656E+02  0.51100000000E-03 0. -1.
        -11    1    4    4    0    0  0.85997391439E+01  0.10766956957E+02 -0.22878246750E+02  0.26707621573E+02  0.51100000000E-03 0.  1.
         12    1    4    4    0    0  0.31485656356E+01 -0.73091937447E+01  0.43071879688E+01  0.90492898593E+01  0.00000000000E+00 0. -1.
</event>
<event>
 8    1  0.2527138E-006  0.9118800E+02  0.7816164E-02  0.1184000E+00
        -11   -1    0    0    0    0  0.00000000000E+00  0.00000000000E+00  0.45593999997E+02  0.45594000000E+02  0.51100000000E-03 0.  1.
         11   -1    0    0    0    0 -0.00000000000E+00 -0.00000000000E+00 -0.45593999997E+02  0.45594000000E+02  0.51100000000E-03 0. -1.
         23    2    1    2    0    0 -0.13322676296E-14  0.00000000000E+00  0.17763568394E-14  0.91188000000E+02  0.91188000000E+02 0.  0.
    9900012    2    3    3    0    0 -0.20165779683E+01 -0.35049150050E+02  0.11102793747E+02  0.54367061189E+02  0.39999947592E+02 0.  0.
         12    1    3    3    0    0  0.20165779683E+01  0.35049150050E+02 -0.11102793747E+02  0.36820938811E+02  0.00000000000E+00 0. -1.
         11    1    4    4    0    0 -0.69463568057E+01 -0.61737458581E+01 -0.69916663805E+01  0.11629720970E+02  0.51100000000E-03 0. -1.
        -11    1    4    4    0    0  0.42362333445E+01  0.37436915724E+01  0.51149822704E+01  0.76239060478E+01  0.51100000000E-03 0.  1.
        -12    1    4    4    0    0  0.69354549301E+00 -0.32619095765E+02  0.12979477858E+02  0.35113434171E+02  0.00000000000E+00 0.  1.
</event>
<event>
 8    1  0.2527138E-006  0.9118800E+02  0.7816164E-02  0.1184000E+00
        -11   -1    0    0    0    0  0.00000000000E+00  0.00000000000E+00  0.45593999997E+02  0.45594000000E+02  0.51100000000E-03 0.  1.
         11   -1    0    0    0    0 -0.00000000000E+00 -0.00000000000E+00 -0.45593999997E+02  0.45594000000E+02  0.51100000000E-03 0. -1.
         23    2    1    2    0    0  0.00000000000E+00  0.35527136788E-14  0.00000000000E+00  0.91188000000E+02  0.91188000000E+02 0.  0.
    9900012    2    3    3    0    0 -0.10952015288E+02  0.15552692061E+02 -0.31526921714E+02  0.54367086623E+02  0.40000005574E+02 0.  0.
        -12    1    3    3    0    0  0.10952015288E+02 -0.15552692061E+02  0.31526921714E+02  0.36820913377E+02  0.00000000000E+00 0.  1.
         11    1    4    4    0    0 -0.26045666589E+01 -0.16599159368E+01 -0.17140852753E+02  0.17416886109E+02  0.51100000000E-03 0. -1.
        -11    1    4    4    0    0 -0.15871268708E+02  0.88661034801E+00 -0.49562633415E+01  0.16650759589E+02  0.51100000000E-03 0.  1.
        -12    1    4    4    0    0  0.75238200792E+01  0.16325997649E+02 -0.94298056193E+01  0.20299440925E+02  0.00000000000E+00 0.  1.
</event>
<event>
 8    1  0.2527138E-006  0.9118800E+02  0.7816164E-02  0.1184000E+00
        -11   -1    0    0    0    0  0.00000000000E+00  0.00000000000E+00  0.45593999997E+02  0.45594000000E+02  0.51100000000E-03 0.  1.
         11   -1    0    0    0    0 -0.00000000000E+00 -0.00000000000E+00 -0.45593999997E+02  0.45594000000E+02  0.51100000000E-03 0. -1.
         23    2    1    2    0    0  0.00000000000E+00  0.35527136788E-14  0.00000000000E+00  0.91188000000E+02  0.91188000000E+02 0.  0.
    9900012    2    3    3    0    0 -0.81568252664E+01 -0.14236576058E+02  0.32963097567E+02  0.54367086140E+02  0.40000004474E+02 0.  0.
         12    1    3    3    0    0  0.81568252664E+01  0.14236576058E+02 -0.32963097567E+02  0.36820913860E+02  0.00000000000E+00 0. -1.
         11    1    4    4    0    0  0.83036204501E+01  0.89293830652E+00 -0.45970415979E+01  0.95331129812E+01  0.51100000000E-03 0. -1.
        -11    1    4    4    0    0 -0.11308493637E+02 -0.10717215430E+02  0.16433488432E+02  0.22645093888E+02  0.51100000000E-03 0.  1.
         12    1    4    4    0    0 -0.51519520790E+01 -0.44122989342E+01  0.21126650733E+02  0.22188879271E+02  0.00000000000E+00 0. -1.
</event>
<event>
 8    1  0.2527138E-006  0.9118800E+02  0.7816164E-02  0.1184000E+00
        -11   -1    0    0    0    0  0.00000000000E+00  0.00000000000E+00  0.45593999997E+02  0.45594000000E+02  0.51100000000E-03 0. -1.
         11   -1    0    0    0    0 -0.00000000000E+00 -0.00000000000E+00 -0.45593999997E+02  0.45594000000E+02  0.51100000000E-03 0.  1.
         23    2    1    2    0    0  0.00000000000E+00  0.00000000000E+00  0.00000000000E+00  0.91188000000E+02  0.91188000000E+02 0.  0.
    9900012    2    3    3    0    0 -0.17648979489E+02 -0.26595605022E+02 -0.18356632145E+02  0.54367100674E+02  0.40000037606E+02 0.  0.
         12    1    3    3    0    0  0.17648979489E+02  0.26595605022E+02  0.18356632145E+02  0.36820899326E+02  0.00000000000E+00 0. -1.
         11    1    4    4    0    0  0.64797912375E+00 -0.69269200639E+01  0.83452444002E+01  0.10864860923E+02  0.51100000000E-03 0. -1.
        -11    1    4    4    0    0 -0.18298781098E+02 -0.21807226458E+02 -0.28808060847E+02  0.40500677593E+02  0.51100000000E-03 0.  1.
        -12    1    4    4    0    0  0.18224850679E-02  0.21385414999E+01  0.21061843023E+01  0.30015621572E+01  0.00000000000E+00 0.  1.
</event>
<event>
 8    1  0.2527138E-006  0.9118800E+02  0.7816164E-02  0.1184000E+00
        -11   -1    0    0    0    0  0.00000000000E+00  0.00000000000E+00  0.45593999997E+02  0.45594000000E+02  0.51100000000E-03 0.  1.
         11   -1    0    0    0    0 -0.00000000000E+00 -0.00000000000E+00 -0.45593999997E+02  0.45594000000E+02  0.51100000000E-03 0. -1.
         23    2    1    2    0    0  0.35527136788E-14 -0.35527136788E-14  0.00000000000E+00  0.91188000000E+02  0.91188000000E+02 0.  0.
    9900012    2    3    3    0    0  0.26699433080E+02 -0.24711288658E+02  0.56810012533E+01  0.54367064526E+02  0.39999955199E+02 0.  0.
        -12    1    3    3    0    0 -0.26699433080E+02  0.24711288658E+02 -0.56810012533E+01  0.36820935474E+02  0.00000000000E+00 0.  1.
         11    1    4    4    0    0  0.13277170198E+02 -0.66732935515E+01 -0.12097827444E+02  0.19161772476E+02  0.51100000000E-03 0. -1.
        -11    1    4    4    0    0 -0.24918011658E+01 -0.90819215230E+01 -0.41634302920E+00  0.94267551882E+01  0.51100000000E-03 0.  1.
        -12    1    4    4    0    0  0.15914064049E+02 -0.89560735835E+01  0.18195171727E+02  0.25778536862E+02  0.00000000000E+00 0.  1.
</event>
<event>
 8    1  0.2527138E-006  0.9118800E+02  0.7816164E-02  0.1184000E+00
        -11   -1    0    0    0    0  0.00000000000E+00  0.00000000000E+00  0.45593999997E+02  0.45594000000E+02  0.51100000000E-03 0. -1.
         11   -1    0    0    0    0 -0.00000000000E+00 -0.00000000000E+00 -0.45593999997E+02  0.45594000000E+02  0.51100000000E-03 0.  1.
         23    2    1    2    0    0 -0.35527136788E-14  0.17763568394E-14  0.00000000000E+00  0.91188000000E+02  0.91188000000E+02 0.  0.
    9900012    2    3    3    0    0 -0.19429226515E+02  0.50986031177E+01  0.30859179833E+02  0.54367087780E+02  0.40000008213E+02 0.  0.
        -12    1    3    3    0    0  0.19429226515E+02 -0.50986031177E+01 -0.30859179833E+02  0.36820912220E+02  0.00000000000E+00 0.  1.
         11    1    4    4    0    0 -0.60870159990E+01  0.19874290992E+02  0.14931592730E+02  0.25592805003E+02  0.51100000000E-03 0. -1.
        -11    1    4    4    0    0 -0.13511694704E+02 -0.13959482982E+02  0.83417784265E+01  0.21142807914E+02  0.51100000000E-03 0.  1.
         12    1    4    4    0    0  0.16948418830E+00 -0.81620489221E+00  0.75858086762E+01  0.76314748632E+01  0.00000000000E+00 0. -1.
</event>
<event>
 8    1  0.2527138E-006  0.9118800E+02  0.7816164E-02  0.1184000E+00
        -11   -1    0    0    0    0  0.00000000000E+00  0.00000000000E+00  0.45593999997E+02  0.45594000000E+02  0.51100000000E-03 0. -1.
         11   -1    0    0    0    0 -0.00000000000E+00 -0.00000000000E+00 -0.45593999997E+02  0.45594000000E+02  0.51100000000E-03 0.  1.
         23    2    1    2    0    0 -0.35527136788E-14  0.35527136788E-14  0.00000000000E+00  0.91188000000E+02  0.91188000000E+02 0.  0.
    9900012    2    3    3    0    0  0.28469168432E+02 -0.20089863782E+02  0.11903203090E+02  0.54367049146E+02  0.39999920138E+02 0.  0.
        -12    1    3    3    0    0 -0.28469168432E+02  0.20089863782E+02 -0.11903203090E+02  0.36820950854E+02  0.00000000000E+00 0.  1.
         11    1    4    4    0    0  0.15751180850E+02 -0.36029234159E+01 -0.12478951553E+02  0.20415802395E+02  0.51100000000E-03 0.  1.
        -11    1    4    4    0    0  0.81152848805E+01 -0.66060091049E+01  0.19234254374E+02  0.21896432279E+02  0.51100000000E-03 0. -1.
         12    1    4    4    0    0  0.46027027011E+01 -0.98809312615E+01  0.51479002701E+01  0.12054814471E+02  0.00000000000E+00 0. -1.
</event>
<event>
 8    1  0.2527138E-006  0.9118800E+02  0.7816164E-02  0.1184000E+00
        -11   -1    0    0    0    0  0.00000000000E+00  0.00000000000E+00  0.45593999997E+02  0.45594000000E+02  0.51100000000E-03 0. -1.
         11   -1    0    0    0    0 -0.00000000000E+00 -0.00000000000E+00 -0.45593999997E+02  0.45594000000E+02  0.51100000000E-03 0.  1.
         23    2    1    2    0    0  0.00000000000E+00  0.35527136788E-14 -0.17763568394E-14  0.91188000000E+02  0.91188000000E+02 0.  0.
    9900012    2    3    3    0    0  0.28161870228E+02  0.19245472572E+02  0.13867292397E+02  0.54367069164E+02  0.39999965772E+02 0.  0.
        -12    1    3    3    0    0 -0.28161870228E+02 -0.19245472572E+02 -0.13867292397E+02  0.36820930836E+02  0.00000000000E+00 0.  1.
         11    1    4    4    0    0  0.50304798813E+01  0.20737954346E+01 -0.31850454807E+01  0.63048291267E+01  0.51100000000E-03 0. -1.
        -11    1    4    4    0    0  0.23707704969E+02 -0.25813946268E+01  0.35074925886E+01  0.24104385029E+02  0.51100000000E-03 0.  1.
         12    1    4    4    0    0 -0.57631462270E+00  0.19753071764E+02  0.13544845289E+02  0.23957855008E+02  0.00000000000E+00 0. -1.
</event>
<event>
 8    1  0.2527138E-006  0.9118800E+02  0.7816164E-02  0.1184000E+00
        -11   -1    0    0    0    0  0.00000000000E+00  0.00000000000E+00  0.45593999997E+02  0.45594000000E+02  0.51100000000E-03 0.  1.
         11   -1    0    0    0    0 -0.00000000000E+00 -0.00000000000E+00 -0.45593999997E+02  0.45594000000E+02  0.51100000000E-03 0. -1.
         23    2    1    2    0    0 -0.35527136788E-14 -0.17763568394E-14  0.00000000000E+00  0.91188000000E+02  0.91188000000E+02 0.  0.
    9900012    2    3    3    0    0 -0.20911990733E+02 -0.83915192420E+01  0.29121196569E+02  0.54367176527E+02  0.40000210529E+02 0.  0.
         12    1    3    3    0    0  0.20911990733E+02  0.83915192420E+01 -0.29121196569E+02  0.36820823473E+02  0.00000000000E+00 0. -1.
         11    1    4    4    0    0 -0.50006252288E+01 -0.16044857580E+01  0.59103915880E+01  0.79065388263E+01  0.51100000000E-03 0. -1.
        -11    1    4    4    0    0 -0.20871470907E+02 -0.15290142780E+02  0.58853197527E+01  0.26533822810E+02  0.51100000000E-03 0.  1.
         12    1    4    4    0    0  0.49601054029E+01  0.85031092963E+01  0.17325485228E+02  0.19926814891E+02  0.00000000000E+00 0. -1.
</event>
<event>
 8    1  0.2527138E-006  0.9118800E+02  0.7816164E-02  0.1184000E+00
        -11   -1    0    0    0    0  0.00000000000E+00  0.00000000000E+00  0.45593999997E+02  0.45594000000E+02  0.51100000000E-03 0.  1.
         11   -1    0    0    0    0 -0.00000000000E+00 -0.00000000000E+00 -0.45593999997E+02  0.45594000000E+02  0.51100000000E-03 0. -1.
         23    2    1    2    0    0  0.17763568394E-14  0.00000000000E+00  0.00000000000E+00  0.91188000000E+02  0.91188000000E+02 0.  0.
    9900012    2    3    3    0    0  0.13803622678E+02  0.25984268998E+02 -0.22137242849E+02  0.54367085354E+02  0.40000002681E+02 0.  0.
        -12    1    3    3    0    0 -0.13803622678E+02 -0.25984268998E+02  0.22137242849E+02  0.36820914646E+02  0.00000000000E+00 0.  1.
         11    1    4    4    0    0  0.18471303621E+01  0.30223319078E+02 -0.20127783166E+02  0.36359160635E+02  0.51100000000E-03 0. -1.
        -11    1    4    4    0    0  0.32860052175E+01  0.37623609085E+01  0.22307869339E+01  0.54707952348E+01  0.51100000000E-03 0.  1.
         12    1    4    4    0    0  0.86704870985E+01 -0.80014109880E+01 -0.42402466171E+01  0.12537129484E+02  0.00000000000E+00 0. -1.
</event>
<event>
 8    1  0.2527138E-006  0.9118800E+02  0.7816164E-02  0.1184000E+00
        -11   -1    0    0    0    0  0.00000000000E+00  0.00000000000E+00  0.45593999997E+02  0.45594000000E+02  0.51100000000E-03 0.  1.
         11   -1    0    0    0    0 -0.00000000000E+00 -0.00000000000E+00 -0.45593999997E+02  0.45594000000E+02  0.51100000000E-03 0. -1.
         23    2    1    2    0    0 -0.17763568394E-14 -0.88817841970E-15  0.71054273576E-14  0.91188000000E+02  0.91188000000E+02 0.  0.
    9900012    2    3    3    0    0  0.10833988977E+02  0.78459620672E+01  0.34305188514E+02  0.54367076643E+02  0.39999982823E+02 0.  0.
         12    1    3    3    0    0 -0.10833988977E+02 -0.78459620672E+01 -0.34305188514E+02  0.36820923357E+02  0.00000000000E+00 0. -1.
         11    1    4    4    0    0  0.22343409128E+02 -0.72252672427E+00  0.25204843520E+02  0.33690267341E+02  0.51100000000E-03 0. -1.
        -11    1    4    4    0    0 -0.55842157132E+01 -0.15810372357E+01  0.63581016820E+01  0.86086352654E+01  0.51100000000E-03 0.  1.
        -12    1    4    4    0    0 -0.59252044381E+01  0.10149526027E+02  0.27422433111E+01  0.12068174037E+02  0.00000000000E+00 0.  1.
</event>
<event>
 8    1  0.2527138E-006  0.9118800E+02  0.7816164E-02  0.1184000E+00
        -11   -1    0    0    0    0  0.00000000000E+00  0.00000000000E+00  0.45593999997E+02  0.45594000000E+02  0.51100000000E-03 0.  1.
         11   -1    0    0    0    0 -0.00000000000E+00 -0.00000000000E+00 -0.45593999997E+02  0.45594000000E+02  0.51100000000E-03 0. -1.
         23    2    1    2    0    0  0.00000000000E+00  0.88817841970E-15 -0.88817841970E-15  0.91188000000E+02  0.91188000000E+02 0.  0.
    9900012    2    3    3    0    0  0.35912430233E+02  0.55291003557E+01 -0.59587471177E+01  0.54367078458E+02  0.39999986961E+02 0.  0.
        -12    1    3    3    0    0 -0.35912430233E+02 -0.55291003557E+01  0.59587471177E+01  0.36820921542E+02  0.00000000000E+00 0.  1.
         11    1    4    4    0    0  0.15934837457E+02 -0.90257065212E+01  0.75093829676E+01  0.19793262889E+02  0.51100000000E-03 0. -1.
        -11    1    4    4    0    0  0.14451479479E+02  0.75752670277E+00  0.67054028592E-01  0.14471475472E+02  0.51100000000E-03 0.  1.
        -12    1    4    4    0    0  0.55261132977E+01  0.13797280174E+02 -0.13535184114E+02  0.20102340097E+02  0.00000000000E+00 0.  1.
</event>
<event>
 8    1  0.2527138E-006  0.9118800E+02  0.7816164E-02  0.1184000E+00
        -11   -1    0    0    0    0  0.00000000000E+00  0.00000000000E+00  0.45593999997E+02  0.45594000000E+02  0.51100000000E-03 0.  1.
         11   -1    0    0    0    0 -0.00000000000E+00 -0.00000000000E+00 -0.45593999997E+02  0.45594000000E+02  0.51100000000E-03 0. -1.
         23    2    1    2    0    0 -0.35527136788E-14  0.44408920985E-15  0.00000000000E+00  0.91188000000E+02  0.91188000000E+02 0.  0.
    9900012    2    3    3    0    0  0.28477137614E+02  0.39636225869E+01 -0.23002688023E+02  0.54367064013E+02  0.39999954030E+02 0.  0.
        -12    1    3    3    0    0 -0.28477137614E+02 -0.39636225869E+01  0.23002688023E+02  0.36820935987E+02  0.00000000000E+00 0.  1.
         11    1    4    4    0    0 -0.51226071580E+01  0.94955639717E+01 -0.15167655605E+02  0.18613560005E+02  0.51100000000E-03 0. -1.
        -11    1    4    4    0    0  0.20154844331E+02 -0.48020567001E+01 -0.82030067376E+01  0.22283779266E+02  0.51100000000E-03 0.  1.
         12    1    4    4    0    0  0.13444900441E+02 -0.72988468473E+00  0.36797432032E+00  0.13469724742E+02  0.00000000000E+00 0. -1.
</event>
<event>
 8    1  0.2527138E-006  0.9118800E+02  0.7816164E-02  0.1184000E+00
        -11   -1    0    0    0    0  0.00000000000E+00  0.00000000000E+00  0.45593999997E+02  0.45594000000E+02  0.51100000000E-03 0.  1.
         11   -1    0    0    0    0 -0.00000000000E+00 -0.00000000000E+00 -0.45593999997E+02  0.45594000000E+02  0.51100000000E-03 0. -1.
         23    2    1    2    0    0 -0.88817841970E-15  0.88817841970E-15  0.00000000000E+00  0.91188000000E+02  0.91188000000E+02 0.  0.
    9900012    2    3    3    0    0 -0.76180772761E+01  0.74682926567E+01 -0.35241598608E+02  0.54367071589E+02  0.39999971303E+02 0.  0.
        -12    1    3    3    0    0  0.76180772761E+01 -0.74682926567E+01  0.35241598608E+02  0.36820928411E+02  0.00000000000E+00 0.  1.
         11    1    4    4    0    0  0.43277083854E+01  0.17821251944E+01 -0.43730018703E+01  0.64053240118E+01  0.51100000000E-03 0. -1.
        -11    1    4    4    0    0 -0.10237798943E+02  0.16670916545E+02 -0.31215752593E+02  0.36839587346E+02  0.51100000000E-03 0.  1.
        -12    1    4    4    0    0 -0.17079867188E+01 -0.10984749082E+02  0.34715585540E+00  0.11122160232E+02  0.00000000000E+00 0.  1.
</event>
<event>
 8    1  0.2527138E-006  0.9118800E+02  0.7816164E-02  0.1184000E+00
        -11   -1    0    0    0    0  0.00000000000E+00  0.00000000000E+00  0.45593999997E+02  0.45594000000E+02  0.51100000000E-03 0.  1.
         11   -1    0    0    0    0 -0.00000000000E+00 -0.00000000000E+00 -0.45593999997E+02  0.45594000000E+02  0.51100000000E-03 0. -1.
         23    2    1    2    0    0  0.00000000000E+00  0.00000000000E+00 -0.35527136788E-14  0.91188000000E+02  0.91188000000E+02 0.  0.
    9900012    2    3    3    0    0  0.21712649219E+02 -0.92699908857E+01 -0.28256080971E+02  0.54367109476E+02  0.40000057673E+02 0.  0.
        -12    1    3    3    0    0 -0.21712649219E+02  0.92699908857E+01  0.28256080971E+02  0.36820890524E+02  0.00000000000E+00 0.  1.
         11    1    4    4    0    0 -0.33913291245E+01  0.95826596065E+00  0.67023074986E+00  0.35872825929E+01  0.51100000000E-03 0. -1.
        -11    1    4    4    0    0 -0.15207919045E+01 -0.98741589364E+01  0.17677092389E+01  0.10145768524E+02  0.51100000000E-03 0.  1.
         12    1    4    4    0    0  0.26624770248E+02 -0.35409790991E+00 -0.30694020960E+02  0.40634058360E+02  0.00000000000E+00 0. -1.
</event>
<event>
 8    1  0.2527138E-006  0.9118800E+02  0.7816164E-02  0.1184000E+00
        -11   -1    0    0    0    0  0.00000000000E+00  0.00000000000E+00  0.45593999997E+02  0.45594000000E+02  0.51100000000E-03 0.  1.
         11   -1    0    0    0    0 -0.00000000000E+00 -0.00000000000E+00 -0.45593999997E+02  0.45594000000E+02  0.51100000000E-03 0. -1.
         23    2    1    2    0    0  0.00000000000E+00  0.00000000000E+00 -0.71054273576E-14  0.91188000000E+02  0.91188000000E+02 0.  0.
    9900012    2    3    3    0    0 -0.16417215245E+02  0.16053942428E+02 -0.28784127012E+02  0.54367082145E+02  0.39999995365E+02 0.  0.
        -12    1    3    3    0    0  0.16417215245E+02 -0.16053942428E+02  0.28784127012E+02  0.36820917855E+02  0.00000000000E+00 0.  1.
         11    1    4    4    0    0 -0.72848800718E+00 -0.95687569173E+01 -0.16001691745E+02  0.18658669371E+02  0.51100000000E-03 0. -1.
        -11    1    4    4    0    0 -0.14360079292E+02  0.10050127482E+02 -0.86303360844E+01  0.19537134920E+02  0.51100000000E-03 0.  1.
        -12    1    4    4    0    0 -0.13286479454E+01  0.15572571863E+02 -0.41520991817E+01  0.16171277853E+02  0.00000000000E+00 0.  1.
</event>
<event>
 8    1  0.2527138E-006  0.9118800E+02  0.7816164E-02  0.1184000E+00
        -11   -1    0    0    0    0  0.00000000000E+00  0.00000000000E+00  0.45593999997E+02  0.45594000000E+02  0.51100000000E-03 0.  1.
         11   -1    0    0    0    0 -0.00000000000E+00 -0.00000000000E+00 -0.45593999997E+02  0.45594000000E+02  0.51100000000E-03 0. -1.
         23    2    1    2    0    0 -0.35527136788E-14 -0.35527136788E-14  0.53290705182E-14  0.91188000000E+02  0.91188000000E+02 0.  0.
    9900012    2    3    3    0    0 -0.28546890006E+02  0.21752025556E+02  0.82281160191E+01  0.54367116821E+02  0.40000074418E+02 0.  0.
         12    1    3    3    0    0  0.28546890006E+02 -0.21752025556E+02 -0.82281160191E+01  0.36820883179E+02  0.00000000000E+00 0. -1.
         11    1    4    4    0    0  0.10074194146E+01  0.12430828392E+00  0.21004393762E+01  0.23328506726E+01  0.51100000000E-03 0. -1.
        -11    1    4    4    0    0 -0.22824529866E+02  0.25341418553E+02 -0.88192385187E+01  0.35226774281E+02  0.51100000000E-03 0.  1.
        -12    1    4    4    0    0 -0.67297795546E+01 -0.37137012809E+01  0.14946915162E+02  0.16807491868E+02  0.00000000000E+00 0.  1.
</event>
<event>
 8    1  0.2527138E-006  0.9118800E+02  0.7816164E-02  0.1184000E+00
        -11   -1    0    0    0    0  0.00000000000E+00  0.00000000000E+00  0.45593999997E+02  0.45594000000E+02  0.51100000000E-03 0. -1.
         11   -1    0    0    0    0 -0.00000000000E+00 -0.00000000000E+00 -0.45593999997E+02  0.45594000000E+02  0.51100000000E-03 0.  1.
         23    2    1    2    0    0  0.00000000000E+00  0.00000000000E+00  0.17763568394E-14  0.91188000000E+02  0.91188000000E+02 0.  0.
    9900012    2    3    3    0    0  0.14650457396E+02  0.32516950342E+02 -0.91536340374E+01  0.54367123075E+02  0.40000088674E+02 0.  0.
         12    1    3    3    0    0 -0.14650457396E+02 -0.32516950342E+02  0.91536340374E+01  0.36820876925E+02  0.00000000000E+00 0. -1.
         11    1    4    4    0    0  0.16115965728E+01  0.19233028575E+02  0.11734855975E+02  0.22587905540E+02  0.51100000000E-03 0. -1.
        -11    1    4    4    0    0  0.12076375098E+02  0.15205765887E+02 -0.12438503263E+02  0.23060149943E+02  0.51100000000E-03 0.  1.
         12    1    4    4    0    0  0.96248572478E+00 -0.19218441202E+01 -0.84499867495E+01  0.87190675912E+01  0.00000000000E+00 0. -1.
</event>
<event>
 8    1  0.2527138E-006  0.9118800E+02  0.7816164E-02  0.1184000E+00
        -11   -1    0    0    0    0  0.00000000000E+00  0.00000000000E+00  0.45593999997E+02  0.45594000000E+02  0.51100000000E-03 0.  1.
         11   -1    0    0    0    0 -0.00000000000E+00 -0.00000000000E+00 -0.45593999997E+02  0.45594000000E+02  0.51100000000E-03 0. -1.
         23    2    1    2    0    0  0.22204460493E-15  0.00000000000E+00  0.35527136788E-14  0.91188000000E+02  0.91188000000E+02 0.  0.
    9900012    2    3    3    0    0 -0.13539012355E+01  0.33099705852E+02 -0.16073467378E+02  0.54367082988E+02  0.39999997287E+02 0.  0.
         12    1    3    3    0    0  0.13539012355E+01 -0.33099705852E+02  0.16073467378E+02  0.36820917012E+02  0.00000000000E+00 0. -1.
         11    1    4    4    0    0  0.41593208521E+01  0.59389066623E+01  0.54419611858E+00  0.72709498672E+01  0.51100000000E-03 0. -1.
        -11    1    4    4    0    0 -0.40898285034E+01  0.25817236722E+02 -0.26381449937E+02  0.37138084363E+02  0.51100000000E-03 0.  1.
        -12    1    4    4    0    0 -0.14233935842E+01  0.13435624683E+01  0.97637864404E+01  0.99580487575E+01  0.00000000000E+00 0.  1.
</event>
<event>
 8    1  0.2527138E-006  0.9118800E+02  0.7816164E-02  0.1184000E+00
        -11   -1    0    0    0    0  0.00000000000E+00  0.00000000000E+00  0.45593999997E+02  0.45594000000E+02  0.51100000000E-03 0.  1.
         11   -1    0    0    0    0 -0.00000000000E+00 -0.00000000000E+00 -0.45593999997E+02  0.45594000000E+02  0.51100000000E-03 0. -1.
         23    2    1    2    0    0  0.00000000000E+00 -0.35527136788E-14  0.00000000000E+00  0.91188000000E+02  0.91188000000E+02 0.  0.
    9900012    2    3    3    0    0 -0.97018195224E+01  0.16490947315E+02 -0.31459748620E+02  0.54366913261E+02  0.39999610360E+02 0.  0.
        -12    1    3    3    0    0  0.97018195224E+01 -0.16490947315E+02  0.31459748620E+02  0.36821086739E+02  0.00000000000E+00 0.  1.
         11    1    4    4    0    0 -0.20274098178E+02 -0.64954853847E+00 -0.17306610439E+02  0.26664203258E+02  0.51100000000E-03 0. -1.
        -11    1    4    4    0    0 -0.14657305440E+01  0.85966896027E+01 -0.30772593935E+01  0.92477545268E+01  0.51100000000E-03 0.  1.
         12    1    4    4    0    0  0.12038009199E+02  0.85438062504E+01 -0.11075878788E+02  0.18454955477E+02  0.00000000000E+00 0. -1.
</event>
<event>
 8    1  0.2527138E-006  0.9118800E+02  0.7816164E-02  0.1184000E+00
        -11   -1    0    0    0    0  0.00000000000E+00  0.00000000000E+00  0.45593999997E+02  0.45594000000E+02  0.51100000000E-03 0.  1.
         11   -1    0    0    0    0 -0.00000000000E+00 -0.00000000000E+00 -0.45593999997E+02  0.45594000000E+02  0.51100000000E-03 0. -1.
         23    2    1    2    0    0  0.00000000000E+00 -0.71054273576E-14  0.17763568394E-14  0.91188000000E+02  0.91188000000E+02 0.  0.
    9900012    2    3    3    0    0  0.41211782352E+01  0.34363255081E+02 -0.12568335160E+02  0.54367075806E+02  0.39999980914E+02 0.  0.
        -12    1    3    3    0    0 -0.41211782352E+01 -0.34363255081E+02  0.12568335160E+02  0.36820924194E+02  0.00000000000E+00 0.  1.
         11    1    4    4    0    0  0.65781268059E+01  0.41174273660E+01 -0.12124015488E+02  0.14395023869E+02  0.51100000000E-03 0. -1.
        -11    1    4    4    0    0  0.75324790811E+01  0.14215984763E+02 -0.98581606957E+01  0.18868380865E+02  0.51100000000E-03 0.  1.
        -12    1    4    4    0    0 -0.99894276519E+01  0.16029842952E+02  0.94138410234E+01  0.21103671072E+02  0.00000000000E+00 0.  1.
</event>
<event>
 8    1  0.2527138E-006  0.9118800E+02  0.7816164E-02  0.1184000E+00
        -11   -1    0    0    0    0  0.00000000000E+00  0.00000000000E+00  0.45593999997E+02  0.45594000000E+02  0.51100000000E-03 0. -1.
         11   -1    0    0    0    0 -0.00000000000E+00 -0.00000000000E+00 -0.45593999997E+02  0.45594000000E+02  0.51100000000E-03 0.  1.
         23    2    1    2    0    0  0.35527136788E-14 -0.35527136788E-14  0.00000000000E+00  0.91188000000E+02  0.91188000000E+02 0.  0.
    9900012    2    3    3    0    0  0.16718687874E+02 -0.18856399147E+02 -0.26845880329E+02  0.54367087414E+02  0.40000007377E+02 0.  0.
         12    1    3    3    0    0 -0.16718687874E+02  0.18856399147E+02  0.26845880329E+02  0.36820912586E+02  0.00000000000E+00 0. -1.
         11    1    4    4    0    0  0.16801117020E+01  0.24162104030E+01  0.33509362550E+01  0.44597782556E+01  0.51100000000E-03 0. -1.
        -11    1    4    4    0    0 -0.47672137863E+01 -0.18961730462E+02 -0.17708849922E+02  0.26379479055E+02  0.51100000000E-03 0.  1.
        -12    1    4    4    0    0  0.19805789958E+02 -0.23108790885E+01 -0.12487966662E+02  0.23527830103E+02  0.00000000000E+00 0.  1.
</event>
<event>
 8    1  0.2527138E-006  0.9118800E+02  0.7816164E-02  0.1184000E+00
        -11   -1    0    0    0    0  0.00000000000E+00  0.00000000000E+00  0.45593999997E+02  0.45594000000E+02  0.51100000000E-03 0. -1.
         11   -1    0    0    0    0 -0.00000000000E+00 -0.00000000000E+00 -0.45593999997E+02  0.45594000000E+02  0.51100000000E-03 0.  1.
         23    2    1    2    0    0  0.17763568394E-14  0.00000000000E+00  0.00000000000E+00  0.91188000000E+02  0.91188000000E+02 0.  0.
    9900012    2    3    3    0    0 -0.14743388527E+02  0.26690055974E+02 -0.20641052588E+02  0.54367086852E+02  0.40000006096E+02 0.  0.
         12    1    3    3    0    0  0.14743388527E+02 -0.26690055974E+02  0.20641052588E+02  0.36820913148E+02  0.00000000000E+00 0. -1.
         11    1    4    4    0    0 -0.89486166577E+01  0.17357348483E+02 -0.84435138657E+00  0.19546565324E+02  0.51100000000E-03 0. -1.
        -11    1    4    4    0    0 -0.15299837485E+02  0.81213454107E+01 -0.18166202830E+02  0.25100840700E+02  0.51100000000E-03 0.  1.
         12    1    4    4    0    0  0.95050656158E+01  0.12113620801E+01 -0.16304983711E+01  0.97196808275E+01  0.00000000000E+00 0. -1.
</event>
<event>
 8    1  0.2527138E-006  0.9118800E+02  0.7816164E-02  0.1184000E+00
        -11   -1    0    0    0    0  0.00000000000E+00  0.00000000000E+00  0.45593999997E+02  0.45594000000E+02  0.51100000000E-03 0.  1.
         11   -1    0    0    0    0 -0.00000000000E+00 -0.00000000000E+00 -0.45593999997E+02  0.45594000000E+02  0.51100000000E-03 0. -1.
         23    2    1    2    0    0 -0.35527136788E-14  0.00000000000E+00  0.00000000000E+00  0.91188000000E+02  0.91188000000E+02 0.  0.
    9900012    2    3    3    0    0  0.25520580586E+02 -0.16192217242E+02 -0.21030715761E+02  0.54367096452E+02  0.40000027981E+02 0.  0.
        -12    1    3    3    0    0 -0.25520580586E+02  0.16192217242E+02  0.21030715761E+02  0.36820903548E+02  0.00000000000E+00 0.  1.
         11    1    4    4    0    0  0.13221230798E+02 -0.26971935030E+01 -0.24724337457E+01  0.13718189586E+02  0.51100000000E-03 0. -1.
        -11    1    4    4    0    0  0.22887055781E+02 -0.10160690855E+02 -0.12173470711E+02  0.27843317877E+02  0.51100000000E-03 0.  1.
        -12    1    4    4    0    0 -0.10587705993E+02 -0.33343328842E+01 -0.63848113042E+01  0.12805588990E+02  0.00000000000E+00 0.  1.
</event>
<event>
 8    1  0.2527138E-006  0.9118800E+02  0.7816164E-02  0.1184000E+00
        -11   -1    0    0    0    0  0.00000000000E+00  0.00000000000E+00  0.45593999997E+02  0.45594000000E+02  0.51100000000E-03 0. -1.
         11   -1    0    0    0    0 -0.00000000000E+00 -0.00000000000E+00 -0.45593999997E+02  0.45594000000E+02  0.51100000000E-03 0.  1.
         23    2    1    2    0    0 -0.71054273576E-14  0.26645352591E-14 -0.17763568394E-14  0.91188000000E+02  0.91188000000E+02 0.  0.
    9900012    2    3    3    0    0 -0.35657081581E+02  0.59093496232E+01  0.70309264092E+01  0.54367057508E+02  0.39999939201E+02 0.  0.
        -12    1    3    3    0    0  0.35657081581E+02 -0.59093496232E+01 -0.70309264092E+01  0.36820942492E+02  0.00000000000E+00 0.  1.
         11    1    4    4    0    0 -0.11544081912E+02  0.20243612877E+02  0.92406312619E+00  0.23322169334E+02  0.51100000000E-03 0. -1.
        -11    1    4    4    0    0 -0.10015140903E+02 -0.10688106831E+02 -0.13053923833E+01  0.14705193792E+02  0.51100000000E-03 0.  1.
        -12    1    4    4    0    0 -0.14097858765E+02 -0.36461564236E+01  0.74122556663E+01  0.16339694382E+02  0.00000000000E+00 0.  1.
</event>
<event>
 8    1  0.2527138E-006  0.9118800E+02  0.7816164E-02  0.1184000E+00
        -11   -1    0    0    0    0  0.00000000000E+00  0.00000000000E+00  0.45593999997E+02  0.45594000000E+02  0.51100000000E-03 0.  1.
         11   -1    0    0    0    0 -0.00000000000E+00 -0.00000000000E+00 -0.45593999997E+02  0.45594000000E+02  0.51100000000E-03 0. -1.
         23    2    1    2    0    0  0.44408920985E-15  0.00000000000E+00  0.00000000000E+00  0.91188000000E+02  0.91188000000E+02 0.  0.
    9900012    2    3    3    0    0  0.17881172882E+01 -0.32339215680E+02 -0.17514492514E+02  0.54367086347E+02  0.40000004945E+02 0.  0.
        -12    1    3    3    0    0 -0.17881172882E+01  0.32339215680E+02  0.17514492514E+02  0.36820913653E+02  0.00000000000E+00 0.  1.
         11    1    4    4    0    0  0.95616134243E-01 -0.28380956427E+02 -0.14795089553E+02  0.32005976087E+02  0.51100000000E-03 0. -1.
        -11    1    4    4    0    0  0.41439720617E+01  0.57246302164E+01  0.58703389196E+01  0.91872071302E+01  0.51100000000E-03 0.  1.
        -12    1    4    4    0    0 -0.24514709077E+01 -0.96828894696E+01 -0.85897418803E+01  0.13173903129E+02  0.00000000000E+00 0.  1.
</event>
<event>
 8    1  0.2527138E-006  0.9118800E+02  0.7816164E-02  0.1184000E+00
        -11   -1    0    0    0    0  0.00000000000E+00  0.00000000000E+00  0.45593999997E+02  0.45594000000E+02  0.51100000000E-03 0. -1.
         11   -1    0    0    0    0 -0.00000000000E+00 -0.00000000000E+00 -0.45593999997E+02  0.45594000000E+02  0.51100000000E-03 0.  1.
         23    2    1    2    0    0  0.35527136788E-14  0.00000000000E+00  0.00000000000E+00  0.91188000000E+02  0.91188000000E+02 0.  0.
    9900012    2    3    3    0    0 -0.17233524052E+02 -0.21203029517E+02  0.24682308293E+02  0.54367093511E+02  0.40000021277E+02 0.  0.
        -12    1    3    3    0    0  0.17233524052E+02  0.21203029517E+02 -0.24682308293E+02  0.36820906489E+02  0.00000000000E+00 0.  1.
         11    1    4    4    0    0  0.49483743357E+01 -0.17087586684E+02 -0.21408157541E+01  0.17918011039E+02  0.51100000000E-03 0. -1.
        -11    1    4    4    0    0 -0.39372707921E+01  0.67122310858E+00  0.11415080784E+02  0.12093664098E+02  0.51100000000E-03 0.  1.
         12    1    4    4    0    0 -0.18244627596E+02 -0.47866659418E+01  0.15408043263E+02  0.24355418374E+02  0.00000000000E+00 0. -1.
</event>
<event>
 8    1  0.2527138E-006  0.9118800E+02  0.7816164E-02  0.1184000E+00
        -11   -1    0    0    0    0  0.00000000000E+00  0.00000000000E+00  0.45593999997E+02  0.45594000000E+02  0.51100000000E-03 0. -1.
         11   -1    0    0    0    0 -0.00000000000E+00 -0.00000000000E+00 -0.45593999997E+02  0.45594000000E+02  0.51100000000E-03 0.  1.
         23    2    1    2    0    0 -0.35527136788E-14  0.00000000000E+00 -0.35527136788E-14  0.91188000000E+02  0.91188000000E+02 0.  0.
    9900012    2    3    3    0    0  0.20186212055E+02 -0.70894596061E+01  0.29967257498E+02  0.54367080449E+02  0.39999991499E+02 0.  0.
        -12    1    3    3    0    0 -0.20186212055E+02  0.70894596061E+01 -0.29967257498E+02  0.36820919551E+02  0.00000000000E+00 0.  1.
         11    1    4    4    0    0  0.97029276815E+01  0.99115527418E+01  0.24645766612E+02  0.28280726573E+02  0.51100000000E-03 0. -1.
        -11    1    4    4    0    0 -0.27159587656E+01  0.52184792312E+00  0.29128412367E+01  0.40166405867E+01  0.51100000000E-03 0.  1.
         12    1    4    4    0    0  0.13199243139E+02 -0.17522860271E+02  0.24086496494E+01  0.22069713289E+02  0.00000000000E+00 0. -1.
</event>
<event>
 8    1  0.2527138E-006  0.9118800E+02  0.7816164E-02  0.1184000E+00
        -11   -1    0    0    0    0  0.00000000000E+00  0.00000000000E+00  0.45593999997E+02  0.45594000000E+02  0.51100000000E-03 0. -1.
         11   -1    0    0    0    0 -0.00000000000E+00 -0.00000000000E+00 -0.45593999997E+02  0.45594000000E+02  0.51100000000E-03 0.  1.
         23    2    1    2    0    0  0.71054273576E-14  0.00000000000E+00  0.17763568394E-14  0.91188000000E+02  0.91188000000E+02 0.  0.
    9900012    2    3    3    0    0  0.35235078478E+02  0.63822489530E+01  0.85753778959E+01  0.54367068954E+02  0.39999965295E+02 0.  0.
        -12    1    3    3    0    0 -0.35235078478E+02 -0.63822489530E+01 -0.85753778959E+01  0.36820931046E+02  0.00000000000E+00 0.  1.
         11    1    4    4    0    0 -0.32997020455E+01  0.46545253338E+01  0.57204423461E+01  0.80793626338E+01  0.51100000000E-03 0.  1.
        -11    1    4    4    0    0  0.41346236775E+02  0.45704313659E+01  0.47403300226E+01  0.41867300693E+02  0.51100000000E-03 0. -1.
        -12    1    4    4    0    0 -0.28114562520E+01 -0.28427077466E+01 -0.18853944728E+01  0.44204056271E+01  0.00000000000E+00 0.  1.
</event>
<event>
 8    1  0.2527138E-006  0.9118800E+02  0.7816164E-02  0.1184000E+00
        -11   -1    0    0    0    0  0.00000000000E+00  0.00000000000E+00  0.45593999997E+02  0.45594000000E+02  0.51100000000E-03 0. -1.
         11   -1    0    0    0    0 -0.00000000000E+00 -0.00000000000E+00 -0.45593999997E+02  0.45594000000E+02  0.51100000000E-03 0.  1.
         23    2    1    2    0    0  0.17763568394E-14  0.00000000000E+00  0.17763568394E-14  0.91188000000E+02  0.91188000000E+02 0.  0.
    9900012    2    3    3    0    0  0.10399920184E+02 -0.32313300573E+02  0.14264540969E+02  0.54367015998E+02  0.39999844571E+02 0.  0.
        -12    1    3    3    0    0 -0.10399920184E+02  0.32313300573E+02 -0.14264540969E+02  0.36820984002E+02  0.00000000000E+00 0.  1.
         11    1    4    4    0    0  0.34993939455E+01 -0.15535827551E+02  0.15092131095E+02  0.21940376408E+02  0.51100000000E-03 0. -1.
        -11    1    4    4    0    0 -0.84959906475E+01 -0.16550917434E+01  0.50999233692E+01  0.10046412514E+02  0.51100000000E-03 0.  1.
         12    1    4    4    0    0  0.15396516886E+02 -0.15122381279E+02 -0.59275134948E+01  0.22380227076E+02  0.00000000000E+00 0. -1.
</event>
<event>
 8    1  0.2527138E-006  0.9118800E+02  0.7816164E-02  0.1184000E+00
        -11   -1    0    0    0    0  0.00000000000E+00  0.00000000000E+00  0.45593999997E+02  0.45594000000E+02  0.51100000000E-03 0. -1.
         11   -1    0    0    0    0 -0.00000000000E+00 -0.00000000000E+00 -0.45593999997E+02  0.45594000000E+02  0.51100000000E-03 0.  1.
         23    2    1    2    0    0 -0.35527136788E-14  0.00000000000E+00  0.00000000000E+00  0.91188000000E+02  0.91188000000E+02 0.  0.
    9900012    2    3    3    0    0  0.31577004919E+02  0.17172906638E+02  0.79852818762E+01  0.54367072680E+02  0.39999973789E+02 0.  0.
        -12    1    3    3    0    0 -0.31577004919E+02 -0.17172906638E+02 -0.79852818762E+01  0.36820927320E+02  0.00000000000E+00 0.  1.
         11    1    4    4    0    0  0.19322385817E+02  0.45829015530E+01  0.91245217865E+01  0.21854392657E+02  0.51100000000E-03 0. -1.
        -11    1    4    4    0    0 -0.33237886195E-01  0.10205583740E+02  0.11049502409E+02  0.15041494207E+02  0.51100000000E-03 0.  1.
        -12    1    4    4    0    0  0.12287856988E+02  0.23844213453E+01 -0.12188742319E+02  0.17471185816E+02  0.00000000000E+00 0.  1.
</event>
<event>
 8    1  0.2527138E-006  0.9118800E+02  0.7816164E-02  0.1184000E+00
        -11   -1    0    0    0    0  0.00000000000E+00  0.00000000000E+00  0.45593999997E+02  0.45594000000E+02  0.51100000000E-03 0. -1.
         11   -1    0    0    0    0 -0.00000000000E+00 -0.00000000000E+00 -0.45593999997E+02  0.45594000000E+02  0.51100000000E-03 0.  1.
         23    2    1    2    0    0  0.35527136788E-14  0.00000000000E+00  0.00000000000E+00  0.91188000000E+02  0.91188000000E+02 0.  0.
    9900012    2    3    3    0    0 -0.20986869506E+02  0.18542865365E+02 -0.23905914214E+02  0.54367091782E+02  0.40000017335E+02 0.  0.
         12    1    3    3    0    0  0.20986869506E+02 -0.18542865365E+02  0.23905914214E+02  0.36820908218E+02  0.00000000000E+00 0. -1.
         11    1    4    4    0    0 -0.44057193920E+01  0.23374299568E+02 -0.18554419055E+02  0.30166781572E+02  0.51100000000E-03 0.  1.
        -11    1    4    4    0    0 -0.55692663256E+01 -0.41894736086E+01 -0.10034192249E+02  0.12216932138E+02  0.51100000000E-03 0. -1.
         12    1    4    4    0    0 -0.11011883788E+02 -0.64196059485E+00  0.46826970898E+01  0.11983378072E+02  0.00000000000E+00 0. -1.
</event>
<event>
 8    1  0.2527138E-006  0.9118800E+02  0.7816164E-02  0.1184000E+00
        -11   -1    0    0    0    0  0.00000000000E+00  0.00000000000E+00  0.45593999997E+02  0.45594000000E+02  0.51100000000E-03 0.  1.
         11   -1    0    0    0    0 -0.00000000000E+00 -0.00000000000E+00 -0.45593999997E+02  0.45594000000E+02  0.51100000000E-03 0. -1.
         23    2    1    2    0    0  0.00000000000E+00  0.00000000000E+00  0.00000000000E+00  0.91188000000E+02  0.91188000000E+02 0.  0.
    9900012    2    3    3    0    0 -0.15590457167E+02  0.30630659805E+02 -0.13208615799E+02  0.54367255764E+02  0.40000391163E+02 0.  0.
        -12    1    3    3    0    0  0.15590457167E+02 -0.30630659805E+02  0.13208615799E+02  0.36820744236E+02  0.00000000000E+00 0.  1.
         11    1    4    4    0    0 -0.76919758220E+01  0.27496673400E+02 -0.24281681300E+02  0.37481109738E+02  0.51100000000E-03 0. -1.
        -11    1    4    4    0    0 -0.87495227035E+01  0.49679850182E+01  0.10934924238E+02  0.14859595924E+02  0.51100000000E-03 0.  1.
         12    1    4    4    0    0  0.85104135843E+00 -0.18339986134E+01  0.13814126350E+00  0.20265501022E+01  0.00000000000E+00 0. -1.
</event>
<event>
 8    1  0.2527138E-006  0.9118800E+02  0.7816164E-02  0.1184000E+00
        -11   -1    0    0    0    0  0.00000000000E+00  0.00000000000E+00  0.45593999997E+02  0.45594000000E+02  0.51100000000E-03 0.  1.
         11   -1    0    0    0    0 -0.00000000000E+00 -0.00000000000E+00 -0.45593999997E+02  0.45594000000E+02  0.51100000000E-03 0. -1.
         23    2    1    2    0    0  0.13322676296E-14  0.00000000000E+00  0.35527136788E-14  0.91188000000E+02  0.91188000000E+02 0.  0.
    9900012    2    3    3    0    0  0.30603100447E+01  0.27140509398E+02  0.24694225448E+02  0.54367115730E+02  0.40000071930E+02 0.  0.
         12    1    3    3    0    0 -0.30603100447E+01 -0.27140509398E+02 -0.24694225448E+02  0.36820884270E+02  0.00000000000E+00 0. -1.
         11    1    4    4    0    0  0.13279306845E+02  0.12551778565E+01 -0.36392288714E+01  0.13826042411E+02  0.51100000000E-03 0. -1.
        -11    1    4    4    0    0 -0.16107775772E+00  0.25797715976E+01  0.11701951045E+00  0.25874430171E+01  0.51100000000E-03 0.  1.
        -12    1    4    4    0    0 -0.10057919042E+02  0.23305559944E+02  0.28216434809E+02  0.37953630302E+02  0.00000000000E+00 0.  1.
</event>
<event>
 8    1  0.2527138E-006  0.9118800E+02  0.7816164E-02  0.1184000E+00
        -11   -1    0    0    0    0  0.00000000000E+00  0.00000000000E+00  0.45593999997E+02  0.45594000000E+02  0.51100000000E-03 0.  1.
         11   -1    0    0    0    0 -0.00000000000E+00 -0.00000000000E+00 -0.45593999997E+02  0.45594000000E+02  0.51100000000E-03 0. -1.
         23    2    1    2    0    0  0.00000000000E+00  0.00000000000E+00  0.00000000000E+00  0.91188000000E+02  0.91188000000E+02 0.  0.
    9900012    2    3    3    0    0 -0.12098794063E+01  0.16899200324E+02  0.32691426956E+02  0.54367133956E+02  0.40000113479E+02 0.  0.
         12    1    3    3    0    0  0.12098794063E+01 -0.16899200324E+02 -0.32691426956E+02  0.36820866044E+02  0.00000000000E+00 0. -1.
         11    1    4    4    0    0  0.10374269109E+02  0.13243075174E+02  0.65773078383E+00  0.16835590564E+02  0.51100000000E-03 0. -1.
        -11    1    4    4    0    0  0.20680088375E+01  0.25149055499E+01  0.69512880415E+00  0.33293565132E+01  0.51100000000E-03 0.  1.
         12    1    4    4    0    0 -0.13652157353E+02  0.11412196011E+01  0.31338567368E+02  0.34202186879E+02  0.00000000000E+00 0. -1.
</event>
<event>
 8    1  0.2527138E-006  0.9118800E+02  0.7816164E-02  0.1184000E+00
        -11   -1    0    0    0    0  0.00000000000E+00  0.00000000000E+00  0.45593999997E+02  0.45594000000E+02  0.51100000000E-03 0. -1.
         11   -1    0    0    0    0 -0.00000000000E+00 -0.00000000000E+00 -0.45593999997E+02  0.45594000000E+02  0.51100000000E-03 0.  1.
         23    2    1    2    0    0 -0.88817841970E-15  0.00000000000E+00  0.71054273576E-14  0.91188000000E+02  0.91188000000E+02 0.  0.
    9900012    2    3    3    0    0  0.41802422328E+01 -0.53760246799E+01 -0.36185668649E+02  0.54367099928E+02  0.40000035907E+02 0.  0.
         12    1    3    3    0    0 -0.41802422328E+01  0.53760246799E+01  0.36185668649E+02  0.36820900072E+02  0.00000000000E+00 0. -1.
         11    1    4    4    0    0  0.83215779629E+01  0.11774413203E+02 -0.98768130357E+01  0.17476753190E+02  0.51100000000E-03 0. -1.
        -11    1    4    4    0    0 -0.24081667067E+01 -0.12579834819E+00  0.24420825371E+01  0.34320343079E+01  0.51100000000E-03 0.  1.
        -12    1    4    4    0    0 -0.17331690234E+01 -0.17024639535E+02 -0.28750938151E+02  0.33458312430E+02  0.00000000000E+00 0.  1.
</event>
<event>
 8    1  0.2527138E-006  0.9118800E+02  0.7816164E-02  0.1184000E+00
        -11   -1    0    0    0    0  0.00000000000E+00  0.00000000000E+00  0.45593999997E+02  0.45594000000E+02  0.51100000000E-03 0. -1.
         11   -1    0    0    0    0 -0.00000000000E+00 -0.00000000000E+00 -0.45593999997E+02  0.45594000000E+02  0.51100000000E-03 0.  1.
         23    2    1    2    0    0  0.00000000000E+00 -0.35527136788E-14  0.00000000000E+00  0.91188000000E+02  0.91188000000E+02 0.  0.
    9900012    2    3    3    0    0  0.49461055870E+01  0.30489355297E+02 -0.20042837608E+02  0.54367080860E+02  0.39999992437E+02 0.  0.
         12    1    3    3    0    0 -0.49461055870E+01 -0.30489355297E+02  0.20042837608E+02  0.36820919140E+02  0.00000000000E+00 0. -1.
         11    1    4    4    0    0  0.14896681990E+01  0.11862818061E+02 -0.47655056445E+01  0.12870726786E+02  0.51100000000E-03 0. -1.
        -11    1    4    4    0    0  0.14938084862E+02  0.11562867336E+02 -0.19714878548E+02  0.27304261880E+02  0.51100000000E-03 0.  1.
         12    1    4    4    0    0 -0.11481647474E+02  0.70636698998E+01  0.44375465844E+01  0.14192092194E+02  0.00000000000E+00 0. -1.
</event>
<event>
 8    1  0.2527138E-006  0.9118800E+02  0.7816164E-02  0.1184000E+00
        -11   -1    0    0    0    0  0.00000000000E+00  0.00000000000E+00  0.45593999997E+02  0.45594000000E+02  0.51100000000E-03 0. -1.
         11   -1    0    0    0    0 -0.00000000000E+00 -0.00000000000E+00 -0.45593999997E+02  0.45594000000E+02  0.51100000000E-03 0.  1.
         23    2    1    2    0    0  0.00000000000E+00  0.00000000000E+00  0.00000000000E+00  0.91188000000E+02  0.91188000000E+02 0.  0.
    9900012    2    3    3    0    0 -0.16249258552E+02  0.15670368038E+02 -0.29089179790E+02  0.54367092640E+02  0.40000019292E+02 0.  0.
         12    1    3    3    0    0  0.16249258552E+02 -0.15670368038E+02  0.29089179790E+02  0.36820907360E+02  0.00000000000E+00 0. -1.
         11    1    4    4    0    0 -0.12068179509E+02  0.84208599638E+01 -0.93308251748E+01  0.17424584296E+02  0.51100000000E-03 0. -1.
        -11    1    4    4    0    0 -0.18052215430E+01  0.17092966220E+02 -0.31257802154E+01  0.17469940504E+02  0.51100000000E-03 0.  1.
        -12    1    4    4    0    0 -0.23758575002E+01 -0.98434581451E+01 -0.16632574399E+02  0.19472567840E+02  0.00000000000E+00 0.  1.
</event>
<event>
 8    1  0.2527138E-006  0.9118800E+02  0.7816164E-02  0.1184000E+00
        -11   -1    0    0    0    0  0.00000000000E+00  0.00000000000E+00  0.45593999997E+02  0.45594000000E+02  0.51100000000E-03 0. -1.
         11   -1    0    0    0    0 -0.00000000000E+00 -0.00000000000E+00 -0.45593999997E+02  0.45594000000E+02  0.51100000000E-03 0.  1.
         23    2    1    2    0    0 -0.17763568394E-14  0.00000000000E+00  0.35527136788E-14  0.91188000000E+02  0.91188000000E+02 0.  0.
    9900012    2    3    3    0    0  0.95726284219E+01 -0.21908308478E+02 -0.28002804976E+02  0.54367268315E+02  0.40000419776E+02 0.  0.
         12    1    3    3    0    0 -0.95726284219E+01  0.21908308478E+02  0.28002804976E+02  0.36820731685E+02  0.00000000000E+00 0. -1.
         11    1    4    4    0    0 -0.32845905833E+01 -0.87576368863E+01 -0.52361315527E+01  0.10719226326E+02  0.51100000000E-03 0. -1.
        -11    1    4    4    0    0  0.16206589072E+02 -0.14097527296E+02 -0.29249759274E+02  0.36289698581E+02  0.51100000000E-03 0.  1.
         12    1    4    4    0    0 -0.33493700671E+01  0.94685570401E+00  0.64830858505E+01  0.73583434084E+01  0.00000000000E+00 0. -1.
</event>
<event>
 8    1  0.2527138E-006  0.9118800E+02  0.7816164E-02  0.1184000E+00
        -11   -1    0    0    0    0  0.00000000000E+00  0.00000000000E+00  0.45593999997E+02  0.45594000000E+02  0.51100000000E-03 0.  1.
         11   -1    0    0    0    0 -0.00000000000E+00 -0.00000000000E+00 -0.45593999997E+02  0.45594000000E+02  0.51100000000E-03 0. -1.
         23    2    1    2    0    0  0.00000000000E+00  0.00000000000E+00  0.00000000000E+00  0.91188000000E+02  0.91188000000E+02 0.  0.
    9900012    2    3    3    0    0 -0.32180456290E+02  0.11621844662E+02 -0.13605929256E+02  0.54367213054E+02  0.40000293799E+02 0.  0.
        -12    1    3    3    0    0  0.32180456290E+02 -0.11621844662E+02  0.13605929256E+02  0.36820786946E+02  0.00000000000E+00 0.  1.
         11    1    4    4    0    0 -0.28276618718E+02  0.38184737870E+01 -0.17356208836E+02  0.33397393515E+02  0.51100000000E-03 0. -1.
        -11    1    4    4    0    0 -0.52740647386E+01  0.12977223802E+02 -0.67620723917E+00  0.14024312923E+02  0.51100000000E-03 0.  1.
        -12    1    4    4    0    0  0.13702271664E+01 -0.51738529272E+01  0.44264868184E+01  0.69455066160E+01  0.00000000000E+00 0.  1.
</event>
<event>
 8    1  0.2527138E-006  0.9118800E+02  0.7816164E-02  0.1184000E+00
        -11   -1    0    0    0    0  0.00000000000E+00  0.00000000000E+00  0.45593999997E+02  0.45594000000E+02  0.51100000000E-03 0.  1.
         11   -1    0    0    0    0 -0.00000000000E+00 -0.00000000000E+00 -0.45593999997E+02  0.45594000000E+02  0.51100000000E-03 0. -1.
         23    2    1    2    0    0  0.35527136788E-14  0.00000000000E+00  0.00000000000E+00  0.91188000000E+02  0.91188000000E+02 0.  0.
    9900012    2    3    3    0    0 -0.17184409052E+02  0.24408823163E+02  0.21556582957E+02  0.54367070742E+02  0.39999969369E+02 0.  0.
         12    1    3    3    0    0  0.17184409052E+02 -0.24408823163E+02 -0.21556582957E+02  0.36820929258E+02  0.00000000000E+00 0. -1.
         11    1    4    4    0    0 -0.63550265594E+01  0.21188607889E+01  0.13561069517E+01  0.68348343022E+01  0.51100000000E-03 0. -1.
        -11    1    4    4    0    0 -0.21502932098E+02  0.17188763833E+02  0.45317703787E+01  0.27899222820E+02  0.51100000000E-03 0.  1.
        -12    1    4    4    0    0  0.10673549606E+02  0.51011985415E+01  0.15668705627E+02  0.19633013619E+02  0.00000000000E+00 0.  1.
</event>
<event>
 8    1  0.2527138E-006  0.9118800E+02  0.7816164E-02  0.1184000E+00
        -11   -1    0    0    0    0  0.00000000000E+00  0.00000000000E+00  0.45593999997E+02  0.45594000000E+02  0.51100000000E-03 0.  1.
         11   -1    0    0    0    0 -0.00000000000E+00 -0.00000000000E+00 -0.45593999997E+02  0.45594000000E+02  0.51100000000E-03 0. -1.
         23    2    1    2    0    0 -0.17763568394E-14 -0.44408920985E-15 -0.14210854715E-13  0.91188000000E+02  0.91188000000E+02 0.  0.
    9900012    2    3    3    0    0 -0.14399488921E+02 -0.34686238696E+01  0.33710598035E+02  0.54367067738E+02  0.39999962523E+02 0.  0.
         12    1    3    3    0    0  0.14399488921E+02  0.34686238696E+01 -0.33710598035E+02  0.36820932262E+02  0.00000000000E+00 0. -1.
         11    1    4    4    0    0 -0.55323231092E+01 -0.97324400155E+01 -0.58595832708E+01  0.12635731242E+02  0.51100000000E-03 0. -1.
        -11    1    4    4    0    0 -0.16363390538E+01  0.11532867097E+01  0.11598791160E+01  0.23136541571E+01  0.51100000000E-03 0.  1.
        -12    1    4    4    0    0 -0.72308267584E+01  0.51105294362E+01  0.38410302190E+02  0.39417682340E+02  0.00000000000E+00 0.  1.
</event>
<event>
 8    1  0.2527138E-006  0.9118800E+02  0.7816164E-02  0.1184000E+00
        -11   -1    0    0    0    0  0.00000000000E+00  0.00000000000E+00  0.45593999997E+02  0.45594000000E+02  0.51100000000E-03 0.  1.
         11   -1    0    0    0    0 -0.00000000000E+00 -0.00000000000E+00 -0.45593999997E+02  0.45594000000E+02  0.51100000000E-03 0. -1.
         23    2    1    2    0    0  0.00000000000E+00  0.99920072216E-15  0.00000000000E+00  0.91188000000E+02  0.91188000000E+02 0.  0.
    9900012    2    3    3    0    0 -0.31327336664E+02  0.52591501714E+00  0.19341709644E+02  0.54367077402E+02  0.39999984552E+02 0.  0.
         12    1    3    3    0    0  0.31327336664E+02 -0.52591501714E+00 -0.19341709644E+02  0.36820922598E+02  0.00000000000E+00 0. -1.
         11    1    4    4    0    0  0.25701946676E+00 -0.90608294585E+01  0.76207798598E+01  0.11842338258E+02  0.51100000000E-03 0. -1.
        -11    1    4    4    0    0 -0.63943760327E+01 -0.60743627894E+01  0.92182626378E+01  0.12757832671E+02  0.51100000000E-03 0.  1.
         12    1    4    4    0    0 -0.25189980098E+02  0.15661107265E+02  0.25026671465E+01  0.29766906472E+02  0.00000000000E+00 0. -1.
</event>
<event>
 8    1  0.2527138E-006  0.9118800E+02  0.7816164E-02  0.1184000E+00
        -11   -1    0    0    0    0  0.00000000000E+00  0.00000000000E+00  0.45593999997E+02  0.45594000000E+02  0.51100000000E-03 0.  1.
         11   -1    0    0    0    0 -0.00000000000E+00 -0.00000000000E+00 -0.45593999997E+02  0.45594000000E+02  0.51100000000E-03 0. -1.
         23    2    1    2    0    0  0.71054273576E-14  0.35527136788E-14 -0.17763568394E-14  0.91188000000E+02  0.91188000000E+02 0.  0.
    9900012    2    3    3    0    0  0.32310186683E+02 -0.12798302087E+02 -0.12167737828E+02  0.54366830224E+02  0.39999421058E+02 0.  0.
        -12    1    3    3    0    0 -0.32310186683E+02  0.12798302087E+02  0.12167737828E+02  0.36821169776E+02  0.00000000000E+00 0.  1.
         11    1    4    4    0    0  0.56351110189E+00 -0.51438477595E+01 -0.91901822855E+01  0.10546855704E+02  0.51100000000E-03 0. -1.
        -11    1    4    4    0    0  0.42246392175E+01  0.96621120796E+01 -0.40229270603E+01  0.11286626101E+02  0.51100000000E-03 0.  1.
        -12    1    4    4    0    0  0.27522036364E+02 -0.17316566407E+02  0.10453715176E+01  0.32533348419E+02  0.00000000000E+00 0.  1.
</event>
<event>
 8    1  0.2527138E-006  0.9118800E+02  0.7816164E-02  0.1184000E+00
        -11   -1    0    0    0    0  0.00000000000E+00  0.00000000000E+00  0.45593999997E+02  0.45594000000E+02  0.51100000000E-03 0.  1.
         11   -1    0    0    0    0 -0.00000000000E+00 -0.00000000000E+00 -0.45593999997E+02  0.45594000000E+02  0.51100000000E-03 0. -1.
         23    2    1    2    0    0  0.17763568394E-14  0.35527136788E-14  0.00000000000E+00  0.91188000000E+02  0.91188000000E+02 0.  0.
    9900012    2    3    3    0    0  0.15243152900E+02  0.23670338593E+02 -0.23730590758E+02  0.54367087774E+02  0.40000008198E+02 0.  0.
         12    1    3    3    0    0 -0.15243152900E+02 -0.23670338593E+02  0.23730590758E+02  0.36820912226E+02  0.00000000000E+00 0. -1.
         11    1    4    4    0    0 -0.16615281705E+01 -0.74703940486E+01 -0.91977980974E+01  0.11965239371E+02  0.51100000000E-03 0. -1.
        -11    1    4    4    0    0  0.42405045769E+01  0.31632254536E-01  0.23083311212E+01  0.48281748614E+01  0.51100000000E-03 0.  1.
        -12    1    4    4    0    0  0.12664176494E+02  0.31109100387E+02 -0.16841123782E+02  0.37573673541E+02  0.00000000000E+00 0.  1.
</event>
<event>
 8    1  0.2527138E-006  0.9118800E+02  0.7816164E-02  0.1184000E+00
        -11   -1    0    0    0    0  0.00000000000E+00  0.00000000000E+00  0.45593999997E+02  0.45594000000E+02  0.51100000000E-03 0. -1.
         11   -1    0    0    0    0 -0.00000000000E+00 -0.00000000000E+00 -0.45593999997E+02  0.45594000000E+02  0.51100000000E-03 0.  1.
         23    2    1    2    0    0  0.00000000000E+00  0.00000000000E+00  0.00000000000E+00  0.91188000000E+02  0.91188000000E+02 0.  0.
    9900012    2    3    3    0    0  0.18820319535E+02  0.81618180975E+01  0.30577074375E+02  0.54367120334E+02  0.40000082426E+02 0.  0.
        -12    1    3    3    0    0 -0.18820319535E+02 -0.81618180975E+01 -0.30577074375E+02  0.36820879666E+02  0.00000000000E+00 0.  1.
         11    1    4    4    0    0 -0.50653458131E+01  0.11061583797E+01  0.38205877995E+01  0.64403575959E+01  0.51100000000E-03 0. -1.
        -11    1    4    4    0    0  0.89762176037E+00  0.13452630556E+02  0.21539691786E+01  0.13653518857E+02  0.51100000000E-03 0.  1.
         12    1    4    4    0    0  0.22988043587E+02 -0.63969708382E+01  0.24602517397E+02  0.34273243881E+02  0.00000000000E+00 0. -1.
</event>
<event>
 8    1  0.2527138E-006  0.9118800E+02  0.7816164E-02  0.1184000E+00
        -11   -1    0    0    0    0  0.00000000000E+00  0.00000000000E+00  0.45593999997E+02  0.45594000000E+02  0.51100000000E-03 0.  1.
         11   -1    0    0    0    0 -0.00000000000E+00 -0.00000000000E+00 -0.45593999997E+02  0.45594000000E+02  0.51100000000E-03 0. -1.
         23    2    1    2    0    0  0.00000000000E+00 -0.44408920985E-15  0.00000000000E+00  0.91188000000E+02  0.91188000000E+02 0.  0.
    9900012    2    3    3    0    0  0.29101669262E+02 -0.11293570826E+01 -0.22529815315E+02  0.54367147493E+02  0.40000144339E+02 0.  0.
        -12    1    3    3    0    0 -0.29101669262E+02  0.11293570826E+01  0.22529815315E+02  0.36820852507E+02  0.00000000000E+00 0.  1.
         11    1    4    4    0    0  0.16525792639E+02 -0.52144654295E+01 -0.32710269148E+02  0.37016944499E+02  0.51100000000E-03 0. -1.
        -11    1    4    4    0    0  0.59833358923E+01  0.81711338151E+00  0.72360202277E+01  0.94248592390E+01  0.51100000000E-03 0.  1.
         12    1    4    4    0    0  0.65925407305E+01  0.32679949654E+01  0.29444336051E+01  0.79253437548E+01  0.00000000000E+00 0. -1.
</event>
<event>
 8    1  0.2527138E-006  0.9118800E+02  0.7816164E-02  0.1184000E+00
        -11   -1    0    0    0    0  0.00000000000E+00  0.00000000000E+00  0.45593999997E+02  0.45594000000E+02  0.51100000000E-03 0.  1.
         11   -1    0    0    0    0 -0.00000000000E+00 -0.00000000000E+00 -0.45593999997E+02  0.45594000000E+02  0.51100000000E-03 0. -1.
         23    2    1    2    0    0  0.00000000000E+00  0.00000000000E+00  0.00000000000E+00  0.91188000000E+02  0.91188000000E+02 0.  0.
    9900012    2    3    3    0    0 -0.20080599797E+02  0.23710884013E+02 -0.19757111610E+02  0.54367082466E+02  0.39999996097E+02 0.  0.
        -12    1    3    3    0    0  0.20080599797E+02 -0.23710884013E+02  0.19757111610E+02  0.36820917534E+02  0.00000000000E+00 0.  1.
         11    1    4    4    0    0  0.52773696106E+01 -0.49211369565E+01 -0.24540977703E+01  0.76217330758E+01  0.51100000000E-03 0. -1.
        -11    1    4    4    0    0 -0.87906896870E+01  0.28873553527E+01  0.33222234789E+01  0.98310841320E+01  0.51100000000E-03 0.  1.
         12    1    4    4    0    0 -0.16567279721E+02  0.25744665617E+02 -0.20625237319E+02  0.36914265258E+02  0.00000000000E+00 0. -1.
</event>
<event>
 8    1  0.2527138E-006  0.9118800E+02  0.7816164E-02  0.1184000E+00
        -11   -1    0    0    0    0  0.00000000000E+00  0.00000000000E+00  0.45593999997E+02  0.45594000000E+02  0.51100000000E-03 0.  1.
         11   -1    0    0    0    0 -0.00000000000E+00 -0.00000000000E+00 -0.45593999997E+02  0.45594000000E+02  0.51100000000E-03 0. -1.
         23    2    1    2    0    0 -0.35527136788E-14 -0.35527136788E-14  0.88817841970E-15  0.91188000000E+02  0.91188000000E+02 0.  0.
    9900012    2    3    3    0    0 -0.21282019896E+02 -0.29767620741E+02  0.40919444575E+01  0.54367087126E+02  0.40000006721E+02 0.  0.
        -12    1    3    3    0    0  0.21282019896E+02  0.29767620741E+02 -0.40919444575E+01  0.36820912874E+02  0.00000000000E+00 0.  1.
         11    1    4    4    0    0  0.46474589922E+01 -0.28081001657E+01 -0.35162193843E+01  0.64690107933E+01  0.51100000000E-03 0. -1.
        -11    1    4    4    0    0 -0.44231551848E+00 -0.14298182269E+02 -0.69811072345E+01  0.15917585172E+02  0.51100000000E-03 0.  1.
         12    1    4    4    0    0 -0.25487163370E+02 -0.12661338306E+02  0.14589271076E+02  0.31980491161E+02  0.00000000000E+00 0. -1.
</event>
<event>
 8    1  0.2527138E-006  0.9118800E+02  0.7816164E-02  0.1184000E+00
        -11   -1    0    0    0    0  0.00000000000E+00  0.00000000000E+00  0.45593999997E+02  0.45594000000E+02  0.51100000000E-03 0. -1.
         11   -1    0    0    0    0 -0.00000000000E+00 -0.00000000000E+00 -0.45593999997E+02  0.45594000000E+02  0.51100000000E-03 0.  1.
         23    2    1    2    0    0  0.88817841970E-15  0.71054273576E-14  0.00000000000E+00  0.91188000000E+02  0.91188000000E+02 0.  0.
    9900012    2    3    3    0    0  0.65096698488E+01  0.25150470764E+02  0.26093231420E+02  0.54367099589E+02  0.40000035133E+02 0.  0.
        -12    1    3    3    0    0 -0.65096698488E+01 -0.25150470764E+02 -0.26093231420E+02  0.36820900411E+02  0.00000000000E+00 0.  1.
         11    1    4    4    0    0 -0.51467421598E+01  0.21256494938E+00  0.38862037000E+01  0.64526520266E+01  0.51100000000E-03 0. -1.
        -11    1    4    4    0    0  0.11792224086E+02 -0.45626732926E+01  0.93904143915E+01  0.15749743463E+02  0.51100000000E-03 0.  1.
         12    1    4    4    0    0 -0.13581207697E+00  0.29500579107E+02  0.12816613328E+02  0.32164704099E+02  0.00000000000E+00 0. -1.
</event>
<event>
 8    1  0.2527138E-006  0.9118800E+02  0.7816164E-02  0.1184000E+00
        -11   -1    0    0    0    0  0.00000000000E+00  0.00000000000E+00  0.45593999997E+02  0.45594000000E+02  0.51100000000E-03 0.  1.
         11   -1    0    0    0    0 -0.00000000000E+00 -0.00000000000E+00 -0.45593999997E+02  0.45594000000E+02  0.51100000000E-03 0. -1.
         23    2    1    2    0    0  0.88817841970E-15  0.00000000000E+00  0.00000000000E+00  0.91188000000E+02  0.91188000000E+02 0.  0.
    9900012    2    3    3    0    0  0.58199612087E+01 -0.33970231153E+02  0.12958879531E+02  0.54367066935E+02  0.39999960692E+02 0.  0.
         12    1    3    3    0    0 -0.58199612087E+01  0.33970231153E+02 -0.12958879531E+02  0.36820933065E+02  0.00000000000E+00 0. -1.
         11    1    4    4    0    0  0.84557755535E+01 -0.24042945412E+02  0.36968338226E+00  0.25489214001E+02  0.51100000000E-03 0. -1.
        -11    1    4    4    0    0  0.20366733645E+01 -0.14099917761E+02  0.16259225296E+02  0.21617542107E+02  0.51100000000E-03 0.  1.
         12    1    4    4    0    0 -0.46724877094E+01  0.41726320202E+01 -0.36700291471E+01  0.72603108275E+01  0.00000000000E+00 0. -1.
</event>
<event>
 8    1  0.2527138E-006  0.9118800E+02  0.7816164E-02  0.1184000E+00
        -11   -1    0    0    0    0  0.00000000000E+00  0.00000000000E+00  0.45593999997E+02  0.45594000000E+02  0.51100000000E-03 0. -1.
         11   -1    0    0    0    0 -0.00000000000E+00 -0.00000000000E+00 -0.45593999997E+02  0.45594000000E+02  0.51100000000E-03 0.  1.
         23    2    1    2    0    0 -0.55511151231E-15  0.17763568394E-14 -0.71054273576E-14  0.91188000000E+02  0.91188000000E+02 0.  0.
    9900012    2    3    3    0    0 -0.81038945965E+00 -0.13491368966E+02 -0.34250636518E+02  0.54367083804E+02  0.39999999148E+02 0.  0.
         12    1    3    3    0    0  0.81038945965E+00  0.13491368966E+02  0.34250636518E+02  0.36820916196E+02  0.00000000000E+00 0. -1.
         11    1    4    4    0    0  0.23528530065E+01  0.56904613388E+01  0.58963132034E+00  0.61858655719E+01  0.51100000000E-03 0. -1.
        -11    1    4    4    0    0  0.94222385668E+01 -0.15528703819E+00 -0.51496909793E+01  0.10738808645E+02  0.51100000000E-03 0.  1.
         12    1    4    4    0    0 -0.12585481033E+02 -0.19026543266E+02 -0.29690576859E+02  0.37442409587E+02  0.00000000000E+00 0. -1.
</event>
<event>
 8    1  0.2527138E-006  0.9118800E+02  0.7816164E-02  0.1184000E+00
        -11   -1    0    0    0    0  0.00000000000E+00  0.00000000000E+00  0.45593999997E+02  0.45594000000E+02  0.51100000000E-03 0. -1.
         11   -1    0    0    0    0 -0.00000000000E+00 -0.00000000000E+00 -0.45593999997E+02  0.45594000000E+02  0.51100000000E-03 0.  1.
         23    2    1    2    0    0 -0.35527136788E-14 -0.44408920985E-15  0.00000000000E+00  0.91188000000E+02  0.91188000000E+02 0.  0.
    9900012    2    3    3    0    0  0.21008165535E+02  0.18936698758E+01 -0.30180291888E+02  0.54367095296E+02  0.40000025347E+02 0.  0.
         12    1    3    3    0    0 -0.21008165535E+02 -0.18936698758E+01  0.30180291888E+02  0.36820904704E+02  0.00000000000E+00 0. -1.
         11    1    4    4    0    0 -0.89519033588E+01 -0.11228087712E+01 -0.58980726669E+01  0.10778893020E+02  0.51100000000E-03 0. -1.
        -11    1    4    4    0    0  0.99370958743E+01 -0.63340859123E+01 -0.16254150706E+02  0.20076452232E+02  0.51100000000E-03 0.  1.
        -12    1    4    4    0    0  0.20022973019E+02  0.93505645592E+01 -0.80280685148E+01  0.23511750045E+02  0.00000000000E+00 0.  1.
</event>
<event>
 8    1  0.2527138E-006  0.9118800E+02  0.7816164E-02  0.1184000E+00
        -11   -1    0    0    0    0  0.00000000000E+00  0.00000000000E+00  0.45593999997E+02  0.45594000000E+02  0.51100000000E-03 0.  1.
         11   -1    0    0    0    0 -0.00000000000E+00 -0.00000000000E+00 -0.45593999997E+02  0.45594000000E+02  0.51100000000E-03 0. -1.
         23    2    1    2    0    0  0.88817841970E-15 -0.35527136788E-14 -0.71054273576E-14  0.91188000000E+02  0.91188000000E+02 0.  0.
    9900012    2    3    3    0    0 -0.38423813408E+01  0.24214832745E+02 -0.27471009592E+02  0.54367103932E+02  0.40000045034E+02 0.  0.
        -12    1    3    3    0    0  0.38423813408E+01 -0.24214832745E+02  0.27471009592E+02  0.36820896068E+02  0.00000000000E+00 0.  1.
         11    1    4    4    0    0 -0.90188529568E+01 -0.39451783951E+01 -0.38896413201E+01  0.10584585542E+02  0.51100000000E-03 0. -1.
        -11    1    4    4    0    0  0.70319763264E+01  0.14067467335E+02  0.59370565105E+00  0.15738323130E+02  0.51100000000E-03 0.  1.
         12    1    4    4    0    0 -0.18555047104E+01  0.14092543805E+02 -0.24175073923E+02  0.28044195261E+02  0.00000000000E+00 0. -1.
</event>
<event>
 8    1  0.2527138E-006  0.9118800E+02  0.7816164E-02  0.1184000E+00
        -11   -1    0    0    0    0  0.00000000000E+00  0.00000000000E+00  0.45593999997E+02  0.45594000000E+02  0.51100000000E-03 0.  1.
         11   -1    0    0    0    0 -0.00000000000E+00 -0.00000000000E+00 -0.45593999997E+02  0.45594000000E+02  0.51100000000E-03 0. -1.
         23    2    1    2    0    0  0.11102230246E-15  0.17763568394E-14  0.00000000000E+00  0.91188000000E+02  0.91188000000E+02 0.  0.
    9900012    2    3    3    0    0 -0.65306469160E+00 -0.84470347461E+01  0.35833006452E+02  0.54367038023E+02  0.39999894781E+02 0.  0.
         12    1    3    3    0    0  0.65306469160E+00  0.84470347461E+01 -0.35833006452E+02  0.36820961977E+02  0.00000000000E+00 0. -1.
         11    1    4    4    0    0  0.45806642619E+01  0.76545690272E+01 -0.23819745128E+01  0.92330230647E+01  0.51100000000E-03 0. -1.
        -11    1    4    4    0    0 -0.31131163337E+01 -0.10694045323E+01  0.24358917126E+02  0.24580316580E+02  0.51100000000E-03 0.  1.
        -12    1    4    4    0    0 -0.21206126199E+01 -0.15032199241E+02  0.13856063839E+02  0.20553698378E+02  0.00000000000E+00 0.  1.
</event>
<event>
 8    1  0.2527138E-006  0.9118800E+02  0.7816164E-02  0.1184000E+00
        -11   -1    0    0    0    0  0.00000000000E+00  0.00000000000E+00  0.45593999997E+02  0.45594000000E+02  0.51100000000E-03 0.  1.
         11   -1    0    0    0    0 -0.00000000000E+00 -0.00000000000E+00 -0.45593999997E+02  0.45594000000E+02  0.51100000000E-03 0. -1.
         23    2    1    2    0    0  0.00000000000E+00  0.44408920985E-15  0.00000000000E+00  0.91188000000E+02  0.91188000000E+02 0.  0.
    9900012    2    3    3    0    0 -0.32076778563E+02  0.25480924923E+01 -0.17898813770E+02  0.54367081588E+02  0.39999994095E+02 0.  0.
        -12    1    3    3    0    0  0.32076778563E+02 -0.25480924923E+01  0.17898813770E+02  0.36820918412E+02  0.00000000000E+00 0.  1.
         11    1    4    4    0    0 -0.21492137575E+02  0.58443850480E+00 -0.40607916113E+01  0.21880209658E+02  0.51100000000E-03 0. -1.
        -11    1    4    4    0    0  0.75200665177E+01  0.68542730420E+01 -0.21830746030E+01  0.10406645682E+02  0.51100000000E-03 0.  1.
         12    1    4    4    0    0 -0.18104707506E+02 -0.48906190545E+01 -0.11654947556E+02  0.22080226248E+02  0.00000000000E+00 0. -1.
</event>
<event>
 8    1  0.2527138E-006  0.9118800E+02  0.7816164E-02  0.1184000E+00
        -11   -1    0    0    0    0  0.00000000000E+00  0.00000000000E+00  0.45593999997E+02  0.45594000000E+02  0.51100000000E-03 0.  1.
         11   -1    0    0    0    0 -0.00000000000E+00 -0.00000000000E+00 -0.45593999997E+02  0.45594000000E+02  0.51100000000E-03 0. -1.
         23    2    1    2    0    0  0.00000000000E+00  0.00000000000E+00  0.00000000000E+00  0.91188000000E+02  0.91188000000E+02 0.  0.
    9900012    2    3    3    0    0 -0.26657430931E+02 -0.24983802981E+02  0.45795794145E+01  0.54367060539E+02  0.39999946110E+02 0.  0.
        -12    1    3    3    0    0  0.26657430931E+02  0.24983802981E+02 -0.45795794145E+01  0.36820939461E+02  0.00000000000E+00 0.  1.
         11    1    4    4    0    0 -0.25302778381E+00 -0.92315163080E+01  0.12040211092E+02  0.15174043621E+02  0.51100000000E-03 0. -1.
        -11    1    4    4    0    0 -0.24374950647E+02 -0.19547875319E+02 -0.11496187879E+02  0.33292941963E+02  0.51100000000E-03 0.  1.
        -12    1    4    4    0    0 -0.20294524999E+01  0.37955886461E+01  0.40355562013E+01  0.59000749549E+01  0.00000000000E+00 0.  1.
</event>
<event>
 8    1  0.2527138E-006  0.9118800E+02  0.7816164E-02  0.1184000E+00
        -11   -1    0    0    0    0  0.00000000000E+00  0.00000000000E+00  0.45593999997E+02  0.45594000000E+02  0.51100000000E-03 0. -1.
         11   -1    0    0    0    0 -0.00000000000E+00 -0.00000000000E+00 -0.45593999997E+02  0.45594000000E+02  0.51100000000E-03 0.  1.
         23    2    1    2    0    0 -0.44408920985E-15  0.71054273576E-14  0.00000000000E+00  0.91188000000E+02  0.91188000000E+02 0.  0.
    9900012    2    3    3    0    0 -0.27304605316E+01  0.36516336874E+02  0.38576699256E+01  0.54367083517E+02  0.39999998493E+02 0.  0.
        -12    1    3    3    0    0  0.27304605316E+01 -0.36516336874E+02 -0.38576699256E+01  0.36820916483E+02  0.00000000000E+00 0.  1.
         11    1    4    4    0    0 -0.82522626886E+01  0.19557613506E+02  0.10588033712E+02  0.23721436375E+02  0.51100000000E-03 0. -1.
        -11    1    4    4    0    0 -0.77338649679E+01  0.63933983250E+00  0.17835649232E+01  0.79625703676E+01  0.51100000000E-03 0.  1.
        -12    1    4    4    0    0  0.13255667125E+02  0.16319383535E+02 -0.85139287093E+01  0.22683076775E+02  0.00000000000E+00 0.  1.
</event>
<event>
 8    1  0.2527138E-006  0.9118800E+02  0.7816164E-02  0.1184000E+00
        -11   -1    0    0    0    0  0.00000000000E+00  0.00000000000E+00  0.45593999997E+02  0.45594000000E+02  0.51100000000E-03 0. -1.
         11   -1    0    0    0    0 -0.00000000000E+00 -0.00000000000E+00 -0.45593999997E+02  0.45594000000E+02  0.51100000000E-03 0.  1.
         23    2    1    2    0    0  0.00000000000E+00  0.00000000000E+00  0.88817841970E-15  0.91188000000E+02  0.91188000000E+02 0.  0.
    9900012    2    3    3    0    0  0.26129171241E+02 -0.25878565707E+02 -0.18292656945E+01  0.54367082497E+02  0.39999996168E+02 0.  0.
         12    1    3    3    0    0 -0.26129171241E+02  0.25878565707E+02  0.18292656945E+01  0.36820917503E+02  0.00000000000E+00 0. -1.
         11    1    4    4    0    0  0.30987418102E+01  0.15587360581E+01  0.79830961051E+01  0.87041187142E+01  0.51100000000E-03 0. -1.
        -11    1    4    4    0    0  0.13655260279E+02 -0.15197664453E+02  0.81451366665E+01  0.21994962825E+02  0.51100000000E-03 0.  1.
         12    1    4    4    0    0  0.93751691513E+01 -0.12239637312E+02 -0.17957498466E+02  0.23668000957E+02  0.00000000000E+00 0. -1.
</event>
<event>
 8    1  0.2527138E-006  0.9118800E+02  0.7816164E-02  0.1184000E+00
        -11   -1    0    0    0    0  0.00000000000E+00  0.00000000000E+00  0.45593999997E+02  0.45594000000E+02  0.51100000000E-03 0.  1.
         11   -1    0    0    0    0 -0.00000000000E+00 -0.00000000000E+00 -0.45593999997E+02  0.45594000000E+02  0.51100000000E-03 0. -1.
         23    2    1    2    0    0 -0.26645352591E-14 -0.35527136788E-14  0.00000000000E+00  0.91188000000E+02  0.91188000000E+02 0.  0.
    9900012    2    3    3    0    0  0.56280287511E+01  0.31388997824E+02 -0.18407779106E+02  0.54366943204E+02  0.39999678620E+02 0.  0.
        -12    1    3    3    0    0 -0.56280287511E+01 -0.31388997824E+02  0.18407779106E+02  0.36821056796E+02  0.00000000000E+00 0.  1.
         11    1    4    4    0    0  0.16305229876E+02  0.13887640345E+02 -0.19650818950E+02  0.29066849869E+02  0.51100000000E-03 0.  1.
        -11    1    4    4    0    0 -0.14430945662E+01  0.15787330324E+02  0.13192576885E+01  0.15907946499E+02  0.51100000000E-03 0. -1.
         12    1    4    4    0    0 -0.92341065588E+01  0.17140271542E+01 -0.76217844659E-01  0.93921468358E+01  0.00000000000E+00 0. -1.
</event>
<event>
 8    1  0.2527138E-006  0.9118800E+02  0.7816164E-02  0.1184000E+00
        -11   -1    0    0    0    0  0.00000000000E+00  0.00000000000E+00  0.45593999997E+02  0.45594000000E+02  0.51100000000E-03 0. -1.
         11   -1    0    0    0    0 -0.00000000000E+00 -0.00000000000E+00 -0.45593999997E+02  0.45594000000E+02  0.51100000000E-03 0.  1.
         23    2    1    2    0    0  0.00000000000E+00  0.00000000000E+00  0.35527136788E-14  0.91188000000E+02  0.91188000000E+02 0.  0.
    9900012    2    3    3    0    0  0.89755930904E+01 -0.25307072422E+02  0.25194650084E+02  0.54367087753E+02  0.40000008150E+02 0.  0.
        -12    1    3    3    0    0 -0.89755930904E+01  0.25307072422E+02 -0.25194650084E+02  0.36820912247E+02  0.00000000000E+00 0.  1.
         11    1    4    4    0    0  0.51651996983E+01  0.18897520312E+01  0.23372419591E+02  0.24010840228E+02  0.51100000000E-03 0. -1.
        -11    1    4    4    0    0  0.59884049783E+01 -0.17128981759E+02  0.61835352939E+01  0.19170266542E+02  0.51100000000E-03 0.  1.
         12    1    4    4    0    0 -0.21780115862E+01 -0.10067842694E+02 -0.43613048014E+01  0.11185980983E+02  0.00000000000E+00 0. -1.
</event>
<event>
 8    1  0.2527138E-006  0.9118800E+02  0.7816164E-02  0.1184000E+00
        -11   -1    0    0    0    0  0.00000000000E+00  0.00000000000E+00  0.45593999997E+02  0.45594000000E+02  0.51100000000E-03 0. -1.
         11   -1    0    0    0    0 -0.00000000000E+00 -0.00000000000E+00 -0.45593999997E+02  0.45594000000E+02  0.51100000000E-03 0.  1.
         23    2    1    2    0    0  0.00000000000E+00  0.00000000000E+00 -0.17763568394E-14  0.91188000000E+02  0.91188000000E+02 0.  0.
    9900012    2    3    3    0    0 -0.25369314618E+02  0.22900698014E+02 -0.13701709238E+02  0.54367069407E+02  0.39999966328E+02 0.  0.
         12    1    3    3    0    0  0.25369314618E+02 -0.22900698014E+02  0.13701709238E+02  0.36820930593E+02  0.00000000000E+00 0. -1.
         11    1    4    4    0    0 -0.18114766239E+02  0.20034219783E+02  0.76776640363E+01  0.28079552054E+02  0.51100000000E-03 0. -1.
        -11    1    4    4    0    0 -0.10080353349E+02 -0.47664553890E-01 -0.99720141580E+01  0.14179452112E+02  0.51100000000E-03 0.  1.
         12    1    4    4    0    0  0.28258049709E+01  0.29141427841E+01 -0.11407359116E+02  0.12108065242E+02  0.00000000000E+00 0. -1.
</event>
<event>
 8    1  0.2527138E-006  0.9118800E+02  0.7816164E-02  0.1184000E+00
        -11   -1    0    0    0    0  0.00000000000E+00  0.00000000000E+00  0.45593999997E+02  0.45594000000E+02  0.51100000000E-03 0. -1.
         11   -1    0    0    0    0 -0.00000000000E+00 -0.00000000000E+00 -0.45593999997E+02  0.45594000000E+02  0.51100000000E-03 0.  1.
         23    2    1    2    0    0  0.00000000000E+00  0.35527136788E-14  0.71054273576E-14  0.91188000000E+02  0.91188000000E+02 0.  0.
    9900012    2    3    3    0    0  0.17481378347E+02  0.17214620829E+02  0.27456113287E+02  0.54367083173E+02  0.39999997710E+02 0.  0.
        -12    1    3    3    0    0 -0.17481378347E+02 -0.17214620829E+02 -0.27456113287E+02  0.36820916827E+02  0.00000000000E+00 0.  1.
         11    1    4    4    0    0  0.36630774822E+01  0.11256513778E+01 -0.31756010354E+01  0.49769136884E+01  0.51100000000E-03 0. -1.
        -11    1    4    4    0    0  0.81382700322E+01  0.21897518158E+02  0.69790151812E+01  0.24381127820E+02  0.51100000000E-03 0.  1.
         12    1    4    4    0    0  0.56800308324E+01 -0.58085487075E+01  0.23652699141E+02  0.25009041665E+02  0.00000000000E+00 0. -1.
</event>
<event>
 8    1  0.2527138E-006  0.9118800E+02  0.7816164E-02  0.1184000E+00
        -11   -1    0    0    0    0  0.00000000000E+00  0.00000000000E+00  0.45593999997E+02  0.45594000000E+02  0.51100000000E-03 0. -1.
         11   -1    0    0    0    0 -0.00000000000E+00 -0.00000000000E+00 -0.45593999997E+02  0.45594000000E+02  0.51100000000E-03 0.  1.
         23    2    1    2    0    0  0.88817841970E-15  0.88817841970E-15  0.00000000000E+00  0.91188000000E+02  0.91188000000E+02 0.  0.
    9900012    2    3    3    0    0  0.65516735366E+01  0.50135965695E+01 -0.35884799307E+02  0.54367090207E+02  0.40000013745E+02 0.  0.
         12    1    3    3    0    0 -0.65516735366E+01 -0.50135965695E+01  0.35884799307E+02  0.36820909793E+02  0.00000000000E+00 0. -1.
         11    1    4    4    0    0  0.17456248195E+02  0.10958564832E+02 -0.53800741008E+01  0.21301547874E+02  0.51100000000E-03 0. -1.
        -11    1    4    4    0    0 -0.44129714087E+01 -0.84792421225E+00 -0.10083630592E+02  0.11039605894E+02  0.51100000000E-03 0.  1.
         12    1    4    4    0    0 -0.64916032498E+01 -0.50970440502E+01 -0.20421094614E+02  0.22025936439E+02  0.00000000000E+00 0. -1.
</event>
<event>
 8    1  0.2527138E-006  0.9118800E+02  0.7816164E-02  0.1184000E+00
        -11   -1    0    0    0    0  0.00000000000E+00  0.00000000000E+00  0.45593999997E+02  0.45594000000E+02  0.51100000000E-03 0.  1.
         11   -1    0    0    0    0 -0.00000000000E+00 -0.00000000000E+00 -0.45593999997E+02  0.45594000000E+02  0.51100000000E-03 0. -1.
         23    2    1    2    0    0  0.13322676296E-14  0.35527136788E-14  0.71054273576E-14  0.91188000000E+02  0.91188000000E+02 0.  0.
    9900012    2    3    3    0    0  0.68834260021E+00  0.24395273125E+02  0.27571294292E+02  0.54367089700E+02  0.40000012589E+02 0.  0.
         12    1    3    3    0    0 -0.68834260021E+00 -0.24395273125E+02 -0.27571294292E+02  0.36820910300E+02  0.00000000000E+00 0. -1.
         11    1    4    4    0    0 -0.12684726304E+02  0.39063030572E+01 -0.27226381092E+01  0.13548957285E+02  0.51100000000E-03 0. -1.
        -11    1    4    4    0    0 -0.11582527756E+01  0.78611721584E+01  0.69210689738E+01  0.10537588585E+02  0.51100000000E-03 0.  1.
         12    1    4    4    0    0  0.14531321680E+02  0.12627797909E+02  0.23372863428E+02  0.30280543829E+02  0.00000000000E+00 0. -1.
</event>
<event>
 8    1  0.2527138E-006  0.9118800E+02  0.7816164E-02  0.1184000E+00
        -11   -1    0    0    0    0  0.00000000000E+00  0.00000000000E+00  0.45593999997E+02  0.45594000000E+02  0.51100000000E-03 0.  1.
         11   -1    0    0    0    0 -0.00000000000E+00 -0.00000000000E+00 -0.45593999997E+02  0.45594000000E+02  0.51100000000E-03 0. -1.
         23    2    1    2    0    0  0.00000000000E+00 -0.35527136788E-14  0.00000000000E+00  0.91188000000E+02  0.91188000000E+02 0.  0.
    9900012    2    3    3    0    0 -0.17721649089E+02  0.12052486746E+02 -0.29940962683E+02  0.54367074841E+02  0.39999978714E+02 0.  0.
        -12    1    3    3    0    0  0.17721649089E+02 -0.12052486746E+02  0.29940962683E+02  0.36820925159E+02  0.00000000000E+00 0.  1.
         11    1    4    4    0    0 -0.66771638694E+01  0.18475703862E+02 -0.22612180899E+02  0.29954079452E+02  0.51100000000E-03 0. -1.
        -11    1    4    4    0    0 -0.14531663758E+02  0.10930980935E+01 -0.23914122444E+01  0.14767632438E+02  0.51100000000E-03 0.  1.
        -12    1    4    4    0    0  0.34871785385E+01 -0.75163152094E+01 -0.49373695393E+01  0.96453629509E+01  0.00000000000E+00 0.  1.
</event>
<event>
 8    1  0.2527138E-006  0.9118800E+02  0.7816164E-02  0.1184000E+00
        -11   -1    0    0    0    0  0.00000000000E+00  0.00000000000E+00  0.45593999997E+02  0.45594000000E+02  0.51100000000E-03 0. -1.
         11   -1    0    0    0    0 -0.00000000000E+00 -0.00000000000E+00 -0.45593999997E+02  0.45594000000E+02  0.51100000000E-03 0.  1.
         23    2    1    2    0    0  0.00000000000E+00  0.71054273576E-14  0.00000000000E+00  0.91188000000E+02  0.91188000000E+02 0.  0.
    9900012    2    3    3    0    0  0.18477322945E+02  0.30049998671E+02 -0.10553005196E+02  0.54367084720E+02  0.40000001237E+02 0.  0.
         12    1    3    3    0    0 -0.18477322945E+02 -0.30049998671E+02  0.10553005196E+02  0.36820915280E+02  0.00000000000E+00 0. -1.
         11    1    4    4    0    0  0.19660054290E+01  0.15845541666E+01  0.80761710015E+01  0.84617094940E+01  0.51100000000E-03 0. -1.
        -11    1    4    4    0    0  0.13867415769E+02  0.18839108144E+02  0.14958392009E+01  0.23440451168E+02  0.51100000000E-03 0.  1.
        -12    1    4    4    0    0  0.26439017472E+01  0.96263363607E+01 -0.20125015398E+02  0.22464924059E+02  0.00000000000E+00 0.  1.
</event>
<event>
 8    1  0.2527138E-006  0.9118800E+02  0.7816164E-02  0.1184000E+00
        -11   -1    0    0    0    0  0.00000000000E+00  0.00000000000E+00  0.45593999997E+02  0.45594000000E+02  0.51100000000E-03 0. -1.
         11   -1    0    0    0    0 -0.00000000000E+00 -0.00000000000E+00 -0.45593999997E+02  0.45594000000E+02  0.51100000000E-03 0.  1.
         23    2    1    2    0    0  0.00000000000E+00  0.00000000000E+00  0.00000000000E+00  0.91188000000E+02  0.91188000000E+02 0.  0.
    9900012    2    3    3    0    0  0.17524444953E+02 -0.19167357592E+02 -0.26101450760E+02  0.54367088825E+02  0.40000010595E+02 0.  0.
         12    1    3    3    0    0 -0.17524444953E+02  0.19167357592E+02  0.26101450760E+02  0.36820911175E+02  0.00000000000E+00 0. -1.
         11    1    4    4    0    0 -0.63460207515E+01 -0.19456743044E+01 -0.10988473997E+02  0.12837608380E+02  0.51100000000E-03 0. -1.
        -11    1    4    4    0    0 -0.53234523135E+01 -0.15352222465E+01 -0.22134285077E+01  0.59661811823E+01  0.51100000000E-03 0.  1.
        -12    1    4    4    0    0  0.29193918018E+02 -0.15686461041E+02 -0.12899548255E+02  0.35563299263E+02  0.00000000000E+00 0.  1.
</event>
<event>
 8    1  0.2527138E-006  0.9118800E+02  0.7816164E-02  0.1184000E+00
        -11   -1    0    0    0    0  0.00000000000E+00  0.00000000000E+00  0.45593999997E+02  0.45594000000E+02  0.51100000000E-03 0. -1.
         11   -1    0    0    0    0 -0.00000000000E+00 -0.00000000000E+00 -0.45593999997E+02  0.45594000000E+02  0.51100000000E-03 0.  1.
         23    2    1    2    0    0 -0.17763568394E-14  0.17763568394E-14  0.00000000000E+00  0.91188000000E+02  0.91188000000E+02 0.  0.
    9900012    2    3    3    0    0  0.52660170603E+01  0.11161775951E+02  0.34690928340E+02  0.54367127018E+02  0.40000097663E+02 0.  0.
        -12    1    3    3    0    0 -0.52660170603E+01 -0.11161775951E+02 -0.34690928340E+02  0.36820872982E+02  0.00000000000E+00 0.  1.
         11    1    4    4    0    0 -0.10244419759E+02  0.83845477842E+01  0.96868819297E+01  0.16403794059E+02  0.51100000000E-03 0. -1.
        -11    1    4    4    0    0 -0.39232811681E+01 -0.49492188340E+01  0.11345471131E+02  0.12984861094E+02  0.51100000000E-03 0.  1.
        -12    1    4    4    0    0  0.19433717987E+02  0.77264470006E+01  0.13658575279E+02  0.24978471865E+02  0.00000000000E+00 0.  1.
</event>
<event>
 8    1  0.2527138E-006  0.9118800E+02  0.7816164E-02  0.1184000E+00
        -11   -1    0    0    0    0  0.00000000000E+00  0.00000000000E+00  0.45593999997E+02  0.45594000000E+02  0.51100000000E-03 0.  1.
         11   -1    0    0    0    0 -0.00000000000E+00 -0.00000000000E+00 -0.45593999997E+02  0.45594000000E+02  0.51100000000E-03 0. -1.
         23    2    1    2    0    0  0.17763568394E-14  0.71054273576E-14  0.17763568394E-14  0.91188000000E+02  0.91188000000E+02 0.  0.
    9900012    2    3    3    0    0  0.81299016085E+01  0.34447234447E+02  0.10152393494E+02  0.54367104371E+02  0.40000046035E+02 0.  0.
         12    1    3    3    0    0 -0.81299016085E+01 -0.34447234447E+02 -0.10152393494E+02  0.36820895629E+02  0.00000000000E+00 0. -1.
         11    1    4    4    0    0 -0.11801881230E+01 -0.42918510537E+01  0.14112000825E+01  0.46695091184E+01  0.51100000000E-03 0. -1.
        -11    1    4    4    0    0  0.12202316027E+02  0.12437314980E+02  0.14441177715E+02  0.22630310082E+02  0.51100000000E-03 0.  1.
        -12    1    4    4    0    0 -0.28922262957E+01  0.26301770521E+02 -0.56999843029E+01  0.27067285171E+02  0.00000000000E+00 0.  1.
</event>
<event>
 8    1  0.2527138E-006  0.9118800E+02  0.7816164E-02  0.1184000E+00
        -11   -1    0    0    0    0  0.00000000000E+00  0.00000000000E+00  0.45593999997E+02  0.45594000000E+02  0.51100000000E-03 0.  1.
         11   -1    0    0    0    0 -0.00000000000E+00 -0.00000000000E+00 -0.45593999997E+02  0.45594000000E+02  0.51100000000E-03 0. -1.
         23    2    1    2    0    0 -0.35527136788E-14 -0.35527136788E-14  0.00000000000E+00  0.91188000000E+02  0.91188000000E+02 0.  0.
    9900012    2    3    3    0    0  0.17762246355E+02  0.28070183499E+02  0.15885424475E+02  0.54367091428E+02  0.40000016529E+02 0.  0.
         12    1    3    3    0    0 -0.17762246355E+02 -0.28070183499E+02 -0.15885424475E+02  0.36820908572E+02  0.00000000000E+00 0. -1.
         11    1    4    4    0    0 -0.32598939586E+01 -0.13297172216E+01  0.94619785758E+00  0.36455928403E+01  0.51100000000E-03 0. -1.
        -11    1    4    4    0    0  0.28721704144E+02  0.24722421203E+02  0.66424404694E+01  0.38474100571E+02  0.51100000000E-03 0.  1.
        -12    1    4    4    0    0 -0.76995638298E+01  0.46774795175E+01  0.82967861480E+01  0.12247398017E+02  0.00000000000E+00 0.  1.
</event>
<event>
 8    1  0.2527138E-006  0.9118800E+02  0.7816164E-02  0.1184000E+00
        -11   -1    0    0    0    0  0.00000000000E+00  0.00000000000E+00  0.45593999997E+02  0.45594000000E+02  0.51100000000E-03 0.  1.
         11   -1    0    0    0    0 -0.00000000000E+00 -0.00000000000E+00 -0.45593999997E+02  0.45594000000E+02  0.51100000000E-03 0. -1.
         23    2    1    2    0    0  0.00000000000E+00  0.00000000000E+00  0.00000000000E+00  0.91188000000E+02  0.91188000000E+02 0.  0.
    9900012    2    3    3    0    0  0.22417600171E+02 -0.62116719794E+01  0.28542002661E+02  0.54367087707E+02  0.40000008045E+02 0.  0.
         12    1    3    3    0    0 -0.22417600171E+02  0.62116719794E+01 -0.28542002661E+02  0.36820912293E+02  0.00000000000E+00 0. -1.
         11    1    4    4    0    0  0.91622780390E+01 -0.15580646599E+02  0.29235732853E+01  0.18309865328E+02  0.51100000000E-03 0. -1.
        -11    1    4    4    0    0  0.43893123003E+01  0.41349973330E+01  0.25028460382E+02  0.25744671191E+02  0.51100000000E-03 0.  1.
         12    1    4    4    0    0  0.88660098322E+01  0.52339772867E+01  0.58996899394E+00  0.10312551188E+02  0.00000000000E+00 0. -1.
</event>
<event>
 8    1  0.2527138E-006  0.9118800E+02  0.7816164E-02  0.1184000E+00
        -11   -1    0    0    0    0  0.00000000000E+00  0.00000000000E+00  0.45593999997E+02  0.45594000000E+02  0.51100000000E-03 0.  1.
         11   -1    0    0    0    0 -0.00000000000E+00 -0.00000000000E+00 -0.45593999997E+02  0.45594000000E+02  0.51100000000E-03 0. -1.
         23    2    1    2    0    0 -0.35527136788E-14  0.00000000000E+00  0.00000000000E+00  0.91188000000E+02  0.91188000000E+02 0.  0.
    9900012    2    3    3    0    0  0.22128079563E+02 -0.11240608083E+02 -0.27198813596E+02  0.54367100551E+02  0.40000037326E+02 0.  0.
        -12    1    3    3    0    0 -0.22128079563E+02  0.11240608083E+02  0.27198813596E+02  0.36820899449E+02  0.00000000000E+00 0.  1.
         11    1    4    4    0    0 -0.52065603910E+01 -0.59698617878E+01 -0.14304945447E+02  0.16351727290E+02  0.51100000000E-03 0. -1.
        -11    1    4    4    0    0  0.24027242507E+02 -0.29460317127E+01 -0.18944185076E+02  0.30738731819E+02  0.51100000000E-03 0.  1.
        -12    1    4    4    0    0  0.33073974464E+01 -0.23247145821E+01  0.60503169273E+01  0.72766414421E+01  0.00000000000E+00 0.  1.
</event>
<event>
 8    1  0.2527138E-006  0.9118800E+02  0.7816164E-02  0.1184000E+00
        -11   -1    0    0    0    0  0.00000000000E+00  0.00000000000E+00  0.45593999997E+02  0.45594000000E+02  0.51100000000E-03 0. -1.
         11   -1    0    0    0    0 -0.00000000000E+00 -0.00000000000E+00 -0.45593999997E+02  0.45594000000E+02  0.51100000000E-03 0.  1.
         23    2    1    2    0    0 -0.17763568394E-14  0.00000000000E+00 -0.35527136788E-14  0.91188000000E+02  0.91188000000E+02 0.  0.
    9900012    2    3    3    0    0 -0.25891730319E+01 -0.20162821878E+02 -0.30700907270E+02  0.54366961037E+02  0.39999719276E+02 0.  0.
         12    1    3    3    0    0  0.25891730319E+01  0.20162821878E+02  0.30700907270E+02  0.36821038963E+02  0.00000000000E+00 0. -1.
         11    1    4    4    0    0  0.16152175413E+02 -0.96252909032E+01 -0.11720952477E+02  0.22156708302E+02  0.51100000000E-03 0. -1.
        -11    1    4    4    0    0 -0.14020229801E+02 -0.13989616204E+02 -0.16790445521E+02  0.25965270387E+02  0.51100000000E-03 0.  1.
         12    1    4    4    0    0 -0.47211186440E+01  0.34520852291E+01 -0.21895092714E+01  0.62449823482E+01  0.00000000000E+00 0. -1.
</event>
<event>
 8    1  0.2527138E-006  0.9118800E+02  0.7816164E-02  0.1184000E+00
        -11   -1    0    0    0    0  0.00000000000E+00  0.00000000000E+00  0.45593999997E+02  0.45594000000E+02  0.51100000000E-03 0. -1.
         11   -1    0    0    0    0 -0.00000000000E+00 -0.00000000000E+00 -0.45593999997E+02  0.45594000000E+02  0.51100000000E-03 0.  1.
         23    2    1    2    0    0 -0.17763568394E-14  0.00000000000E+00  0.00000000000E+00  0.91188000000E+02  0.91188000000E+02 0.  0.
    9900012    2    3    3    0    0  0.87410482457E+01  0.27732602725E+02  0.22589309628E+02  0.54367080840E+02  0.39999992391E+02 0.  0.
        -12    1    3    3    0    0 -0.87410482457E+01 -0.27732602725E+02 -0.22589309628E+02  0.36820919160E+02  0.00000000000E+00 0.  1.
         11    1    4    4    0    0 -0.16649250063E+01  0.22258484786E+02  0.97803685862E+01  0.24369401515E+02  0.51100000000E-03 0. -1.
        -11    1    4    4    0    0 -0.24235598177E+01  0.88699996101E+01 -0.27020878506E+01  0.95839352193E+01  0.51100000000E-03 0.  1.
         12    1    4    4    0    0  0.12829533070E+02 -0.33958816713E+01  0.15511028893E+02  0.20413744106E+02  0.00000000000E+00 0. -1.
</event>
<event>
 8    1  0.2527138E-006  0.9118800E+02  0.7816164E-02  0.1184000E+00
        -11   -1    0    0    0    0  0.00000000000E+00  0.00000000000E+00  0.45593999997E+02  0.45594000000E+02  0.51100000000E-03 0.  1.
         11   -1    0    0    0    0 -0.00000000000E+00 -0.00000000000E+00 -0.45593999997E+02  0.45594000000E+02  0.51100000000E-03 0. -1.
         23    2    1    2    0    0  0.00000000000E+00  0.00000000000E+00 -0.22204460493E-14  0.91188000000E+02  0.91188000000E+02 0.  0.
    9900012    2    3    3    0    0  0.31505409301E+02 -0.18784731316E+02 -0.32129333475E+01  0.54367083573E+02  0.39999998622E+02 0.  0.
        -12    1    3    3    0    0 -0.31505409301E+02  0.18784731316E+02  0.32129333475E+01  0.36820916427E+02  0.00000000000E+00 0.  1.
         11    1    4    4    0    0  0.22654127352E+02 -0.12554726104E+02 -0.94251203366E+01  0.27561994254E+02  0.51100000000E-03 0. -1.
        -11    1    4    4    0    0  0.30419815155E+01 -0.37743133412E+01 -0.90635914270E+01  0.10278510717E+02  0.51100000000E-03 0.  1.
         12    1    4    4    0    0  0.58093004334E+01 -0.24556918706E+01  0.15275778416E+02  0.16526578603E+02  0.00000000000E+00 0. -1.
</event>
<event>
 8    1  0.2527138E-006  0.9118800E+02  0.7816164E-02  0.1184000E+00
        -11   -1    0    0    0    0  0.00000000000E+00  0.00000000000E+00  0.45593999997E+02  0.45594000000E+02  0.51100000000E-03 0.  1.
         11   -1    0    0    0    0 -0.00000000000E+00 -0.00000000000E+00 -0.45593999997E+02  0.45594000000E+02  0.51100000000E-03 0. -1.
         23    2    1    2    0    0  0.71054273576E-14  0.00000000000E+00  0.17763568394E-14  0.91188000000E+02  0.91188000000E+02 0.  0.
    9900012    2    3    3    0    0 -0.34726450327E+02  0.10692056527E+02 -0.59609799799E+01  0.54367086005E+02  0.40000004166E+02 0.  0.
        -12    1    3    3    0    0  0.34726450327E+02 -0.10692056527E+02  0.59609799799E+01  0.36820913995E+02  0.00000000000E+00 0.  1.
         11    1    4    4    0    0 -0.88513137756E+01  0.10026951115E+02 -0.11534189038E+02  0.17661342566E+02  0.51100000000E-03 0. -1.
        -11    1    4    4    0    0 -0.18532395589E+02  0.46060848677E+01  0.14883025203E+02  0.24210950901E+02  0.51100000000E-03 0.  1.
        -12    1    4    4    0    0 -0.73427409627E+01 -0.39409794551E+01 -0.93098161446E+01  0.12494792538E+02  0.00000000000E+00 0.  1.
</event>
<event>
 8    1  0.2527138E-006  0.9118800E+02  0.7816164E-02  0.1184000E+00
        -11   -1    0    0    0    0  0.00000000000E+00  0.00000000000E+00  0.45593999997E+02  0.45594000000E+02  0.51100000000E-03 0.  1.
         11   -1    0    0    0    0 -0.00000000000E+00 -0.00000000000E+00 -0.45593999997E+02  0.45594000000E+02  0.51100000000E-03 0. -1.
         23    2    1    2    0    0 -0.44408920985E-15  0.34694469520E-15  0.00000000000E+00  0.91188000000E+02  0.91188000000E+02 0.  0.
    9900012    2    3    3    0    0  0.26263619053E+01  0.11137925113E+00  0.36726924189E+02  0.54367120834E+02  0.40000083565E+02 0.  0.
         12    1    3    3    0    0 -0.26263619053E+01 -0.11137925113E+00 -0.36726924189E+02  0.36820879166E+02  0.00000000000E+00 0. -1.
         11    1    4    4    0    0  0.12027012249E+02 -0.68731224128E+01  0.67416728491E+01  0.15405810215E+02  0.51100000000E-03 0. -1.
        -11    1    4    4    0    0  0.65441859283E+01  0.59079785521E+01  0.12178135174E+02  0.15034545441E+02  0.51100000000E-03 0.  1.
        -12    1    4    4    0    0 -0.15944836272E+02  0.10765231119E+01  0.17807116166E+02  0.23926765178E+02  0.00000000000E+00 0.  1.
</event>
<event>
 8    1  0.2527138E-006  0.9118800E+02  0.7816164E-02  0.1184000E+00
        -11   -1    0    0    0    0  0.00000000000E+00  0.00000000000E+00  0.45593999997E+02  0.45594000000E+02  0.51100000000E-03 0. -1.
         11   -1    0    0    0    0 -0.00000000000E+00 -0.00000000000E+00 -0.45593999997E+02  0.45594000000E+02  0.51100000000E-03 0.  1.
         23    2    1    2    0    0 -0.53290705182E-14  0.00000000000E+00  0.00000000000E+00  0.91188000000E+02  0.91188000000E+02 0.  0.
    9900012    2    3    3    0    0 -0.15785699949E+02 -0.32955060194E+02  0.45337666272E+01  0.54367090790E+02  0.40000015073E+02 0.  0.
        -12    1    3    3    0    0  0.15785699949E+02  0.32955060194E+02 -0.45337666272E+01  0.36820909210E+02  0.00000000000E+00 0.  1.
         11    1    4    4    0    0  0.47126991733E+01 -0.20309798682E+01  0.71721580842E+00  0.51815838795E+01  0.51100000000E-03 0. -1.
        -11    1    4    4    0    0  0.16814966004E+01  0.47353317186E+01  0.51157257798E+01  0.71708749688E+01  0.51100000000E-03 0.  1.
         12    1    4    4    0    0 -0.22179895722E+02 -0.35659412044E+02 -0.12991749610E+01  0.42014631941E+02  0.00000000000E+00 0. -1.
</event>
<event>
 8    1  0.2527138E-006  0.9118800E+02  0.7816164E-02  0.1184000E+00
        -11   -1    0    0    0    0  0.00000000000E+00  0.00000000000E+00  0.45593999997E+02  0.45594000000E+02  0.51100000000E-03 0.  1.
         11   -1    0    0    0    0 -0.00000000000E+00 -0.00000000000E+00 -0.45593999997E+02  0.45594000000E+02  0.51100000000E-03 0. -1.
         23    2    1    2    0    0  0.00000000000E+00  0.00000000000E+00  0.00000000000E+00  0.91188000000E+02  0.91188000000E+02 0.  0.
    9900012    2    3    3    0    0  0.34986019813E+02  0.37322948354E+01  0.10854880915E+02  0.54367081397E+02  0.39999993661E+02 0.  0.
         12    1    3    3    0    0 -0.34986019813E+02 -0.37322948354E+01 -0.10854880915E+02  0.36820918603E+02  0.00000000000E+00 0. -1.
         11    1    4    4    0    0  0.35350380158E-01  0.64339018180E+01 -0.89347610240E+01  0.11010281426E+02  0.51100000000E-03 0. -1.
        -11    1    4    4    0    0  0.25536608638E+02  0.26521166510E+01  0.19968733185E+02  0.32525411738E+02  0.51100000000E-03 0.  1.
         12    1    4    4    0    0  0.94140607952E+01 -0.53537236336E+01 -0.17909124589E+00  0.10831388234E+02  0.00000000000E+00 0. -1.
</event>
<event>
 8    1  0.2527138E-006  0.9118800E+02  0.7816164E-02  0.1184000E+00
        -11   -1    0    0    0    0  0.00000000000E+00  0.00000000000E+00  0.45593999997E+02  0.45594000000E+02  0.51100000000E-03 0. -1.
         11   -1    0    0    0    0 -0.00000000000E+00 -0.00000000000E+00 -0.45593999997E+02  0.45594000000E+02  0.51100000000E-03 0.  1.
         23    2    1    2    0    0 -0.17763568394E-14  0.00000000000E+00  0.00000000000E+00  0.91188000000E+02  0.91188000000E+02 0.  0.
    9900012    2    3    3    0    0  0.15483210649E+02  0.10560100366E+02 -0.31694418648E+02  0.54367058877E+02  0.39999942322E+02 0.  0.
         12    1    3    3    0    0 -0.15483210649E+02 -0.10560100366E+02  0.31694418648E+02  0.36820941123E+02  0.00000000000E+00 0. -1.
         11    1    4    4    0    0  0.15945943196E+02  0.11116877239E+02 -0.24251674743E+02  0.31080569365E+02  0.51100000000E-03 0.  1.
        -11    1    4    4    0    0  0.70031069992E+01 -0.71551850319E+01 -0.86740677620E+01  0.13246872547E+02  0.51100000000E-03 0. -1.
         12    1    4    4    0    0 -0.74658395458E+01  0.65984081595E+01  0.12313238570E+01  0.10039616965E+02  0.00000000000E+00 0. -1.
</event>
<event>
 8    1  0.2527138E-006  0.9118800E+02  0.7816164E-02  0.1184000E+00
        -11   -1    0    0    0    0  0.00000000000E+00  0.00000000000E+00  0.45593999997E+02  0.45594000000E+02  0.51100000000E-03 0. -1.
         11   -1    0    0    0    0 -0.00000000000E+00 -0.00000000000E+00 -0.45593999997E+02  0.45594000000E+02  0.51100000000E-03 0.  1.
         23    2    1    2    0    0  0.35527136788E-14  0.00000000000E+00  0.35527136788E-14  0.91188000000E+02  0.91188000000E+02 0.  0.
    9900012    2    3    3    0    0  0.20176586721E+02  0.97800123280E+01  0.29206770706E+02  0.54367099034E+02  0.40000033868E+02 0.  0.
        -12    1    3    3    0    0 -0.20176586721E+02 -0.97800123280E+01 -0.29206770706E+02  0.36820900966E+02  0.00000000000E+00 0.  1.
         11    1    4    4    0    0  0.12996081551E+01  0.14129752742E+01 -0.17050309192E+01  0.25676080656E+01  0.51100000000E-03 0. -1.
        -11    1    4    4    0    0  0.57544961350E+01  0.21784608127E+02  0.13936791935E+02  0.26493726554E+02  0.51100000000E-03 0.  1.
         12    1    4    4    0    0  0.13122482431E+02 -0.13417571073E+02  0.16975009690E+02  0.25305764415E+02  0.00000000000E+00 0. -1.
</event>
<event>
 8    1  0.2527138E-006  0.9118800E+02  0.7816164E-02  0.1184000E+00
        -11   -1    0    0    0    0  0.00000000000E+00  0.00000000000E+00  0.45593999997E+02  0.45594000000E+02  0.51100000000E-03 0.  1.
         11   -1    0    0    0    0 -0.00000000000E+00 -0.00000000000E+00 -0.45593999997E+02  0.45594000000E+02  0.51100000000E-03 0. -1.
         23    2    1    2    0    0  0.00000000000E+00 -0.17763568394E-14 -0.88817841970E-15  0.91188000000E+02  0.91188000000E+02 0.  0.
    9900012    2    3    3    0    0  0.34844629276E+02  0.11619746294E+02 -0.25717412002E+01  0.54367074616E+02  0.39999978203E+02 0.  0.
         12    1    3    3    0    0 -0.34844629276E+02 -0.11619746294E+02  0.25717412002E+01  0.36820925384E+02  0.00000000000E+00 0. -1.
         11    1    4    4    0    0  0.21611187078E+02  0.28854027150E+01  0.19148930027E+01  0.21886885827E+02  0.51100000000E-03 0. -1.
        -11    1    4    4    0    0 -0.62746650616E+01  0.18777079922E+01  0.63605154301E+01  0.91298064457E+01  0.51100000000E-03 0.  1.
         12    1    4    4    0    0  0.19508107260E+02  0.68566355870E+01 -0.10847149633E+02  0.23350382343E+02  0.00000000000E+00 0. -1.
</event>
<event>
 8    1  0.2527138E-006  0.9118800E+02  0.7816164E-02  0.1184000E+00
        -11   -1    0    0    0    0  0.00000000000E+00  0.00000000000E+00  0.45593999997E+02  0.45594000000E+02  0.51100000000E-03 0.  1.
         11   -1    0    0    0    0 -0.00000000000E+00 -0.00000000000E+00 -0.45593999997E+02  0.45594000000E+02  0.51100000000E-03 0. -1.
         23    2    1    2    0    0  0.00000000000E+00  0.00000000000E+00  0.17763568394E-14  0.91188000000E+02  0.91188000000E+02 0.  0.
    9900012    2    3    3    0    0 -0.25945414258E+01  0.33467936485E+02  0.15130939326E+02  0.54367085527E+02  0.40000003076E+02 0.  0.
         12    1    3    3    0    0  0.25945414258E+01 -0.33467936485E+02 -0.15130939326E+02  0.36820914473E+02  0.00000000000E+00 0. -1.
         11    1    4    4    0    0 -0.45196547283E+01  0.28754657830E+02  0.65606109913E+01  0.29837882676E+02  0.51100000000E-03 0. -1.
        -11    1    4    4    0    0  0.44138468993E+01  0.12774443492E+02  0.87323223786E+01  0.16091050475E+02  0.51100000000E-03 0.  1.
         12    1    4    4    0    0 -0.24887335968E+01 -0.80611648374E+01 -0.16199404403E+00  0.84381523760E+01  0.00000000000E+00 0. -1.
</event>
<event>
 8    1  0.2527138E-006  0.9118800E+02  0.7816164E-02  0.1184000E+00
        -11   -1    0    0    0    0  0.00000000000E+00  0.00000000000E+00  0.45593999997E+02  0.45594000000E+02  0.51100000000E-03 0.  1.
         11   -1    0    0    0    0 -0.00000000000E+00 -0.00000000000E+00 -0.45593999997E+02  0.45594000000E+02  0.51100000000E-03 0. -1.
         23    2    1    2    0    0 -0.35527136788E-14 -0.17763568394E-14  0.00000000000E+00  0.91188000000E+02  0.91188000000E+02 0.  0.
    9900012    2    3    3    0    0 -0.21120356029E+02 -0.68685697996E+01 -0.29368896574E+02  0.54367098655E+02  0.40000033003E+02 0.  0.
        -12    1    3    3    0    0  0.21120356029E+02  0.68685697996E+01  0.29368896574E+02  0.36820901345E+02  0.00000000000E+00 0.  1.
         11    1    4    4    0    0 -0.72642216176E+01  0.19701545318E+01 -0.11159272523E+02  0.13460304161E+02  0.51100000000E-03 0. -1.
        -11    1    4    4    0    0 -0.17576800707E+02  0.47311859864E+01 -0.19622733243E+02  0.26765270485E+02  0.51100000000E-03 0.  1.
        -12    1    4    4    0    0  0.37206662955E+01 -0.13569910318E+02  0.14131091917E+01  0.14141524009E+02  0.00000000000E+00 0.  1.
</event>
<event>
 8    1  0.2527138E-006  0.9118800E+02  0.7816164E-02  0.1184000E+00
        -11   -1    0    0    0    0  0.00000000000E+00  0.00000000000E+00  0.45593999997E+02  0.45594000000E+02  0.51100000000E-03 0.  1.
         11   -1    0    0    0    0 -0.00000000000E+00 -0.00000000000E+00 -0.45593999997E+02  0.45594000000E+02  0.51100000000E-03 0. -1.
         23    2    1    2    0    0  0.35527136788E-14 -0.44408920985E-15  0.00000000000E+00  0.91188000000E+02  0.91188000000E+02 0.  0.
    9900012    2    3    3    0    0  0.21631758501E+02 -0.31594219684E+01  0.29628784288E+02  0.54367085001E+02  0.40000001876E+02 0.  0.
         12    1    3    3    0    0 -0.21631758501E+02  0.31594219684E+01 -0.29628784288E+02  0.36820914999E+02  0.00000000000E+00 0. -1.
         11    1    4    4    0    0  0.17594000363E+02 -0.16167541162E+02  0.58898321740E+01  0.24609517657E+02  0.51100000000E-03 0. -1.
        -11    1    4    4    0    0  0.12763302222E+01  0.27081083337E+00  0.12440735844E+02  0.12508967421E+02  0.51100000000E-03 0.  1.
         12    1    4    4    0    0  0.27614279160E+01  0.12737308361E+02  0.11298216270E+02  0.17248599922E+02  0.00000000000E+00 0. -1.
</event>
<event>
 8    1  0.2527138E-006  0.9118800E+02  0.7816164E-02  0.1184000E+00
        -11   -1    0    0    0    0  0.00000000000E+00  0.00000000000E+00  0.45593999997E+02  0.45594000000E+02  0.51100000000E-03 0.  1.
         11   -1    0    0    0    0 -0.00000000000E+00 -0.00000000000E+00 -0.45593999997E+02  0.45594000000E+02  0.51100000000E-03 0. -1.
         23    2    1    2    0    0  0.35527136788E-14  0.00000000000E+00  0.00000000000E+00  0.91188000000E+02  0.91188000000E+02 0.  0.
    9900012    2    3    3    0    0 -0.28132960926E+02  0.68573524419E+01 -0.22744089315E+02  0.54367076984E+02  0.39999983600E+02 0.  0.
        -12    1    3    3    0    0  0.28132960926E+02 -0.68573524419E+01  0.22744089315E+02  0.36820923016E+02  0.00000000000E+00 0.  1.
         11    1    4    4    0    0 -0.15021577577E+02 -0.40202429370E+01 -0.36857525559E+01  0.15981080011E+02  0.51100000000E-03 0. -1.
        -11    1    4    4    0    0 -0.91606848507E+01 -0.86964403350E+01 -0.11348972726E+02  0.16980736251E+02  0.51100000000E-03 0.  1.
        -12    1    4    4    0    0 -0.39506984988E+01  0.19574035714E+02 -0.77093640329E+01  0.21405260721E+02  0.00000000000E+00 0.  1.
</event>
<event>
 8    1  0.2527138E-006  0.9118800E+02  0.7816164E-02  0.1184000E+00
        -11   -1    0    0    0    0  0.00000000000E+00  0.00000000000E+00  0.45593999997E+02  0.45594000000E+02  0.51100000000E-03 0. -1.
         11   -1    0    0    0    0 -0.00000000000E+00 -0.00000000000E+00 -0.45593999997E+02  0.45594000000E+02  0.51100000000E-03 0.  1.
         23    2    1    2    0    0  0.00000000000E+00  0.35527136788E-14  0.35527136788E-14  0.91188000000E+02  0.91188000000E+02 0.  0.
    9900012    2    3    3    0    0 -0.10910813481E+02  0.22560249421E+02 -0.26977205699E+02  0.54367077522E+02  0.39999984828E+02 0.  0.
         12    1    3    3    0    0  0.10910813481E+02 -0.22560249421E+02  0.26977205699E+02  0.36820922478E+02  0.00000000000E+00 0. -1.
         11    1    4    4    0    0 -0.24091184572E+01 -0.50591042495E+01 -0.68722218289E+01  0.88671202019E+01  0.51100000000E-03 0. -1.
        -11    1    4    4    0    0 -0.17789708564E+01 -0.58282870160E+01 -0.60951988075E+01  0.86188813435E+01  0.51100000000E-03 0.  1.
         12    1    4    4    0    0 -0.67227241670E+01  0.33447640687E+02 -0.14009785063E+02  0.36881075977E+02  0.00000000000E+00 0. -1.
</event>
<event>
 8    1  0.2527138E-006  0.9118800E+02  0.7816164E-02  0.1184000E+00
        -11   -1    0    0    0    0  0.00000000000E+00  0.00000000000E+00  0.45593999997E+02  0.45594000000E+02  0.51100000000E-03 0.  1.
         11   -1    0    0    0    0 -0.00000000000E+00 -0.00000000000E+00 -0.45593999997E+02  0.45594000000E+02  0.51100000000E-03 0. -1.
         23    2    1    2    0    0  0.00000000000E+00  0.00000000000E+00  0.00000000000E+00  0.91188000000E+02  0.91188000000E+02 0.  0.
    9900012    2    3    3    0    0  0.18040946043E+02  0.21254642436E+02  0.24052939894E+02  0.54367089137E+02  0.40000011306E+02 0.  0.
         12    1    3    3    0    0 -0.18040946043E+02 -0.21254642436E+02 -0.24052939894E+02  0.36820910863E+02  0.00000000000E+00 0. -1.
         11    1    4    4    0    0  0.73540906185E+01  0.18941044136E+02  0.13550172357E+02  0.24422386717E+02  0.51100000000E-03 0. -1.
        -11    1    4    4    0    0  0.14204562283E+02  0.11407246774E+02  0.57958363904E+01  0.19117703532E+02  0.51100000000E-03 0.  1.
         12    1    4    4    0    0 -0.35177068583E+01 -0.90936484741E+01  0.47069311470E+01  0.10826998889E+02  0.00000000000E+00 0. -1.
</event>
<event>
 8    1  0.2527138E-006  0.9118800E+02  0.7816164E-02  0.1184000E+00
        -11   -1    0    0    0    0  0.00000000000E+00  0.00000000000E+00  0.45593999997E+02  0.45594000000E+02  0.51100000000E-03 0. -1.
         11   -1    0    0    0    0 -0.00000000000E+00 -0.00000000000E+00 -0.45593999997E+02  0.45594000000E+02  0.51100000000E-03 0.  1.
         23    2    1    2    0    0 -0.35527136788E-14  0.00000000000E+00  0.39968028887E-14  0.91188000000E+02  0.91188000000E+02 0.  0.
    9900012    2    3    3    0    0 -0.17574114643E+02 -0.32351270649E+02 -0.57086023372E+00  0.54367080681E+02  0.39999992030E+02 0.  0.
         12    1    3    3    0    0  0.17574114643E+02  0.32351270649E+02  0.57086023372E+00  0.36820919319E+02  0.00000000000E+00 0. -1.
         11    1    4    4    0    0  0.67089116129E+00  0.39119278239E+01 -0.79075931105E+00  0.40470451936E+01  0.51100000000E-03 0. -1.
        -11    1    4    4    0    0 -0.10335922151E+02 -0.19439382312E+02 -0.14708720951E+02  0.26477676326E+02  0.51100000000E-03 0.  1.
        -12    1    4    4    0    0 -0.79090836530E+01 -0.16823816161E+02  0.14928620028E+02  0.23842359162E+02  0.00000000000E+00 0.  1.
</event>
<event>
 8    1  0.2527138E-006  0.9118800E+02  0.7816164E-02  0.1184000E+00
        -11   -1    0    0    0    0  0.00000000000E+00  0.00000000000E+00  0.45593999997E+02  0.45594000000E+02  0.51100000000E-03 0.  1.
         11   -1    0    0    0    0 -0.00000000000E+00 -0.00000000000E+00 -0.45593999997E+02  0.45594000000E+02  0.51100000000E-03 0. -1.
         23    2    1    2    0    0 -0.13322676296E-14  0.00000000000E+00  0.88817841970E-15  0.91188000000E+02  0.91188000000E+02 0.  0.
    9900012    2    3    3    0    0  0.16225652572E+01 -0.36636297558E+02 -0.33059745292E+01  0.54367075455E+02  0.39999980114E+02 0.  0.
         12    1    3    3    0    0 -0.16225652572E+01  0.36636297558E+02  0.33059745292E+01  0.36820924545E+02  0.00000000000E+00 0. -1.
         11    1    4    4    0    0 -0.14295519468E+02 -0.15386256655E+02  0.10665780828E+00  0.21002622380E+02  0.51100000000E-03 0. -1.
        -11    1    4    4    0    0  0.10432154750E+02 -0.22269212496E+02  0.31024532605E+01  0.24786546641E+02  0.51100000000E-03 0.  1.
        -12    1    4    4    0    0  0.54859299744E+01  0.10191715923E+01 -0.65150855980E+01  0.85779064327E+01  0.00000000000E+00 0.  1.
</event>
<event>
 8    1  0.2527138E-006  0.9118800E+02  0.7816164E-02  0.1184000E+00
        -11   -1    0    0    0    0  0.00000000000E+00  0.00000000000E+00  0.45593999997E+02  0.45594000000E+02  0.51100000000E-03 0. -1.
         11   -1    0    0    0    0 -0.00000000000E+00 -0.00000000000E+00 -0.45593999997E+02  0.45594000000E+02  0.51100000000E-03 0.  1.
         23    2    1    2    0    0  0.35527136788E-14  0.35527136788E-14  0.00000000000E+00  0.91188000000E+02  0.91188000000E+02 0.  0.
    9900012    2    3    3    0    0  0.21948188095E+02 -0.24766051209E+02  0.16146597208E+02  0.54366907478E+02  0.39999597175E+02 0.  0.
        -12    1    3    3    0    0 -0.21948188095E+02  0.24766051209E+02 -0.16146597208E+02  0.36821092522E+02  0.00000000000E+00 0.  1.
         11    1    4    4    0    0  0.10106297335E+01 -0.18681285795E+02  0.21311435948E+01  0.18829593323E+02  0.51100000000E-03 0. -1.
        -11    1    4    4    0    0  0.16828718362E+02 -0.13375754529E+02  0.16165092722E+02  0.26896594467E+02  0.51100000000E-03 0.  1.
         12    1    4    4    0    0  0.41088399986E+01  0.72909891158E+01 -0.21496391086E+01  0.86407196876E+01  0.00000000000E+00 0. -1.
</event>
<event>
 8    1  0.2527138E-006  0.9118800E+02  0.7816164E-02  0.1184000E+00
        -11   -1    0    0    0    0  0.00000000000E+00  0.00000000000E+00  0.45593999997E+02  0.45594000000E+02  0.51100000000E-03 0. -1.
         11   -1    0    0    0    0 -0.00000000000E+00 -0.00000000000E+00 -0.45593999997E+02  0.45594000000E+02  0.51100000000E-03 0.  1.
         23    2    1    2    0    0  0.00000000000E+00 -0.88817841970E-15 -0.88817841970E-15  0.91188000000E+02  0.91188000000E+02 0.  0.
    9900012    2    3    3    0    0  0.36371290073E+02 -0.25667638586E+01  0.51303448938E+01  0.54367089405E+02  0.40000011917E+02 0.  0.
         12    1    3    3    0    0 -0.36371290073E+02  0.25667638586E+01 -0.51303448938E+01  0.36820910595E+02  0.00000000000E+00 0. -1.
         11    1    4    4    0    0  0.11041419725E+02  0.12645661951E+02  0.90453149694E+01  0.19069437298E+02  0.51100000000E-03 0. -1.
        -11    1    4    4    0    0  0.11106164928E+02  0.22224851398E+01  0.30744397731E+01  0.11736205510E+02  0.51100000000E-03 0.  1.
        -12    1    4    4    0    0  0.14223705421E+02 -0.17434910949E+02 -0.69894098486E+01  0.23561446597E+02  0.00000000000E+00 0.  1.
</event>
<event>
 8    1  0.2527138E-006  0.9118800E+02  0.7816164E-02  0.1184000E+00
        -11   -1    0    0    0    0  0.00000000000E+00  0.00000000000E+00  0.45593999997E+02  0.45594000000E+02  0.51100000000E-03 0.  1.
         11   -1    0    0    0    0 -0.00000000000E+00 -0.00000000000E+00 -0.45593999997E+02  0.45594000000E+02  0.51100000000E-03 0. -1.
         23    2    1    2    0    0 -0.35527136788E-14 -0.35527136788E-14 -0.35527136788E-14  0.91188000000E+02  0.91188000000E+02 0.  0.
    9900012    2    3    3    0    0  0.25064704771E+02  0.10816097649E+02  0.24709358197E+02  0.54367085072E+02  0.40000002039E+02 0.  0.
         12    1    3    3    0    0 -0.25064704771E+02 -0.10816097649E+02 -0.24709358197E+02  0.36820914928E+02  0.00000000000E+00 0. -1.
         11    1    4    4    0    0  0.38820097579E+01 -0.50856371812E+01  0.38506036221E+01  0.74673190514E+01  0.51100000000E-03 0.  1.
        -11    1    4    4    0    0  0.19953516324E+02 -0.33747372918E+01  0.18539679389E+02  0.27445425440E+02  0.51100000000E-03 0. -1.
         12    1    4    4    0    0  0.12291786891E+01  0.19276472122E+02  0.23190751858E+01  0.19454340581E+02  0.00000000000E+00 0. -1.
</event>
<event>
 8    1  0.2527138E-006  0.9118800E+02  0.7816164E-02  0.1184000E+00
        -11   -1    0    0    0    0  0.00000000000E+00  0.00000000000E+00  0.45593999997E+02  0.45594000000E+02  0.51100000000E-03 0.  1.
         11   -1    0    0    0    0 -0.00000000000E+00 -0.00000000000E+00 -0.45593999997E+02  0.45594000000E+02  0.51100000000E-03 0. -1.
         23    2    1    2    0    0  0.00000000000E+00  0.00000000000E+00 -0.35527136788E-14  0.91188000000E+02  0.91188000000E+02 0.  0.
    9900012    2    3    3    0    0 -0.18109328537E+02  0.10716626392E+02  0.30215655922E+02  0.54367085779E+02  0.40000003651E+02 0.  0.
         12    1    3    3    0    0  0.18109328537E+02 -0.10716626392E+02 -0.30215655922E+02  0.36820914221E+02  0.00000000000E+00 0. -1.
         11    1    4    4    0    0 -0.14607588872E+02  0.14651858846E+02  0.54198448160E+01  0.21387691282E+02  0.51100000000E-03 0. -1.
        -11    1    4    4    0    0  0.47250390970E+01  0.10657227482E+01  0.22588593377E+02  0.23102084548E+02  0.51100000000E-03 0.  1.
        -12    1    4    4    0    0 -0.82267787620E+01 -0.50009552022E+01  0.22072177290E+01  0.98773099494E+01  0.00000000000E+00 0.  1.
</event>
<event>
 8    1  0.2527138E-006  0.9118800E+02  0.7816164E-02  0.1184000E+00
        -11   -1    0    0    0    0  0.00000000000E+00  0.00000000000E+00  0.45593999997E+02  0.45594000000E+02  0.51100000000E-03 0.  1.
         11   -1    0    0    0    0 -0.00000000000E+00 -0.00000000000E+00 -0.45593999997E+02  0.45594000000E+02  0.51100000000E-03 0. -1.
         23    2    1    2    0    0  0.00000000000E+00  0.88817841970E-15  0.00000000000E+00  0.91188000000E+02  0.91188000000E+02 0.  0.
    9900012    2    3    3    0    0  0.25740558774E+02 -0.70759298609E+01 -0.25360120316E+02  0.54367070465E+02  0.39999968739E+02 0.  0.
        -12    1    3    3    0    0 -0.25740558774E+02  0.70759298609E+01  0.25360120316E+02  0.36820929535E+02  0.00000000000E+00 0.  1.
         11    1    4    4    0    0  0.17922139475E+02  0.18154067732E+01 -0.24014788921E+02  0.30020141111E+02  0.51100000000E-03 0. -1.
        -11    1    4    4    0    0  0.87890860991E+01 -0.59890852367E+00  0.79402615923E+01  0.11859784159E+02  0.51100000000E-03 0.  1.
        -12    1    4    4    0    0 -0.97066680057E+00 -0.82924281104E+01 -0.92855929874E+01  0.12487145195E+02  0.00000000000E+00 0.  1.
</event>
<event>
 8    1  0.2527138E-006  0.9118800E+02  0.7816164E-02  0.1184000E+00
        -11   -1    0    0    0    0  0.00000000000E+00  0.00000000000E+00  0.45593999997E+02  0.45594000000E+02  0.51100000000E-03 0. -1.
         11   -1    0    0    0    0 -0.00000000000E+00 -0.00000000000E+00 -0.45593999997E+02  0.45594000000E+02  0.51100000000E-03 0.  1.
         23    2    1    2    0    0  0.17763568394E-14  0.35527136788E-14 -0.71054273576E-14  0.91188000000E+02  0.91188000000E+02 0.  0.
    9900012    2    3    3    0    0 -0.39302561484E+01  0.16068035113E+02 -0.32896068968E+02  0.54367081769E+02  0.39999994510E+02 0.  0.
         12    1    3    3    0    0  0.39302561484E+01 -0.16068035113E+02  0.32896068968E+02  0.36820918231E+02  0.00000000000E+00 0. -1.
         11    1    4    4    0    0 -0.15477924102E+02 -0.16924538725E+01 -0.13127313378E+02  0.20365581047E+02  0.51100000000E-03 0. -1.
        -11    1    4    4    0    0 -0.44384271637E+01  0.61194442852E+01 -0.32261515981E+01  0.82192024213E+01  0.51100000000E-03 0.  1.
         12    1    4    4    0    0  0.15986095117E+02  0.11641044701E+02 -0.16542603992E+02  0.25782298301E+02  0.00000000000E+00 0. -1.
</event>
<event>
 8    1  0.2527138E-006  0.9118800E+02  0.7816164E-02  0.1184000E+00
        -11   -1    0    0    0    0  0.00000000000E+00  0.00000000000E+00  0.45593999997E+02  0.45594000000E+02  0.51100000000E-03 0.  1.
         11   -1    0    0    0    0 -0.00000000000E+00 -0.00000000000E+00 -0.45593999997E+02  0.45594000000E+02  0.51100000000E-03 0. -1.
         23    2    1    2    0    0  0.88817841970E-15  0.00000000000E+00  0.00000000000E+00  0.91188000000E+02  0.91188000000E+02 0.  0.
    9900012    2    3    3    0    0  0.76150675785E+01 -0.22837661909E+02 -0.27860933035E+02  0.54367086849E+02  0.40000006089E+02 0.  0.
        -12    1    3    3    0    0 -0.76150675785E+01  0.22837661909E+02  0.27860933035E+02  0.36820913151E+02  0.00000000000E+00 0.  1.
         11    1    4    4    0    0 -0.55229476082E+01 -0.10970069752E+02 -0.17946673740E+02  0.21746918844E+02  0.51100000000E-03 0. -1.
        -11    1    4    4    0    0  0.12931442202E+02 -0.31292744438E+01 -0.16844685025E+02  0.21465273579E+02  0.51100000000E-03 0.  1.
        -12    1    4    4    0    0  0.20657298465E+00 -0.87383177133E+01  0.69304257291E+01  0.11154894426E+02  0.00000000000E+00 0.  1.
</event>
<event>
 8    1  0.2527138E-006  0.9118800E+02  0.7816164E-02  0.1184000E+00
        -11   -1    0    0    0    0  0.00000000000E+00  0.00000000000E+00  0.45593999997E+02  0.45594000000E+02  0.51100000000E-03 0.  1.
         11   -1    0    0    0    0 -0.00000000000E+00 -0.00000000000E+00 -0.45593999997E+02  0.45594000000E+02  0.51100000000E-03 0. -1.
         23    2    1    2    0    0  0.00000000000E+00 -0.88817841970E-15 -0.71054273576E-14  0.91188000000E+02  0.91188000000E+02 0.  0.
    9900012    2    3    3    0    0  0.86452585424E+01 -0.78019681211E+01 -0.34930916301E+02  0.54367080464E+02  0.39999991534E+02 0.  0.
        -12    1    3    3    0    0 -0.86452585424E+01  0.78019681211E+01  0.34930916301E+02  0.36820919536E+02  0.00000000000E+00 0.  1.
         11    1    4    4    0    0  0.10685640734E+02  0.72078353346E+01 -0.11192063704E+02  0.17070386590E+02  0.51100000000E-03 0. -1.
        -11    1    4    4    0    0 -0.95845203338E+01 -0.59269246319E+01 -0.55902436263E+00  0.11282906280E+02  0.51100000000E-03 0.  1.
         12    1    4    4    0    0  0.75441381418E+01 -0.90828788238E+01 -0.23179828235E+02  0.26013787595E+02  0.00000000000E+00 0. -1.
</event>
<event>
 8    1  0.2527138E-006  0.9118800E+02  0.7816164E-02  0.1184000E+00
        -11   -1    0    0    0    0  0.00000000000E+00  0.00000000000E+00  0.45593999997E+02  0.45594000000E+02  0.51100000000E-03 0. -1.
         11   -1    0    0    0    0 -0.00000000000E+00 -0.00000000000E+00 -0.45593999997E+02  0.45594000000E+02  0.51100000000E-03 0.  1.
         23    2    1    2    0    0 -0.35527136788E-14  0.00000000000E+00 -0.35527136788E-14  0.91188000000E+02  0.91188000000E+02 0.  0.
    9900012    2    3    3    0    0 -0.18503715569E+02 -0.18299370443E+02 -0.26048438780E+02  0.54367141627E+02  0.40000130966E+02 0.  0.
         12    1    3    3    0    0  0.18503715569E+02  0.18299370443E+02  0.26048438780E+02  0.36820858373E+02  0.00000000000E+00 0. -1.
         11    1    4    4    0    0  0.40296123690E+01 -0.24460954075E+00  0.35100404744E+01  0.53495788680E+01  0.51100000000E-03 0. -1.
        -11    1    4    4    0    0 -0.16079427441E+02 -0.35592391059E+01 -0.11881688503E+01  0.16511448008E+02  0.51100000000E-03 0.  1.
        -12    1    4    4    0    0 -0.64539004974E+01 -0.14495521796E+02 -0.28370310404E+02  0.32506114751E+02  0.00000000000E+00 0.  1.
</event>
<event>
 8    1  0.2527138E-006  0.9118800E+02  0.7816164E-02  0.1184000E+00
        -11   -1    0    0    0    0  0.00000000000E+00  0.00000000000E+00  0.45593999997E+02  0.45594000000E+02  0.51100000000E-03 0. -1.
         11   -1    0    0    0    0 -0.00000000000E+00 -0.00000000000E+00 -0.45593999997E+02  0.45594000000E+02  0.51100000000E-03 0.  1.
         23    2    1    2    0    0  0.00000000000E+00  0.00000000000E+00  0.17763568394E-14  0.91188000000E+02  0.91188000000E+02 0.  0.
    9900012    2    3    3    0    0 -0.19258064110E+02  0.28902543179E+02  0.12229162159E+02  0.54367048864E+02  0.39999919495E+02 0.  0.
        -12    1    3    3    0    0  0.19258064110E+02 -0.28902543179E+02 -0.12229162159E+02  0.36820951136E+02  0.00000000000E+00 0.  1.
         11    1    4    4    0    0  0.76829398179E+01  0.19968570356E+02 -0.88081235713E+00  0.21413715160E+02  0.51100000000E-03 0. -1.
        -11    1    4    4    0    0 -0.14572766909E+02  0.92505626710E+01  0.43703377400E+01  0.17805569279E+02  0.51100000000E-03 0.  1.
         12    1    4    4    0    0 -0.12368237019E+02 -0.31658984789E+00  0.87396367764E+01  0.15147764425E+02  0.00000000000E+00 0. -1.
</event>
<event>
 8    1  0.2527138E-006  0.9118800E+02  0.7816164E-02  0.1184000E+00
        -11   -1    0    0    0    0  0.00000000000E+00  0.00000000000E+00  0.45593999997E+02  0.45594000000E+02  0.51100000000E-03 0.  1.
         11   -1    0    0    0    0 -0.00000000000E+00 -0.00000000000E+00 -0.45593999997E+02  0.45594000000E+02  0.51100000000E-03 0. -1.
         23    2    1    2    0    0  0.00000000000E+00  0.00000000000E+00 -0.35527136788E-14  0.91188000000E+02  0.91188000000E+02 0.  0.
    9900012    2    3    3    0    0 -0.22644266220E+02 -0.20927490395E+02 -0.20126030150E+02  0.54367085611E+02  0.40000003267E+02 0.  0.
        -12    1    3    3    0    0  0.22644266220E+02  0.20927490395E+02  0.20126030150E+02  0.36820914389E+02  0.00000000000E+00 0.  1.
         11    1    4    4    0    0 -0.13883479280E+02 -0.18770799622E+02 -0.21103688641E+02  0.31471567961E+02  0.51100000000E-03 0. -1.
        -11    1    4    4    0    0  0.28356287786E+01 -0.17291191622E+01  0.84596676160E+01  0.90882682664E+01  0.51100000000E-03 0.  1.
         12    1    4    4    0    0 -0.11596415719E+02 -0.42757161019E+00 -0.74820091248E+01  0.13807249384E+02  0.00000000000E+00 0. -1.
</event>
<event>
 8    1  0.2527138E-006  0.9118800E+02  0.7816164E-02  0.1184000E+00
        -11   -1    0    0    0    0  0.00000000000E+00  0.00000000000E+00  0.45593999997E+02  0.45594000000E+02  0.51100000000E-03 0. -1.
         11   -1    0    0    0    0 -0.00000000000E+00 -0.00000000000E+00 -0.45593999997E+02  0.45594000000E+02  0.51100000000E-03 0.  1.
         23    2    1    2    0    0  0.00000000000E+00  0.35527136788E-14 -0.35527136788E-14  0.91188000000E+02  0.91188000000E+02 0.  0.
    9900012    2    3    3    0    0  0.13039331645E+02 -0.25618613378E+02  0.23009607774E+02  0.54367087856E+02  0.40000008386E+02 0.  0.
        -12    1    3    3    0    0 -0.13039331645E+02  0.25618613378E+02 -0.23009607774E+02  0.36820912144E+02  0.00000000000E+00 0.  1.
         11    1    4    4    0    0  0.15812044457E+01 -0.17850812380E+02  0.25267611564E+01  0.18097962104E+02  0.51100000000E-03 0. -1.
        -11    1    4    4    0    0  0.16328613516E+02 -0.12448122190E+02  0.79228572741E+01  0.22007976578E+02  0.51100000000E-03 0.  1.
        -12    1    4    4    0    0 -0.48704863171E+01  0.46803211921E+01  0.12559989344E+02  0.14261149173E+02  0.00000000000E+00 0.  1.
</event>
<event>
 8    1  0.2527138E-006  0.9118800E+02  0.7816164E-02  0.1184000E+00
        -11   -1    0    0    0    0  0.00000000000E+00  0.00000000000E+00  0.45593999997E+02  0.45594000000E+02  0.51100000000E-03 0.  1.
         11   -1    0    0    0    0 -0.00000000000E+00 -0.00000000000E+00 -0.45593999997E+02  0.45594000000E+02  0.51100000000E-03 0. -1.
         23    2    1    2    0    0  0.16653345369E-15  0.00000000000E+00  0.35527136788E-14  0.91188000000E+02  0.91188000000E+02 0.  0.
    9900012    2    3    3    0    0  0.41541104059E+00  0.32452627810E+02  0.17390630621E+02  0.54367086765E+02  0.40000005897E+02 0.  0.
         12    1    3    3    0    0 -0.41541104059E+00 -0.32452627810E+02 -0.17390630621E+02  0.36820913235E+02  0.00000000000E+00 0. -1.
         11    1    4    4    0    0  0.78755248013E+00  0.27022176966E+02  0.28290550691E+02  0.39130212695E+02  0.51100000000E-03 0. -1.
        -11    1    4    4    0    0 -0.22667391357E+01  0.18048009612E+01  0.66237426100E+00  0.29722302639E+01  0.51100000000E-03 0.  1.
         12    1    4    4    0    0  0.18945976961E+01  0.36256498827E+01 -0.11562294331E+02  0.12264643806E+02  0.00000000000E+00 0. -1.
</event>
<event>
 8    1  0.2527138E-006  0.9118800E+02  0.7816164E-02  0.1184000E+00
        -11   -1    0    0    0    0  0.00000000000E+00  0.00000000000E+00  0.45593999997E+02  0.45594000000E+02  0.51100000000E-03 0. -1.
         11   -1    0    0    0    0 -0.00000000000E+00 -0.00000000000E+00 -0.45593999997E+02  0.45594000000E+02  0.51100000000E-03 0.  1.
         23    2    1    2    0    0  0.00000000000E+00  0.13322676296E-14  0.00000000000E+00  0.91188000000E+02  0.91188000000E+02 0.  0.
    9900012    2    3    3    0    0 -0.14687725615E+02  0.26342084730E+01 -0.33661722914E+02  0.54367083015E+02  0.39999997350E+02 0.  0.
         12    1    3    3    0    0  0.14687725615E+02 -0.26342084730E+01  0.33661722914E+02  0.36820916985E+02  0.00000000000E+00 0. -1.
         11    1    4    4    0    0 -0.75605279847E+01 -0.85212660261E+01 -0.62195990545E+01  0.12979097455E+02  0.51100000000E-03 0. -1.
        -11    1    4    4    0    0 -0.53250014638E+01 -0.88824566665E+01 -0.13006886822E+02  0.16626267834E+02  0.51100000000E-03 0.  1.
        -12    1    4    4    0    0 -0.18021961665E+01  0.20037931166E+02 -0.14435237038E+02  0.24761717726E+02  0.00000000000E+00 0.  1.
</event>
<event>
 8    1  0.2527138E-006  0.9118800E+02  0.7816164E-02  0.1184000E+00
        -11   -1    0    0    0    0  0.00000000000E+00  0.00000000000E+00  0.45593999997E+02  0.45594000000E+02  0.51100000000E-03 0. -1.
         11   -1    0    0    0    0 -0.00000000000E+00 -0.00000000000E+00 -0.45593999997E+02  0.45594000000E+02  0.51100000000E-03 0.  1.
         23    2    1    2    0    0  0.88817841970E-15  0.35527136788E-14  0.00000000000E+00  0.91188000000E+02  0.91188000000E+02 0.  0.
    9900012    2    3    3    0    0  0.74215607884E+01 -0.28793699277E+02 -0.21716887192E+02  0.54367083771E+02  0.39999999073E+02 0.  0.
         12    1    3    3    0    0 -0.74215607884E+01  0.28793699277E+02  0.21716887192E+02  0.36820916229E+02  0.00000000000E+00 0. -1.
         11    1    4    4    0    0 -0.34714926042E+01 -0.25956067712E+01  0.28989818528E+01  0.52146458610E+01  0.51100000000E-03 0. -1.
        -11    1    4    4    0    0 -0.25332451570E+01 -0.18904312033E+02  0.12461817184E+01  0.19113955991E+02  0.51100000000E-03 0.  1.
        -12    1    4    4    0    0  0.13426298550E+02 -0.72937804727E+01 -0.25862050763E+02  0.30038481919E+02  0.00000000000E+00 0.  1.
</event>
<event>
 8    1  0.2527138E-006  0.9118800E+02  0.7816164E-02  0.1184000E+00
        -11   -1    0    0    0    0  0.00000000000E+00  0.00000000000E+00  0.45593999997E+02  0.45594000000E+02  0.51100000000E-03 0. -1.
         11   -1    0    0    0    0 -0.00000000000E+00 -0.00000000000E+00 -0.45593999997E+02  0.45594000000E+02  0.51100000000E-03 0.  1.
         23    2    1    2    0    0  0.00000000000E+00 -0.16653345369E-14  0.35527136788E-14  0.91188000000E+02  0.91188000000E+02 0.  0.
    9900012    2    3    3    0    0 -0.23101110333E+02 -0.61762091660E+00  0.28666010387E+02  0.54367042575E+02  0.39999905157E+02 0.  0.
        -12    1    3    3    0    0  0.23101110333E+02  0.61762091660E+00 -0.28666010387E+02  0.36820957425E+02  0.00000000000E+00 0.  1.
         11    1    4    4    0    0 -0.13950324753E+02 -0.62696617319E+01  0.31670016922E+02  0.35169734021E+02  0.51100000000E-03 0. -1.
        -11    1    4    4    0    0 -0.58753073282E+01  0.11120526645E+02 -0.22761467702E+01  0.12781478531E+02  0.51100000000E-03 0.  1.
        -12    1    4    4    0    0 -0.32754782519E+01 -0.54684858295E+01 -0.72785976568E+00  0.64158300230E+01  0.00000000000E+00 0.  1.
</event>
<event>
 8    1  0.2527138E-006  0.9118800E+02  0.7816164E-02  0.1184000E+00
        -11   -1    0    0    0    0  0.00000000000E+00  0.00000000000E+00  0.45593999997E+02  0.45594000000E+02  0.51100000000E-03 0.  1.
         11   -1    0    0    0    0 -0.00000000000E+00 -0.00000000000E+00 -0.45593999997E+02  0.45594000000E+02  0.51100000000E-03 0. -1.
         23    2    1    2    0    0  0.00000000000E+00  0.00000000000E+00  0.00000000000E+00  0.91188000000E+02  0.91188000000E+02 0.  0.
    9900012    2    3    3    0    0 -0.60227234548E+01 -0.20877655931E+02 -0.29725902944E+02  0.54367095328E+02  0.40000025420E+02 0.  0.
        -12    1    3    3    0    0  0.60227234548E+01  0.20877655931E+02  0.29725902944E+02  0.36820904672E+02  0.00000000000E+00 0.  1.
         11    1    4    4    0    0  0.10563469332E+02 -0.41293264485E+01 -0.70880609135E+01  0.13374559021E+02  0.51100000000E-03 0. -1.
        -11    1    4    4    0    0 -0.13274754962E+02 -0.18552517175E+02 -0.26920406908E+02  0.35286305009E+02  0.51100000000E-03 0.  1.
        -12    1    4    4    0    0 -0.33114378247E+01  0.18041876927E+01  0.42825648772E+01  0.57062312979E+01  0.00000000000E+00 0.  1.
</event>
<event>
 8    1  0.2527138E-006  0.9118800E+02  0.7816164E-02  0.1184000E+00
        -11   -1    0    0    0    0  0.00000000000E+00  0.00000000000E+00  0.45593999997E+02  0.45594000000E+02  0.51100000000E-03 0.  1.
         11   -1    0    0    0    0 -0.00000000000E+00 -0.00000000000E+00 -0.45593999997E+02  0.45594000000E+02  0.51100000000E-03 0. -1.
         23    2    1    2    0    0  0.35527136788E-14 -0.17763568394E-14  0.00000000000E+00  0.91188000000E+02  0.91188000000E+02 0.  0.
    9900012    2    3    3    0    0 -0.30157214734E+02  0.10308277556E+02 -0.18440745900E+02  0.54367091592E+02  0.40000016902E+02 0.  0.
        -12    1    3    3    0    0  0.30157214734E+02 -0.10308277556E+02  0.18440745900E+02  0.36820908408E+02  0.00000000000E+00 0.  1.
         11    1    4    4    0    0 -0.33584947490E+01  0.79060984385E+01 -0.50901404418E+01  0.99847588592E+01  0.51100000000E-03 0. -1.
        -11    1    4    4    0    0 -0.79520918699E+01 -0.10479883711E+02  0.59970849021E+01  0.14457826783E+02  0.51100000000E-03 0.  1.
        -12    1    4    4    0    0 -0.18846628115E+02  0.12882062829E+02 -0.19347690361E+02  0.29924505949E+02  0.00000000000E+00 0.  1.
</event>
<event>
 8    1  0.2527138E-006  0.9118800E+02  0.7816164E-02  0.1184000E+00
        -11   -1    0    0    0    0  0.00000000000E+00  0.00000000000E+00  0.45593999997E+02  0.45594000000E+02  0.51100000000E-03 0.  1.
         11   -1    0    0    0    0 -0.00000000000E+00 -0.00000000000E+00 -0.45593999997E+02  0.45594000000E+02  0.51100000000E-03 0. -1.
         23    2    1    2    0    0 -0.13322676296E-14 -0.88817841970E-15  0.00000000000E+00  0.91188000000E+02  0.91188000000E+02 0.  0.
    9900012    2    3    3    0    0  0.16826366379E+01  0.39061495547E+00 -0.36780338056E+02  0.54367121227E+02  0.40000084460E+02 0.  0.
        -12    1    3    3    0    0 -0.16826366379E+01 -0.39061495547E+00  0.36780338056E+02  0.36820878773E+02  0.00000000000E+00 0.  1.
         11    1    4    4    0    0 -0.26440043844E+01  0.82105880711E+00 -0.91140088630E+01  0.95252325203E+01  0.51100000000E-03 0. -1.
        -11    1    4    4    0    0  0.14828256234E+02  0.82568635699E+01 -0.38526942729E+01  0.17403914284E+02  0.51100000000E-03 0.  1.
        -12    1    4    4    0    0 -0.10501615212E+02 -0.86873074216E+01 -0.23813634920E+02  0.27437974423E+02  0.00000000000E+00 0.  1.
</event>
<event>
 8    1  0.2527138E-006  0.9118800E+02  0.7816164E-02  0.1184000E+00
        -11   -1    0    0    0    0  0.00000000000E+00  0.00000000000E+00  0.45593999997E+02  0.45594000000E+02  0.51100000000E-03 0. -1.
         11   -1    0    0    0    0 -0.00000000000E+00 -0.00000000000E+00 -0.45593999997E+02  0.45594000000E+02  0.51100000000E-03 0.  1.
         23    2    1    2    0    0  0.00000000000E+00 -0.35527136788E-14  0.00000000000E+00  0.91188000000E+02  0.91188000000E+02 0.  0.
    9900012    2    3    3    0    0  0.18663346242E+02 -0.31534894550E+02 -0.36072241200E+01  0.54367053066E+02  0.39999929075E+02 0.  0.
        -12    1    3    3    0    0 -0.18663346242E+02  0.31534894550E+02  0.36072241200E+01  0.36820946934E+02  0.00000000000E+00 0.  1.
         11    1    4    4    0    0  0.45253686338E+01 -0.38042167561E+02 -0.77232715183E+00  0.38318167538E+02  0.51100000000E-03 0. -1.
        -11    1    4    4    0    0  0.26038294700E+01  0.32762479262E+00  0.14580829480E+00  0.26284075470E+01  0.51100000000E-03 0.  1.
         12    1    4    4    0    0  0.11534148138E+02  0.61796482182E+01 -0.29807052630E+01  0.13420477981E+02  0.00000000000E+00 0. -1.
</event>
<event>
 8    1  0.2527138E-006  0.9118800E+02  0.7816164E-02  0.1184000E+00
        -11   -1    0    0    0    0  0.00000000000E+00  0.00000000000E+00  0.45593999997E+02  0.45594000000E+02  0.51100000000E-03 0. -1.
         11   -1    0    0    0    0 -0.00000000000E+00 -0.00000000000E+00 -0.45593999997E+02  0.45594000000E+02  0.51100000000E-03 0.  1.
         23    2    1    2    0    0  0.00000000000E+00  0.00000000000E+00 -0.88817841970E-15  0.91188000000E+02  0.91188000000E+02 0.  0.
    9900012    2    3    3    0    0  0.35846775526E+02 -0.81083782102E+01 -0.22463610245E+01  0.54367037891E+02  0.39999894479E+02 0.  0.
        -12    1    3    3    0    0 -0.35846775526E+02  0.81083782102E+01  0.22463610245E+01  0.36820962109E+02  0.00000000000E+00 0.  1.
         11    1    4    4    0    0 -0.46478531862E+01  0.70403469962E+01  0.40717055604E+01  0.93673801833E+01  0.51100000000E-03 0. -1.
        -11    1    4    4    0    0  0.12701778597E+02 -0.25601329139E+01 -0.64824177238E+01  0.14488312527E+02  0.51100000000E-03 0.  1.
         12    1    4    4    0    0  0.27792850115E+02 -0.12588592293E+02  0.16435113896E+00  0.30511345181E+02  0.00000000000E+00 0. -1.
</event>
<event>
 8    1  0.2527138E-006  0.9118800E+02  0.7816164E-02  0.1184000E+00
        -11   -1    0    0    0    0  0.00000000000E+00  0.00000000000E+00  0.45593999997E+02  0.45594000000E+02  0.51100000000E-03 0.  1.
         11   -1    0    0    0    0 -0.00000000000E+00 -0.00000000000E+00 -0.45593999997E+02  0.45594000000E+02  0.51100000000E-03 0. -1.
         23    2    1    2    0    0  0.00000000000E+00  0.00000000000E+00  0.00000000000E+00  0.91188000000E+02  0.91188000000E+02 0.  0.
    9900012    2    3    3    0    0  0.27710527570E+02  0.14981582239E+02  0.19064604398E+02  0.54367078156E+02  0.39999986272E+02 0.  0.
         12    1    3    3    0    0 -0.27710527570E+02 -0.14981582239E+02 -0.19064604398E+02  0.36820921844E+02  0.00000000000E+00 0. -1.
         11    1    4    4    0    0 -0.27943807890E+00  0.57525889869E+01 -0.94048453201E+01  0.11028212976E+02  0.51100000000E-03 0. -1.
        -11    1    4    4    0    0  0.21949122660E+02  0.10964044941E+02  0.27705247523E+02  0.37007499342E+02  0.51100000000E-03 0.  1.
        -12    1    4    4    0    0  0.60408429883E+01 -0.17350516888E+01  0.76420219556E+00  0.63313658375E+01  0.00000000000E+00 0.  1.
</event>
<event>
 8    1  0.2527138E-006  0.9118800E+02  0.7816164E-02  0.1184000E+00
        -11   -1    0    0    0    0  0.00000000000E+00  0.00000000000E+00  0.45593999997E+02  0.45594000000E+02  0.51100000000E-03 0.  1.
         11   -1    0    0    0    0 -0.00000000000E+00 -0.00000000000E+00 -0.45593999997E+02  0.45594000000E+02  0.51100000000E-03 0. -1.
         23    2    1    2    0    0 -0.35527136788E-14  0.00000000000E+00  0.00000000000E+00  0.91188000000E+02  0.91188000000E+02 0.  0.
    9900012    2    3    3    0    0  0.28645874652E+02 -0.16256438986E+02  0.16459711589E+02  0.54367081371E+02  0.39999993601E+02 0.  0.
        -12    1    3    3    0    0 -0.28645874652E+02  0.16256438986E+02 -0.16459711589E+02  0.36820918629E+02  0.00000000000E+00 0.  1.
         11    1    4    4    0    0  0.13701172648E+02 -0.50930502086E+01  0.10732661250E+01  0.14656506841E+02  0.51100000000E-03 0. -1.
        -11    1    4    4    0    0  0.16894155620E+01  0.89103667283E+01  0.12556781603E+02  0.15489400397E+02  0.51100000000E-03 0.  1.
        -12    1    4    4    0    0  0.13255286443E+02 -0.20073755506E+02  0.28296638608E+01  0.24221174132E+02  0.00000000000E+00 0.  1.
</event>
<event>
 8    1  0.2527138E-006  0.9118800E+02  0.7816164E-02  0.1184000E+00
        -11   -1    0    0    0    0  0.00000000000E+00  0.00000000000E+00  0.45593999997E+02  0.45594000000E+02  0.51100000000E-03 0.  1.
         11   -1    0    0    0    0 -0.00000000000E+00 -0.00000000000E+00 -0.45593999997E+02  0.45594000000E+02  0.51100000000E-03 0. -1.
         23    2    1    2    0    0 -0.17763568394E-14 -0.17763568394E-14  0.00000000000E+00  0.91188000000E+02  0.91188000000E+02 0.  0.
    9900012    2    3    3    0    0 -0.13492206937E+02  0.11669717929E+02 -0.32211149779E+02  0.54367080203E+02  0.39999990940E+02 0.  0.
        -12    1    3    3    0    0  0.13492206937E+02 -0.11669717929E+02  0.32211149779E+02  0.36820919797E+02  0.00000000000E+00 0.  1.
         11    1    4    4    0    0 -0.16084808330E+02 -0.59730654795E+00 -0.23170085186E+02  0.28212243475E+02  0.51100000000E-03 0. -1.
        -11    1    4    4    0    0 -0.47984279217E+01  0.14302962562E+02 -0.10460598332E+02  0.18358207056E+02  0.51100000000E-03 0.  1.
         12    1    4    4    0    0  0.73910293146E+01 -0.20359380853E+01  0.14195337388E+01  0.77966296726E+01  0.00000000000E+00 0. -1.
</event>
<event>
 8    1  0.2527138E-006  0.9118800E+02  0.7816164E-02  0.1184000E+00
        -11   -1    0    0    0    0  0.00000000000E+00  0.00000000000E+00  0.45593999997E+02  0.45594000000E+02  0.51100000000E-03 0. -1.
         11   -1    0    0    0    0 -0.00000000000E+00 -0.00000000000E+00 -0.45593999997E+02  0.45594000000E+02  0.51100000000E-03 0.  1.
         23    2    1    2    0    0  0.00000000000E+00  0.00000000000E+00 -0.94368957093E-15  0.91188000000E+02  0.91188000000E+02 0.  0.
    9900012    2    3    3    0    0 -0.34424228056E+02 -0.13062191113E+02 -0.36242261393E+00  0.54367086593E+02  0.40000005507E+02 0.  0.
        -12    1    3    3    0    0  0.34424228056E+02  0.13062191113E+02  0.36242261393E+00  0.36820913407E+02  0.00000000000E+00 0.  1.
         11    1    4    4    0    0 -0.11443867541E+02 -0.12270957253E+02 -0.22037118656E+01  0.16923204261E+02  0.51100000000E-03 0. -1.
        -11    1    4    4    0    0 -0.90248673547E+01  0.13243438331E+02  0.61893619053E+01  0.17179787270E+02  0.51100000000E-03 0.  1.
        -12    1    4    4    0    0 -0.13955493161E+02 -0.14034672192E+02 -0.43480726537E+01  0.20264095062E+02  0.00000000000E+00 0.  1.
</event>
<event>
 8    1  0.2527138E-006  0.9118800E+02  0.7816164E-02  0.1184000E+00
        -11   -1    0    0    0    0  0.00000000000E+00  0.00000000000E+00  0.45593999997E+02  0.45594000000E+02  0.51100000000E-03 0. -1.
         11   -1    0    0    0    0 -0.00000000000E+00 -0.00000000000E+00 -0.45593999997E+02  0.45594000000E+02  0.51100000000E-03 0.  1.
         23    2    1    2    0    0  0.00000000000E+00  0.71054273576E-14  0.17763568394E-14  0.91188000000E+02  0.91188000000E+02 0.  0.
    9900012    2    3    3    0    0 -0.13313450135E+02  0.33057853386E+02  0.92580007510E+01  0.54367079277E+02  0.39999988829E+02 0.  0.
        -12    1    3    3    0    0  0.13313450135E+02 -0.33057853386E+02 -0.92580007510E+01  0.36820920723E+02  0.00000000000E+00 0.  1.
         11    1    4    4    0    0  0.18581569540E+00  0.41059402766E+01  0.82214963135E+01  0.91916415792E+01  0.51100000000E-03 0. -1.
        -11    1    4    4    0    0 -0.11077124011E+02 -0.35347588720E+01  0.43853372500E+01  0.12426921570E+02  0.51100000000E-03 0.  1.
        -12    1    4    4    0    0 -0.24221418187E+01  0.32486671981E+02 -0.33488328125E+01  0.32748516128E+02  0.00000000000E+00 0.  1.
</event>
<event>
 8    1  0.2527138E-006  0.9118800E+02  0.7816164E-02  0.1184000E+00
        -11   -1    0    0    0    0  0.00000000000E+00  0.00000000000E+00  0.45593999997E+02  0.45594000000E+02  0.51100000000E-03 0. -1.
         11   -1    0    0    0    0 -0.00000000000E+00 -0.00000000000E+00 -0.45593999997E+02  0.45594000000E+02  0.51100000000E-03 0.  1.
         23    2    1    2    0    0 -0.17763568394E-14 -0.71054273576E-14 -0.71054273576E-14  0.91188000000E+02  0.91188000000E+02 0.  0.
    9900012    2    3    3    0    0 -0.13225326914E+02 -0.26019468150E+02 -0.22446794935E+02  0.54367073916E+02  0.39999976607E+02 0.  0.
         12    1    3    3    0    0  0.13225326914E+02  0.26019468150E+02  0.22446794935E+02  0.36820926084E+02  0.00000000000E+00 0. -1.
         11    1    4    4    0    0  0.22204033259E+01 -0.78209867018E+01  0.21464996968E+01  0.84086553699E+01  0.51100000000E-03 0. -1.
        -11    1    4    4    0    0 -0.61321219589E+01 -0.16431711047E+02  0.20697172486E+01  0.17660344770E+02  0.51100000000E-03 0.  1.
         12    1    4    4    0    0 -0.93136082813E+01 -0.17667704008E+01 -0.26663011881E+02  0.28298073776E+02  0.00000000000E+00 0. -1.
</event>
<event>
 8    1  0.2527138E-006  0.9118800E+02  0.7816164E-02  0.1184000E+00
        -11   -1    0    0    0    0  0.00000000000E+00  0.00000000000E+00  0.45593999997E+02  0.45594000000E+02  0.51100000000E-03 0.  1.
         11   -1    0    0    0    0 -0.00000000000E+00 -0.00000000000E+00 -0.45593999997E+02  0.45594000000E+02  0.51100000000E-03 0. -1.
         23    2    1    2    0    0  0.00000000000E+00  0.00000000000E+00  0.35527136788E-14  0.91188000000E+02  0.91188000000E+02 0.  0.
    9900012    2    3    3    0    0 -0.18094681675E+02  0.79049172338E+01 -0.31078531438E+02  0.54367077446E+02  0.39999984653E+02 0.  0.
        -12    1    3    3    0    0  0.18094681675E+02 -0.79049172338E+01  0.31078531438E+02  0.36820922554E+02  0.00000000000E+00 0.  1.
         11    1    4    4    0    0  0.21127599660E+01  0.45409963596E+01 -0.85085988871E+01  0.98732293549E+01  0.51100000000E-03 0. -1.
        -11    1    4    4    0    0  0.81838875825E+01 -0.26615533349E+01 -0.17684046403E+01  0.87856210567E+01  0.51100000000E-03 0.  1.
        -12    1    4    4    0    0 -0.28391329224E+02  0.60254742091E+01 -0.20801527911E+02  0.35708227034E+02  0.00000000000E+00 0.  1.
</event>
<event>
 8    1  0.2527138E-006  0.9118800E+02  0.7816164E-02  0.1184000E+00
        -11   -1    0    0    0    0  0.00000000000E+00  0.00000000000E+00  0.45593999997E+02  0.45594000000E+02  0.51100000000E-03 0.  1.
         11   -1    0    0    0    0 -0.00000000000E+00 -0.00000000000E+00 -0.45593999997E+02  0.45594000000E+02  0.51100000000E-03 0. -1.
         23    2    1    2    0    0 -0.35527136788E-14  0.00000000000E+00 -0.35527136788E-14  0.91188000000E+02  0.91188000000E+02 0.  0.
    9900012    2    3    3    0    0  0.23345571553E+02  0.20050995037E+02  0.20217009428E+02  0.54367006215E+02  0.39999822268E+02 0.  0.
         12    1    3    3    0    0 -0.23345571553E+02 -0.20050995037E+02 -0.20217009428E+02  0.36820993785E+02  0.00000000000E+00 0. -1.
         11    1    4    4    0    0 -0.18575520497E+01  0.98266774976E+01  0.13325068683E+02  0.16660478563E+02  0.51100000000E-03 0. -1.
        -11    1    4    4    0    0  0.58057248880E+01  0.15033646809E+02  0.73588387708E+01  0.17716362103E+02  0.51100000000E-03 0.  1.
         12    1    4    4    0    0  0.19397398715E+02 -0.48093292698E+01 -0.46689802660E+00  0.19990165549E+02  0.00000000000E+00 0. -1.
</event>
<event>
 8    1  0.2527138E-006  0.9118800E+02  0.7816164E-02  0.1184000E+00
        -11   -1    0    0    0    0  0.00000000000E+00  0.00000000000E+00  0.45593999997E+02  0.45594000000E+02  0.51100000000E-03 0.  1.
         11   -1    0    0    0    0 -0.00000000000E+00 -0.00000000000E+00 -0.45593999997E+02  0.45594000000E+02  0.51100000000E-03 0. -1.
         23    2    1    2    0    0  0.00000000000E+00 -0.35527136788E-14  0.00000000000E+00  0.91188000000E+02  0.91188000000E+02 0.  0.
    9900012    2    3    3    0    0 -0.16809411537E+02 -0.69700824889E+01 -0.32010035214E+02  0.54367072248E+02  0.39999972803E+02 0.  0.
        -12    1    3    3    0    0  0.16809411537E+02  0.69700824889E+01  0.32010035214E+02  0.36820927752E+02  0.00000000000E+00 0.  1.
         11    1    4    4    0    0 -0.14629914097E+02  0.11438589273E+02 -0.18652466729E+02  0.26320908540E+02  0.51100000000E-03 0. -1.
        -11    1    4    4    0    0  0.40620892910E+01 -0.16086448836E+00  0.77251777046E+00  0.41380225662E+01  0.51100000000E-03 0.  1.
         12    1    4    4    0    0 -0.62415867309E+01 -0.18247807274E+02 -0.14130086256E+02  0.23908141141E+02  0.00000000000E+00 0. -1.
</event>
<event>
 8    1  0.2527138E-006  0.9118800E+02  0.7816164E-02  0.1184000E+00
        -11   -1    0    0    0    0  0.00000000000E+00  0.00000000000E+00  0.45593999997E+02  0.45594000000E+02  0.51100000000E-03 0.  1.
         11   -1    0    0    0    0 -0.00000000000E+00 -0.00000000000E+00 -0.45593999997E+02  0.45594000000E+02  0.51100000000E-03 0. -1.
         23    2    1    2    0    0 -0.88817841970E-15  0.00000000000E+00  0.00000000000E+00  0.91188000000E+02  0.91188000000E+02 0.  0.
    9900012    2    3    3    0    0 -0.44670019622E+01 -0.17163033312E+02  0.32268451663E+02  0.54367125598E+02  0.40000094426E+02 0.  0.
         12    1    3    3    0    0  0.44670019622E+01  0.17163033312E+02 -0.32268451663E+02  0.36820874402E+02  0.00000000000E+00 0. -1.
         11    1    4    4    0    0  0.34506461076E+01 -0.78294990689E+01 -0.16998491309E+01  0.87233881926E+01  0.51100000000E-03 0.  1.
        -11    1    4    4    0    0  0.41392662518E+01 -0.10116196532E+02  0.15406414355E+01  0.11038321144E+02  0.51100000000E-03 0. -1.
        -12    1    4    4    0    0 -0.12056914322E+02  0.78266228874E+00  0.32427659358E+02  0.34605416262E+02  0.00000000000E+00 0.  1.
</event>
<event>
 8    1  0.2527138E-006  0.9118800E+02  0.7816164E-02  0.1184000E+00
        -11   -1    0    0    0    0  0.00000000000E+00  0.00000000000E+00  0.45593999997E+02  0.45594000000E+02  0.51100000000E-03 0.  1.
         11   -1    0    0    0    0 -0.00000000000E+00 -0.00000000000E+00 -0.45593999997E+02  0.45594000000E+02  0.51100000000E-03 0. -1.
         23    2    1    2    0    0  0.00000000000E+00  0.00000000000E+00 -0.88817841970E-15  0.91188000000E+02  0.91188000000E+02 0.  0.
    9900012    2    3    3    0    0  0.13130813667E+02  0.33857270723E+02  0.60864829311E+01  0.54367104806E+02  0.40000047027E+02 0.  0.
        -12    1    3    3    0    0 -0.13130813667E+02 -0.33857270723E+02 -0.60864829311E+01  0.36820895194E+02  0.00000000000E+00 0.  1.
         11    1    4    4    0    0  0.54207433166E+01  0.91222979845E+01 -0.45562205526E+01  0.11548156762E+02  0.51100000000E-03 0. -1.
        -11    1    4    4    0    0  0.36430869178E+01  0.30770361286E+02  0.13488389231E+01  0.31014618854E+02  0.51100000000E-03 0.  1.
        -12    1    4    4    0    0  0.40669834326E+01 -0.60353885470E+01  0.92938645605E+01  0.11804329190E+02  0.00000000000E+00 0.  1.
</event>
<event>
 8    1  0.2527138E-006  0.9118800E+02  0.7816164E-02  0.1184000E+00
        -11   -1    0    0    0    0  0.00000000000E+00  0.00000000000E+00  0.45593999997E+02  0.45594000000E+02  0.51100000000E-03 0. -1.
         11   -1    0    0    0    0 -0.00000000000E+00 -0.00000000000E+00 -0.45593999997E+02  0.45594000000E+02  0.51100000000E-03 0.  1.
         23    2    1    2    0    0  0.00000000000E+00  0.00000000000E+00  0.00000000000E+00  0.91188000000E+02  0.91188000000E+02 0.  0.
    9900012    2    3    3    0    0  0.16876132334E+02 -0.64430710675E+01  0.32085239514E+02  0.54367087436E+02  0.40000007428E+02 0.  0.
        -12    1    3    3    0    0 -0.16876132334E+02  0.64430710675E+01 -0.32085239514E+02  0.36820912564E+02  0.00000000000E+00 0.  1.
         11    1    4    4    0    0  0.85117709991E+01  0.47686465424E+01 -0.28746448633E+01  0.10171225036E+02  0.51100000000E-03 0. -1.
        -11    1    4    4    0    0  0.17840524379E+01  0.75838680597E+00 -0.31573802717E+01  0.37050025762E+01  0.51100000000E-03 0.  1.
         12    1    4    4    0    0  0.65803088970E+01 -0.11970104416E+02  0.38117264649E+02  0.40490859824E+02  0.00000000000E+00 0. -1.
</event>
<event>
 8    1  0.2527138E-006  0.9118800E+02  0.7816164E-02  0.1184000E+00
        -11   -1    0    0    0    0  0.00000000000E+00  0.00000000000E+00  0.45593999997E+02  0.45594000000E+02  0.51100000000E-03 0.  1.
         11   -1    0    0    0    0 -0.00000000000E+00 -0.00000000000E+00 -0.45593999997E+02  0.45594000000E+02  0.51100000000E-03 0. -1.
         23    2    1    2    0    0  0.00000000000E+00  0.00000000000E+00  0.00000000000E+00  0.91188000000E+02  0.91188000000E+02 0.  0.
    9900012    2    3    3    0    0  0.67183900876E+01  0.95702948441E+01 -0.34914947367E+02  0.54367070376E+02  0.39999968536E+02 0.  0.
        -12    1    3    3    0    0 -0.67183900876E+01 -0.95702948441E+01  0.34914947367E+02  0.36820929624E+02  0.00000000000E+00 0.  1.
         11    1    4    4    0    0  0.80011360462E+01  0.52297697256E+01 -0.33765119192E+02  0.35092049580E+02  0.51100000000E-03 0. -1.
        -11    1    4    4    0    0  0.65302703052E+01  0.23399181944E+01 -0.65728333404E+01  0.95562432889E+01  0.51100000000E-03 0.  1.
        -12    1    4    4    0    0 -0.78130162637E+01  0.20006069241E+01  0.54230051658E+01  0.97187775070E+01  0.00000000000E+00 0.  1.
</event>
<event>
 8    1  0.2527138E-006  0.9118800E+02  0.7816164E-02  0.1184000E+00
        -11   -1    0    0    0    0  0.00000000000E+00  0.00000000000E+00  0.45593999997E+02  0.45594000000E+02  0.51100000000E-03 0. -1.
         11   -1    0    0    0    0 -0.00000000000E+00 -0.00000000000E+00 -0.45593999997E+02  0.45594000000E+02  0.51100000000E-03 0.  1.
         23    2    1    2    0    0  0.00000000000E+00  0.00000000000E+00  0.00000000000E+00  0.91188000000E+02  0.91188000000E+02 0.  0.
    9900012    2    3    3    0    0 -0.12096567628E+02  0.65982518007E+01 -0.34145507112E+02  0.54367088399E+02  0.40000009624E+02 0.  0.
         12    1    3    3    0    0  0.12096567628E+02 -0.65982518007E+01  0.34145507112E+02  0.36820911601E+02  0.00000000000E+00 0. -1.
         11    1    4    4    0    0 -0.82741420862E+01  0.26845453280E+01  0.51925177858E+01  0.10130668887E+02  0.51100000000E-03 0. -1.
        -11    1    4    4    0    0 -0.93315961254E+01 -0.28077120840E+01 -0.11500997302E+02  0.15074311679E+02  0.51100000000E-03 0.  1.
         12    1    4    4    0    0  0.55091705835E+01  0.67214185567E+01 -0.27837027595E+02  0.29162107833E+02  0.00000000000E+00 0. -1.
</event>
<event>
 8    1  0.2527138E-006  0.9118800E+02  0.7816164E-02  0.1184000E+00
        -11   -1    0    0    0    0  0.00000000000E+00  0.00000000000E+00  0.45593999997E+02  0.45594000000E+02  0.51100000000E-03 0.  1.
         11   -1    0    0    0    0 -0.00000000000E+00 -0.00000000000E+00 -0.45593999997E+02  0.45594000000E+02  0.51100000000E-03 0. -1.
         23    2    1    2    0    0 -0.44408920985E-15  0.17763568394E-14  0.00000000000E+00  0.91188000000E+02  0.91188000000E+02 0.  0.
    9900012    2    3    3    0    0 -0.32949023087E+01  0.12653552379E+02 -0.34421103625E+02  0.54367066500E+02  0.39999959700E+02 0.  0.
        -12    1    3    3    0    0  0.32949023087E+01 -0.12653552379E+02  0.34421103625E+02  0.36820933500E+02  0.00000000000E+00 0.  1.
         11    1    4    4    0    0  0.13586513314E+01 -0.53937152705E+00 -0.11321515221E+02  0.11415496584E+02  0.51100000000E-03 0. -1.
        -11    1    4    4    0    0  0.65618273739E+01 -0.71989457023E+01  0.56978280451E+00  0.97574100260E+01  0.51100000000E-03 0.  1.
        -12    1    4    4    0    0 -0.11215381014E+02  0.20391869609E+02 -0.23669371208E+02  0.33194159890E+02  0.00000000000E+00 0.  1.
</event>
<event>
 8    1  0.2527138E-006  0.9118800E+02  0.7816164E-02  0.1184000E+00
        -11   -1    0    0    0    0  0.00000000000E+00  0.00000000000E+00  0.45593999997E+02  0.45594000000E+02  0.51100000000E-03 0.  1.
         11   -1    0    0    0    0 -0.00000000000E+00 -0.00000000000E+00 -0.45593999997E+02  0.45594000000E+02  0.51100000000E-03 0. -1.
         23    2    1    2    0    0 -0.35527136788E-14  0.00000000000E+00  0.00000000000E+00  0.91188000000E+02  0.91188000000E+02 0.  0.
    9900012    2    3    3    0    0 -0.28512044864E+02  0.14001777477E+02  0.18622610763E+02  0.54366971953E+02  0.39999744160E+02 0.  0.
         12    1    3    3    0    0  0.28512044864E+02 -0.14001777477E+02 -0.18622610763E+02  0.36821028047E+02  0.00000000000E+00 0. -1.
         11    1    4    4    0    0 -0.54750669961E+01  0.21072789492E+01  0.17249914240E+02  0.18220222961E+02  0.51100000000E-03 0. -1.
        -11    1    4    4    0    0 -0.28350311838E+02  0.11829909421E+02  0.20614161050E+01  0.30788575395E+02  0.51100000000E-03 0.  1.
        -12    1    4    4    0    0  0.53133339703E+01  0.64589106528E-01 -0.68871958226E+00  0.53581735970E+01  0.00000000000E+00 0.  1.
</event>
<event>
 8    1  0.2527138E-006  0.9118800E+02  0.7816164E-02  0.1184000E+00
        -11   -1    0    0    0    0  0.00000000000E+00  0.00000000000E+00  0.45593999997E+02  0.45594000000E+02  0.51100000000E-03 0. -1.
         11   -1    0    0    0    0 -0.00000000000E+00 -0.00000000000E+00 -0.45593999997E+02  0.45594000000E+02  0.51100000000E-03 0.  1.
         23    2    1    2    0    0 -0.71054273576E-14 -0.35527136788E-14  0.00000000000E+00  0.91188000000E+02  0.91188000000E+02 0.  0.
    9900012    2    3    3    0    0  0.25318434886E+02 -0.26619617304E+02 -0.24790248921E+01  0.54367180686E+02  0.40000220010E+02 0.  0.
        -12    1    3    3    0    0 -0.25318434886E+02  0.26619617304E+02  0.24790248921E+01  0.36820819314E+02  0.00000000000E+00 0.  1.
         11    1    4    4    0    0  0.27530798355E+02 -0.65584527915E+01 -0.19610378879E+01  0.28369064682E+02  0.51100000000E-03 0. -1.
        -11    1    4    4    0    0  0.28832294131E+01 -0.19824340145E+02  0.23098509348E+01  0.20165636256E+02  0.51100000000E-03 0.  1.
        -12    1    4    4    0    0 -0.50955928819E+01 -0.23682436819E+00 -0.28278379389E+01  0.58324797478E+01  0.00000000000E+00 0.  1.
</event>
<event>
 8    1  0.2527138E-006  0.9118800E+02  0.7816164E-02  0.1184000E+00
        -11   -1    0    0    0    0  0.00000000000E+00  0.00000000000E+00  0.45593999997E+02  0.45594000000E+02  0.51100000000E-03 0.  1.
         11   -1    0    0    0    0 -0.00000000000E+00 -0.00000000000E+00 -0.45593999997E+02  0.45594000000E+02  0.51100000000E-03 0. -1.
         23    2    1    2    0    0 -0.35527136788E-14  0.00000000000E+00  0.00000000000E+00  0.91188000000E+02  0.91188000000E+02 0.  0.
    9900012    2    3    3    0    0  0.24120547058E+02  0.26511596036E+02 -0.84329132602E+01  0.54367088268E+02  0.40000009324E+02 0.  0.
        -12    1    3    3    0    0 -0.24120547058E+02 -0.26511596036E+02  0.84329132602E+01  0.36820911732E+02  0.00000000000E+00 0.  1.
         11    1    4    4    0    0  0.17917741481E+01  0.51974607835E+01 -0.33793871729E+01  0.64532403581E+01  0.51100000000E-03 0. -1.
        -11    1    4    4    0    0  0.32197283401E+02  0.15682550067E+02 -0.92731720605E+00  0.35825512592E+02  0.51100000000E-03 0.  1.
         12    1    4    4    0    0 -0.98685104915E+01  0.56315851858E+01 -0.41262088812E+01  0.12088335318E+02  0.00000000000E+00 0. -1.
</event>
<event>
 8    1  0.2527138E-006  0.9118800E+02  0.7816164E-02  0.1184000E+00
        -11   -1    0    0    0    0  0.00000000000E+00  0.00000000000E+00  0.45593999997E+02  0.45594000000E+02  0.51100000000E-03 0. -1.
         11   -1    0    0    0    0 -0.00000000000E+00 -0.00000000000E+00 -0.45593999997E+02  0.45594000000E+02  0.51100000000E-03 0.  1.
         23    2    1    2    0    0  0.00000000000E+00  0.00000000000E+00  0.00000000000E+00  0.91188000000E+02  0.91188000000E+02 0.  0.
    9900012    2    3    3    0    0  0.19049821548E+02 -0.23764957612E+02  0.20690806341E+02  0.54367104053E+02  0.40000045309E+02 0.  0.
        -12    1    3    3    0    0 -0.19049821548E+02  0.23764957612E+02 -0.20690806341E+02  0.36820895947E+02  0.00000000000E+00 0.  1.
         11    1    4    4    0    0 -0.70214453035E+00 -0.22164562474E+02  0.14452309507E+02  0.26469417957E+02  0.51100000000E-03 0. -1.
        -11    1    4    4    0    0  0.51240801909E+01 -0.84963776645E+01  0.62489900690E+01  0.11725805233E+02  0.51100000000E-03 0.  1.
        -12    1    4    4    0    0  0.14627885887E+02  0.68959825270E+01 -0.10493234687E-01  0.16171880863E+02  0.00000000000E+00 0.  1.
</event>
<event>
 8    1  0.2527138E-006  0.9118800E+02  0.7816164E-02  0.1184000E+00
        -11   -1    0    0    0    0  0.00000000000E+00  0.00000000000E+00  0.45593999997E+02  0.45594000000E+02  0.51100000000E-03 0.  1.
         11   -1    0    0    0    0 -0.00000000000E+00 -0.00000000000E+00 -0.45593999997E+02  0.45594000000E+02  0.51100000000E-03 0. -1.
         23    2    1    2    0    0 -0.71054273576E-14  0.88817841970E-15 -0.17763568394E-14  0.91188000000E+02  0.91188000000E+02 0.  0.
    9900012    2    3    3    0    0  0.35956999088E+02 -0.72395960680E+01 -0.32346267041E+01  0.54367077353E+02  0.39999984442E+02 0.  0.
        -12    1    3    3    0    0 -0.35956999088E+02  0.72395960680E+01  0.32346267041E+01  0.36820922647E+02  0.00000000000E+00 0.  1.
         11    1    4    4    0    0  0.68783112583E+01 -0.15451069825E+02 -0.87241790111E+01  0.19030449920E+02  0.51100000000E-03 0. -1.
        -11    1    4    4    0    0  0.36210607188E+01  0.86981466405E+01  0.90781324527E+00  0.94654086472E+01  0.51100000000E-03 0.  1.
         12    1    4    4    0    0  0.25457627111E+02 -0.48667288370E+00  0.45817390618E+01  0.25871218785E+02  0.00000000000E+00 0. -1.
</event>
<event>
 8    1  0.2527138E-006  0.9118800E+02  0.7816164E-02  0.1184000E+00
        -11   -1    0    0    0    0  0.00000000000E+00  0.00000000000E+00  0.45593999997E+02  0.45594000000E+02  0.51100000000E-03 0.  1.
         11   -1    0    0    0    0 -0.00000000000E+00 -0.00000000000E+00 -0.45593999997E+02  0.45594000000E+02  0.51100000000E-03 0. -1.
         23    2    1    2    0    0  0.00000000000E+00  0.00000000000E+00  0.71054273576E-14  0.91188000000E+02  0.91188000000E+02 0.  0.
    9900012    2    3    3    0    0  0.72818186806E+01  0.71062623549E+01  0.35387199327E+02  0.54367112936E+02  0.40000065561E+02 0.  0.
         12    1    3    3    0    0 -0.72818186806E+01 -0.71062623549E+01 -0.35387199327E+02  0.36820887064E+02  0.00000000000E+00 0. -1.
         11    1    4    4    0    0 -0.76873707610E+00 -0.18631471535E+01 -0.76197725301E+01  0.78818276865E+01  0.51100000000E-03 0. -1.
        -11    1    4    4    0    0  0.77665760845E+01  0.17894518971E+01  0.10437203655E+02  0.13132290835E+02  0.51100000000E-03 0.  1.
         12    1    4    4    0    0  0.28397967226E+00  0.71799576114E+01  0.32569768201E+02  0.33352994415E+02  0.00000000000E+00 0. -1.
</event>
<event>
 8    1  0.2527138E-006  0.9118800E+02  0.7816164E-02  0.1184000E+00
        -11   -1    0    0    0    0  0.00000000000E+00  0.00000000000E+00  0.45593999997E+02  0.45594000000E+02  0.51100000000E-03 0. -1.
         11   -1    0    0    0    0 -0.00000000000E+00 -0.00000000000E+00 -0.45593999997E+02  0.45594000000E+02  0.51100000000E-03 0.  1.
         23    2    1    2    0    0 -0.35527136788E-14  0.00000000000E+00  0.00000000000E+00  0.91188000000E+02  0.91188000000E+02 0.  0.
    9900012    2    3    3    0    0  0.22474258231E+02 -0.20394198856E+02  0.20851002604E+02  0.54367082852E+02  0.39999996978E+02 0.  0.
        -12    1    3    3    0    0 -0.22474258231E+02  0.20394198856E+02 -0.20851002604E+02  0.36820917148E+02  0.00000000000E+00 0.  1.
         11    1    4    4    0    0 -0.53100395297E+01 -0.34669915506E+01 -0.26547124711E+01  0.68748853652E+01  0.51100000000E-03 0. -1.
        -11    1    4    4    0    0  0.15191587497E+02  0.78728417657E+00 -0.35565369860E+00  0.15216130812E+02  0.51100000000E-03 0.  1.
         12    1    4    4    0    0  0.12592710263E+02 -0.17714491482E+02  0.23861368774E+02  0.32276066675E+02  0.00000000000E+00 0. -1.
</event>
<event>
 8    1  0.2527138E-006  0.9118800E+02  0.7816164E-02  0.1184000E+00
        -11   -1    0    0    0    0  0.00000000000E+00  0.00000000000E+00  0.45593999997E+02  0.45594000000E+02  0.51100000000E-03 0. -1.
         11   -1    0    0    0    0 -0.00000000000E+00 -0.00000000000E+00 -0.45593999997E+02  0.45594000000E+02  0.51100000000E-03 0.  1.
         23    2    1    2    0    0 -0.35527136788E-14 -0.35527136788E-14  0.35527136788E-14  0.91188000000E+02  0.91188000000E+02 0.  0.
    9900012    2    3    3    0    0  0.14711102776E+02  0.31040169512E+02 -0.13261695731E+02  0.54367065168E+02  0.39999956663E+02 0.  0.
        -12    1    3    3    0    0 -0.14711102776E+02 -0.31040169512E+02  0.13261695731E+02  0.36820934832E+02  0.00000000000E+00 0.  1.
         11    1    4    4    0    0 -0.24378882192E+01 -0.19789647459E+01  0.76047488240E+00  0.32307774208E+01  0.51100000000E-03 0. -1.
        -11    1    4    4    0    0  0.95960425156E+01  0.33657668481E+01  0.84086738939E+01  0.13195386139E+02  0.51100000000E-03 0.  1.
         12    1    4    4    0    0  0.75529484799E+01  0.29653367410E+02 -0.22430844508E+02  0.37940901608E+02  0.00000000000E+00 0. -1.
</event>
<event>
 8    1  0.2527138E-006  0.9118800E+02  0.7816164E-02  0.1184000E+00
        -11   -1    0    0    0    0  0.00000000000E+00  0.00000000000E+00  0.45593999997E+02  0.45594000000E+02  0.51100000000E-03 0.  1.
         11   -1    0    0    0    0 -0.00000000000E+00 -0.00000000000E+00 -0.45593999997E+02  0.45594000000E+02  0.51100000000E-03 0. -1.
         23    2    1    2    0    0  0.00000000000E+00  0.17763568394E-14  0.00000000000E+00  0.91188000000E+02  0.91188000000E+02 0.  0.
    9900012    2    3    3    0    0 -0.92993370722E+01 -0.82948008735E+01  0.34648218674E+02  0.54367075938E+02  0.39999981216E+02 0.  0.
         12    1    3    3    0    0  0.92993370722E+01  0.82948008735E+01 -0.34648218674E+02  0.36820924062E+02  0.00000000000E+00 0. -1.
         11    1    4    4    0    0  0.70423127712E+01  0.98922770909E+01  0.10578036138E+02  0.16104228141E+02  0.51100000000E-03 0. -1.
        -11    1    4    4    0    0 -0.54129438539E+01 -0.14177399436E+01  0.15518343288E+02  0.16496330695E+02  0.51100000000E-03 0.  1.
        -12    1    4    4    0    0 -0.10928705990E+02 -0.16769338021E+02  0.85518392474E+01  0.21766517103E+02  0.00000000000E+00 0.  1.
</event>
<event>
 8    1  0.2527138E-006  0.9118800E+02  0.7816164E-02  0.1184000E+00
        -11   -1    0    0    0    0  0.00000000000E+00  0.00000000000E+00  0.45593999997E+02  0.45594000000E+02  0.51100000000E-03 0. -1.
         11   -1    0    0    0    0 -0.00000000000E+00 -0.00000000000E+00 -0.45593999997E+02  0.45594000000E+02  0.51100000000E-03 0.  1.
         23    2    1    2    0    0  0.17763568394E-14  0.35527136788E-14  0.00000000000E+00  0.91188000000E+02  0.91188000000E+02 0.  0.
    9900012    2    3    3    0    0 -0.11409945220E+02  0.21508836871E+02 -0.27621723496E+02  0.54367129256E+02  0.40000102765E+02 0.  0.
         12    1    3    3    0    0  0.11409945220E+02 -0.21508836871E+02  0.27621723496E+02  0.36820870744E+02  0.00000000000E+00 0. -1.
         11    1    4    4    0    0  0.13841940847E+02  0.58783982270E+01 -0.59529289589E+01  0.16173813885E+02  0.51100000000E-03 0. -1.
        -11    1    4    4    0    0 -0.32918582700E+01  0.42975565716E+01 -0.87992265979E+01  0.10331104120E+02  0.51100000000E-03 0.  1.
         12    1    4    4    0    0 -0.21960027796E+02  0.11332882073E+02 -0.12869567939E+02  0.27862211252E+02  0.00000000000E+00 0. -1.
</event>
<event>
 8    1  0.2527138E-006  0.9118800E+02  0.7816164E-02  0.1184000E+00
        -11   -1    0    0    0    0  0.00000000000E+00  0.00000000000E+00  0.45593999997E+02  0.45594000000E+02  0.51100000000E-03 0.  1.
         11   -1    0    0    0    0 -0.00000000000E+00 -0.00000000000E+00 -0.45593999997E+02  0.45594000000E+02  0.51100000000E-03 0. -1.
         23    2    1    2    0    0 -0.26645352591E-14  0.00000000000E+00  0.71054273576E-14  0.91188000000E+02  0.91188000000E+02 0.  0.
    9900012    2    3    3    0    0 -0.31302673543E+01 -0.29556112134E+02  0.21735144782E+02  0.54367097555E+02  0.40000030496E+02 0.  0.
         12    1    3    3    0    0  0.31302673543E+01  0.29556112134E+02 -0.21735144782E+02  0.36820902445E+02  0.00000000000E+00 0. -1.
         11    1    4    4    0    0  0.14068221644E+02 -0.12528978694E+02 -0.51410237017E+00  0.18845542413E+02  0.51100000000E-03 0. -1.
        -11    1    4    4    0    0 -0.11172194289E+02 -0.13363433449E+02  0.22512305229E+02  0.28464067977E+02  0.51100000000E-03 0.  1.
         12    1    4    4    0    0 -0.60262947089E+01 -0.36636999903E+01 -0.26305807679E+00  0.70574871653E+01  0.00000000000E+00 0. -1.
</event>
<event>
 8    1  0.2527138E-006  0.9118800E+02  0.7816164E-02  0.1184000E+00
        -11   -1    0    0    0    0  0.00000000000E+00  0.00000000000E+00  0.45593999997E+02  0.45594000000E+02  0.51100000000E-03 0.  1.
         11   -1    0    0    0    0 -0.00000000000E+00 -0.00000000000E+00 -0.45593999997E+02  0.45594000000E+02  0.51100000000E-03 0. -1.
         23    2    1    2    0    0  0.17763568394E-14  0.22204460493E-15  0.00000000000E+00  0.91188000000E+02  0.91188000000E+02 0.  0.
    9900012    2    3    3    0    0  0.10698374173E+02 -0.18908113570E+01  0.35181581584E+02  0.54367162689E+02  0.40000178982E+02 0.  0.
         12    1    3    3    0    0 -0.10698374173E+02  0.18908113570E+01 -0.35181581584E+02  0.36820837311E+02  0.00000000000E+00 0. -1.
         11    1    4    4    0    0 -0.66962473755E+01  0.62824529933E+01  0.10958537368E+01  0.92471530862E+01  0.51100000000E-03 0. -1.
        -11    1    4    4    0    0  0.11870074897E+02 -0.15185275596E+02  0.16392169170E+02  0.25302064803E+02  0.51100000000E-03 0.  1.
         12    1    4    4    0    0  0.55245466510E+01  0.70120112453E+01  0.17693558677E+02  0.19817944800E+02  0.00000000000E+00 0. -1.
</event>
<event>
 8    1  0.2527138E-006  0.9118800E+02  0.7816164E-02  0.1184000E+00
        -11   -1    0    0    0    0  0.00000000000E+00  0.00000000000E+00  0.45593999997E+02  0.45594000000E+02  0.51100000000E-03 0.  1.
         11   -1    0    0    0    0 -0.00000000000E+00 -0.00000000000E+00 -0.45593999997E+02  0.45594000000E+02  0.51100000000E-03 0. -1.
         23    2    1    2    0    0 -0.17763568394E-14  0.00000000000E+00  0.00000000000E+00  0.91188000000E+02  0.91188000000E+02 0.  0.
    9900012    2    3    3    0    0 -0.11490447863E+02  0.23751791411E+02  0.25682732452E+02  0.54367072072E+02  0.39999972402E+02 0.  0.
         12    1    3    3    0    0  0.11490447863E+02 -0.23751791411E+02 -0.25682732452E+02  0.36820927928E+02  0.00000000000E+00 0. -1.
         11    1    4    4    0    0  0.56081108998E+01  0.14349818250E+02  0.21827907707E+02  0.26717517601E+02  0.51100000000E-03 0.  1.
        -11    1    4    4    0    0 -0.92169121474E+01 -0.50225224299E+01  0.39409768036E+01  0.11211980178E+02  0.51100000000E-03 0. -1.
        -12    1    4    4    0    0 -0.78816466158E+01  0.14424495591E+02 -0.86152058488E-01  0.16437574292E+02  0.00000000000E+00 0.  1.
</event>
<event>
 8    1  0.2527138E-006  0.9118800E+02  0.7816164E-02  0.1184000E+00
        -11   -1    0    0    0    0  0.00000000000E+00  0.00000000000E+00  0.45593999997E+02  0.45594000000E+02  0.51100000000E-03 0.  1.
         11   -1    0    0    0    0 -0.00000000000E+00 -0.00000000000E+00 -0.45593999997E+02  0.45594000000E+02  0.51100000000E-03 0. -1.
         23    2    1    2    0    0  0.00000000000E+00  0.00000000000E+00  0.00000000000E+00  0.91188000000E+02  0.91188000000E+02 0.  0.
    9900012    2    3    3    0    0  0.15665861020E+02 -0.31449294387E+02 -0.11013747873E+02  0.54367082560E+02  0.39999996311E+02 0.  0.
         12    1    3    3    0    0 -0.15665861020E+02  0.31449294387E+02  0.11013747873E+02  0.36820917440E+02  0.00000000000E+00 0. -1.
         11    1    4    4    0    0  0.20132652462E+01 -0.16267211880E+02 -0.19415444451E+02  0.25409346760E+02  0.51100000000E-03 0. -1.
        -11    1    4    4    0    0  0.70066678432E+01 -0.18041293729E+02  0.96329019068E+01  0.21618845323E+02  0.51100000000E-03 0.  1.
         12    1    4    4    0    0  0.66459279301E+01  0.28592112217E+01 -0.12312053287E+01  0.73388904764E+01  0.00000000000E+00 0. -1.
</event>
<event>
 8    1  0.2527138E-006  0.9118800E+02  0.7816164E-02  0.1184000E+00
        -11   -1    0    0    0    0  0.00000000000E+00  0.00000000000E+00  0.45593999997E+02  0.45594000000E+02  0.51100000000E-03 0.  1.
         11   -1    0    0    0    0 -0.00000000000E+00 -0.00000000000E+00 -0.45593999997E+02  0.45594000000E+02  0.51100000000E-03 0. -1.
         23    2    1    2    0    0 -0.88817841970E-15  0.00000000000E+00  0.35527136788E-14  0.91188000000E+02  0.91188000000E+02 0.  0.
    9900012    2    3    3    0    0 -0.69491256526E+01  0.20806570431E+02  0.29573229992E+02  0.54367086750E+02  0.40000005864E+02 0.  0.
         12    1    3    3    0    0  0.69491256526E+01 -0.20806570431E+02 -0.29573229992E+02  0.36820913250E+02  0.00000000000E+00 0. -1.
         11    1    4    4    0    0  0.96548259155E+01  0.13828217487E+02  0.17898404026E+02  0.24592440490E+02  0.51100000000E-03 0. -1.
        -11    1    4    4    0    0 -0.42893637400E+01 -0.30859363249E+01  0.12782938003E+02  0.13832033421E+02  0.51100000000E-03 0.  1.
        -12    1    4    4    0    0 -0.12314587828E+02  0.10064289269E+02 -0.11081120368E+01  0.15942612839E+02  0.00000000000E+00 0.  1.
</event>
<event>
 8    1  0.2527138E-006  0.9118800E+02  0.7816164E-02  0.1184000E+00
        -11   -1    0    0    0    0  0.00000000000E+00  0.00000000000E+00  0.45593999997E+02  0.45594000000E+02  0.51100000000E-03 0.  1.
         11   -1    0    0    0    0 -0.00000000000E+00 -0.00000000000E+00 -0.45593999997E+02  0.45594000000E+02  0.51100000000E-03 0. -1.
         23    2    1    2    0    0 -0.35527136788E-14  0.71054273576E-14 -0.44408920985E-15  0.91188000000E+02  0.91188000000E+02 0.  0.
    9900012    2    3    3    0    0 -0.30935646276E+02  0.19907670476E+02 -0.15626958723E+01  0.54367196469E+02  0.40000255990E+02 0.  0.
        -12    1    3    3    0    0  0.30935646276E+02 -0.19907670476E+02  0.15626958723E+01  0.36820803531E+02  0.00000000000E+00 0.  1.
         11    1    4    4    0    0 -0.27672819996E+01  0.36129668782E+01  0.61034026366E+01  0.76133372008E+01  0.51100000000E-03 0. -1.
        -11    1    4    4    0    0 -0.13016642547E+02 -0.75846131144E+01  0.48510249659E+01  0.15826932197E+02  0.51100000000E-03 0.  1.
         12    1    4    4    0    0 -0.15151721729E+02  0.23879316712E+02 -0.12517123475E+02  0.30926927071E+02  0.00000000000E+00 0. -1.
</event>
<event>
 8    1  0.2527138E-006  0.9118800E+02  0.7816164E-02  0.1184000E+00
        -11   -1    0    0    0    0  0.00000000000E+00  0.00000000000E+00  0.45593999997E+02  0.45594000000E+02  0.51100000000E-03 0.  1.
         11   -1    0    0    0    0 -0.00000000000E+00 -0.00000000000E+00 -0.45593999997E+02  0.45594000000E+02  0.51100000000E-03 0. -1.
         23    2    1    2    0    0  0.00000000000E+00  0.71054273576E-14 -0.44408920985E-15  0.91188000000E+02  0.91188000000E+02 0.  0.
    9900012    2    3    3    0    0  0.14036114770E+02 -0.33913026237E+02  0.29452055815E+01  0.54367080643E+02  0.39999991942E+02 0.  0.
        -12    1    3    3    0    0 -0.14036114770E+02  0.33913026237E+02 -0.29452055815E+01  0.36820919357E+02  0.00000000000E+00 0.  1.
         11    1    4    4    0    0  0.10904127183E+02 -0.32023645890E+02 -0.99030163708E+01  0.35248881106E+02  0.51100000000E-03 0. -1.
        -11    1    4    4    0    0  0.50758483893E+01 -0.43570133142E+01  0.14201263771E+02  0.15697888229E+02  0.51100000000E-03 0.  1.
         12    1    4    4    0    0 -0.19438608032E+01  0.24676329672E+01 -0.13530418188E+01  0.34203113084E+01  0.00000000000E+00 0. -1.
</event>
<event>
 8    1  0.2527138E-006  0.9118800E+02  0.7816164E-02  0.1184000E+00
        -11   -1    0    0    0    0  0.00000000000E+00  0.00000000000E+00  0.45593999997E+02  0.45594000000E+02  0.51100000000E-03 0. -1.
         11   -1    0    0    0    0 -0.00000000000E+00 -0.00000000000E+00 -0.45593999997E+02  0.45594000000E+02  0.51100000000E-03 0.  1.
         23    2    1    2    0    0  0.00000000000E+00  0.55511151231E-15  0.00000000000E+00  0.91188000000E+02  0.91188000000E+02 0.  0.
    9900012    2    3    3    0    0  0.37329855367E+01 -0.55849470981E+00  0.36626897345E+02  0.54367126756E+02  0.40000097066E+02 0.  0.
        -12    1    3    3    0    0 -0.37329855367E+01  0.55849470981E+00 -0.36626897345E+02  0.36820873244E+02  0.00000000000E+00 0.  1.
         11    1    4    4    0    0  0.14468100532E+01  0.88312607952E+00  0.14823953595E+02  0.14920548631E+02  0.51100000000E-03 0. -1.
        -11    1    4    4    0    0 -0.30261142128E+01 -0.16181254759E+02  0.15329918823E+02  0.22494372278E+02  0.51100000000E-03 0.  1.
        -12    1    4    4    0    0  0.53122896963E+01  0.14739633970E+02  0.64730249269E+01  0.16952205847E+02  0.00000000000E+00 0.  1.
</event>
<event>
 8    1  0.2527138E-006  0.9118800E+02  0.7816164E-02  0.1184000E+00
        -11   -1    0    0    0    0  0.00000000000E+00  0.00000000000E+00  0.45593999997E+02  0.45594000000E+02  0.51100000000E-03 0. -1.
         11   -1    0    0    0    0 -0.00000000000E+00 -0.00000000000E+00 -0.45593999997E+02  0.45594000000E+02  0.51100000000E-03 0.  1.
         23    2    1    2    0    0  0.00000000000E+00 -0.17763568394E-14  0.00000000000E+00  0.91188000000E+02  0.91188000000E+02 0.  0.
    9900012    2    3    3    0    0 -0.48794313052E+01  0.15816242269E+02 -0.32890993948E+02  0.54367084039E+02  0.39999999683E+02 0.  0.
         12    1    3    3    0    0  0.48794313052E+01 -0.15816242269E+02  0.32890993948E+02  0.36820915961E+02  0.00000000000E+00 0. -1.
         11    1    4    4    0    0 -0.90337273334E+00 -0.19784788232E+01 -0.99534624256E+01  0.10188320532E+02  0.51100000000E-03 0. -1.
        -11    1    4    4    0    0 -0.37900239980E+01  0.24498220806E+01 -0.27735443467E+02  0.28100191008E+02  0.51100000000E-03 0.  1.
        -12    1    4    4    0    0 -0.18603457392E+00  0.15344899012E+02  0.47979119450E+01  0.16078572498E+02  0.00000000000E+00 0.  1.
</event>
<event>
 8    1  0.2527138E-006  0.9118800E+02  0.7816164E-02  0.1184000E+00
        -11   -1    0    0    0    0  0.00000000000E+00  0.00000000000E+00  0.45593999997E+02  0.45594000000E+02  0.51100000000E-03 0. -1.
         11   -1    0    0    0    0 -0.00000000000E+00 -0.00000000000E+00 -0.45593999997E+02  0.45594000000E+02  0.51100000000E-03 0.  1.
         23    2    1    2    0    0 -0.17763568394E-14  0.00000000000E+00  0.00000000000E+00  0.91188000000E+02  0.91188000000E+02 0.  0.
    9900012    2    3    3    0    0  0.12433746229E+02  0.31031459212E+02 -0.15434762779E+02  0.54367062911E+02  0.39999951518E+02 0.  0.
         12    1    3    3    0    0 -0.12433746229E+02 -0.31031459212E+02  0.15434762779E+02  0.36820937089E+02  0.00000000000E+00 0. -1.
         11    1    4    4    0    0 -0.44916732910E+00 -0.52742937222E+01 -0.12138746266E+01  0.54307842369E+01  0.51100000000E-03 0. -1.
        -11    1    4    4    0    0  0.79025291726E+01  0.38372104794E+01 -0.13467409794E+02  0.16079343221E+02  0.51100000000E-03 0.  1.
        -12    1    4    4    0    0  0.49803843857E+01  0.32468542454E+02 -0.75347835808E+00  0.32856935453E+02  0.00000000000E+00 0.  1.
</event>
<event>
 8    1  0.2527138E-006  0.9118800E+02  0.7816164E-02  0.1184000E+00
        -11   -1    0    0    0    0  0.00000000000E+00  0.00000000000E+00  0.45593999997E+02  0.45594000000E+02  0.51100000000E-03 0.  1.
         11   -1    0    0    0    0 -0.00000000000E+00 -0.00000000000E+00 -0.45593999997E+02  0.45594000000E+02  0.51100000000E-03 0. -1.
         23    2    1    2    0    0  0.00000000000E+00  0.00000000000E+00  0.00000000000E+00  0.91188000000E+02  0.91188000000E+02 0.  0.
    9900012    2    3    3    0    0 -0.82649009642E+01  0.29787066205E+02 -0.20005047440E+02  0.54367084420E+02  0.40000000553E+02 0.  0.
        -12    1    3    3    0    0  0.82649009642E+01 -0.29787066205E+02  0.20005047440E+02  0.36820915580E+02  0.00000000000E+00 0.  1.
         11    1    4    4    0    0 -0.58052366310E+01  0.33298290434E+02 -0.13687406759E+02  0.36466724863E+02  0.51100000000E-03 0. -1.
        -11    1    4    4    0    0  0.37171009289E+01 -0.53423714699E+01  0.25068389601E+01  0.69743827018E+01  0.51100000000E-03 0.  1.
        -12    1    4    4    0    0 -0.61767652620E+01  0.18311472409E+01 -0.88244796414E+01  0.10925976856E+02  0.00000000000E+00 0.  1.
</event>
<event>
 8    1  0.2527138E-006  0.9118800E+02  0.7816164E-02  0.1184000E+00
        -11   -1    0    0    0    0  0.00000000000E+00  0.00000000000E+00  0.45593999997E+02  0.45594000000E+02  0.51100000000E-03 0.  1.
         11   -1    0    0    0    0 -0.00000000000E+00 -0.00000000000E+00 -0.45593999997E+02  0.45594000000E+02  0.51100000000E-03 0. -1.
         23    2    1    2    0    0  0.17763568394E-14  0.00000000000E+00  0.35527136788E-14  0.91188000000E+02  0.91188000000E+02 0.  0.
    9900012    2    3    3    0    0  0.27103150775E+01 -0.18472348917E+02  0.31736511430E+02  0.54367086919E+02  0.40000006250E+02 0.  0.
         12    1    3    3    0    0 -0.27103150775E+01  0.18472348917E+02 -0.31736511430E+02  0.36820913081E+02  0.00000000000E+00 0. -1.
         11    1    4    4    0    0  0.16969319344E+02 -0.21850935319E+02  0.13421843848E+02  0.30750074241E+02  0.51100000000E-03 0. -1.
        -11    1    4    4    0    0 -0.57657767302E+01  0.17837160531E+01  0.55305934173E+01  0.81861644297E+01  0.51100000000E-03 0.  1.
         12    1    4    4    0    0 -0.84932275360E+01  0.15948703484E+01  0.12784074165E+02  0.15430848249E+02  0.00000000000E+00 0. -1.
</event>
<event>
 8    1  0.2527138E-006  0.9118800E+02  0.7816164E-02  0.1184000E+00
        -11   -1    0    0    0    0  0.00000000000E+00  0.00000000000E+00  0.45593999997E+02  0.45594000000E+02  0.51100000000E-03 0.  1.
         11   -1    0    0    0    0 -0.00000000000E+00 -0.00000000000E+00 -0.45593999997E+02  0.45594000000E+02  0.51100000000E-03 0. -1.
         23    2    1    2    0    0  0.88817841970E-15 -0.88817841970E-15  0.71054273576E-14  0.91188000000E+02  0.91188000000E+02 0.  0.
    9900012    2    3    3    0    0 -0.33056715771E+01 -0.54689478165E+01 -0.36262141388E+02  0.54367085388E+02  0.40000002759E+02 0.  0.
        -12    1    3    3    0    0  0.33056715771E+01  0.54689478165E+01  0.36262141388E+02  0.36820914612E+02  0.00000000000E+00 0.  1.
         11    1    4    4    0    0  0.88507083817E+01 -0.10120752384E+02 -0.31901699385E+02  0.34619114541E+02  0.51100000000E-03 0. -1.
        -11    1    4    4    0    0  0.30461295841E+01  0.19074513945E+01 -0.20218594339E+01  0.41237352118E+01  0.51100000000E-03 0.  1.
         12    1    4    4    0    0 -0.15202509543E+02  0.27443531734E+01 -0.23385825695E+01  0.15624235635E+02  0.00000000000E+00 0. -1.
</event>
<event>
 8    1  0.2527138E-006  0.9118800E+02  0.7816164E-02  0.1184000E+00
        -11   -1    0    0    0    0  0.00000000000E+00  0.00000000000E+00  0.45593999997E+02  0.45594000000E+02  0.51100000000E-03 0.  1.
         11   -1    0    0    0    0 -0.00000000000E+00 -0.00000000000E+00 -0.45593999997E+02  0.45594000000E+02  0.51100000000E-03 0. -1.
         23    2    1    2    0    0  0.00000000000E+00  0.00000000000E+00  0.00000000000E+00  0.91188000000E+02  0.91188000000E+02 0.  0.
    9900012    2    3    3    0    0 -0.14614135472E+02 -0.80761945310E+01  0.32817432861E+02  0.54367057952E+02  0.39999940214E+02 0.  0.
         12    1    3    3    0    0  0.14614135472E+02  0.80761945310E+01 -0.32817432861E+02  0.36820942048E+02  0.00000000000E+00 0. -1.
         11    1    4    4    0    0 -0.23212291429E+01 -0.10843341627E+01 -0.20844114756E+01  0.33028255738E+01  0.51100000000E-03 0. -1.
        -11    1    4    4    0    0  0.56997000098E+01  0.51169588242E+01  0.26864476045E+02  0.27935101955E+02  0.51100000000E-03 0.  1.
        -12    1    4    4    0    0 -0.17992606339E+02 -0.12108819193E+02  0.80373682919E+01  0.23129130424E+02  0.00000000000E+00 0.  1.
</event>
<event>
 8    1  0.2527138E-006  0.9118800E+02  0.7816164E-02  0.1184000E+00
        -11   -1    0    0    0    0  0.00000000000E+00  0.00000000000E+00  0.45593999997E+02  0.45594000000E+02  0.51100000000E-03 0. -1.
         11   -1    0    0    0    0 -0.00000000000E+00 -0.00000000000E+00 -0.45593999997E+02  0.45594000000E+02  0.51100000000E-03 0.  1.
         23    2    1    2    0    0  0.00000000000E+00 -0.17763568394E-14  0.00000000000E+00  0.91188000000E+02  0.91188000000E+02 0.  0.
    9900012    2    3    3    0    0 -0.25504945418E+02 -0.13301982595E+02 -0.22985863268E+02  0.54366879812E+02  0.39999534105E+02 0.  0.
         12    1    3    3    0    0  0.25504945418E+02  0.13301982595E+02  0.22985863268E+02  0.36821120188E+02  0.00000000000E+00 0. -1.
         11    1    4    4    0    0 -0.10256772414E+02 -0.41488429227E+01  0.11656054068E+01  0.11125327599E+02  0.51100000000E-03 0. -1.
        -11    1    4    4    0    0 -0.21220389000E+02 -0.86059932713E+01 -0.27957554177E+02  0.36138523286E+02  0.51100000000E-03 0.  1.
        -12    1    4    4    0    0  0.59722159965E+01 -0.54714640116E+00  0.38060855022E+01  0.71030289274E+01  0.00000000000E+00 0.  1.
</event>
<event>
 8    1  0.2527138E-006  0.9118800E+02  0.7816164E-02  0.1184000E+00
        -11   -1    0    0    0    0  0.00000000000E+00  0.00000000000E+00  0.45593999997E+02  0.45594000000E+02  0.51100000000E-03 0. -1.
         11   -1    0    0    0    0 -0.00000000000E+00 -0.00000000000E+00 -0.45593999997E+02  0.45594000000E+02  0.51100000000E-03 0.  1.
         23    2    1    2    0    0  0.00000000000E+00 -0.35527136788E-14  0.35527136788E-14  0.91188000000E+02  0.91188000000E+02 0.  0.
    9900012    2    3    3    0    0 -0.13144605743E+01 -0.30864893251E+02  0.20035163995E+02  0.54367119534E+02  0.40000080601E+02 0.  0.
         12    1    3    3    0    0  0.13144605743E+01  0.30864893251E+02 -0.20035163995E+02  0.36820880466E+02  0.00000000000E+00 0. -1.
         11    1    4    4    0    0 -0.41157542713E+00 -0.33768297693E+01  0.20604831450E+02  0.20883760509E+02  0.51100000000E-03 0. -1.
        -11    1    4    4    0    0 -0.97930570256E+01 -0.16623191171E+02 -0.18749439980E+01  0.19384268515E+02  0.51100000000E-03 0.  1.
         12    1    4    4    0    0  0.88901718784E+01 -0.10864872311E+02  0.13052765425E+01  0.14099090510E+02  0.00000000000E+00 0. -1.
</event>
<event>
 8    1  0.2527138E-006  0.9118800E+02  0.7816164E-02  0.1184000E+00
        -11   -1    0    0    0    0  0.00000000000E+00  0.00000000000E+00  0.45593999997E+02  0.45594000000E+02  0.51100000000E-03 0. -1.
         11   -1    0    0    0    0 -0.00000000000E+00 -0.00000000000E+00 -0.45593999997E+02  0.45594000000E+02  0.51100000000E-03 0.  1.
         23    2    1    2    0    0  0.00000000000E+00 -0.17763568394E-14  0.00000000000E+00  0.91188000000E+02  0.91188000000E+02 0.  0.
    9900012    2    3    3    0    0 -0.30744709738E+02  0.11772739226E+02 -0.16490776402E+02  0.54367078337E+02  0.39999986685E+02 0.  0.
        -12    1    3    3    0    0  0.30744709738E+02 -0.11772739226E+02  0.16490776402E+02  0.36820921663E+02  0.00000000000E+00 0.  1.
         11    1    4    4    0    0 -0.25410978814E+01 -0.66085160148E+01 -0.44203063128E+00  0.70940153440E+01  0.51100000000E-03 0. -1.
        -11    1    4    4    0    0 -0.16707740988E+02 -0.57668847909E+01 -0.53412129126E+01  0.18464401554E+02  0.51100000000E-03 0.  1.
         12    1    4    4    0    0 -0.11495870869E+02  0.24148140031E+02 -0.10707532858E+02  0.28808661439E+02  0.00000000000E+00 0. -1.
</event>
<event>
 8    1  0.2527138E-006  0.9118800E+02  0.7816164E-02  0.1184000E+00
        -11   -1    0    0    0    0  0.00000000000E+00  0.00000000000E+00  0.45593999997E+02  0.45594000000E+02  0.51100000000E-03 0.  1.
         11   -1    0    0    0    0 -0.00000000000E+00 -0.00000000000E+00 -0.45593999997E+02  0.45594000000E+02  0.51100000000E-03 0. -1.
         23    2    1    2    0    0  0.00000000000E+00  0.66613381478E-15 -0.71054273576E-14  0.91188000000E+02  0.91188000000E+02 0.  0.
    9900012    2    3    3    0    0  0.43093538612E+01  0.12928767601E+01 -0.36545013799E+02  0.54367080747E+02  0.39999992180E+02 0.  0.
        -12    1    3    3    0    0 -0.43093538612E+01 -0.12928767601E+01  0.36545013799E+02  0.36820919253E+02  0.00000000000E+00 0.  1.
         11    1    4    4    0    0  0.19297349898E+01 -0.10457026260E+02 -0.26523246349E+02  0.28575441773E+02  0.51100000000E-03 0. -1.
        -11    1    4    4    0    0  0.24737163386E+01  0.11652951844E+02 -0.15924595571E+02  0.19887264859E+02  0.51100000000E-03 0.  1.
         12    1    4    4    0    0 -0.94097467305E-01  0.96951176223E-01  0.59028281216E+01  0.59043741156E+01  0.00000000000E+00 0. -1.
</event>
<event>
 8    1  0.2527138E-006  0.9118800E+02  0.7816164E-02  0.1184000E+00
        -11   -1    0    0    0    0  0.00000000000E+00  0.00000000000E+00  0.45593999997E+02  0.45594000000E+02  0.51100000000E-03 0.  1.
         11   -1    0    0    0    0 -0.00000000000E+00 -0.00000000000E+00 -0.45593999997E+02  0.45594000000E+02  0.51100000000E-03 0. -1.
         23    2    1    2    0    0  0.35527136788E-14  0.00000000000E+00  0.17763568394E-14  0.91188000000E+02  0.91188000000E+02 0.  0.
    9900012    2    3    3    0    0  0.18973816099E+02  0.29634407884E+02  0.10843182083E+02  0.54367103410E+02  0.40000043845E+02 0.  0.
         12    1    3    3    0    0 -0.18973816099E+02 -0.29634407884E+02 -0.10843182083E+02  0.36820896590E+02  0.00000000000E+00 0. -1.
         11    1    4    4    0    0 -0.70075111872E+01  0.81511477889E+01  0.34885646609E+00  0.10754911641E+02  0.51100000000E-03 0. -1.
        -11    1    4    4    0    0  0.12860685501E+01 -0.40578249845E+01  0.66249128704E+01  0.78746039089E+01  0.51100000000E-03 0.  1.
        -12    1    4    4    0    0  0.24695258736E+02  0.25541085079E+02  0.38694127463E+01  0.35737587860E+02  0.00000000000E+00 0.  1.
</event>
<event>
 8    1  0.2527138E-006  0.9118800E+02  0.7816164E-02  0.1184000E+00
        -11   -1    0    0    0    0  0.00000000000E+00  0.00000000000E+00  0.45593999997E+02  0.45594000000E+02  0.51100000000E-03 0.  1.
         11   -1    0    0    0    0 -0.00000000000E+00 -0.00000000000E+00 -0.45593999997E+02  0.45594000000E+02  0.51100000000E-03 0. -1.
         23    2    1    2    0    0  0.00000000000E+00 -0.17763568394E-14  0.71054273576E-14  0.91188000000E+02  0.91188000000E+02 0.  0.
    9900012    2    3    3    0    0  0.20186316864E+02  0.11416362943E+02 -0.28599976102E+02  0.54367090663E+02  0.40000014785E+02 0.  0.
        -12    1    3    3    0    0 -0.20186316864E+02 -0.11416362943E+02  0.28599976102E+02  0.36820909337E+02  0.00000000000E+00 0.  1.
         11    1    4    4    0    0  0.14378678220E+02  0.79248702400E+01 -0.49665972912E+01  0.17152756180E+02  0.51100000000E-03 0. -1.
        -11    1    4    4    0    0  0.13780985410E+01 -0.60933656172E+01  0.41447099370E+01  0.74971248393E+01  0.51100000000E-03 0.  1.
         12    1    4    4    0    0  0.44295401029E+01  0.95848583196E+01 -0.27778088748E+02  0.29717209644E+02  0.00000000000E+00 0. -1.
</event>
<event>
 8    1  0.2527138E-006  0.9118800E+02  0.7816164E-02  0.1184000E+00
        -11   -1    0    0    0    0  0.00000000000E+00  0.00000000000E+00  0.45593999997E+02  0.45594000000E+02  0.51100000000E-03 0. -1.
         11   -1    0    0    0    0 -0.00000000000E+00 -0.00000000000E+00 -0.45593999997E+02  0.45594000000E+02  0.51100000000E-03 0.  1.
         23    2    1    2    0    0  0.35527136788E-14  0.00000000000E+00 -0.35527136788E-14  0.91188000000E+02  0.91188000000E+02 0.  0.
    9900012    2    3    3    0    0 -0.29713286811E+02 -0.10251461416E+02  0.19178320917E+02  0.54367083832E+02  0.39999999212E+02 0.  0.
        -12    1    3    3    0    0  0.29713286811E+02  0.10251461416E+02 -0.19178320917E+02  0.36820916168E+02  0.00000000000E+00 0.  1.
         11    1    4    4    0    0 -0.57727986869E+01 -0.14371498002E+02  0.94675006483E+01  0.18152099831E+02  0.51100000000E-03 0.  1.
        -11    1    4    4    0    0 -0.25298917217E+01 -0.75505747867E+01 -0.32487735044E+01  0.86003523926E+01  0.51100000000E-03 0. -1.
         12    1    4    4    0    0 -0.21410596402E+02  0.11670611372E+02  0.12959593773E+02  0.27614631608E+02  0.00000000000E+00 0. -1.
</event>
<event>
 8    1  0.2527138E-006  0.9118800E+02  0.7816164E-02  0.1184000E+00
        -11   -1    0    0    0    0  0.00000000000E+00  0.00000000000E+00  0.45593999997E+02  0.45594000000E+02  0.51100000000E-03 0. -1.
         11   -1    0    0    0    0 -0.00000000000E+00 -0.00000000000E+00 -0.45593999997E+02  0.45594000000E+02  0.51100000000E-03 0.  1.
         23    2    1    2    0    0  0.00000000000E+00  0.00000000000E+00  0.35527136788E-14  0.91188000000E+02  0.91188000000E+02 0.  0.
    9900012    2    3    3    0    0  0.30404165993E+02 -0.86937216911E+01  0.18862248264E+02  0.54367102182E+02  0.40000041044E+02 0.  0.
        -12    1    3    3    0    0 -0.30404165993E+02  0.86937216911E+01 -0.18862248264E+02  0.36820897818E+02  0.00000000000E+00 0.  1.
         11    1    4    4    0    0  0.18689824454E+02 -0.12372401507E+02 -0.31990163646E+01  0.22641103400E+02  0.51100000000E-03 0. -1.
        -11    1    4    4    0    0  0.30602937133E+00 -0.61234108959E+01  0.16093237560E+01  0.63387489451E+01  0.51100000000E-03 0.  1.
         12    1    4    4    0    0  0.11408312167E+02  0.98020907121E+01  0.20451940873E+02  0.25387249837E+02  0.00000000000E+00 0. -1.
</event>
<event>
 8    1  0.2527138E-006  0.9118800E+02  0.7816164E-02  0.1184000E+00
        -11   -1    0    0    0    0  0.00000000000E+00  0.00000000000E+00  0.45593999997E+02  0.45594000000E+02  0.51100000000E-03 0. -1.
         11   -1    0    0    0    0 -0.00000000000E+00 -0.00000000000E+00 -0.45593999997E+02  0.45594000000E+02  0.51100000000E-03 0.  1.
         23    2    1    2    0    0  0.35527136788E-14  0.00000000000E+00 -0.35527136788E-14  0.91188000000E+02  0.91188000000E+02 0.  0.
    9900012    2    3    3    0    0 -0.23889986881E+02  0.58223880383E+01  0.27407071767E+02  0.54367092102E+02  0.40000018064E+02 0.  0.
        -12    1    3    3    0    0  0.23889986881E+02 -0.58223880383E+01 -0.27407071767E+02  0.36820907898E+02  0.00000000000E+00 0.  1.
         11    1    4    4    0    0 -0.20181857434E+02  0.43704589284E+01  0.23387927651E+02  0.31199414110E+02  0.51100000000E-03 0. -1.
        -11    1    4    4    0    0 -0.41095225173E+01  0.10417029496E+02 -0.32041228857E+01  0.11647707180E+02  0.51100000000E-03 0.  1.
         12    1    4    4    0    0  0.40139307080E+00 -0.89651003856E+01  0.72232670016E+01  0.11519970811E+02  0.00000000000E+00 0. -1.
</event>
<event>
 8    1  0.2527138E-006  0.9118800E+02  0.7816164E-02  0.1184000E+00
        -11   -1    0    0    0    0  0.00000000000E+00  0.00000000000E+00  0.45593999997E+02  0.45594000000E+02  0.51100000000E-03 0. -1.
         11   -1    0    0    0    0 -0.00000000000E+00 -0.00000000000E+00 -0.45593999997E+02  0.45594000000E+02  0.51100000000E-03 0.  1.
         23    2    1    2    0    0  0.71054273576E-14  0.00000000000E+00 -0.13322676296E-14  0.91188000000E+02  0.91188000000E+02 0.  0.
    9900012    2    3    3    0    0 -0.36527772960E+02  0.37486048994E+01 -0.27291586698E+01  0.54367101815E+02  0.40000040208E+02 0.  0.
         12    1    3    3    0    0  0.36527772960E+02 -0.37486048994E+01  0.27291586698E+01  0.36820898185E+02  0.00000000000E+00 0. -1.
         11    1    4    4    0    0 -0.94315420619E+01 -0.13447773961E+01  0.12893780423E+02  0.16031593363E+02  0.51100000000E-03 0. -1.
        -11    1    4    4    0    0  0.29632860951E+01  0.39038823985E+01 -0.17090662819E+01  0.51905943860E+01  0.51100000000E-03 0.  1.
        -12    1    4    4    0    0 -0.30059516993E+02  0.11894998969E+01 -0.13913872811E+02  0.33144914066E+02  0.00000000000E+00 0.  1.
</event>
<event>
 8    1  0.2527138E-006  0.9118800E+02  0.7816164E-02  0.1184000E+00
        -11   -1    0    0    0    0  0.00000000000E+00  0.00000000000E+00  0.45593999997E+02  0.45594000000E+02  0.51100000000E-03 0.  1.
         11   -1    0    0    0    0 -0.00000000000E+00 -0.00000000000E+00 -0.45593999997E+02  0.45594000000E+02  0.51100000000E-03 0. -1.
         23    2    1    2    0    0  0.00000000000E+00  0.00000000000E+00  0.00000000000E+00  0.91188000000E+02  0.91188000000E+02 0.  0.
    9900012    2    3    3    0    0 -0.22546019676E+02  0.22708014377E+02  0.18215575771E+02  0.54367026074E+02  0.39999867541E+02 0.  0.
         12    1    3    3    0    0  0.22546019676E+02 -0.22708014377E+02 -0.18215575771E+02  0.36820973926E+02  0.00000000000E+00 0. -1.
         11    1    4    4    0    0  0.10521007780E+01  0.74627684903E+00  0.43456510207E+01  0.45330484486E+01  0.51100000000E-03 0. -1.
        -11    1    4    4    0    0 -0.16045675397E+01  0.25411209124E+02  0.93018743362E+01  0.27107730494E+02  0.51100000000E-03 0.  1.
         12    1    4    4    0    0 -0.21993552914E+02 -0.34494715964E+01  0.45680504145E+01  0.22726247131E+02  0.00000000000E+00 0. -1.
</event>
<event>
 8    1  0.2527138E-006  0.9118800E+02  0.7816164E-02  0.1184000E+00
        -11   -1    0    0    0    0  0.00000000000E+00  0.00000000000E+00  0.45593999997E+02  0.45594000000E+02  0.51100000000E-03 0.  1.
         11   -1    0    0    0    0 -0.00000000000E+00 -0.00000000000E+00 -0.45593999997E+02  0.45594000000E+02  0.51100000000E-03 0. -1.
         23    2    1    2    0    0  0.00000000000E+00  0.17763568394E-14  0.00000000000E+00  0.91188000000E+02  0.91188000000E+02 0.  0.
    9900012    2    3    3    0    0 -0.24002551445E+01 -0.14573426563E+02  0.33728849470E+02  0.54367064744E+02  0.39999955697E+02 0.  0.
         12    1    3    3    0    0  0.24002551445E+01  0.14573426563E+02 -0.33728849470E+02  0.36820935256E+02  0.00000000000E+00 0. -1.
         11    1    4    4    0    0 -0.88246943301E-01 -0.14478968519E+02 -0.15964414918E+01  0.14566981245E+02  0.51100000000E-03 0. -1.
        -11    1    4    4    0    0  0.58503385579E+00  0.86758099289E+01  0.21301014647E+02  0.23007502424E+02  0.51100000000E-03 0.  1.
        -12    1    4    4    0    0 -0.28970420570E+01 -0.87702679726E+01  0.14024276315E+02  0.16792581074E+02  0.00000000000E+00 0.  1.
</event>
<event>
 8    1  0.2527138E-006  0.9118800E+02  0.7816164E-02  0.1184000E+00
        -11   -1    0    0    0    0  0.00000000000E+00  0.00000000000E+00  0.45593999997E+02  0.45594000000E+02  0.51100000000E-03 0. -1.
         11   -1    0    0    0    0 -0.00000000000E+00 -0.00000000000E+00 -0.45593999997E+02  0.45594000000E+02  0.51100000000E-03 0.  1.
         23    2    1    2    0    0  0.00000000000E+00  0.00000000000E+00  0.00000000000E+00  0.91188000000E+02  0.91188000000E+02 0.  0.
    9900012    2    3    3    0    0 -0.13159285231E+02 -0.44460899025E+01 -0.34100512176E+02  0.54367089720E+02  0.40000012634E+02 0.  0.
         12    1    3    3    0    0  0.13159285231E+02  0.44460899025E+01  0.34100512176E+02  0.36820910280E+02  0.00000000000E+00 0. -1.
         11    1    4    4    0    0 -0.63611665713E+01 -0.78346292551E+00 -0.25410551008E+01  0.68945787101E+01  0.51100000000E-03 0. -1.
        -11    1    4    4    0    0 -0.21025699273E+02 -0.27737440617E+01 -0.18842579157E+02  0.28369287541E+02  0.51100000000E-03 0.  1.
         12    1    4    4    0    0  0.14227580613E+02 -0.88888291527E+00 -0.12716877918E+02  0.19103223469E+02  0.00000000000E+00 0. -1.
</event>
<event>
 8    1  0.2527138E-006  0.9118800E+02  0.7816164E-02  0.1184000E+00
        -11   -1    0    0    0    0  0.00000000000E+00  0.00000000000E+00  0.45593999997E+02  0.45594000000E+02  0.51100000000E-03 0.  1.
         11   -1    0    0    0    0 -0.00000000000E+00 -0.00000000000E+00 -0.45593999997E+02  0.45594000000E+02  0.51100000000E-03 0. -1.
         23    2    1    2    0    0 -0.12108369862E-14  0.35527136788E-14 -0.35527136788E-14  0.91188000000E+02  0.91188000000E+02 0.  0.
    9900012    2    3    3    0    0  0.74680362818E-02 -0.21078848648E+02  0.30190422911E+02  0.54367088120E+02  0.40000008988E+02 0.  0.
         12    1    3    3    0    0 -0.74680362818E-02  0.21078848648E+02 -0.30190422911E+02  0.36820911880E+02  0.00000000000E+00 0. -1.
         11    1    4    4    0    0  0.14621327115E+02 -0.68403133241E+01 -0.10127810255E+01  0.16174016776E+02  0.51100000000E-03 0. -1.
        -11    1    4    4    0    0  0.90115606746E+00  0.41086380268E-02  0.19379568192E+01  0.21372356054E+01  0.51100000000E-03 0.  1.
        -12    1    4    4    0    0 -0.15515015147E+02 -0.14242643962E+02  0.29265247118E+02  0.36055835739E+02  0.00000000000E+00 0.  1.
</event>
<event>
 8    1  0.2527138E-006  0.9118800E+02  0.7816164E-02  0.1184000E+00
        -11   -1    0    0    0    0  0.00000000000E+00  0.00000000000E+00  0.45593999997E+02  0.45594000000E+02  0.51100000000E-03 0. -1.
         11   -1    0    0    0    0 -0.00000000000E+00 -0.00000000000E+00 -0.45593999997E+02  0.45594000000E+02  0.51100000000E-03 0.  1.
         23    2    1    2    0    0 -0.14210854715E-13 -0.17763568394E-14  0.35527136788E-14  0.91188000000E+02  0.91188000000E+02 0.  0.
    9900012    2    3    3    0    0  0.31988892001E+02  0.98308396572E+01 -0.15357291874E+02  0.54367067998E+02  0.39999963115E+02 0.  0.
        -12    1    3    3    0    0 -0.31988892001E+02 -0.98308396572E+01  0.15357291874E+02  0.36820932002E+02  0.00000000000E+00 0.  1.
         11    1    4    4    0    0 -0.58894971346E+01  0.22374181752E+01 -0.43773174279E+01  0.76715790235E+01  0.51100000000E-03 0. -1.
        -11    1    4    4    0    0  0.14777246729E+01 -0.56484341313E+01 -0.46136304695E+01  0.74413751898E+01  0.51100000000E-03 0.  1.
         12    1    4    4    0    0  0.36400664462E+02  0.13241855613E+02 -0.63663439767E+01  0.39254113785E+02  0.00000000000E+00 0. -1.
</event>
<event>
 8    1  0.2527138E-006  0.9118800E+02  0.7816164E-02  0.1184000E+00
        -11   -1    0    0    0    0  0.00000000000E+00  0.00000000000E+00  0.45593999997E+02  0.45594000000E+02  0.51100000000E-03 0. -1.
         11   -1    0    0    0    0 -0.00000000000E+00 -0.00000000000E+00 -0.45593999997E+02  0.45594000000E+02  0.51100000000E-03 0.  1.
         23    2    1    2    0    0  0.00000000000E+00  0.35527136788E-14 -0.17763568394E-14  0.91188000000E+02  0.91188000000E+02 0.  0.
    9900012    2    3    3    0    0 -0.28220854657E+02 -0.21750142477E+02  0.92894189657E+01  0.54367100499E+02  0.40000037207E+02 0.  0.
        -12    1    3    3    0    0  0.28220854657E+02  0.21750142477E+02 -0.92894189657E+01  0.36820899501E+02  0.00000000000E+00 0.  1.
         11    1    4    4    0    0 -0.35908722999E+02 -0.13583059802E+02  0.75759076448E+01  0.39132215347E+02  0.51100000000E-03 0. -1.
        -11    1    4    4    0    0  0.80627996363E+01 -0.99638068317E+01  0.27753368199E+01  0.13114445443E+02  0.51100000000E-03 0.  1.
         12    1    4    4    0    0 -0.37493129425E+00  0.17967241567E+01 -0.10618254990E+01  0.21204397094E+01  0.00000000000E+00 0. -1.
</event>
<event>
 8    1  0.2527138E-006  0.9118800E+02  0.7816164E-02  0.1184000E+00
        -11   -1    0    0    0    0  0.00000000000E+00  0.00000000000E+00  0.45593999997E+02  0.45594000000E+02  0.51100000000E-03 0.  1.
         11   -1    0    0    0    0 -0.00000000000E+00 -0.00000000000E+00 -0.45593999997E+02  0.45594000000E+02  0.51100000000E-03 0. -1.
         23    2    1    2    0    0  0.00000000000E+00  0.35527136788E-14  0.00000000000E+00  0.91188000000E+02  0.91188000000E+02 0.  0.
    9900012    2    3    3    0    0 -0.10207040729E+02  0.25461049293E+02 -0.24562801845E+02  0.54367082765E+02  0.39999996779E+02 0.  0.
        -12    1    3    3    0    0  0.10207040729E+02 -0.25461049293E+02  0.24562801845E+02  0.36820917235E+02  0.00000000000E+00 0.  1.
         11    1    4    4    0    0 -0.15449522455E+02  0.49531820535E+01 -0.29580403853E+01  0.16491566322E+02  0.51100000000E-03 0.  1.
        -11    1    4    4    0    0 -0.14140568769E+01 -0.46954219468E+01 -0.47923299174E+01  0.68566004993E+01  0.51100000000E-03 0. -1.
         12    1    4    4    0    0  0.66565386030E+01  0.25203289187E+02 -0.16812431542E+02  0.31018915944E+02  0.00000000000E+00 0. -1.
</event>
<event>
 8    1  0.2527138E-006  0.9118800E+02  0.7816164E-02  0.1184000E+00
        -11   -1    0    0    0    0  0.00000000000E+00  0.00000000000E+00  0.45593999997E+02  0.45594000000E+02  0.51100000000E-03 0.  1.
         11   -1    0    0    0    0 -0.00000000000E+00 -0.00000000000E+00 -0.45593999997E+02  0.45594000000E+02  0.51100000000E-03 0. -1.
         23    2    1    2    0    0  0.00000000000E+00  0.00000000000E+00  0.00000000000E+00  0.91188000000E+02  0.91188000000E+02 0.  0.
    9900012    2    3    3    0    0 -0.26826363777E+02 -0.19860321098E+02 -0.15546508987E+02  0.54367080819E+02  0.39999992344E+02 0.  0.
        -12    1    3    3    0    0  0.26826363777E+02  0.19860321098E+02  0.15546508987E+02  0.36820919181E+02  0.00000000000E+00 0.  1.
         11    1    4    4    0    0 -0.62680134204E+00 -0.51285712537E+01 -0.81115050645E+01  0.96172572857E+01  0.51100000000E-03 0. -1.
        -11    1    4    4    0    0 -0.12241256225E+02  0.87418248312E+01 -0.87609454493E+01  0.17407527704E+02  0.51100000000E-03 0.  1.
         12    1    4    4    0    0 -0.13958306210E+02 -0.23473574676E+02  0.13259415266E+01  0.27342295830E+02  0.00000000000E+00 0. -1.
</event>
<event>
 8    1  0.2527138E-006  0.9118800E+02  0.7816164E-02  0.1184000E+00
        -11   -1    0    0    0    0  0.00000000000E+00  0.00000000000E+00  0.45593999997E+02  0.45594000000E+02  0.51100000000E-03 0.  1.
         11   -1    0    0    0    0 -0.00000000000E+00 -0.00000000000E+00 -0.45593999997E+02  0.45594000000E+02  0.51100000000E-03 0. -1.
         23    2    1    2    0    0  0.71054273576E-14  0.00000000000E+00  0.94368957093E-15  0.91188000000E+02  0.91188000000E+02 0.  0.
    9900012    2    3    3    0    0  0.32989619594E+02 -0.16352152135E+02  0.27567788282E+00  0.54367029362E+02  0.39999875037E+02 0.  0.
         12    1    3    3    0    0 -0.32989619594E+02  0.16352152135E+02 -0.27567788282E+00  0.36820970638E+02  0.00000000000E+00 0. -1.
         11    1    4    4    0    0  0.68612852157E+01  0.65645906115E+01 -0.11543241849E+02  0.14947157501E+02  0.51100000000E-03 0. -1.
        -11    1    4    4    0    0  0.25965566650E+02 -0.19231591240E+02  0.13910882345E+02  0.35179218311E+02  0.51100000000E-03 0.  1.
         12    1    4    4    0    0  0.16276772811E+00 -0.36851515067E+01 -0.20919626130E+01  0.42406535504E+01  0.00000000000E+00 0. -1.
</event>
<event>
 8    1  0.2527138E-006  0.9118800E+02  0.7816164E-02  0.1184000E+00
        -11   -1    0    0    0    0  0.00000000000E+00  0.00000000000E+00  0.45593999997E+02  0.45594000000E+02  0.51100000000E-03 0. -1.
         11   -1    0    0    0    0 -0.00000000000E+00 -0.00000000000E+00 -0.45593999997E+02  0.45594000000E+02  0.51100000000E-03 0.  1.
         23    2    1    2    0    0 -0.35527136788E-14 -0.17763568394E-14 -0.35527136788E-14  0.91188000000E+02  0.91188000000E+02 0.  0.
    9900012    2    3    3    0    0 -0.23564079016E+02  0.11512250414E+02  0.25845340551E+02  0.54367090755E+02  0.40000014993E+02 0.  0.
        -12    1    3    3    0    0  0.23564079016E+02 -0.11512250414E+02 -0.25845340551E+02  0.36820909245E+02  0.00000000000E+00 0.  1.
         11    1    4    4    0    0  0.60508272300E+01  0.87471303494E+01  0.34146736266E+01  0.11170711515E+02  0.51100000000E-03 0. -1.
        -11    1    4    4    0    0 -0.60687033008E+01 -0.87659281876E+01  0.73619070258E+01  0.12956401200E+02  0.51100000000E-03 0.  1.
         12    1    4    4    0    0 -0.23546202945E+02  0.11531048252E+02  0.15068759899E+02  0.30239978039E+02  0.00000000000E+00 0. -1.
</event>
<event>
 8    1  0.2527138E-006  0.9118800E+02  0.7816164E-02  0.1184000E+00
        -11   -1    0    0    0    0  0.00000000000E+00  0.00000000000E+00  0.45593999997E+02  0.45594000000E+02  0.51100000000E-03 0. -1.
         11   -1    0    0    0    0 -0.00000000000E+00 -0.00000000000E+00 -0.45593999997E+02  0.45594000000E+02  0.51100000000E-03 0.  1.
         23    2    1    2    0    0  0.13322676296E-14  0.35527136788E-14  0.00000000000E+00  0.91188000000E+02  0.91188000000E+02 0.  0.
    9900012    2    3    3    0    0  0.12020793670E+01  0.31156805631E+02  0.19585433546E+02  0.54367071996E+02  0.39999972229E+02 0.  0.
        -12    1    3    3    0    0 -0.12020793670E+01 -0.31156805631E+02 -0.19585433546E+02  0.36820928004E+02  0.00000000000E+00 0.  1.
         11    1    4    4    0    0 -0.63806224196E+00 -0.52838469845E+01  0.95533997535E+01  0.10935886315E+02  0.51100000000E-03 0. -1.
        -11    1    4    4    0    0  0.77466841384E+01  0.33856491293E+02  0.11908949921E+02  0.36716429651E+02  0.51100000000E-03 0.  1.
        -12    1    4    4    0    0 -0.59065425295E+01  0.25841613223E+01 -0.18769161287E+01  0.67147560303E+01  0.00000000000E+00 0.  1.
</event>
<event>
 8    1  0.2527138E-006  0.9118800E+02  0.7816164E-02  0.1184000E+00
        -11   -1    0    0    0    0  0.00000000000E+00  0.00000000000E+00  0.45593999997E+02  0.45594000000E+02  0.51100000000E-03 0. -1.
         11   -1    0    0    0    0 -0.00000000000E+00 -0.00000000000E+00 -0.45593999997E+02  0.45594000000E+02  0.51100000000E-03 0.  1.
         23    2    1    2    0    0 -0.35527136788E-14  0.00000000000E+00  0.22204460493E-15  0.91188000000E+02  0.91188000000E+02 0.  0.
    9900012    2    3    3    0    0  0.13077582942E+02  0.34398045901E+02  0.12375861974E+01  0.54367077185E+02  0.39999984058E+02 0.  0.
         12    1    3    3    0    0 -0.13077582942E+02 -0.34398045901E+02 -0.12375861974E+01  0.36820922815E+02  0.00000000000E+00 0. -1.
         11    1    4    4    0    0  0.19466193564E+02  0.10481987399E+02 -0.27408671458E+01  0.22278175524E+02  0.51100000000E-03 0. -1.
        -11    1    4    4    0    0  0.31195958083E+01  0.45845634732E+01  0.84301680331E+01  0.10090482326E+02  0.51100000000E-03 0.  1.
        -12    1    4    4    0    0 -0.95082064300E+01  0.19331495028E+02 -0.44517146898E+01  0.21998419335E+02  0.00000000000E+00 0.  1.
</event>
<event>
 8    1  0.2527138E-006  0.9118800E+02  0.7816164E-02  0.1184000E+00
        -11   -1    0    0    0    0  0.00000000000E+00  0.00000000000E+00  0.45593999997E+02  0.45594000000E+02  0.51100000000E-03 0. -1.
         11   -1    0    0    0    0 -0.00000000000E+00 -0.00000000000E+00 -0.45593999997E+02  0.45594000000E+02  0.51100000000E-03 0.  1.
         23    2    1    2    0    0  0.88817841970E-15  0.00000000000E+00  0.17763568394E-14  0.91188000000E+02  0.91188000000E+02 0.  0.
    9900012    2    3    3    0    0  0.65812673099E+01  0.35812522841E+02  0.54707333201E+01  0.54367098399E+02  0.40000032420E+02 0.  0.
        -12    1    3    3    0    0 -0.65812673099E+01 -0.35812522841E+02 -0.54707333201E+01  0.36820901601E+02  0.00000000000E+00 0.  1.
         11    1    4    4    0    0  0.16124034802E+02  0.16939717482E+02  0.16426016355E+02  0.28578882768E+02  0.51100000000E-03 0. -1.
        -11    1    4    4    0    0 -0.62977204201E+01  0.37345275944E+01 -0.10202429843E+01  0.73924877309E+01  0.51100000000E-03 0.  1.
         12    1    4    4    0    0 -0.32450470724E+01  0.15138277765E+02 -0.99350400506E+01  0.18395727900E+02  0.00000000000E+00 0. -1.
</event>
<event>
 8    1  0.2527138E-006  0.9118800E+02  0.7816164E-02  0.1184000E+00
        -11   -1    0    0    0    0  0.00000000000E+00  0.00000000000E+00  0.45593999997E+02  0.45594000000E+02  0.51100000000E-03 0.  1.
         11   -1    0    0    0    0 -0.00000000000E+00 -0.00000000000E+00 -0.45593999997E+02  0.45594000000E+02  0.51100000000E-03 0. -1.
         23    2    1    2    0    0 -0.35527136788E-14 -0.88817841970E-15 -0.35527136788E-14  0.91188000000E+02  0.91188000000E+02 0.  0.
    9900012    2    3    3    0    0  0.26652622587E+02  0.19144242335E+01  0.25332834986E+02  0.54367084213E+02  0.40000000081E+02 0.  0.
         12    1    3    3    0    0 -0.26652622587E+02 -0.19144242335E+01 -0.25332834986E+02  0.36820915787E+02  0.00000000000E+00 0. -1.
         11    1    4    4    0    0  0.15770307615E+01 -0.28987664388E+01 -0.67972250358E+01  0.75559341804E+01  0.51100000000E-03 0. -1.
        -11    1    4    4    0    0  0.90651173135E+01 -0.90878980835E+01  0.12461552130E+02  0.17890123678E+02  0.51100000000E-03 0.  1.
         12    1    4    4    0    0  0.16010474512E+02  0.13901088756E+02  0.19668507892E+02  0.28921026355E+02  0.00000000000E+00 0. -1.
</event>
<event>
 8    1  0.2527138E-006  0.9118800E+02  0.7816164E-02  0.1184000E+00
        -11   -1    0    0    0    0  0.00000000000E+00  0.00000000000E+00  0.45593999997E+02  0.45594000000E+02  0.51100000000E-03 0. -1.
         11   -1    0    0    0    0 -0.00000000000E+00 -0.00000000000E+00 -0.45593999997E+02  0.45594000000E+02  0.51100000000E-03 0.  1.
         23    2    1    2    0    0  0.00000000000E+00 -0.17763568394E-14  0.00000000000E+00  0.91188000000E+02  0.91188000000E+02 0.  0.
    9900012    2    3    3    0    0  0.27543778996E+02  0.11001987281E+02 -0.21819185552E+02  0.54367077366E+02  0.39999984470E+02 0.  0.
         12    1    3    3    0    0 -0.27543778996E+02 -0.11001987281E+02  0.21819185552E+02  0.36820922634E+02  0.00000000000E+00 0. -1.
         11    1    4    4    0    0 -0.34833674244E+01 -0.84860340645E+01  0.18090966486E+01  0.93498370950E+01  0.51100000000E-03 0. -1.
        -11    1    4    4    0    0  0.10166999316E+02  0.29341404853E+01 -0.11883155620E+02  0.15911833434E+02  0.51100000000E-03 0.  1.
         12    1    4    4    0    0  0.20860147104E+02  0.16553880860E+02 -0.11745126581E+02  0.29105406837E+02  0.00000000000E+00 0. -1.
</event>
<event>
 8    1  0.2527138E-006  0.9118800E+02  0.7816164E-02  0.1184000E+00
        -11   -1    0    0    0    0  0.00000000000E+00  0.00000000000E+00  0.45593999997E+02  0.45594000000E+02  0.51100000000E-03 0.  1.
         11   -1    0    0    0    0 -0.00000000000E+00 -0.00000000000E+00 -0.45593999997E+02  0.45594000000E+02  0.51100000000E-03 0. -1.
         23    2    1    2    0    0  0.00000000000E+00 -0.88817841970E-15  0.00000000000E+00  0.91188000000E+02  0.91188000000E+02 0.  0.
    9900012    2    3    3    0    0 -0.23499496148E+02  0.50615107330E+01  0.27891486797E+02  0.54367078694E+02  0.39999987498E+02 0.  0.
         12    1    3    3    0    0  0.23499496148E+02 -0.50615107330E+01 -0.27891486797E+02  0.36820921306E+02  0.00000000000E+00 0. -1.
         11    1    4    4    0    0  0.44232547919E+01 -0.56219202409E+01  0.50611186966E+01  0.87627674208E+01  0.51100000000E-03 0. -1.
        -11    1    4    4    0    0 -0.32196422014E+02  0.10585496437E+02  0.23548288721E+02  0.41269652619E+02  0.51100000000E-03 0.  1.
        -12    1    4    4    0    0  0.42736710746E+01  0.97934537123E-01 -0.71792062075E+00  0.43346586538E+01  0.00000000000E+00 0.  1.
</event>
<event>
 8    1  0.2527138E-006  0.9118800E+02  0.7816164E-02  0.1184000E+00
        -11   -1    0    0    0    0  0.00000000000E+00  0.00000000000E+00  0.45593999997E+02  0.45594000000E+02  0.51100000000E-03 0.  1.
         11   -1    0    0    0    0 -0.00000000000E+00 -0.00000000000E+00 -0.45593999997E+02  0.45594000000E+02  0.51100000000E-03 0. -1.
         23    2    1    2    0    0  0.00000000000E+00  0.00000000000E+00  0.17763568394E-14  0.91188000000E+02  0.91188000000E+02 0.  0.
    9900012    2    3    3    0    0  0.36326243291E+02  0.57944620889E+01  0.16149700197E+01  0.54367083788E+02  0.39999999112E+02 0.  0.
         12    1    3    3    0    0 -0.36326243291E+02 -0.57944620889E+01 -0.16149700197E+01  0.36820916212E+02  0.00000000000E+00 0. -1.
         11    1    4    4    0    0  0.91578997405E+01  0.62505426039E+01 -0.10666416864E+02  0.15385345608E+02  0.51100000000E-03 0. -1.
        -11    1    4    4    0    0  0.13678978618E+02  0.35089414490E+01 -0.64791737015E+01  0.15537271905E+02  0.51100000000E-03 0.  1.
         12    1    4    4    0    0  0.13489364932E+02 -0.39650219640E+01  0.18760560586E+02  0.23444466275E+02  0.00000000000E+00 0. -1.
</event>
<event>
 8    1  0.2527138E-006  0.9118800E+02  0.7816164E-02  0.1184000E+00
        -11   -1    0    0    0    0  0.00000000000E+00  0.00000000000E+00  0.45593999997E+02  0.45594000000E+02  0.51100000000E-03 0. -1.
         11   -1    0    0    0    0 -0.00000000000E+00 -0.00000000000E+00 -0.45593999997E+02  0.45594000000E+02  0.51100000000E-03 0.  1.
         23    2    1    2    0    0  0.00000000000E+00  0.00000000000E+00  0.13322676296E-14  0.91188000000E+02  0.91188000000E+02 0.  0.
    9900012    2    3    3    0    0  0.32793726454E+02  0.16456903498E+02 -0.30856611896E+01  0.54367089195E+02  0.40000011439E+02 0.  0.
         12    1    3    3    0    0 -0.32793726454E+02 -0.16456903498E+02  0.30856611896E+01  0.36820910805E+02  0.00000000000E+00 0. -1.
         11    1    4    4    0    0  0.54386041267E+01 -0.24605681438E+01  0.78518313733E+01  0.98632685562E+01  0.51100000000E-03 0. -1.
        -11    1    4    4    0    0  0.11252507723E+01  0.59866670701E+01 -0.13834956830E+02  0.15116626696E+02  0.51100000000E-03 0.  1.
        -12    1    4    4    0    0  0.26229871555E+02  0.12930804571E+02  0.28974642674E+01  0.29387193943E+02  0.00000000000E+00 0.  1.
</event>
<event>
 8    1  0.2527138E-006  0.9118800E+02  0.7816164E-02  0.1184000E+00
        -11   -1    0    0    0    0  0.00000000000E+00  0.00000000000E+00  0.45593999997E+02  0.45594000000E+02  0.51100000000E-03 0.  1.
         11   -1    0    0    0    0 -0.00000000000E+00 -0.00000000000E+00 -0.45593999997E+02  0.45594000000E+02  0.51100000000E-03 0. -1.
         23    2    1    2    0    0  0.44408920985E-15  0.88817841970E-15  0.71054273576E-14  0.91188000000E+02  0.91188000000E+02 0.  0.
    9900012    2    3    3    0    0 -0.20700712743E+01  0.73642734780E+01 -0.36017530482E+02  0.54367079032E+02  0.39999988269E+02 0.  0.
        -12    1    3    3    0    0  0.20700712743E+01 -0.73642734780E+01  0.36017530482E+02  0.36820920968E+02  0.00000000000E+00 0.  1.
         11    1    4    4    0    0  0.77146739063E+01 -0.70698837232E+00  0.42567457335E+01  0.88394519366E+01  0.51100000000E-03 0.  1.
        -11    1    4    4    0    0 -0.10615304393E+02 -0.22616261359E+01 -0.21333160347E+02  0.23935399950E+02  0.51100000000E-03 0. -1.
        -12    1    4    4    0    0  0.83055921225E+00  0.10332887986E+02 -0.18941115869E+02  0.21592227145E+02  0.00000000000E+00 0.  1.
</event>
<event>
 8    1  0.2527138E-006  0.9118800E+02  0.7816164E-02  0.1184000E+00
        -11   -1    0    0    0    0  0.00000000000E+00  0.00000000000E+00  0.45593999997E+02  0.45594000000E+02  0.51100000000E-03 0. -1.
         11   -1    0    0    0    0 -0.00000000000E+00 -0.00000000000E+00 -0.45593999997E+02  0.45594000000E+02  0.51100000000E-03 0.  1.
         23    2    1    2    0    0  0.00000000000E+00 -0.17763568394E-14  0.35527136788E-14  0.91188000000E+02  0.91188000000E+02 0.  0.
    9900012    2    3    3    0    0 -0.22336065298E+02  0.13641729438E+02 -0.25899486551E+02  0.54367082050E+02  0.39999995150E+02 0.  0.
         12    1    3    3    0    0  0.22336065298E+02 -0.13641729438E+02  0.25899486551E+02  0.36820917950E+02  0.00000000000E+00 0. -1.
         11    1    4    4    0    0 -0.29023106696E+01  0.24533517611E+01 -0.44694559424E+01  0.58667178873E+01  0.51100000000E-03 0. -1.
        -11    1    4    4    0    0 -0.25115571588E+02 -0.54822528580E+01 -0.10476499371E+02  0.27759756337E+02  0.51100000000E-03 0.  1.
         12    1    4    4    0    0  0.56818169595E+01  0.16670630535E+02 -0.10953531238E+02  0.20740607825E+02  0.00000000000E+00 0. -1.
</event>
<event>
 8    1  0.2527138E-006  0.9118800E+02  0.7816164E-02  0.1184000E+00
        -11   -1    0    0    0    0  0.00000000000E+00  0.00000000000E+00  0.45593999997E+02  0.45594000000E+02  0.51100000000E-03 0. -1.
         11   -1    0    0    0    0 -0.00000000000E+00 -0.00000000000E+00 -0.45593999997E+02  0.45594000000E+02  0.51100000000E-03 0.  1.
         23    2    1    2    0    0  0.00000000000E+00 -0.35527136788E-14  0.00000000000E+00  0.91188000000E+02  0.91188000000E+02 0.  0.
    9900012    2    3    3    0    0 -0.95069159690E+01  0.31382468470E+02 -0.16749325842E+02  0.54367072599E+02  0.39999973604E+02 0.  0.
         12    1    3    3    0    0  0.95069159690E+01 -0.31382468470E+02  0.16749325842E+02  0.36820927401E+02  0.00000000000E+00 0. -1.
         11    1    4    4    0    0 -0.13362892359E+02  0.73868429701E+01  0.63944041993E+01  0.16553572019E+02  0.51100000000E-03 0. -1.
        -11    1    4    4    0    0  0.81360934446E+01  0.20282617801E+02 -0.23556393085E+02  0.32132293053E+02  0.51100000000E-03 0.  1.
        -12    1    4    4    0    0 -0.42801170544E+01  0.37130076992E+01  0.41266304416E+00  0.56812075267E+01  0.00000000000E+00 0.  1.
</event>
<event>
 8    1  0.2527138E-006  0.9118800E+02  0.7816164E-02  0.1184000E+00
        -11   -1    0    0    0    0  0.00000000000E+00  0.00000000000E+00  0.45593999997E+02  0.45594000000E+02  0.51100000000E-03 0.  1.
         11   -1    0    0    0    0 -0.00000000000E+00 -0.00000000000E+00 -0.45593999997E+02  0.45594000000E+02  0.51100000000E-03 0. -1.
         23    2    1    2    0    0  0.17763568394E-14  0.00000000000E+00  0.00000000000E+00  0.91188000000E+02  0.91188000000E+02 0.  0.
    9900012    2    3    3    0    0  0.12753042117E+02  0.18177086800E+02  0.29372328442E+02  0.54367078693E+02  0.39999987496E+02 0.  0.
         12    1    3    3    0    0 -0.12753042117E+02 -0.18177086800E+02 -0.29372328442E+02  0.36820921307E+02  0.00000000000E+00 0. -1.
         11    1    4    4    0    0  0.20444373715E+02  0.14734231035E+02  0.28940609404E+01  0.25366228923E+02  0.51100000000E-03 0. -1.
        -11    1    4    4    0    0 -0.91498701252E+01  0.15137503175E+01  0.22618284359E+02  0.24445824816E+02  0.51100000000E-03 0.  1.
        -12    1    4    4    0    0  0.14585385266E+01  0.19291054482E+01  0.38599831427E+01  0.45550249533E+01  0.00000000000E+00 0.  1.
</event>
<event>
 8    1  0.2527138E-006  0.9118800E+02  0.7816164E-02  0.1184000E+00
        -11   -1    0    0    0    0  0.00000000000E+00  0.00000000000E+00  0.45593999997E+02  0.45594000000E+02  0.51100000000E-03 0. -1.
         11   -1    0    0    0    0 -0.00000000000E+00 -0.00000000000E+00 -0.45593999997E+02  0.45594000000E+02  0.51100000000E-03 0.  1.
         23    2    1    2    0    0 -0.17763568394E-14  0.00000000000E+00 -0.17763568394E-14  0.91188000000E+02  0.91188000000E+02 0.  0.
    9900012    2    3    3    0    0 -0.10232776372E+02  0.34435047800E+02  0.80806015582E+01  0.54367104427E+02  0.40000046162E+02 0.  0.
        -12    1    3    3    0    0  0.10232776372E+02 -0.34435047800E+02 -0.80806015582E+01  0.36820895573E+02  0.00000000000E+00 0.  1.
         11    1    4    4    0    0  0.77431805243E+01 -0.44900153884E+01 -0.32571222082E+01  0.95250159139E+01  0.51100000000E-03 0.  1.
        -11    1    4    4    0    0 -0.88882641739E+01  0.11974929511E+02  0.47069189763E+01  0.15638262797E+02  0.51100000000E-03 0. -1.
        -12    1    4    4    0    0 -0.90876927228E+01  0.26950133678E+02  0.66308047901E+01  0.29203825716E+02  0.00000000000E+00 0.  1.
</event>
<event>
 8    1  0.2527138E-006  0.9118800E+02  0.7816164E-02  0.1184000E+00
        -11   -1    0    0    0    0  0.00000000000E+00  0.00000000000E+00  0.45593999997E+02  0.45594000000E+02  0.51100000000E-03 0.  1.
         11   -1    0    0    0    0 -0.00000000000E+00 -0.00000000000E+00 -0.45593999997E+02  0.45594000000E+02  0.51100000000E-03 0. -1.
         23    2    1    2    0    0  0.17763568394E-14  0.00000000000E+00  0.00000000000E+00  0.91188000000E+02  0.91188000000E+02 0.  0.
    9900012    2    3    3    0    0 -0.14061892859E+02 -0.10246495222E+02  0.32450768812E+02  0.54367083504E+02  0.39999998465E+02 0.  0.
         12    1    3    3    0    0  0.14061892859E+02  0.10246495222E+02 -0.32450768812E+02  0.36820916496E+02  0.00000000000E+00 0. -1.
         11    1    4    4    0    0 -0.23613131876E+02 -0.15524018173E+02  0.18175620449E+02  0.33599528512E+02  0.51100000000E-03 0. -1.
        -11    1    4    4    0    0  0.21776839346E+01 -0.25859518149E+01  0.73389016840E+00  0.34594868332E+01  0.51100000000E-03 0.  1.
         12    1    4    4    0    0  0.73735550825E+01  0.78634747655E+01  0.13541258194E+02  0.17308068160E+02  0.00000000000E+00 0. -1.
</event>
<event>
 8    1  0.2527138E-006  0.9118800E+02  0.7816164E-02  0.1184000E+00
        -11   -1    0    0    0    0  0.00000000000E+00  0.00000000000E+00  0.45593999997E+02  0.45594000000E+02  0.51100000000E-03 0.  1.
         11   -1    0    0    0    0 -0.00000000000E+00 -0.00000000000E+00 -0.45593999997E+02  0.45594000000E+02  0.51100000000E-03 0. -1.
         23    2    1    2    0    0  0.17763568394E-14  0.00000000000E+00  0.17763568394E-14  0.91188000000E+02  0.91188000000E+02 0.  0.
    9900012    2    3    3    0    0 -0.10769392529E+02  0.34251889943E+02  0.81615208155E+01  0.54367052128E+02  0.39999926937E+02 0.  0.
         12    1    3    3    0    0  0.10769392529E+02 -0.34251889943E+02 -0.81615208155E+01  0.36820947872E+02  0.00000000000E+00 0. -1.
         11    1    4    4    0    0  0.49186824007E+01  0.32365696099E+02  0.80064995735E+01  0.33702162485E+02  0.51100000000E-03 0. -1.
        -11    1    4    4    0    0 -0.11730604334E+02  0.58455658740E+01 -0.39888911842E+01  0.13699962466E+02  0.51100000000E-03 0.  1.
         12    1    4    4    0    0 -0.39574705959E+01 -0.39593720293E+01  0.41439124262E+01  0.69649271769E+01  0.00000000000E+00 0. -1.
</event>
<event>
 8    1  0.2527138E-006  0.9118800E+02  0.7816164E-02  0.1184000E+00
        -11   -1    0    0    0    0  0.00000000000E+00  0.00000000000E+00  0.45593999997E+02  0.45594000000E+02  0.51100000000E-03 0.  1.
         11   -1    0    0    0    0 -0.00000000000E+00 -0.00000000000E+00 -0.45593999997E+02  0.45594000000E+02  0.51100000000E-03 0. -1.
         23    2    1    2    0    0 -0.35527136788E-14 -0.17763568394E-14  0.00000000000E+00  0.91188000000E+02  0.91188000000E+02 0.  0.
    9900012    2    3    3    0    0  0.17715805364E+02  0.15673467923E+02 -0.28218281700E+02  0.54367098619E+02  0.40000032921E+02 0.  0.
        -12    1    3    3    0    0 -0.17715805364E+02 -0.15673467923E+02  0.28218281700E+02  0.36820901381E+02  0.00000000000E+00 0.  1.
         11    1    4    4    0    0  0.20372875385E+02  0.19544169658E+02 -0.20397431704E+02  0.34829353130E+02  0.51100000000E-03 0. -1.
        -11    1    4    4    0    0 -0.60291706547E+01 -0.87762553961E+01 -0.13298256914E+01  0.10730423766E+02  0.51100000000E-03 0.  1.
        -12    1    4    4    0    0  0.33721006346E+01  0.49055536610E+01 -0.64910243046E+01  0.88073217230E+01  0.00000000000E+00 0.  1.
</event>
<event>
 8    1  0.2527138E-006  0.9118800E+02  0.7816164E-02  0.1184000E+00
        -11   -1    0    0    0    0  0.00000000000E+00  0.00000000000E+00  0.45593999997E+02  0.45594000000E+02  0.51100000000E-03 0. -1.
         11   -1    0    0    0    0 -0.00000000000E+00 -0.00000000000E+00 -0.45593999997E+02  0.45594000000E+02  0.51100000000E-03 0.  1.
         23    2    1    2    0    0 -0.71054273576E-14  0.44408920985E-15  0.00000000000E+00  0.91188000000E+02  0.91188000000E+02 0.  0.
    9900012    2    3    3    0    0 -0.35815520465E+02  0.24545079211E+01 -0.81852763765E+01  0.54367151766E+02  0.40000154082E+02 0.  0.
        -12    1    3    3    0    0  0.35815520465E+02 -0.24545079211E+01  0.81852763765E+01  0.36820848234E+02  0.00000000000E+00 0.  1.
         11    1    4    4    0    0 -0.30957972027E+02 -0.13559179776E+02 -0.12396656640E+02  0.35998951156E+02  0.51100000000E-03 0. -1.
        -11    1    4    4    0    0 -0.40576560508E-01  0.10412903740E+02  0.33084638970E+01  0.10925939062E+02  0.51100000000E-03 0.  1.
         12    1    4    4    0    0 -0.48169718775E+01  0.56007839570E+01  0.90291636665E+00  0.74422615492E+01  0.00000000000E+00 0. -1.
</event>
<event>
 8    1  0.2527138E-006  0.9118800E+02  0.7816164E-02  0.1184000E+00
        -11   -1    0    0    0    0  0.00000000000E+00  0.00000000000E+00  0.45593999997E+02  0.45594000000E+02  0.51100000000E-03 0. -1.
         11   -1    0    0    0    0 -0.00000000000E+00 -0.00000000000E+00 -0.45593999997E+02  0.45594000000E+02  0.51100000000E-03 0.  1.
         23    2    1    2    0    0 -0.71054273576E-14 -0.35527136788E-14  0.35527136788E-14  0.91188000000E+02  0.91188000000E+02 0.  0.
    9900012    2    3    3    0    0 -0.29213387262E+02 -0.10113401628E+02  0.20001981044E+02  0.54367053061E+02  0.39999929063E+02 0.  0.
        -12    1    3    3    0    0  0.29213387262E+02  0.10113401628E+02 -0.20001981044E+02  0.36820946939E+02  0.00000000000E+00 0.  1.
         11    1    4    4    0    0 -0.25983045385E+02  0.21292300077E+01  0.23429778692E+02  0.35051487811E+02  0.51100000000E-03 0. -1.
        -11    1    4    4    0    0  0.65570966798E+00  0.27806350401E+01  0.12350242723E+01  0.31124221451E+01  0.51100000000E-03 0.  1.
        -12    1    4    4    0    0 -0.38860515443E+01 -0.15023266676E+02 -0.46628219207E+01  0.16203143105E+02  0.00000000000E+00 0.  1.
</event>
<event>
 8    1  0.2527138E-006  0.9118800E+02  0.7816164E-02  0.1184000E+00
        -11   -1    0    0    0    0  0.00000000000E+00  0.00000000000E+00  0.45593999997E+02  0.45594000000E+02  0.51100000000E-03 0.  1.
         11   -1    0    0    0    0 -0.00000000000E+00 -0.00000000000E+00 -0.45593999997E+02  0.45594000000E+02  0.51100000000E-03 0. -1.
         23    2    1    2    0    0  0.00000000000E+00  0.00000000000E+00 -0.17763568394E-14  0.91188000000E+02  0.91188000000E+02 0.  0.
    9900012    2    3    3    0    0  0.25668316322E+02  0.24041726248E+02 -0.10904674700E+02  0.54367095692E+02  0.40000026248E+02 0.  0.
         12    1    3    3    0    0 -0.25668316322E+02 -0.24041726248E+02  0.10904674700E+02  0.36820904308E+02  0.00000000000E+00 0. -1.
         11    1    4    4    0    0  0.41465623149E+01  0.77882545636E+01  0.41821987811E+01  0.97643061753E+01  0.51100000000E-03 0. -1.
        -11    1    4    4    0    0  0.13812984224E+02  0.19587455410E+02 -0.22887169971E+02  0.33140450995E+02  0.51100000000E-03 0.  1.
         12    1    4    4    0    0  0.77087697827E+01 -0.33339837256E+01  0.78002964901E+01  0.11462338521E+02  0.00000000000E+00 0. -1.
</event>
<event>
 8    1  0.2527138E-006  0.9118800E+02  0.7816164E-02  0.1184000E+00
        -11   -1    0    0    0    0  0.00000000000E+00  0.00000000000E+00  0.45593999997E+02  0.45594000000E+02  0.51100000000E-03 0. -1.
         11   -1    0    0    0    0 -0.00000000000E+00 -0.00000000000E+00 -0.45593999997E+02  0.45594000000E+02  0.51100000000E-03 0.  1.
         23    2    1    2    0    0  0.00000000000E+00  0.00000000000E+00  0.00000000000E+00  0.91188000000E+02  0.91188000000E+02 0.  0.
    9900012    2    3    3    0    0  0.34387403623E+02  0.11163480965E+02  0.69758450412E+01  0.54367092227E+02  0.40000018351E+02 0.  0.
        -12    1    3    3    0    0 -0.34387403623E+02 -0.11163480965E+02 -0.69758450412E+01  0.36820907773E+02  0.00000000000E+00 0.  1.
         11    1    4    4    0    0  0.43111953170E+01  0.85221531746E+01  0.17622223642E+02  0.20043858564E+02  0.51100000000E-03 0. -1.
        -11    1    4    4    0    0  0.42823236615E+01 -0.13529187057E+01 -0.64911089541E+01  0.78932363883E+01  0.51100000000E-03 0.  1.
         12    1    4    4    0    0  0.25793884644E+02  0.39942464960E+01 -0.41552696468E+01  0.26429997275E+02  0.00000000000E+00 0. -1.
</event>
<event>
 8    1  0.2527138E-006  0.9118800E+02  0.7816164E-02  0.1184000E+00
        -11   -1    0    0    0    0  0.00000000000E+00  0.00000000000E+00  0.45593999997E+02  0.45594000000E+02  0.51100000000E-03 0. -1.
         11   -1    0    0    0    0 -0.00000000000E+00 -0.00000000000E+00 -0.45593999997E+02  0.45594000000E+02  0.51100000000E-03 0.  1.
         23    2    1    2    0    0  0.00000000000E+00  0.00000000000E+00  0.35527136788E-14  0.91188000000E+02  0.91188000000E+02 0.  0.
    9900012    2    3    3    0    0 -0.14801673469E+02 -0.17257592750E+02  0.28963174556E+02  0.54367088477E+02  0.40000009801E+02 0.  0.
        -12    1    3    3    0    0  0.14801673469E+02  0.17257592750E+02 -0.28963174556E+02  0.36820911523E+02  0.00000000000E+00 0.  1.
         11    1    4    4    0    0  0.83877581900E+01  0.60142647900E+00  0.12624498998E+02  0.15168855477E+02  0.51100000000E-03 0. -1.
        -11    1    4    4    0    0 -0.19715990920E+01  0.44290347070E+01  0.25467747023E+01  0.54762772995E+01  0.51100000000E-03 0.  1.
         12    1    4    4    0    0 -0.21217832567E+02 -0.22288053936E+02  0.13791900856E+02  0.33721955701E+02  0.00000000000E+00 0. -1.
</event>
<event>
 8    1  0.2527138E-006  0.9118800E+02  0.7816164E-02  0.1184000E+00
        -11   -1    0    0    0    0  0.00000000000E+00  0.00000000000E+00  0.45593999997E+02  0.45594000000E+02  0.51100000000E-03 0.  1.
         11   -1    0    0    0    0 -0.00000000000E+00 -0.00000000000E+00 -0.45593999997E+02  0.45594000000E+02  0.51100000000E-03 0. -1.
         23    2    1    2    0    0 -0.35527136788E-14  0.00000000000E+00  0.00000000000E+00  0.91188000000E+02  0.91188000000E+02 0.  0.
    9900012    2    3    3    0    0 -0.25804047266E+02 -0.20010833829E+02  0.17014628245E+02  0.54367083388E+02  0.39999998199E+02 0.  0.
         12    1    3    3    0    0  0.25804047266E+02  0.20010833829E+02 -0.17014628245E+02  0.36820916612E+02  0.00000000000E+00 0. -1.
         11    1    4    4    0    0 -0.38788170971E+01 -0.90644160468E+01 -0.10358944892E+02  0.14300930035E+02  0.51100000000E-03 0. -1.
        -11    1    4    4    0    0 -0.15485840376E+02 -0.12633951996E+02  0.26734004174E+02  0.33378660468E+02  0.51100000000E-03 0.  1.
        -12    1    4    4    0    0 -0.64393897929E+01  0.16875342135E+01  0.63956896253E+00  0.66874928848E+01  0.00000000000E+00 0.  1.
</event>
<event>
 8    1  0.2527138E-006  0.9118800E+02  0.7816164E-02  0.1184000E+00
        -11   -1    0    0    0    0  0.00000000000E+00  0.00000000000E+00  0.45593999997E+02  0.45594000000E+02  0.51100000000E-03 0.  1.
         11   -1    0    0    0    0 -0.00000000000E+00 -0.00000000000E+00 -0.45593999997E+02  0.45594000000E+02  0.51100000000E-03 0. -1.
         23    2    1    2    0    0  0.00000000000E+00  0.88817841970E-15  0.00000000000E+00  0.91188000000E+02  0.91188000000E+02 0.  0.
    9900012    2    3    3    0    0 -0.10123971131E+02 -0.32096927863E+01  0.35256017722E+02  0.54367031723E+02  0.39999880418E+02 0.  0.
         12    1    3    3    0    0  0.10123971131E+02  0.32096927863E+01 -0.35256017722E+02  0.36820968277E+02  0.00000000000E+00 0. -1.
         11    1    4    4    0    0  0.20489077024E+01  0.11431133811E+02  0.19390883620E+02  0.22602548768E+02  0.51100000000E-03 0. -1.
        -11    1    4    4    0    0 -0.12704174438E+02 -0.76406780124E+01  0.18980561509E+02  0.24083972349E+02  0.51100000000E-03 0.  1.
         12    1    4    4    0    0  0.53129560447E+00 -0.70001485848E+01 -0.31154274072E+01  0.76805106053E+01  0.00000000000E+00 0. -1.
</event>
<event>
 8    1  0.2527138E-006  0.9118800E+02  0.7816164E-02  0.1184000E+00
        -11   -1    0    0    0    0  0.00000000000E+00  0.00000000000E+00  0.45593999997E+02  0.45594000000E+02  0.51100000000E-03 0.  1.
         11   -1    0    0    0    0 -0.00000000000E+00 -0.00000000000E+00 -0.45593999997E+02  0.45594000000E+02  0.51100000000E-03 0. -1.
         23    2    1    2    0    0  0.17763568394E-14  0.00000000000E+00  0.00000000000E+00  0.91188000000E+02  0.91188000000E+02 0.  0.
    9900012    2    3    3    0    0  0.45609707281E+01 -0.19894831888E+02 -0.30645923580E+02  0.54367089882E+02  0.40000013004E+02 0.  0.
        -12    1    3    3    0    0 -0.45609707281E+01  0.19894831888E+02  0.30645923580E+02  0.36820910118E+02  0.00000000000E+00 0.  1.
         11    1    4    4    0    0 -0.95496134639E+01 -0.89706517372E+01 -0.94129040258E+01  0.16132900308E+02  0.51100000000E-03 0. -1.
        -11    1    4    4    0    0  0.17806979870E+02 -0.17041112809E+02 -0.16275735506E+02  0.29536208700E+02  0.51100000000E-03 0.  1.
        -12    1    4    4    0    0 -0.36963956775E+01  0.61169326577E+01 -0.49572840477E+01  0.86979808734E+01  0.00000000000E+00 0.  1.
</event>
<event>
 8    1  0.2527138E-006  0.9118800E+02  0.7816164E-02  0.1184000E+00
        -11   -1    0    0    0    0  0.00000000000E+00  0.00000000000E+00  0.45593999997E+02  0.45594000000E+02  0.51100000000E-03 0.  1.
         11   -1    0    0    0    0 -0.00000000000E+00 -0.00000000000E+00 -0.45593999997E+02  0.45594000000E+02  0.51100000000E-03 0. -1.
         23    2    1    2    0    0  0.35527136788E-14  0.00000000000E+00  0.17763568394E-14  0.91188000000E+02  0.91188000000E+02 0.  0.
    9900012    2    3    3    0    0  0.27506738435E+02  0.22396546178E+02 -0.98769496075E+01  0.54367081033E+02  0.39999992831E+02 0.  0.
         12    1    3    3    0    0 -0.27506738435E+02 -0.22396546178E+02  0.98769496075E+01  0.36820918967E+02  0.00000000000E+00 0. -1.
         11    1    4    4    0    0  0.55081301215E+00 -0.18893729117E+01  0.20276276089E+01  0.28256678778E+01  0.51100000000E-03 0. -1.
        -11    1    4    4    0    0  0.18630785117E+02  0.14826773291E+02  0.10353403104E+02  0.25964058165E+02  0.51100000000E-03 0.  1.
         12    1    4    4    0    0  0.83251403060E+01  0.94591457986E+01 -0.22257980320E+02  0.25577354990E+02  0.00000000000E+00 0. -1.
</event>
<event>
 8    1  0.2527138E-006  0.9118800E+02  0.7816164E-02  0.1184000E+00
        -11   -1    0    0    0    0  0.00000000000E+00  0.00000000000E+00  0.45593999997E+02  0.45594000000E+02  0.51100000000E-03 0. -1.
         11   -1    0    0    0    0 -0.00000000000E+00 -0.00000000000E+00 -0.45593999997E+02  0.45594000000E+02  0.51100000000E-03 0.  1.
         23    2    1    2    0    0 -0.88817841970E-15 -0.88817841970E-15  0.00000000000E+00  0.91188000000E+02  0.91188000000E+02 0.  0.
    9900012    2    3    3    0    0  0.21987688008E+01  0.48496950747E+01 -0.36433838511E+02  0.54367099479E+02  0.40000034882E+02 0.  0.
         12    1    3    3    0    0 -0.21987688008E+01 -0.48496950747E+01  0.36433838511E+02  0.36820900521E+02  0.00000000000E+00 0. -1.
         11    1    4    4    0    0 -0.14186922199E+01 -0.83037623643E+01 -0.61376764434E+00  0.84464115457E+01  0.51100000000E-03 0. -1.
        -11    1    4    4    0    0 -0.10161047666E+02  0.96327854607E+00 -0.14921249517E+02  0.18078121657E+02  0.51100000000E-03 0.  1.
        -12    1    4    4    0    0  0.13778508686E+02  0.12190178893E+02 -0.20898821350E+02  0.27842566277E+02  0.00000000000E+00 0.  1.
</event>
<event>
 8    1  0.2527138E-006  0.9118800E+02  0.7816164E-02  0.1184000E+00
        -11   -1    0    0    0    0  0.00000000000E+00  0.00000000000E+00  0.45593999997E+02  0.45594000000E+02  0.51100000000E-03 0. -1.
         11   -1    0    0    0    0 -0.00000000000E+00 -0.00000000000E+00 -0.45593999997E+02  0.45594000000E+02  0.51100000000E-03 0.  1.
         23    2    1    2    0    0 -0.17763568394E-14  0.00000000000E+00  0.00000000000E+00  0.91188000000E+02  0.91188000000E+02 0.  0.
    9900012    2    3    3    0    0  0.46665790055E+01 -0.22421395689E+02  0.28831992507E+02  0.54367085615E+02  0.40000003276E+02 0.  0.
        -12    1    3    3    0    0 -0.46665790055E+01  0.22421395689E+02 -0.28831992507E+02  0.36820914385E+02  0.00000000000E+00 0.  1.
         11    1    4    4    0    0 -0.11051666229E+02 -0.11935765321E+02  0.94238299320E+00  0.16293860997E+02  0.51100000000E-03 0.  1.
        -11    1    4    4    0    0  0.16976721856E+02 -0.61960767971E+01  0.12313482948E+02  0.21868294749E+02  0.51100000000E-03 0. -1.
         12    1    4    4    0    0 -0.12584766218E+01 -0.42895535715E+01  0.15576126566E+02  0.16204929869E+02  0.00000000000E+00 0. -1.
</event>
<event>
 8    1  0.2527138E-006  0.9118800E+02  0.7816164E-02  0.1184000E+00
        -11   -1    0    0    0    0  0.00000000000E+00  0.00000000000E+00  0.45593999997E+02  0.45594000000E+02  0.51100000000E-03 0.  1.
         11   -1    0    0    0    0 -0.00000000000E+00 -0.00000000000E+00 -0.45593999997E+02  0.45594000000E+02  0.51100000000E-03 0. -1.
         23    2    1    2    0    0  0.00000000000E+00  0.00000000000E+00  0.00000000000E+00  0.91188000000E+02  0.91188000000E+02 0.  0.
    9900012    2    3    3    0    0 -0.27705726804E+01 -0.34487601287E+01  0.36554231062E+02  0.54367057211E+02  0.39999938523E+02 0.  0.
         12    1    3    3    0    0  0.27705726804E+01  0.34487601287E+01 -0.36554231062E+02  0.36820942789E+02  0.00000000000E+00 0. -1.
         11    1    4    4    0    0 -0.11858568280E+02  0.19560547847E+01  0.22513967004E+01  0.12227860784E+02  0.51100000000E-03 0. -1.
        -11    1    4    4    0    0 -0.39185436284E+01  0.16109111537E+01  0.23384719600E+02  0.23765418783E+02  0.51100000000E-03 0.  1.
         12    1    4    4    0    0  0.13006539228E+02 -0.70157260671E+01  0.10918114761E+02  0.18373777643E+02  0.00000000000E+00 0. -1.
</event>
<event>
 8    1  0.2527138E-006  0.9118800E+02  0.7816164E-02  0.1184000E+00
        -11   -1    0    0    0    0  0.00000000000E+00  0.00000000000E+00  0.45593999997E+02  0.45594000000E+02  0.51100000000E-03 0.  1.
         11   -1    0    0    0    0 -0.00000000000E+00 -0.00000000000E+00 -0.45593999997E+02  0.45594000000E+02  0.51100000000E-03 0. -1.
         23    2    1    2    0    0  0.00000000000E+00  0.00000000000E+00  0.88817841970E-15  0.91188000000E+02  0.91188000000E+02 0.  0.
    9900012    2    3    3    0    0  0.22171012704E+02  0.28541677096E+02  0.70426463457E+01  0.54367081987E+02  0.39999995006E+02 0.  0.
         12    1    3    3    0    0 -0.22171012704E+02 -0.28541677096E+02 -0.70426463457E+01  0.36820918013E+02  0.00000000000E+00 0. -1.
         11    1    4    4    0    0  0.19234056871E+01 -0.28747333751E+01  0.18998918476E+01  0.39462856852E+01  0.51100000000E-03 0. -1.
        -11    1    4    4    0    0  0.16751749060E+02  0.30563587464E+02 -0.88610275378E+01  0.35962088156E+02  0.51100000000E-03 0.  1.
        -12    1    4    4    0    0  0.34958579564E+01  0.85282300633E+00  0.14003782036E+02  0.14458708146E+02  0.00000000000E+00 0.  1.
</event>
<event>
 8    1  0.2527138E-006  0.9118800E+02  0.7816164E-02  0.1184000E+00
        -11   -1    0    0    0    0  0.00000000000E+00  0.00000000000E+00  0.45593999997E+02  0.45594000000E+02  0.51100000000E-03 0. -1.
         11   -1    0    0    0    0 -0.00000000000E+00 -0.00000000000E+00 -0.45593999997E+02  0.45594000000E+02  0.51100000000E-03 0.  1.
         23    2    1    2    0    0  0.00000000000E+00  0.00000000000E+00  0.00000000000E+00  0.91188000000E+02  0.91188000000E+02 0.  0.
    9900012    2    3    3    0    0 -0.11126752711E+02  0.31294408282E+02  0.15894379503E+02  0.54367137498E+02  0.40000121554E+02 0.  0.
        -12    1    3    3    0    0  0.11126752711E+02 -0.31294408282E+02 -0.15894379503E+02  0.36820862502E+02  0.00000000000E+00 0.  1.
         11    1    4    4    0    0 -0.18352553673E+02  0.13226888439E+02  0.62593489500E+01  0.23472244325E+02  0.51100000000E-03 0. -1.
        -11    1    4    4    0    0 -0.51535836559E+01 -0.21612875898E+01  0.25528602354E+01  0.61439144026E+01  0.51100000000E-03 0.  1.
        -12    1    4    4    0    0  0.12379384619E+02  0.20228807433E+02  0.70821703178E+01  0.24750978771E+02  0.00000000000E+00 0.  1.
</event>
<event>
 8    1  0.2527138E-006  0.9118800E+02  0.7816164E-02  0.1184000E+00
        -11   -1    0    0    0    0  0.00000000000E+00  0.00000000000E+00  0.45593999997E+02  0.45594000000E+02  0.51100000000E-03 0.  1.
         11   -1    0    0    0    0 -0.00000000000E+00 -0.00000000000E+00 -0.45593999997E+02  0.45594000000E+02  0.51100000000E-03 0. -1.
         23    2    1    2    0    0  0.00000000000E+00  0.00000000000E+00 -0.55511151231E-16  0.91188000000E+02  0.91188000000E+02 0.  0.
    9900012    2    3    3    0    0  0.33686519647E+02 -0.14862113672E+02  0.33553225944E+00  0.54367128057E+02  0.40000100032E+02 0.  0.
         12    1    3    3    0    0 -0.33686519647E+02  0.14862113672E+02 -0.33553225944E+00  0.36820871943E+02  0.00000000000E+00 0. -1.
         11    1    4    4    0    0  0.12288928028E+02 -0.67055353335E+01 -0.94836835734E+01  0.16909234476E+02  0.51100000000E-03 0. -1.
        -11    1    4    4    0    0  0.22562218242E+02  0.44612767049E+01  0.33862953215E+01  0.23247014391E+02  0.51100000000E-03 0.  1.
         12    1    4    4    0    0 -0.11646266226E+01 -0.12617855043E+02  0.64329205113E+01  0.14210879190E+02  0.00000000000E+00 0. -1.
</event>
<event>
 8    1  0.2527138E-006  0.9118800E+02  0.7816164E-02  0.1184000E+00
        -11   -1    0    0    0    0  0.00000000000E+00  0.00000000000E+00  0.45593999997E+02  0.45594000000E+02  0.51100000000E-03 0. -1.
         11   -1    0    0    0    0 -0.00000000000E+00 -0.00000000000E+00 -0.45593999997E+02  0.45594000000E+02  0.51100000000E-03 0.  1.
         23    2    1    2    0    0  0.00000000000E+00  0.17763568394E-14 -0.17763568394E-14  0.91188000000E+02  0.91188000000E+02 0.  0.
    9900012    2    3    3    0    0  0.32886805386E+02 -0.12913724681E+02 -0.10366959843E+02  0.54367080538E+02  0.39999991702E+02 0.  0.
        -12    1    3    3    0    0 -0.32886805386E+02  0.12913724681E+02  0.10366959843E+02  0.36820919462E+02  0.00000000000E+00 0.  1.
         11    1    4    4    0    0  0.11967675327E+02  0.50583335536E+01  0.61143366317E+01  0.14359564888E+02  0.51100000000E-03 0. -1.
        -11    1    4    4    0    0 -0.46499762021E+01 -0.24858015709E+01 -0.67603886697E+01  0.85734674057E+01  0.51100000000E-03 0.  1.
         12    1    4    4    0    0  0.25569106261E+02 -0.15486256664E+02 -0.97209078049E+01  0.31434048244E+02  0.00000000000E+00 0. -1.
</event>
<event>
 8    1  0.2527138E-006  0.9118800E+02  0.7816164E-02  0.1184000E+00
        -11   -1    0    0    0    0  0.00000000000E+00  0.00000000000E+00  0.45593999997E+02  0.45594000000E+02  0.51100000000E-03 0. -1.
         11   -1    0    0    0    0 -0.00000000000E+00 -0.00000000000E+00 -0.45593999997E+02  0.45594000000E+02  0.51100000000E-03 0.  1.
         23    2    1    2    0    0  0.88817841970E-15  0.00000000000E+00  0.39968028887E-14  0.91188000000E+02  0.91188000000E+02 0.  0.
    9900012    2    3    3    0    0 -0.29513439048E+01 -0.36564401777E+02 -0.31802501453E+01  0.54367083402E+02  0.39999998231E+02 0.  0.
         12    1    3    3    0    0  0.29513439048E+01  0.36564401777E+02  0.31802501453E+01  0.36820916598E+02  0.00000000000E+00 0. -1.
         11    1    4    4    0    0  0.63676714954E+01 -0.75290563859E+01 -0.66405985204E+01  0.11888291690E+02  0.51100000000E-03 0.  1.
        -11    1    4    4    0    0  0.20565400957E+01 -0.11755216843E+02  0.14700190382E+02  0.18934362353E+02  0.51100000000E-03 0. -1.
        -12    1    4    4    0    0 -0.11375555496E+02 -0.17280128548E+02 -0.11239842007E+02  0.23544429359E+02  0.00000000000E+00 0.  1.
</event>
<event>
 8    1  0.2527138E-006  0.9118800E+02  0.7816164E-02  0.1184000E+00
        -11   -1    0    0    0    0  0.00000000000E+00  0.00000000000E+00  0.45593999997E+02  0.45594000000E+02  0.51100000000E-03 0. -1.
         11   -1    0    0    0    0 -0.00000000000E+00 -0.00000000000E+00 -0.45593999997E+02  0.45594000000E+02  0.51100000000E-03 0.  1.
         23    2    1    2    0    0  0.00000000000E+00  0.00000000000E+00  0.00000000000E+00  0.91188000000E+02  0.91188000000E+02 0.  0.
    9900012    2    3    3    0    0 -0.21732997888E+02  0.22845196324E+02  0.19014589253E+02  0.54367071213E+02  0.39999970444E+02 0.  0.
        -12    1    3    3    0    0  0.21732997888E+02 -0.22845196324E+02 -0.19014589253E+02  0.36820928787E+02  0.00000000000E+00 0.  1.
         11    1    4    4    0    0  0.54092740329E+01  0.95781841981E+01  0.18567197959E+01  0.11155683160E+02  0.51100000000E-03 0. -1.
        -11    1    4    4    0    0 -0.69601566715E+01  0.11145353741E+02 -0.41561123549E+01  0.13781725621E+02  0.51100000000E-03 0.  1.
         12    1    4    4    0    0 -0.20182115249E+02  0.21216583850E+01  0.21313981811E+02  0.29429662433E+02  0.00000000000E+00 0. -1.
</event>
<event>
 8    1  0.2527138E-006  0.9118800E+02  0.7816164E-02  0.1184000E+00
        -11   -1    0    0    0    0  0.00000000000E+00  0.00000000000E+00  0.45593999997E+02  0.45594000000E+02  0.51100000000E-03 0. -1.
         11   -1    0    0    0    0 -0.00000000000E+00 -0.00000000000E+00 -0.45593999997E+02  0.45594000000E+02  0.51100000000E-03 0.  1.
         23    2    1    2    0    0 -0.35527136788E-14  0.35527136788E-14  0.35527136788E-14  0.91188000000E+02  0.91188000000E+02 0.  0.
    9900012    2    3    3    0    0 -0.26488232204E+02  0.13822269244E+02  0.21519737601E+02  0.54367072815E+02  0.39999974096E+02 0.  0.
        -12    1    3    3    0    0  0.26488232204E+02 -0.13822269244E+02 -0.21519737601E+02  0.36820927185E+02  0.00000000000E+00 0.  1.
         11    1    4    4    0    0 -0.29079799259E+01  0.51061445572E+00  0.64003202979E+00  0.30210454535E+01  0.51100000000E-03 0. -1.
        -11    1    4    4    0    0 -0.26405723195E+02 -0.27571412735E+01  0.22698394100E+02  0.34929659896E+02  0.51100000000E-03 0.  1.
         12    1    4    4    0    0  0.28254709168E+01  0.16068796062E+02 -0.18186885292E+01  0.16416367465E+02  0.00000000000E+00 0. -1.
</event>
<event>
 8    1  0.2527138E-006  0.9118800E+02  0.7816164E-02  0.1184000E+00
        -11   -1    0    0    0    0  0.00000000000E+00  0.00000000000E+00  0.45593999997E+02  0.45594000000E+02  0.51100000000E-03 0. -1.
         11   -1    0    0    0    0 -0.00000000000E+00 -0.00000000000E+00 -0.45593999997E+02  0.45594000000E+02  0.51100000000E-03 0.  1.
         23    2    1    2    0    0  0.17763568394E-14  0.17763568394E-14  0.00000000000E+00  0.91188000000E+02  0.91188000000E+02 0.  0.
    9900012    2    3    3    0    0  0.10398858745E+02 -0.14862408067E+02 -0.32042964309E+02  0.54367095632E+02  0.40000026113E+02 0.  0.
         12    1    3    3    0    0 -0.10398858745E+02  0.14862408067E+02  0.32042964309E+02  0.36820904368E+02  0.00000000000E+00 0. -1.
         11    1    4    4    0    0 -0.25280800939E+01 -0.61003013745E+01 -0.21648203182E+02  0.22632931032E+02  0.51100000000E-03 0. -1.
        -11    1    4    4    0    0  0.12694975950E+02 -0.55301759523E+01 -0.18440345086E+02  0.23060606834E+02  0.51100000000E-03 0.  1.
         12    1    4    4    0    0  0.23196288855E+00 -0.32319307398E+01  0.80455839583E+01  0.86735577659E+01  0.00000000000E+00 0. -1.
</event>
<event>
 8    1  0.2527138E-006  0.9118800E+02  0.7816164E-02  0.1184000E+00
        -11   -1    0    0    0    0  0.00000000000E+00  0.00000000000E+00  0.45593999997E+02  0.45594000000E+02  0.51100000000E-03 0. -1.
         11   -1    0    0    0    0 -0.00000000000E+00 -0.00000000000E+00 -0.45593999997E+02  0.45594000000E+02  0.51100000000E-03 0.  1.
         23    2    1    2    0    0  0.00000000000E+00 -0.17763568394E-14  0.00000000000E+00  0.91188000000E+02  0.91188000000E+02 0.  0.
    9900012    2    3    3    0    0 -0.32994674862E+02  0.13218468760E+02  0.96125444548E+01  0.54367116028E+02  0.40000072608E+02 0.  0.
        -12    1    3    3    0    0  0.32994674862E+02 -0.13218468760E+02 -0.96125444548E+01  0.36820883972E+02  0.00000000000E+00 0.  1.
         11    1    4    4    0    0 -0.15842303340E+02 -0.46067958165E+01  0.76719417095E+01  0.18195049675E+02  0.51100000000E-03 0. -1.
        -11    1    4    4    0    0 -0.18397416542E+02  0.65825509683E+00 -0.19913172300E+01  0.18516575811E+02  0.51100000000E-03 0.  1.
         12    1    4    4    0    0  0.12450450200E+01  0.17167009480E+02  0.39319199752E+01  0.17655490542E+02  0.00000000000E+00 0. -1.
</event>
<event>
 8    1  0.2527138E-006  0.9118800E+02  0.7816164E-02  0.1184000E+00
        -11   -1    0    0    0    0  0.00000000000E+00  0.00000000000E+00  0.45593999997E+02  0.45594000000E+02  0.51100000000E-03 0. -1.
         11   -1    0    0    0    0 -0.00000000000E+00 -0.00000000000E+00 -0.45593999997E+02  0.45594000000E+02  0.51100000000E-03 0.  1.
         23    2    1    2    0    0  0.00000000000E+00  0.88817841970E-15  0.00000000000E+00  0.91188000000E+02  0.91188000000E+02 0.  0.
    9900012    2    3    3    0    0 -0.15723701121E+02  0.57846912914E+01 -0.32788462481E+02  0.54367072497E+02  0.39999973373E+02 0.  0.
         12    1    3    3    0    0  0.15723701121E+02 -0.57846912914E+01  0.32788462481E+02  0.36820927503E+02  0.00000000000E+00 0. -1.
         11    1    4    4    0    0 -0.68622710767E+01  0.11873749241E+02 -0.21388331892E+02  0.25407428574E+02  0.51100000000E-03 0. -1.
        -11    1    4    4    0    0 -0.12362438532E+02  0.58203326539E+01 -0.88714793743E+01  0.16291387455E+02  0.51100000000E-03 0.  1.
         12    1    4    4    0    0  0.35010084885E+01 -0.11909390603E+02 -0.25286512150E+01  0.12668256468E+02  0.00000000000E+00 0. -1.
</event>
<event>
 8    1  0.2527138E-006  0.9118800E+02  0.7816164E-02  0.1184000E+00
        -11   -1    0    0    0    0  0.00000000000E+00  0.00000000000E+00  0.45593999997E+02  0.45594000000E+02  0.51100000000E-03 0. -1.
         11   -1    0    0    0    0 -0.00000000000E+00 -0.00000000000E+00 -0.45593999997E+02  0.45594000000E+02  0.51100000000E-03 0.  1.
         23    2    1    2    0    0  0.13322676296E-14 -0.88817841970E-15  0.00000000000E+00  0.91188000000E+02  0.91188000000E+02 0.  0.
    9900012    2    3    3    0    0 -0.36504456883E+01 -0.71638226510E+01 -0.35932356784E+02  0.54367076971E+02  0.39999983570E+02 0.  0.
         12    1    3    3    0    0  0.36504456883E+01  0.71638226510E+01  0.35932356784E+02  0.36820923029E+02  0.00000000000E+00 0. -1.
         11    1    4    4    0    0  0.94338832448E+01  0.92075367749E+01 -0.52335427198E+01  0.14183330222E+02  0.51100000000E-03 0. -1.
        -11    1    4    4    0    0 -0.86750373392E+01 -0.17544164645E+00 -0.70306043168E+01  0.11167651943E+02  0.51100000000E-03 0.  1.
         12    1    4    4    0    0 -0.44092915939E+01 -0.16195917779E+02 -0.23668209747E+02  0.29016094805E+02  0.00000000000E+00 0. -1.
</event>
<event>
 8    1  0.2527138E-006  0.9118800E+02  0.7816164E-02  0.1184000E+00
        -11   -1    0    0    0    0  0.00000000000E+00  0.00000000000E+00  0.45593999997E+02  0.45594000000E+02  0.51100000000E-03 0.  1.
         11   -1    0    0    0    0 -0.00000000000E+00 -0.00000000000E+00 -0.45593999997E+02  0.45594000000E+02  0.51100000000E-03 0. -1.
         23    2    1    2    0    0  0.35527136788E-14  0.00000000000E+00  0.35527136788E-14  0.91188000000E+02  0.91188000000E+02 0.  0.
    9900012    2    3    3    0    0 -0.28855201375E+02 -0.80776599772E+01 -0.21398786926E+02  0.54367091280E+02  0.40000016191E+02 0.  0.
         12    1    3    3    0    0  0.28855201375E+02  0.80776599772E+01  0.21398786926E+02  0.36820908720E+02  0.00000000000E+00 0. -1.
         11    1    4    4    0    0 -0.18186024286E+01 -0.22257396755E+01 -0.22378147914E+02  0.22561975450E+02  0.51100000000E-03 0. -1.
        -11    1    4    4    0    0 -0.25240360299E+02 -0.10018244419E+01  0.43495068445E+01  0.25631965401E+02  0.51100000000E-03 0.  1.
        -12    1    4    4    0    0 -0.17962386466E+01 -0.48500958599E+01 -0.33701458566E+01  0.61731504291E+01  0.00000000000E+00 0.  1.
</event>
<event>
 8    1  0.2527138E-006  0.9118800E+02  0.7816164E-02  0.1184000E+00
        -11   -1    0    0    0    0  0.00000000000E+00  0.00000000000E+00  0.45593999997E+02  0.45594000000E+02  0.51100000000E-03 0. -1.
         11   -1    0    0    0    0 -0.00000000000E+00 -0.00000000000E+00 -0.45593999997E+02  0.45594000000E+02  0.51100000000E-03 0.  1.
         23    2    1    2    0    0 -0.11102230246E-14  0.00000000000E+00  0.00000000000E+00  0.91188000000E+02  0.91188000000E+02 0.  0.
    9900012    2    3    3    0    0 -0.18647351932E+01  0.44535768196E+01 -0.36503020195E+02  0.54367053961E+02  0.39999931116E+02 0.  0.
         12    1    3    3    0    0  0.18647351932E+01 -0.44535768196E+01  0.36503020195E+02  0.36820946039E+02  0.00000000000E+00 0. -1.
         11    1    4    4    0    0 -0.10831760134E+02 -0.53942160166E+01 -0.62041752721E+01  0.13598396416E+02  0.51100000000E-03 0. -1.
        -11    1    4    4    0    0 -0.76174501286E+01  0.45728260410E+01 -0.15759131762E+02  0.18091061843E+02  0.51100000000E-03 0.  1.
         12    1    4    4    0    0  0.16584475069E+02  0.52749667952E+01 -0.14539713161E+02  0.22677595702E+02  0.00000000000E+00 0. -1.
</event>
<event>
 8    1  0.2527138E-006  0.9118800E+02  0.7816164E-02  0.1184000E+00
        -11   -1    0    0    0    0  0.00000000000E+00  0.00000000000E+00  0.45593999997E+02  0.45594000000E+02  0.51100000000E-03 0. -1.
         11   -1    0    0    0    0 -0.00000000000E+00 -0.00000000000E+00 -0.45593999997E+02  0.45594000000E+02  0.51100000000E-03 0.  1.
         23    2    1    2    0    0  0.00000000000E+00 -0.44408920985E-15 -0.35527136788E-14  0.91188000000E+02  0.91188000000E+02 0.  0.
    9900012    2    3    3    0    0 -0.32421433128E+02  0.38238966704E+01  0.17029552885E+02  0.54367120281E+02  0.40000082305E+02 0.  0.
         12    1    3    3    0    0  0.32421433128E+02 -0.38238966704E+01 -0.17029552885E+02  0.36820879719E+02  0.00000000000E+00 0. -1.
         11    1    4    4    0    0  0.41015806549E+00  0.41353715418E+01  0.55473063695E-01  0.41560323567E+01  0.51100000000E-03 0. -1.
        -11    1    4    4    0    0 -0.69430975077E+01  0.13111748769E+02 -0.26363504401E+01  0.15069004702E+02  0.51100000000E-03 0.  1.
        -12    1    4    4    0    0 -0.25888493685E+02 -0.13423223641E+02  0.19610430262E+02  0.35142083223E+02  0.00000000000E+00 0.  1.
</event>
<event>
 8    1  0.2527138E-006  0.9118800E+02  0.7816164E-02  0.1184000E+00
        -11   -1    0    0    0    0  0.00000000000E+00  0.00000000000E+00  0.45593999997E+02  0.45594000000E+02  0.51100000000E-03 0.  1.
         11   -1    0    0    0    0 -0.00000000000E+00 -0.00000000000E+00 -0.45593999997E+02  0.45594000000E+02  0.51100000000E-03 0. -1.
         23    2    1    2    0    0  0.35527136788E-14  0.15543122345E-14 -0.71054273576E-14  0.91188000000E+02  0.91188000000E+02 0.  0.
    9900012    2    3    3    0    0 -0.15959588665E+02  0.19769623165E+01  0.33123453881E+02  0.54367081388E+02  0.39999993641E+02 0.  0.
         12    1    3    3    0    0  0.15959588665E+02 -0.19769623165E+01 -0.33123453881E+02  0.36820918612E+02  0.00000000000E+00 0. -1.
         11    1    4    4    0    0 -0.38518747957E+01 -0.63380203298E+01  0.32840587494E+01  0.81112565780E+01  0.51100000000E-03 0.  1.
        -11    1    4    4    0    0 -0.31679151961E+01 -0.12387007366E+02  0.11293160401E+02  0.17058989134E+02  0.51100000000E-03 0. -1.
         12    1    4    4    0    0 -0.89397986734E+01  0.20701990013E+02  0.18546234731E+02  0.29196835676E+02  0.00000000000E+00 0. -1.
</event>
<event>
 8    1  0.2527138E-006  0.9118800E+02  0.7816164E-02  0.1184000E+00
        -11   -1    0    0    0    0  0.00000000000E+00  0.00000000000E+00  0.45593999997E+02  0.45594000000E+02  0.51100000000E-03 0. -1.
         11   -1    0    0    0    0 -0.00000000000E+00 -0.00000000000E+00 -0.45593999997E+02  0.45594000000E+02  0.51100000000E-03 0.  1.
         23    2    1    2    0    0  0.00000000000E+00 -0.35527136788E-14  0.00000000000E+00  0.91188000000E+02  0.91188000000E+02 0.  0.
    9900012    2    3    3    0    0 -0.17035753938E+02  0.30068089630E+02 -0.12707266097E+02  0.54367061149E+02  0.39999947500E+02 0.  0.
        -12    1    3    3    0    0  0.17035753938E+02 -0.30068089630E+02  0.12707266097E+02  0.36820938851E+02  0.00000000000E+00 0.  1.
         11    1    4    4    0    0 -0.75066963258E+01  0.72015946261E+01  0.13077463476E+02  0.16710281449E+02  0.51100000000E-03 0. -1.
        -11    1    4    4    0    0 -0.10883829508E+02  0.11259029676E+02 -0.13177102977E+02  0.20466058173E+02  0.51100000000E-03 0.  1.
        -12    1    4    4    0    0  0.13547718964E+01  0.11607465328E+02 -0.12607626596E+02  0.17190721526E+02  0.00000000000E+00 0.  1.
</event>
<event>
 8    1  0.2527138E-006  0.9118800E+02  0.7816164E-02  0.1184000E+00
        -11   -1    0    0    0    0  0.00000000000E+00  0.00000000000E+00  0.45593999997E+02  0.45594000000E+02  0.51100000000E-03 0.  1.
         11   -1    0    0    0    0 -0.00000000000E+00 -0.00000000000E+00 -0.45593999997E+02  0.45594000000E+02  0.51100000000E-03 0. -1.
         23    2    1    2    0    0  0.00000000000E+00  0.00000000000E+00  0.00000000000E+00  0.91188000000E+02  0.91188000000E+02 0.  0.
    9900012    2    3    3    0    0  0.24017127486E+02 -0.16921329958E+02 -0.22195204914E+02  0.54367069249E+02  0.39999965966E+02 0.  0.
        -12    1    3    3    0    0 -0.24017127486E+02  0.16921329958E+02  0.22195204914E+02  0.36820930751E+02  0.00000000000E+00 0.  1.
         11    1    4    4    0    0  0.65310022133E+01 -0.21345990128E+02 -0.15221069641E+02  0.27018257637E+02  0.51100000000E-03 0. -1.
        -11    1    4    4    0    0  0.18290558128E+02 -0.27284002218E+01 -0.78646089653E+01  0.20095789580E+02  0.51100000000E-03 0.  1.
        -12    1    4    4    0    0 -0.80443285549E+00  0.71530603923E+01  0.89047369223E+00  0.72530220316E+01  0.00000000000E+00 0.  1.
</event>
<event>
 8    1  0.2527138E-006  0.9118800E+02  0.7816164E-02  0.1184000E+00
        -11   -1    0    0    0    0  0.00000000000E+00  0.00000000000E+00  0.45593999997E+02  0.45594000000E+02  0.51100000000E-03 0.  1.
         11   -1    0    0    0    0 -0.00000000000E+00 -0.00000000000E+00 -0.45593999997E+02  0.45594000000E+02  0.51100000000E-03 0. -1.
         23    2    1    2    0    0 -0.17763568394E-14  0.88817841970E-15  0.71054273576E-14  0.91188000000E+02  0.91188000000E+02 0.  0.
    9900012    2    3    3    0    0 -0.41327479191E+01  0.76287774111E+00  0.36580284851E+02  0.54367097953E+02  0.40000031403E+02 0.  0.
         12    1    3    3    0    0  0.41327479191E+01 -0.76287774111E+00 -0.36580284851E+02  0.36820902047E+02  0.00000000000E+00 0. -1.
         11    1    4    4    0    0 -0.60563256176E+01  0.62335050923E+01  0.85636989287E+01  0.12201336211E+02  0.51100000000E-03 0. -1.
        -11    1    4    4    0    0 -0.12629201960E+02 -0.82627361140E+01  0.20760206957E+02  0.25666237421E+02  0.51100000000E-03 0.  1.
         12    1    4    4    0    0  0.14552779658E+02  0.27921087629E+01  0.72563789656E+01  0.16499524321E+02  0.00000000000E+00 0. -1.
</event>
<event>
 8    1  0.2527138E-006  0.9118800E+02  0.7816164E-02  0.1184000E+00
        -11   -1    0    0    0    0  0.00000000000E+00  0.00000000000E+00  0.45593999997E+02  0.45594000000E+02  0.51100000000E-03 0. -1.
         11   -1    0    0    0    0 -0.00000000000E+00 -0.00000000000E+00 -0.45593999997E+02  0.45594000000E+02  0.51100000000E-03 0.  1.
         23    2    1    2    0    0  0.00000000000E+00  0.00000000000E+00  0.00000000000E+00  0.91188000000E+02  0.91188000000E+02 0.  0.
    9900012    2    3    3    0    0  0.34653053241E+02  0.93577711486E+01 -0.82084324512E+01  0.54367077373E+02  0.39999984487E+02 0.  0.
         12    1    3    3    0    0 -0.34653053241E+02 -0.93577711486E+01  0.82084324512E+01  0.36820922627E+02  0.00000000000E+00 0. -1.
         11    1    4    4    0    0 -0.40049067822E+01 -0.62345872456E+01 -0.11787568057E+01  0.75032542490E+01  0.51100000000E-03 0. -1.
        -11    1    4    4    0    0  0.25951868081E+02 -0.33639216682E+00 -0.42368383775E+01  0.26297593355E+02  0.51100000000E-03 0.  1.
        -12    1    4    4    0    0  0.12706091943E+02  0.15928750561E+02 -0.27928372681E+01  0.20566229769E+02  0.00000000000E+00 0.  1.
</event>
<event>
 8    1  0.2527138E-006  0.9118800E+02  0.7816164E-02  0.1184000E+00
        -11   -1    0    0    0    0  0.00000000000E+00  0.00000000000E+00  0.45593999997E+02  0.45594000000E+02  0.51100000000E-03 0.  1.
         11   -1    0    0    0    0 -0.00000000000E+00 -0.00000000000E+00 -0.45593999997E+02  0.45594000000E+02  0.51100000000E-03 0. -1.
         23    2    1    2    0    0 -0.35527136788E-14  0.00000000000E+00  0.53290705182E-14  0.91188000000E+02  0.91188000000E+02 0.  0.
    9900012    2    3    3    0    0  0.21603264702E+02  0.26209317786E+02  0.14217985785E+02  0.54367075183E+02  0.39999979496E+02 0.  0.
         12    1    3    3    0    0 -0.21603264702E+02 -0.26209317786E+02 -0.14217985785E+02  0.36820924817E+02  0.00000000000E+00 0. -1.
         11    1    4    4    0    0  0.87722326237E+01  0.42728592287E+01 -0.36877234883E+01  0.10431140685E+02  0.51100000000E-03 0. -1.
        -11    1    4    4    0    0  0.36676484630E+01  0.12141534513E+02 -0.78363974183E+01  0.14908978179E+02  0.51100000000E-03 0.  1.
        -12    1    4    4    0    0  0.91633836152E+01  0.97949240444E+01  0.25742106691E+02  0.29026956320E+02  0.00000000000E+00 0.  1.
</event>
<event>
 8    1  0.2527138E-006  0.9118800E+02  0.7816164E-02  0.1184000E+00
        -11   -1    0    0    0    0  0.00000000000E+00  0.00000000000E+00  0.45593999997E+02  0.45594000000E+02  0.51100000000E-03 0.  1.
         11   -1    0    0    0    0 -0.00000000000E+00 -0.00000000000E+00 -0.45593999997E+02  0.45594000000E+02  0.51100000000E-03 0. -1.
         23    2    1    2    0    0  0.00000000000E+00  0.00000000000E+00  0.00000000000E+00  0.91188000000E+02  0.91188000000E+02 0.  0.
    9900012    2    3    3    0    0 -0.16969070359E+02  0.35369848420E+01  0.32485699067E+02  0.54367078576E+02  0.39999987229E+02 0.  0.
         12    1    3    3    0    0  0.16969070359E+02 -0.35369848420E+01 -0.32485699067E+02  0.36820921424E+02  0.00000000000E+00 0. -1.
         11    1    4    4    0    0  0.68385977628E+01 -0.75138659052E+01  0.19388276434E+02  0.21889035235E+02  0.51100000000E-03 0. -1.
        -11    1    4    4    0    0 -0.26839953425E+01  0.77126486197E+01  0.51961112883E+01  0.96792743794E+01  0.51100000000E-03 0.  1.
        -12    1    4    4    0    0 -0.21123672780E+02  0.33382021275E+01  0.79013113453E+01  0.22798768961E+02  0.00000000000E+00 0.  1.
</event>
<event>
 8    1  0.2527138E-006  0.9118800E+02  0.7816164E-02  0.1184000E+00
        -11   -1    0    0    0    0  0.00000000000E+00  0.00000000000E+00  0.45593999997E+02  0.45594000000E+02  0.51100000000E-03 0. -1.
         11   -1    0    0    0    0 -0.00000000000E+00 -0.00000000000E+00 -0.45593999997E+02  0.45594000000E+02  0.51100000000E-03 0.  1.
         23    2    1    2    0    0  0.35527136788E-14 -0.35527136788E-14 -0.88817841970E-15  0.91188000000E+02  0.91188000000E+02 0.  0.
    9900012    2    3    3    0    0 -0.22699190894E+02  0.28920547319E+02  0.20318630489E+01  0.54367084857E+02  0.40000001549E+02 0.  0.
        -12    1    3    3    0    0  0.22699190894E+02 -0.28920547319E+02 -0.20318630489E+01  0.36820915143E+02  0.00000000000E+00 0.  1.
         11    1    4    4    0    0 -0.94778905503E+01  0.21371850957E+02  0.11408729469E+02  0.26014333183E+02  0.51100000000E-03 0. -1.
        -11    1    4    4    0    0  0.16878861827E+01  0.11202105461E+02 -0.50583082443E+01  0.12406555085E+02  0.51100000000E-03 0.  1.
         12    1    4    4    0    0 -0.14909186527E+02 -0.36534090986E+01 -0.43185581757E+01  0.15946196589E+02  0.00000000000E+00 0. -1.
</event>
<event>
 8    1  0.2527138E-006  0.9118800E+02  0.7816164E-02  0.1184000E+00
        -11   -1    0    0    0    0  0.00000000000E+00  0.00000000000E+00  0.45593999997E+02  0.45594000000E+02  0.51100000000E-03 0.  1.
         11   -1    0    0    0    0 -0.00000000000E+00 -0.00000000000E+00 -0.45593999997E+02  0.45594000000E+02  0.51100000000E-03 0. -1.
         23    2    1    2    0    0  0.35527136788E-14 -0.35527136788E-14  0.00000000000E+00  0.91188000000E+02  0.91188000000E+02 0.  0.
    9900012    2    3    3    0    0  0.21736867832E+02 -0.20173126188E+02 -0.21825096694E+02  0.54367064527E+02  0.39999955203E+02 0.  0.
        -12    1    3    3    0    0 -0.21736867832E+02  0.20173126188E+02  0.21825096694E+02  0.36820935473E+02  0.00000000000E+00 0.  1.
         11    1    4    4    0    0  0.16759909744E+02 -0.79978669758E+01 -0.78910346859E+01  0.20177434908E+02  0.51100000000E-03 0. -1.
        -11    1    4    4    0    0 -0.67466550475E+01  0.59894538346E+01 -0.72095816181E+01  0.11548548780E+02  0.51100000000E-03 0.  1.
        -12    1    4    4    0    0  0.11723613136E+02 -0.18164713047E+02 -0.67244803904E+01  0.22641080839E+02  0.00000000000E+00 0.  1.
</event>
<event>
 8    1  0.2527138E-006  0.9118800E+02  0.7816164E-02  0.1184000E+00
        -11   -1    0    0    0    0  0.00000000000E+00  0.00000000000E+00  0.45593999997E+02  0.45594000000E+02  0.51100000000E-03 0.  1.
         11   -1    0    0    0    0 -0.00000000000E+00 -0.00000000000E+00 -0.45593999997E+02  0.45594000000E+02  0.51100000000E-03 0. -1.
         23    2    1    2    0    0  0.00000000000E+00  0.00000000000E+00  0.17763568394E-14  0.91188000000E+02  0.91188000000E+02 0.  0.
    9900012    2    3    3    0    0  0.31886620498E+02 -0.17461509395E+02  0.58411476560E+01  0.54367083620E+02  0.39999998729E+02 0.  0.
         12    1    3    3    0    0 -0.31886620498E+02  0.17461509395E+02 -0.58411476560E+01  0.36820916380E+02  0.00000000000E+00 0. -1.
         11    1    4    4    0    0  0.11950659006E+01 -0.14497494368E+02  0.56642717330E+01  0.15610557325E+02  0.51100000000E-03 0. -1.
        -11    1    4    4    0    0  0.11003458675E+02 -0.58880458530E+00  0.11494720500E+02  0.15923297186E+02  0.51100000000E-03 0.  1.
         12    1    4    4    0    0  0.19688095923E+02 -0.23752104413E+01 -0.11317844577E+02  0.22833229109E+02  0.00000000000E+00 0. -1.
</event>
<event>
 8    1  0.2527138E-006  0.9118800E+02  0.7816164E-02  0.1184000E+00
        -11   -1    0    0    0    0  0.00000000000E+00  0.00000000000E+00  0.45593999997E+02  0.45594000000E+02  0.51100000000E-03 0.  1.
         11   -1    0    0    0    0 -0.00000000000E+00 -0.00000000000E+00 -0.45593999997E+02  0.45594000000E+02  0.51100000000E-03 0. -1.
         23    2    1    2    0    0  0.17763568394E-14 -0.35527136788E-14  0.35527136788E-14  0.91188000000E+02  0.91188000000E+02 0.  0.
    9900012    2    3    3    0    0  0.98785207810E+01 -0.17135916453E+02 -0.31057283600E+02  0.54367086512E+02  0.40000005321E+02 0.  0.
        -12    1    3    3    0    0 -0.98785207810E+01  0.17135916453E+02  0.31057283600E+02  0.36820913488E+02  0.00000000000E+00 0.  1.
         11    1    4    4    0    0 -0.71431344373E+01 -0.36983403811E+01 -0.31575409005E+02  0.32583869403E+02  0.51100000000E-03 0. -1.
        -11    1    4    4    0    0  0.74940046141E+01 -0.70622043712E+01  0.65956425419E+00  0.10318423378E+02  0.51100000000E-03 0.  1.
         12    1    4    4    0    0  0.95276506042E+01 -0.63753717004E+01 -0.14143884926E+00  0.11464793731E+02  0.00000000000E+00 0. -1.
</event>
<event>
 8    1  0.2527138E-006  0.9118800E+02  0.7816164E-02  0.1184000E+00
        -11   -1    0    0    0    0  0.00000000000E+00  0.00000000000E+00  0.45593999997E+02  0.45594000000E+02  0.51100000000E-03 0.  1.
         11   -1    0    0    0    0 -0.00000000000E+00 -0.00000000000E+00 -0.45593999997E+02  0.45594000000E+02  0.51100000000E-03 0. -1.
         23    2    1    2    0    0  0.35527136788E-14 -0.35527136788E-14  0.00000000000E+00  0.91188000000E+02  0.91188000000E+02 0.  0.
    9900012    2    3    3    0    0  0.25743023168E+02  0.10868718240E+02  0.23978051869E+02  0.54367092224E+02  0.40000018344E+02 0.  0.
        -12    1    3    3    0    0 -0.25743023168E+02 -0.10868718240E+02 -0.23978051869E+02  0.36820907776E+02  0.00000000000E+00 0.  1.
         11    1    4    4    0    0  0.31028188241E+01  0.12950831396E+02  0.20766457226E+01  0.13478277940E+02  0.51100000000E-03 0. -1.
        -11    1    4    4    0    0  0.80792350081E+01 -0.12910367004E+02  0.48369367436E+01  0.15979598613E+02  0.51100000000E-03 0.  1.
        -12    1    4    4    0    0  0.14560969336E+02  0.10828253848E+02  0.17064469403E+02  0.24909215672E+02  0.00000000000E+00 0.  1.
</event>
<event>
 8    1  0.2527138E-006  0.9118800E+02  0.7816164E-02  0.1184000E+00
        -11   -1    0    0    0    0  0.00000000000E+00  0.00000000000E+00  0.45593999997E+02  0.45594000000E+02  0.51100000000E-03 0. -1.
         11   -1    0    0    0    0 -0.00000000000E+00 -0.00000000000E+00 -0.45593999997E+02  0.45594000000E+02  0.51100000000E-03 0.  1.
         23    2    1    2    0    0  0.00000000000E+00  0.00000000000E+00  0.00000000000E+00  0.91188000000E+02  0.91188000000E+02 0.  0.
    9900012    2    3    3    0    0  0.67575007270E+01  0.47825806816E+01 -0.35878163204E+02  0.54367088971E+02  0.40000010928E+02 0.  0.
         12    1    3    3    0    0 -0.67575007270E+01 -0.47825806816E+01  0.35878163204E+02  0.36820911029E+02  0.00000000000E+00 0. -1.
         11    1    4    4    0    0  0.10614601712E+01 -0.10765353067E+02 -0.32777980044E+02  0.34516887176E+02  0.51100000000E-03 0. -1.
        -11    1    4    4    0    0  0.51613096628E+01  0.13445193255E+02 -0.65130310680E+01  0.15806072031E+02  0.51100000000E-03 0.  1.
         12    1    4    4    0    0  0.53473089310E+00  0.21027404939E+01  0.34128479070E+01  0.40441297642E+01  0.00000000000E+00 0. -1.
</event>
<event>
 8    1  0.2527138E-006  0.9118800E+02  0.7816164E-02  0.1184000E+00
        -11   -1    0    0    0    0  0.00000000000E+00  0.00000000000E+00  0.45593999997E+02  0.45594000000E+02  0.51100000000E-03 0. -1.
         11   -1    0    0    0    0 -0.00000000000E+00 -0.00000000000E+00 -0.45593999997E+02  0.45594000000E+02  0.51100000000E-03 0.  1.
         23    2    1    2    0    0  0.17763568394E-14 -0.17763568394E-14  0.00000000000E+00  0.91188000000E+02  0.91188000000E+02 0.  0.
    9900012    2    3    3    0    0  0.14270200989E+02  0.11717104991E+02 -0.31856737931E+02  0.54367069305E+02  0.39999966096E+02 0.  0.
         12    1    3    3    0    0 -0.14270200989E+02 -0.11717104991E+02  0.31856737931E+02  0.36820930695E+02  0.00000000000E+00 0. -1.
         11    1    4    4    0    0  0.50086389852E+01  0.23750731384E+01 -0.20584428901E+02  0.21317742619E+02  0.51100000000E-03 0. -1.
        -11    1    4    4    0    0  0.17152780348E+02  0.54580804346E+01 -0.15063635082E+02  0.23471719533E+02  0.51100000000E-03 0.  1.
         12    1    4    4    0    0 -0.78912183434E+01  0.38839514176E+01  0.37913260528E+01  0.95776071540E+01  0.00000000000E+00 0. -1.
</event>
<event>
 8    1  0.2527138E-006  0.9118800E+02  0.7816164E-02  0.1184000E+00
        -11   -1    0    0    0    0  0.00000000000E+00  0.00000000000E+00  0.45593999997E+02  0.45594000000E+02  0.51100000000E-03 0.  1.
         11   -1    0    0    0    0 -0.00000000000E+00 -0.00000000000E+00 -0.45593999997E+02  0.45594000000E+02  0.51100000000E-03 0. -1.
         23    2    1    2    0    0 -0.14988010832E-14  0.35527136788E-14 -0.35527136788E-14  0.91188000000E+02  0.91188000000E+02 0.  0.
    9900012    2    3    3    0    0  0.22995222343E+00 -0.24103477333E+02  0.27834332435E+02  0.54367074432E+02  0.39999977783E+02 0.  0.
         12    1    3    3    0    0 -0.22995222343E+00  0.24103477333E+02 -0.27834332435E+02  0.36820925568E+02  0.00000000000E+00 0. -1.
         11    1    4    4    0    0 -0.23011355742E+01  0.28826286290E+01  0.76223798520E-01  0.36892523731E+01  0.51100000000E-03 0. -1.
        -11    1    4    4    0    0  0.15205096656E+02 -0.18280393761E+02  0.25949605565E+02  0.35195877452E+02  0.51100000000E-03 0.  1.
        -12    1    4    4    0    0 -0.12674008858E+02 -0.87057122013E+01  0.18085030717E+01  0.15481944607E+02  0.00000000000E+00 0.  1.
</event>
<event>
 8    1  0.2527138E-006  0.9118800E+02  0.7816164E-02  0.1184000E+00
        -11   -1    0    0    0    0  0.00000000000E+00  0.00000000000E+00  0.45593999997E+02  0.45594000000E+02  0.51100000000E-03 0. -1.
         11   -1    0    0    0    0 -0.00000000000E+00 -0.00000000000E+00 -0.45593999997E+02  0.45594000000E+02  0.51100000000E-03 0.  1.
         23    2    1    2    0    0  0.00000000000E+00  0.00000000000E+00 -0.35527136788E-14  0.91188000000E+02  0.91188000000E+02 0.  0.
    9900012    2    3    3    0    0 -0.30339020891E+02 -0.43001628292E+01 -0.20416439490E+02  0.54367101173E+02  0.40000038744E+02 0.  0.
         12    1    3    3    0    0  0.30339020891E+02  0.43001628292E+01  0.20416439490E+02  0.36820898827E+02  0.00000000000E+00 0. -1.
         11    1    4    4    0    0 -0.60022028231E+01  0.11961022918E+02 -0.72712538853E+01  0.15230352632E+02  0.51100000000E-03 0. -1.
        -11    1    4    4    0    0 -0.14705102852E+02 -0.54364256832E+01 -0.17986174813E+02  0.23859950938E+02  0.51100000000E-03 0.  1.
         12    1    4    4    0    0 -0.96317152165E+01 -0.10824760064E+02  0.48409892089E+01  0.15276797602E+02  0.00000000000E+00 0. -1.
</event>
<event>
 8    1  0.2527138E-006  0.9118800E+02  0.7816164E-02  0.1184000E+00
        -11   -1    0    0    0    0  0.00000000000E+00  0.00000000000E+00  0.45593999997E+02  0.45594000000E+02  0.51100000000E-03 0. -1.
         11   -1    0    0    0    0 -0.00000000000E+00 -0.00000000000E+00 -0.45593999997E+02  0.45594000000E+02  0.51100000000E-03 0.  1.
         23    2    1    2    0    0 -0.17763568394E-14  0.35527136788E-14  0.71054273576E-14  0.91188000000E+02  0.91188000000E+02 0.  0.
    9900012    2    3    3    0    0  0.11466048599E+02 -0.11668802610E+02 -0.32987117403E+02  0.54367066561E+02  0.39999959838E+02 0.  0.
         12    1    3    3    0    0 -0.11466048599E+02  0.11668802610E+02  0.32987117403E+02  0.36820933439E+02  0.00000000000E+00 0. -1.
         11    1    4    4    0    0 -0.57019711451E+01 -0.14369412393E+02 -0.89423425980E+00  0.15485223364E+02  0.51100000000E-03 0. -1.
        -11    1    4    4    0    0  0.57471374259E+01 -0.33117696461E+01 -0.34752566893E+01  0.74883119659E+01  0.51100000000E-03 0.  1.
        -12    1    4    4    0    0  0.11420882318E+02  0.60123794289E+01 -0.28617626454E+02  0.31393531231E+02  0.00000000000E+00 0.  1.
</event>
<event>
 8    1  0.2527138E-006  0.9118800E+02  0.7816164E-02  0.1184000E+00
        -11   -1    0    0    0    0  0.00000000000E+00  0.00000000000E+00  0.45593999997E+02  0.45594000000E+02  0.51100000000E-03 0.  1.
         11   -1    0    0    0    0 -0.00000000000E+00 -0.00000000000E+00 -0.45593999997E+02  0.45594000000E+02  0.51100000000E-03 0. -1.
         23    2    1    2    0    0  0.35527136788E-14  0.17763568394E-14  0.00000000000E+00  0.91188000000E+02  0.91188000000E+02 0.  0.
    9900012    2    3    3    0    0  0.28956480511E+02 -0.55682350182E+01  0.22052139771E+02  0.54367083753E+02  0.39999999032E+02 0.  0.
         12    1    3    3    0    0 -0.28956480511E+02  0.55682350182E+01 -0.22052139771E+02  0.36820916247E+02  0.00000000000E+00 0. -1.
         11    1    4    4    0    0  0.98278215769E+01  0.84771725519E+01  0.42385045212E+01  0.13653331178E+02  0.51100000000E-03 0. -1.
        -11    1    4    4    0    0  0.94099819559E+01 -0.22068866301E+02  0.12245872380E+02  0.26935924169E+02  0.51100000000E-03 0.  1.
        -12    1    4    4    0    0  0.97186769785E+01  0.80234587309E+01  0.55677628692E+01  0.13777828406E+02  0.00000000000E+00 0.  1.
</event>
<event>
 8    1  0.2527138E-006  0.9118800E+02  0.7816164E-02  0.1184000E+00
        -11   -1    0    0    0    0  0.00000000000E+00  0.00000000000E+00  0.45593999997E+02  0.45594000000E+02  0.51100000000E-03 0.  1.
         11   -1    0    0    0    0 -0.00000000000E+00 -0.00000000000E+00 -0.45593999997E+02  0.45594000000E+02  0.51100000000E-03 0. -1.
         23    2    1    2    0    0 -0.15543122345E-14  0.35527136788E-14  0.00000000000E+00  0.91188000000E+02  0.91188000000E+02 0.  0.
    9900012    2    3    3    0    0  0.11464433744E+01  0.16400942810E+02  0.32946526265E+02  0.54367097643E+02  0.40000030697E+02 0.  0.
         12    1    3    3    0    0 -0.11464433744E+01 -0.16400942810E+02 -0.32946526265E+02  0.36820902357E+02  0.00000000000E+00 0. -1.
         11    1    4    4    0    0  0.12200996618E+01  0.55633145711E+01 -0.42168651255E+00  0.57111235303E+01  0.51100000000E-03 0. -1.
        -11    1    4    4    0    0 -0.12201954071E+02  0.11183237132E+02  0.42166034201E+01  0.17080170390E+02  0.51100000000E-03 0.  1.
        -12    1    4    4    0    0  0.12128297783E+02 -0.34560889324E+00  0.29151609357E+02  0.31575803723E+02  0.00000000000E+00 0.  1.
</event>
<event>
 8    1  0.2527138E-006  0.9118800E+02  0.7816164E-02  0.1184000E+00
        -11   -1    0    0    0    0  0.00000000000E+00  0.00000000000E+00  0.45593999997E+02  0.45594000000E+02  0.51100000000E-03 0.  1.
         11   -1    0    0    0    0 -0.00000000000E+00 -0.00000000000E+00 -0.45593999997E+02  0.45594000000E+02  0.51100000000E-03 0. -1.
         23    2    1    2    0    0  0.00000000000E+00  0.00000000000E+00  0.17763568394E-14  0.91188000000E+02  0.91188000000E+02 0.  0.
    9900012    2    3    3    0    0  0.92321923701E+01 -0.32866170841E+02 -0.13797158169E+02  0.54367080195E+02  0.39999990921E+02 0.  0.
        -12    1    3    3    0    0 -0.92321923701E+01  0.32866170841E+02  0.13797158169E+02  0.36820919805E+02  0.00000000000E+00 0.  1.
         11    1    4    4    0    0  0.52437456465E+01  0.59456334900E+01 -0.40648888614E+01  0.89090261937E+01  0.51100000000E-03 0. -1.
        -11    1    4    4    0    0  0.98189224274E+01 -0.28806033383E+02 -0.16074193214E+00  0.30433938869E+02  0.51100000000E-03 0.  1.
        -12    1    4    4    0    0 -0.58304757038E+01 -0.10005770949E+02 -0.95715273756E+01  0.15024115132E+02  0.00000000000E+00 0.  1.
</event>
<event>
 8    1  0.2527138E-006  0.9118800E+02  0.7816164E-02  0.1184000E+00
        -11   -1    0    0    0    0  0.00000000000E+00  0.00000000000E+00  0.45593999997E+02  0.45594000000E+02  0.51100000000E-03 0. -1.
         11   -1    0    0    0    0 -0.00000000000E+00 -0.00000000000E+00 -0.45593999997E+02  0.45594000000E+02  0.51100000000E-03 0.  1.
         23    2    1    2    0    0  0.00000000000E+00  0.00000000000E+00  0.00000000000E+00  0.91188000000E+02  0.91188000000E+02 0.  0.
    9900012    2    3    3    0    0 -0.16549094260E+02  0.22849800562E+02  0.23659957229E+02  0.54367089058E+02  0.40000011126E+02 0.  0.
        -12    1    3    3    0    0  0.16549094260E+02 -0.22849800562E+02 -0.23659957229E+02  0.36820910942E+02  0.00000000000E+00 0.  1.
         11    1    4    4    0    0  0.10794226645E+01  0.65680896362E+01  0.51470870276E+01  0.84141226452E+01  0.51100000000E-03 0. -1.
        -11    1    4    4    0    0  0.14783647073E+01 -0.62448075067E+01  0.14863845856E+02  0.16190030788E+02  0.51100000000E-03 0.  1.
        -12    1    4    4    0    0 -0.19106881631E+02  0.22526518432E+02  0.36490243449E+01  0.29762935625E+02  0.00000000000E+00 0.  1.
</event>
<event>
 8    1  0.2527138E-006  0.9118800E+02  0.7816164E-02  0.1184000E+00
        -11   -1    0    0    0    0  0.00000000000E+00  0.00000000000E+00  0.45593999997E+02  0.45594000000E+02  0.51100000000E-03 0.  1.
         11   -1    0    0    0    0 -0.00000000000E+00 -0.00000000000E+00 -0.45593999997E+02  0.45594000000E+02  0.51100000000E-03 0. -1.
         23    2    1    2    0    0  0.00000000000E+00  0.35527136788E-14  0.35527136788E-14  0.91188000000E+02  0.91188000000E+02 0.  0.
    9900012    2    3    3    0    0  0.57735464948E+01  0.20223735692E+02 -0.30223276057E+02  0.54367085562E+02  0.40000003155E+02 0.  0.
        -12    1    3    3    0    0 -0.57735464948E+01 -0.20223735692E+02  0.30223276057E+02  0.36820914438E+02  0.00000000000E+00 0.  1.
         11    1    4    4    0    0 -0.67291372949E+00  0.10829265495E+02 -0.14020216190E+02  0.17728290000E+02  0.51100000000E-03 0. -1.
        -11    1    4    4    0    0  0.10695958005E+02  0.49051820904E+01  0.62684321284E+01  0.13332575543E+02  0.51100000000E-03 0.  1.
        -12    1    4    4    0    0 -0.42494977810E+01  0.44892881071E+01 -0.22471491995E+02  0.23306220019E+02  0.00000000000E+00 0.  1.
</event>
<event>
 8    1  0.2527138E-006  0.9118800E+02  0.7816164E-02  0.1184000E+00
        -11   -1    0    0    0    0  0.00000000000E+00  0.00000000000E+00  0.45593999997E+02  0.45594000000E+02  0.51100000000E-03 0. -1.
         11   -1    0    0    0    0 -0.00000000000E+00 -0.00000000000E+00 -0.45593999997E+02  0.45594000000E+02  0.51100000000E-03 0.  1.
         23    2    1    2    0    0  0.22204460493E-15 -0.71054273576E-14 -0.17763568394E-14  0.91188000000E+02  0.91188000000E+02 0.  0.
    9900012    2    3    3    0    0  0.15818999309E+01  0.34007959293E+02  0.14026260211E+02  0.54367086402E+02  0.40000005071E+02 0.  0.
        -12    1    3    3    0    0 -0.15818999309E+01 -0.34007959293E+02 -0.14026260211E+02  0.36820913598E+02  0.00000000000E+00 0.  1.
         11    1    4    4    0    0 -0.12490551296E+00  0.35686043503E+02  0.15084249102E+02  0.38743307467E+02  0.51100000000E-03 0. -1.
        -11    1    4    4    0    0 -0.27100721248E+01 -0.69272837754E+01 -0.36555512580E+01  0.82882330257E+01  0.51100000000E-03 0.  1.
         12    1    4    4    0    0  0.44168775686E+01  0.52491995654E+01  0.25975623672E+01  0.73355459091E+01  0.00000000000E+00 0. -1.
</event>
<event>
 8    1  0.2527138E-006  0.9118800E+02  0.7816164E-02  0.1184000E+00
        -11   -1    0    0    0    0  0.00000000000E+00  0.00000000000E+00  0.45593999997E+02  0.45594000000E+02  0.51100000000E-03 0. -1.
         11   -1    0    0    0    0 -0.00000000000E+00 -0.00000000000E+00 -0.45593999997E+02  0.45594000000E+02  0.51100000000E-03 0.  1.
         23    2    1    2    0    0 -0.88817841970E-15  0.00000000000E+00  0.00000000000E+00  0.91188000000E+02  0.91188000000E+02 0.  0.
    9900012    2    3    3    0    0  0.75645453565E+01  0.31416427960E+02  0.17651261686E+02  0.54367063953E+02  0.39999953895E+02 0.  0.
         12    1    3    3    0    0 -0.75645453565E+01 -0.31416427960E+02 -0.17651261686E+02  0.36820936047E+02  0.00000000000E+00 0. -1.
         11    1    4    4    0    0 -0.88320872115E+01  0.16577370389E+02  0.98785740012E+01  0.21222657658E+02  0.51100000000E-03 0. -1.
        -11    1    4    4    0    0  0.11270485618E+02  0.15999210526E+02 -0.42469893302E+01  0.20025870821E+02  0.51100000000E-03 0.  1.
         12    1    4    4    0    0  0.51261469497E+01 -0.11601529547E+01  0.12019677015E+02  0.13118535474E+02  0.00000000000E+00 0. -1.
</event>
<event>
 8    1  0.2527138E-006  0.9118800E+02  0.7816164E-02  0.1184000E+00
        -11   -1    0    0    0    0  0.00000000000E+00  0.00000000000E+00  0.45593999997E+02  0.45594000000E+02  0.51100000000E-03 0.  1.
         11   -1    0    0    0    0 -0.00000000000E+00 -0.00000000000E+00 -0.45593999997E+02  0.45594000000E+02  0.51100000000E-03 0. -1.
         23    2    1    2    0    0  0.00000000000E+00 -0.88817841970E-15 -0.71054273576E-14  0.91188000000E+02  0.91188000000E+02 0.  0.
    9900012    2    3    3    0    0  0.23415175653E+01 -0.65039351160E+01 -0.36166231285E+02  0.54367079834E+02  0.39999990098E+02 0.  0.
        -12    1    3    3    0    0 -0.23415175653E+01  0.65039351160E+01  0.36166231285E+02  0.36820920166E+02  0.00000000000E+00 0.  1.
         11    1    4    4    0    0 -0.53501460694E+01 -0.15475860936E+02 -0.14732455679E+02  0.22026610844E+02  0.51100000000E-03 0. -1.
        -11    1    4    4    0    0 -0.57314964866E-01 -0.10400452460E+00  0.41282185228E+01  0.41299261954E+01  0.51100000000E-03 0.  1.
        -12    1    4    4    0    0  0.77489785995E+01  0.90759303443E+01 -0.25561994129E+02  0.28210542795E+02  0.00000000000E+00 0.  1.
</event>
<event>
 8    1  0.2527138E-006  0.9118800E+02  0.7816164E-02  0.1184000E+00
        -11   -1    0    0    0    0  0.00000000000E+00  0.00000000000E+00  0.45593999997E+02  0.45594000000E+02  0.51100000000E-03 0. -1.
         11   -1    0    0    0    0 -0.00000000000E+00 -0.00000000000E+00 -0.45593999997E+02  0.45594000000E+02  0.51100000000E-03 0.  1.
         23    2    1    2    0    0  0.00000000000E+00  0.00000000000E+00  0.00000000000E+00  0.91188000000E+02  0.91188000000E+02 0.  0.
    9900012    2    3    3    0    0  0.16238224384E+02  0.20114272329E+02 -0.26220528681E+02  0.54367081940E+02  0.39999994897E+02 0.  0.
        -12    1    3    3    0    0 -0.16238224384E+02 -0.20114272329E+02  0.26220528681E+02  0.36820918060E+02  0.00000000000E+00 0.  1.
         11    1    4    4    0    0  0.65259644619E+00 -0.17229202455E-01 -0.22607971451E+02  0.22617394906E+02  0.51100000000E-03 0.  1.
        -11    1    4    4    0    0 -0.24074934193E+01  0.74768317425E+01  0.35438483246E+01  0.86173022854E+01  0.51100000000E-03 0. -1.
         12    1    4    4    0    0  0.17993121357E+02  0.12654669789E+02 -0.71564055555E+01  0.23132384748E+02  0.00000000000E+00 0. -1.
</event>
<event>
 8    1  0.2527138E-006  0.9118800E+02  0.7816164E-02  0.1184000E+00
        -11   -1    0    0    0    0  0.00000000000E+00  0.00000000000E+00  0.45593999997E+02  0.45594000000E+02  0.51100000000E-03 0.  1.
         11   -1    0    0    0    0 -0.00000000000E+00 -0.00000000000E+00 -0.45593999997E+02  0.45594000000E+02  0.51100000000E-03 0. -1.
         23    2    1    2    0    0  0.00000000000E+00  0.00000000000E+00  0.35527136788E-14  0.91188000000E+02  0.91188000000E+02 0.  0.
    9900012    2    3    3    0    0 -0.39825107676E+01 -0.28221231662E+02 -0.23312683551E+02  0.54367088511E+02  0.40000009878E+02 0.  0.
        -12    1    3    3    0    0  0.39825107676E+01  0.28221231662E+02  0.23312683551E+02  0.36820911489E+02  0.00000000000E+00 0.  1.
         11    1    4    4    0    0  0.72641882295E+01 -0.51741309349E+01 -0.16927117733E+02  0.19132887304E+02  0.51100000000E-03 0. -1.
        -11    1    4    4    0    0 -0.75007981747E+01 -0.12783532401E+02  0.82556236867E+01  0.16965730064E+02  0.51100000000E-03 0.  1.
        -12    1    4    4    0    0 -0.37459008223E+01 -0.10263568327E+02 -0.14641189504E+02  0.18268471142E+02  0.00000000000E+00 0.  1.
</event>
<event>
 8    1  0.2527138E-006  0.9118800E+02  0.7816164E-02  0.1184000E+00
        -11   -1    0    0    0    0  0.00000000000E+00  0.00000000000E+00  0.45593999997E+02  0.45594000000E+02  0.51100000000E-03 0.  1.
         11   -1    0    0    0    0 -0.00000000000E+00 -0.00000000000E+00 -0.45593999997E+02  0.45594000000E+02  0.51100000000E-03 0. -1.
         23    2    1    2    0    0  0.00000000000E+00  0.11102230246E-15  0.00000000000E+00  0.91188000000E+02  0.91188000000E+02 0.  0.
    9900012    2    3    3    0    0  0.36750755398E+02 -0.98472641770E+00 -0.20487422996E+01  0.54367013410E+02  0.39999838671E+02 0.  0.
        -12    1    3    3    0    0 -0.36750755398E+02  0.98472641770E+00  0.20487422996E+01  0.36820986590E+02  0.00000000000E+00 0.  1.
         11    1    4    4    0    0  0.10333184612E+02 -0.14466895258E+01 -0.12641753287E+02  0.16391508205E+02  0.51100000000E-03 0. -1.
        -11    1    4    4    0    0  0.16021302885E+02 -0.82978929231E+01 -0.35166212197E+01  0.18382159780E+02  0.51100000000E-03 0.  1.
        -12    1    4    4    0    0  0.10396267901E+02  0.87598560312E+01  0.14109632207E+02  0.19593345426E+02  0.00000000000E+00 0.  1.
</event>
<event>
 8    1  0.2527138E-006  0.9118800E+02  0.7816164E-02  0.1184000E+00
        -11   -1    0    0    0    0  0.00000000000E+00  0.00000000000E+00  0.45593999997E+02  0.45594000000E+02  0.51100000000E-03 0. -1.
         11   -1    0    0    0    0 -0.00000000000E+00 -0.00000000000E+00 -0.45593999997E+02  0.45594000000E+02  0.51100000000E-03 0.  1.
         23    2    1    2    0    0  0.00000000000E+00  0.00000000000E+00  0.00000000000E+00  0.91188000000E+02  0.91188000000E+02 0.  0.
    9900012    2    3    3    0    0 -0.29366903796E+02 -0.55159105463E+01 -0.21516017855E+02  0.54367091102E+02  0.40000015785E+02 0.  0.
         12    1    3    3    0    0  0.29366903796E+02  0.55159105463E+01  0.21516017855E+02  0.36820908898E+02  0.00000000000E+00 0. -1.
         11    1    4    4    0    0 -0.30089141082E+02 -0.42005801635E+01 -0.13121414064E+02  0.33093394991E+02  0.51100000000E-03 0. -1.
        -11    1    4    4    0    0 -0.54141698128E+01  0.44622370108E+01 -0.10460889413E+02  0.12595832702E+02  0.51100000000E-03 0.  1.
         12    1    4    4    0    0  0.61364070985E+01 -0.57775673936E+01  0.20662856215E+01  0.86778634085E+01  0.00000000000E+00 0. -1.
</event>
<event>
 8    1  0.2527138E-006  0.9118800E+02  0.7816164E-02  0.1184000E+00
        -11   -1    0    0    0    0  0.00000000000E+00  0.00000000000E+00  0.45593999997E+02  0.45594000000E+02  0.51100000000E-03 0.  1.
         11   -1    0    0    0    0 -0.00000000000E+00 -0.00000000000E+00 -0.45593999997E+02  0.45594000000E+02  0.51100000000E-03 0. -1.
         23    2    1    2    0    0  0.44408920985E-15  0.00000000000E+00  0.00000000000E+00  0.91188000000E+02  0.91188000000E+02 0.  0.
    9900012    2    3    3    0    0  0.22843064450E+01 -0.87344864367E+01  0.35696915914E+02  0.54367094049E+02  0.40000022504E+02 0.  0.
         12    1    3    3    0    0 -0.22843064450E+01  0.87344864367E+01 -0.35696915914E+02  0.36820905951E+02  0.00000000000E+00 0. -1.
         11    1    4    4    0    0 -0.20822123873E+01  0.56478156311E+01  0.19371710487E+02  0.20285378904E+02  0.51100000000E-03 0. -1.
        -11    1    4    4    0    0 -0.17564709170E+01 -0.11075628881E+02  0.22266946860E+02  0.24931339071E+02  0.51100000000E-03 0.  1.
         12    1    4    4    0    0  0.61229897493E+01 -0.33066731873E+01 -0.59417414325E+01  0.91503760735E+01  0.00000000000E+00 0. -1.
</event>
<event>
 8    1  0.2527138E-006  0.9118800E+02  0.7816164E-02  0.1184000E+00
        -11   -1    0    0    0    0  0.00000000000E+00  0.00000000000E+00  0.45593999997E+02  0.45594000000E+02  0.51100000000E-03 0. -1.
         11   -1    0    0    0    0 -0.00000000000E+00 -0.00000000000E+00 -0.45593999997E+02  0.45594000000E+02  0.51100000000E-03 0.  1.
         23    2    1    2    0    0 -0.17763568394E-14  0.00000000000E+00  0.00000000000E+00  0.91188000000E+02  0.91188000000E+02 0.  0.
    9900012    2    3    3    0    0 -0.15994294957E+02 -0.65299716187E+01  0.32516481702E+02  0.54367087698E+02  0.40000008025E+02 0.  0.
        -12    1    3    3    0    0  0.15994294957E+02  0.65299716187E+01 -0.32516481702E+02  0.36820912302E+02  0.00000000000E+00 0.  1.
         11    1    4    4    0    0 -0.20643852910E+02  0.19338133740E+00  0.84909486533E+01  0.22322685067E+02  0.51100000000E-03 0. -1.
        -11    1    4    4    0    0  0.22737728072E+01 -0.11541467561E+02  0.59401632555E+01  0.13178052057E+02  0.51100000000E-03 0.  1.
         12    1    4    4    0    0  0.23757851463E+01  0.48181146052E+01  0.18085369793E+02  0.18866350573E+02  0.00000000000E+00 0. -1.
</event>
<event>
 8    1  0.2527138E-006  0.9118800E+02  0.7816164E-02  0.1184000E+00
        -11   -1    0    0    0    0  0.00000000000E+00  0.00000000000E+00  0.45593999997E+02  0.45594000000E+02  0.51100000000E-03 0. -1.
         11   -1    0    0    0    0 -0.00000000000E+00 -0.00000000000E+00 -0.45593999997E+02  0.45594000000E+02  0.51100000000E-03 0.  1.
         23    2    1    2    0    0  0.00000000000E+00  0.00000000000E+00  0.00000000000E+00  0.91188000000E+02  0.91188000000E+02 0.  0.
    9900012    2    3    3    0    0 -0.10129098475E+02 -0.87339595346E+01  0.34305970869E+02  0.54367077655E+02  0.39999985131E+02 0.  0.
        -12    1    3    3    0    0  0.10129098475E+02  0.87339595346E+01 -0.34305970869E+02  0.36820922345E+02  0.00000000000E+00 0.  1.
         11    1    4    4    0    0 -0.78227250462E+01 -0.89870548537E+01  0.33275633061E+02  0.35344447060E+02  0.51100000000E-03 0. -1.
        -11    1    4    4    0    0 -0.62711483960E+01  0.41069067626E+00  0.84961437584E+01  0.10567896104E+02  0.51100000000E-03 0.  1.
         12    1    4    4    0    0  0.39647749672E+01 -0.15759535715E+00 -0.74658059505E+01  0.84547344919E+01  0.00000000000E+00 0. -1.
</event>
<event>
 8    1  0.2527138E-006  0.9118800E+02  0.7816164E-02  0.1184000E+00
        -11   -1    0    0    0    0  0.00000000000E+00  0.00000000000E+00  0.45593999997E+02  0.45594000000E+02  0.51100000000E-03 0. -1.
         11   -1    0    0    0    0 -0.00000000000E+00 -0.00000000000E+00 -0.45593999997E+02  0.45594000000E+02  0.51100000000E-03 0.  1.
         23    2    1    2    0    0  0.00000000000E+00 -0.88817841970E-15 -0.35527136788E-14  0.91188000000E+02  0.91188000000E+02 0.  0.
    9900012    2    3    3    0    0  0.25472204897E+02 -0.57351949118E+01 -0.25962533826E+02  0.54367097707E+02  0.40000030843E+02 0.  0.
         12    1    3    3    0    0 -0.25472204897E+02  0.57351949118E+01  0.25962533826E+02  0.36820902293E+02  0.00000000000E+00 0. -1.
         11    1    4    4    0    0  0.84928636667E+01  0.73675758916E+01 -0.35899560104E+01  0.11802444331E+02  0.51100000000E-03 0. -1.
        -11    1    4    4    0    0  0.21554186801E+02  0.25419493035E-01 -0.92777796812E+01  0.23466163105E+02  0.51100000000E-03 0.  1.
         12    1    4    4    0    0 -0.45748455699E+01 -0.13128190296E+02 -0.13094798134E+02  0.19098490271E+02  0.00000000000E+00 0. -1.
</event>
<event>
 8    1  0.2527138E-006  0.9118800E+02  0.7816164E-02  0.1184000E+00
        -11   -1    0    0    0    0  0.00000000000E+00  0.00000000000E+00  0.45593999997E+02  0.45594000000E+02  0.51100000000E-03 0.  1.
         11   -1    0    0    0    0 -0.00000000000E+00 -0.00000000000E+00 -0.45593999997E+02  0.45594000000E+02  0.51100000000E-03 0. -1.
         23    2    1    2    0    0  0.35527136788E-14  0.00000000000E+00  0.00000000000E+00  0.91188000000E+02  0.91188000000E+02 0.  0.
    9900012    2    3    3    0    0 -0.22300047769E+02 -0.22032365040E+02 -0.19314832999E+02  0.54367081848E+02  0.39999994690E+02 0.  0.
        -12    1    3    3    0    0  0.22300047769E+02  0.22032365040E+02  0.19314832999E+02  0.36820918152E+02  0.00000000000E+00 0.  1.
         11    1    4    4    0    0 -0.16600136775E+02 -0.25004732173E+02 -0.12941053047E+02  0.32684430945E+02  0.51100000000E-03 0. -1.
        -11    1    4    4    0    0  0.33889186486E+01 -0.40591825712E+01 -0.84861581476E+01  0.99988305876E+01  0.51100000000E-03 0.  1.
         12    1    4    4    0    0 -0.90888296428E+01  0.70315497043E+01  0.21123781959E+01  0.11683820315E+02  0.00000000000E+00 0. -1.
</event>
<event>
 8    1  0.2527138E-006  0.9118800E+02  0.7816164E-02  0.1184000E+00
        -11   -1    0    0    0    0  0.00000000000E+00  0.00000000000E+00  0.45593999997E+02  0.45594000000E+02  0.51100000000E-03 0. -1.
         11   -1    0    0    0    0 -0.00000000000E+00 -0.00000000000E+00 -0.45593999997E+02  0.45594000000E+02  0.51100000000E-03 0.  1.
         23    2    1    2    0    0 -0.35527136788E-14  0.88817841970E-15  0.00000000000E+00  0.91188000000E+02  0.91188000000E+02 0.  0.
    9900012    2    3    3    0    0 -0.31134390773E+02  0.50593503244E+01 -0.18995585054E+02  0.54367087924E+02  0.40000008541E+02 0.  0.
         12    1    3    3    0    0  0.31134390773E+02 -0.50593503244E+01  0.18995585054E+02  0.36820912076E+02  0.00000000000E+00 0. -1.
         11    1    4    4    0    0 -0.15637542382E+01 -0.31681609384E+01  0.37462660425E+01  0.51494738150E+01  0.51100000000E-03 0. -1.
        -11    1    4    4    0    0 -0.55913290177E+01  0.16710005429E+02 -0.13337845998E+02  0.22099442929E+02  0.51100000000E-03 0.  1.
        -12    1    4    4    0    0 -0.23979307517E+02 -0.84824941666E+01 -0.94040050991E+01  0.27118171181E+02  0.00000000000E+00 0.  1.
</event>
<event>
 8    1  0.2527138E-006  0.9118800E+02  0.7816164E-02  0.1184000E+00
        -11   -1    0    0    0    0  0.00000000000E+00  0.00000000000E+00  0.45593999997E+02  0.45594000000E+02  0.51100000000E-03 0. -1.
         11   -1    0    0    0    0 -0.00000000000E+00 -0.00000000000E+00 -0.45593999997E+02  0.45594000000E+02  0.51100000000E-03 0.  1.
         23    2    1    2    0    0  0.00000000000E+00  0.00000000000E+00  0.35527136788E-14  0.91188000000E+02  0.91188000000E+02 0.  0.
    9900012    2    3    3    0    0  0.98165661676E+01 -0.16253498274E+02  0.31547406816E+02  0.54367081295E+02  0.39999993428E+02 0.  0.
        -12    1    3    3    0    0 -0.98165661676E+01  0.16253498274E+02 -0.31547406816E+02  0.36820918705E+02  0.00000000000E+00 0.  1.
         11    1    4    4    0    0  0.40115459179E+01 -0.26288995003E+01  0.35688665253E+01  0.59783293461E+01  0.51100000000E-03 0. -1.
        -11    1    4    4    0    0  0.70477182740E+01  0.78518351457E+01 -0.27266640595E+01  0.10897538492E+02  0.51100000000E-03 0.  1.
        -12    1    4    4    0    0 -0.12426980244E+01 -0.21476433919E+02  0.30705204350E+02  0.37491213457E+02  0.00000000000E+00 0.  1.
</event>
<event>
 8    1  0.2527138E-006  0.9118800E+02  0.7816164E-02  0.1184000E+00
        -11   -1    0    0    0    0  0.00000000000E+00  0.00000000000E+00  0.45593999997E+02  0.45594000000E+02  0.51100000000E-03 0. -1.
         11   -1    0    0    0    0 -0.00000000000E+00 -0.00000000000E+00 -0.45593999997E+02  0.45594000000E+02  0.51100000000E-03 0.  1.
         23    2    1    2    0    0  0.17763568394E-14  0.00000000000E+00 -0.35527136788E-14  0.91188000000E+02  0.91188000000E+02 0.  0.
    9900012    2    3    3    0    0  0.10885070169E+02  0.18306354991E+02  0.30036206002E+02  0.54367067684E+02  0.39999962399E+02 0.  0.
        -12    1    3    3    0    0 -0.10885070169E+02 -0.18306354991E+02 -0.30036206002E+02  0.36820932316E+02  0.00000000000E+00 0.  1.
         11    1    4    4    0    0  0.95798031281E+01  0.14015089557E+02  0.13699872624E+02  0.21814716900E+02  0.51100000000E-03 0. -1.
        -11    1    4    4    0    0  0.60345553908E+01  0.79087874007E+01  0.22118437726E+02  0.24252630055E+02  0.51100000000E-03 0.  1.
        -12    1    4    4    0    0 -0.47292883495E+01 -0.36175219673E+01 -0.57821043479E+01  0.82997207282E+01  0.00000000000E+00 0.  1.
</event>
<event>
 8    1  0.2527138E-006  0.9118800E+02  0.7816164E-02  0.1184000E+00
        -11   -1    0    0    0    0  0.00000000000E+00  0.00000000000E+00  0.45593999997E+02  0.45594000000E+02  0.51100000000E-03 0.  1.
         11   -1    0    0    0    0 -0.00000000000E+00 -0.00000000000E+00 -0.45593999997E+02  0.45594000000E+02  0.51100000000E-03 0. -1.
         23    2    1    2    0    0  0.00000000000E+00  0.35527136788E-14  0.00000000000E+00  0.91188000000E+02  0.91188000000E+02 0.  0.
    9900012    2    3    3    0    0 -0.16962763857E+02  0.31393453285E+02  0.90828285327E+01  0.54367054317E+02  0.39999931926E+02 0.  0.
        -12    1    3    3    0    0  0.16962763857E+02 -0.31393453285E+02 -0.90828285327E+01  0.36820945683E+02  0.00000000000E+00 0.  1.
         11    1    4    4    0    0 -0.14697113834E+02  0.51950063941E+01 -0.12074410788E+02  0.19717622641E+02  0.51100000000E-03 0. -1.
        -11    1    4    4    0    0 -0.27949889796E+01  0.28777646976E+01  0.21016585896E+01  0.45288477717E+01  0.51100000000E-03 0.  1.
        -12    1    4    4    0    0  0.52933895633E+00  0.23320682194E+02  0.19055580731E+02  0.30120583904E+02  0.00000000000E+00 0.  1.
</event>
<event>
 8    1  0.2527138E-006  0.9118800E+02  0.7816164E-02  0.1184000E+00
        -11   -1    0    0    0    0  0.00000000000E+00  0.00000000000E+00  0.45593999997E+02  0.45594000000E+02  0.51100000000E-03 0. -1.
         11   -1    0    0    0    0 -0.00000000000E+00 -0.00000000000E+00 -0.45593999997E+02  0.45594000000E+02  0.51100000000E-03 0.  1.
         23    2    1    2    0    0 -0.35527136788E-14 -0.44408920985E-15  0.00000000000E+00  0.91188000000E+02  0.91188000000E+02 0.  0.
    9900012    2    3    3    0    0 -0.15215641988E+02  0.24662927384E+01 -0.33439213424E+02  0.54367090785E+02  0.40000015063E+02 0.  0.
         12    1    3    3    0    0  0.15215641988E+02 -0.24662927384E+01  0.33439213424E+02  0.36820909215E+02  0.00000000000E+00 0. -1.
         11    1    4    4    0    0 -0.48732338257E+01  0.42937061366E+01 -0.13265523765E+01  0.66290317374E+01  0.51100000000E-03 0. -1.
        -11    1    4    4    0    0  0.12279572077E+02  0.16629358153E+01 -0.12393948251E+02  0.17526071991E+02  0.51100000000E-03 0.  1.
        -12    1    4    4    0    0 -0.22621980240E+02 -0.34903492135E+01 -0.19718712796E+02  0.30211987057E+02  0.00000000000E+00 0.  1.
</event>
<event>
 8    1  0.2527138E-006  0.9118800E+02  0.7816164E-02  0.1184000E+00
        -11   -1    0    0    0    0  0.00000000000E+00  0.00000000000E+00  0.45593999997E+02  0.45594000000E+02  0.51100000000E-03 0.  1.
         11   -1    0    0    0    0 -0.00000000000E+00 -0.00000000000E+00 -0.45593999997E+02  0.45594000000E+02  0.51100000000E-03 0. -1.
         23    2    1    2    0    0  0.17763568394E-14  0.00000000000E+00  0.00000000000E+00  0.91188000000E+02  0.91188000000E+02 0.  0.
    9900012    2    3    3    0    0 -0.91122893823E+01 -0.26660604114E+02 -0.23705650010E+02  0.54367089204E+02  0.40000011458E+02 0.  0.
        -12    1    3    3    0    0  0.91122893823E+01  0.26660604114E+02  0.23705650010E+02  0.36820910796E+02  0.00000000000E+00 0.  1.
         11    1    4    4    0    0  0.85538355047E+01 -0.16409993725E+02 -0.98509882622E+00  0.18531767748E+02  0.51100000000E-03 0.  1.
        -11    1    4    4    0    0 -0.15898263867E+01  0.48627147192E+01 -0.17837243594E+01  0.54180453331E+01  0.51100000000E-03 0. -1.
         12    1    4    4    0    0 -0.16076298500E+02 -0.15113325107E+02 -0.20936826824E+02  0.30417276123E+02  0.00000000000E+00 0. -1.
</event>
<event>
 8    1  0.2527138E-006  0.9118800E+02  0.7816164E-02  0.1184000E+00
        -11   -1    0    0    0    0  0.00000000000E+00  0.00000000000E+00  0.45593999997E+02  0.45594000000E+02  0.51100000000E-03 0.  1.
         11   -1    0    0    0    0 -0.00000000000E+00 -0.00000000000E+00 -0.45593999997E+02  0.45594000000E+02  0.51100000000E-03 0. -1.
         23    2    1    2    0    0 -0.17763568394E-14  0.00000000000E+00  0.00000000000E+00  0.91188000000E+02  0.91188000000E+02 0.  0.
    9900012    2    3    3    0    0  0.11477517277E+02 -0.31208015328E+02  0.15814745450E+02  0.54367084786E+02  0.40000001386E+02 0.  0.
         12    1    3    3    0    0 -0.11477517277E+02  0.31208015328E+02 -0.15814745450E+02  0.36820915214E+02  0.00000000000E+00 0. -1.
         11    1    4    4    0    0  0.57200744046E+01  0.49993948955E+01 -0.52256170135E+01  0.92206439010E+01  0.51100000000E-03 0.  1.
        -11    1    4    4    0    0 -0.11433203661E+01 -0.13322883001E+02  0.15758829800E+02  0.20667537586E+02  0.51100000000E-03 0. -1.
        -12    1    4    4    0    0  0.69007632384E+01 -0.22884527222E+02  0.52815326635E+01  0.24478903299E+02  0.00000000000E+00 0.  1.
</event>
<event>
 8    1  0.2527138E-006  0.9118800E+02  0.7816164E-02  0.1184000E+00
        -11   -1    0    0    0    0  0.00000000000E+00  0.00000000000E+00  0.45593999997E+02  0.45594000000E+02  0.51100000000E-03 0.  1.
         11   -1    0    0    0    0 -0.00000000000E+00 -0.00000000000E+00 -0.45593999997E+02  0.45594000000E+02  0.51100000000E-03 0. -1.
         23    2    1    2    0    0  0.71054273576E-14  0.88817841970E-15  0.00000000000E+00  0.91188000000E+02  0.91188000000E+02 0.  0.
    9900012    2    3    3    0    0  0.35010345330E+02 -0.61913010091E+01  0.95773210541E+01  0.54367060755E+02  0.39999946604E+02 0.  0.
         12    1    3    3    0    0 -0.35010345330E+02  0.61913010091E+01 -0.95773210541E+01  0.36820939245E+02  0.00000000000E+00 0. -1.
         11    1    4    4    0    0 -0.75164523142E+00  0.89732519744E+01  0.42154354655E+01  0.99425408209E+01  0.51100000000E-03 0. -1.
        -11    1    4    4    0    0  0.34097908148E+02 -0.70868381421E+01  0.45842613396E+00  0.34829596175E+02  0.51100000000E-03 0.  1.
         12    1    4    4    0    0  0.16640824133E+01 -0.80777148414E+01  0.49034594546E+01  0.95949237600E+01  0.00000000000E+00 0. -1.
</event>
<event>
 8    1  0.2527138E-006  0.9118800E+02  0.7816164E-02  0.1184000E+00
        -11   -1    0    0    0    0  0.00000000000E+00  0.00000000000E+00  0.45593999997E+02  0.45594000000E+02  0.51100000000E-03 0.  1.
         11   -1    0    0    0    0 -0.00000000000E+00 -0.00000000000E+00 -0.45593999997E+02  0.45594000000E+02  0.51100000000E-03 0. -1.
         23    2    1    2    0    0  0.00000000000E+00 -0.88817841970E-15  0.00000000000E+00  0.91188000000E+02  0.91188000000E+02 0.  0.
    9900012    2    3    3    0    0  0.57941096187E+01  0.54187945132E+01  0.35956146470E+02  0.54367088696E+02  0.40000010301E+02 0.  0.
         12    1    3    3    0    0 -0.57941096187E+01 -0.54187945132E+01 -0.35956146470E+02  0.36820911304E+02  0.00000000000E+00 0. -1.
         11    1    4    4    0    0 -0.85481145749E+01  0.13195232600E+02  0.10821764443E+02  0.19086513880E+02  0.51100000000E-03 0. -1.
        -11    1    4    4    0    0  0.11092125512E+01 -0.11066979647E+02  0.11326763835E+02  0.15874632916E+02  0.51100000000E-03 0.  1.
        -12    1    4    4    0    0  0.13233011642E+02  0.32905415603E+01  0.13807618193E+02  0.19405941900E+02  0.00000000000E+00 0.  1.
</event>
<event>
 8    1  0.2527138E-006  0.9118800E+02  0.7816164E-02  0.1184000E+00
        -11   -1    0    0    0    0  0.00000000000E+00  0.00000000000E+00  0.45593999997E+02  0.45594000000E+02  0.51100000000E-03 0. -1.
         11   -1    0    0    0    0 -0.00000000000E+00 -0.00000000000E+00 -0.45593999997E+02  0.45594000000E+02  0.51100000000E-03 0.  1.
         23    2    1    2    0    0  0.00000000000E+00  0.88817841970E-15  0.88817841970E-15  0.91188000000E+02  0.91188000000E+02 0.  0.
    9900012    2    3    3    0    0 -0.35620697433E+02  0.56056079676E+01  0.74512925081E+01  0.54367099871E+02  0.40000035775E+02 0.  0.
        -12    1    3    3    0    0  0.35620697433E+02 -0.56056079676E+01 -0.74512925081E+01  0.36820900129E+02  0.00000000000E+00 0.  1.
         11    1    4    4    0    0 -0.27387956450E+02  0.16662000940E+02  0.46282189460E+01  0.32390474598E+02  0.51100000000E-03 0.  1.
        -11    1    4    4    0    0  0.43205248545E+00  0.42145355028E+01  0.56136554580E+00  0.42736530500E+01  0.51100000000E-03 0. -1.
         12    1    4    4    0    0 -0.86647934687E+01 -0.15270928476E+02  0.22617080163E+01  0.17702972223E+02  0.00000000000E+00 0. -1.
</event>
<event>
 8    1  0.2527138E-006  0.9118800E+02  0.7816164E-02  0.1184000E+00
        -11   -1    0    0    0    0  0.00000000000E+00  0.00000000000E+00  0.45593999997E+02  0.45594000000E+02  0.51100000000E-03 0. -1.
         11   -1    0    0    0    0 -0.00000000000E+00 -0.00000000000E+00 -0.45593999997E+02  0.45594000000E+02  0.51100000000E-03 0.  1.
         23    2    1    2    0    0 -0.35527136788E-14  0.00000000000E+00  0.17763568394E-14  0.91188000000E+02  0.91188000000E+02 0.  0.
    9900012    2    3    3    0    0 -0.17001156951E+02 -0.28501385217E+02  0.15950327005E+02  0.54367065350E+02  0.39999957078E+02 0.  0.
        -12    1    3    3    0    0  0.17001156951E+02  0.28501385217E+02 -0.15950327005E+02  0.36820934650E+02  0.00000000000E+00 0.  1.
         11    1    4    4    0    0 -0.17363127849E+02 -0.15611113922E+02  0.19447799546E+02  0.30387530240E+02  0.51100000000E-03 0. -1.
        -11    1    4    4    0    0 -0.47953797400E+01 -0.12737413090E+02 -0.90929957305E+01  0.16368259856E+02  0.51100000000E-03 0.  1.
        -12    1    4    4    0    0  0.51573506388E+01 -0.15285820406E+00  0.55955231894E+01  0.76112752548E+01  0.00000000000E+00 0.  1.
</event>
<event>
 8    1  0.2527138E-006  0.9118800E+02  0.7816164E-02  0.1184000E+00
        -11   -1    0    0    0    0  0.00000000000E+00  0.00000000000E+00  0.45593999997E+02  0.45594000000E+02  0.51100000000E-03 0. -1.
         11   -1    0    0    0    0 -0.00000000000E+00 -0.00000000000E+00 -0.45593999997E+02  0.45594000000E+02  0.51100000000E-03 0.  1.
         23    2    1    2    0    0  0.35527136788E-14  0.17763568394E-14  0.35527136788E-14  0.91188000000E+02  0.91188000000E+02 0.  0.
    9900012    2    3    3    0    0 -0.26084604631E+02 -0.12159481913E+02 -0.22967783416E+02  0.54367100036E+02  0.40000036151E+02 0.  0.
         12    1    3    3    0    0  0.26084604631E+02  0.12159481913E+02  0.22967783416E+02  0.36820899964E+02  0.00000000000E+00 0. -1.
         11    1    4    4    0    0 -0.10862275536E+02 -0.17710253997E+02 -0.37425093316E+01  0.21110388504E+02  0.51100000000E-03 0. -1.
        -11    1    4    4    0    0 -0.83643635539E+01 -0.60421559960E+01 -0.68636978350E+00  0.10341244146E+02  0.51100000000E-03 0.  1.
        -12    1    4    4    0    0 -0.68579655407E+01  0.11592928080E+02 -0.18538904301E+02  0.22915467386E+02  0.00000000000E+00 0.  1.
</event>
<event>
 8    1  0.2527138E-006  0.9118800E+02  0.7816164E-02  0.1184000E+00
        -11   -1    0    0    0    0  0.00000000000E+00  0.00000000000E+00  0.45593999997E+02  0.45594000000E+02  0.51100000000E-03 0. -1.
         11   -1    0    0    0    0 -0.00000000000E+00 -0.00000000000E+00 -0.45593999997E+02  0.45594000000E+02  0.51100000000E-03 0.  1.
         23    2    1    2    0    0  0.00000000000E+00  0.00000000000E+00 -0.35527136788E-14  0.91188000000E+02  0.91188000000E+02 0.  0.
    9900012    2    3    3    0    0  0.19834331610E+02 -0.20330728913E+02  0.23431620493E+02  0.54367080844E+02  0.39999992401E+02 0.  0.
        -12    1    3    3    0    0 -0.19834331610E+02  0.20330728913E+02 -0.23431620493E+02  0.36820919156E+02  0.00000000000E+00 0.  1.
         11    1    4    4    0    0  0.79970597222E+01 -0.82890924487E+01  0.16565594510E+02  0.20176246914E+02  0.51100000000E-03 0. -1.
        -11    1    4    4    0    0  0.16251342897E+02 -0.59252918474E+01  0.15145034820E+02  0.22991026715E+02  0.51100000000E-03 0.  1.
        -12    1    4    4    0    0 -0.44140710086E+01 -0.61163446166E+01 -0.82790088373E+01  0.11199807216E+02  0.00000000000E+00 0.  1.
</event>
<event>
 8    1  0.2527138E-006  0.9118800E+02  0.7816164E-02  0.1184000E+00
        -11   -1    0    0    0    0  0.00000000000E+00  0.00000000000E+00  0.45593999997E+02  0.45594000000E+02  0.51100000000E-03 0.  1.
         11   -1    0    0    0    0 -0.00000000000E+00 -0.00000000000E+00 -0.45593999997E+02  0.45594000000E+02  0.51100000000E-03 0. -1.
         23    2    1    2    0    0 -0.17763568394E-14  0.35527136788E-14  0.00000000000E+00  0.91188000000E+02  0.91188000000E+02 0.  0.
    9900012    2    3    3    0    0 -0.13954682478E+02 -0.28386263595E+02 -0.18848566413E+02  0.54367060580E+02  0.39999946205E+02 0.  0.
        -12    1    3    3    0    0  0.13954682478E+02  0.28386263595E+02  0.18848566413E+02  0.36820939420E+02  0.00000000000E+00 0.  1.
         11    1    4    4    0    0 -0.31071287934E+01 -0.16219472048E+02 -0.20883926668E+02  0.26624498422E+02  0.51100000000E-03 0. -1.
        -11    1    4    4    0    0  0.68368936202E+01 -0.24199529036E+01 -0.10068509985E+01  0.73220922982E+01  0.51100000000E-03 0.  1.
         12    1    4    4    0    0 -0.17684447305E+02 -0.97468386432E+01  0.30422112541E+01  0.20420469861E+02  0.00000000000E+00 0. -1.
</event>
<event>
 8    1  0.2527138E-006  0.9118800E+02  0.7816164E-02  0.1184000E+00
        -11   -1    0    0    0    0  0.00000000000E+00  0.00000000000E+00  0.45593999997E+02  0.45594000000E+02  0.51100000000E-03 0.  1.
         11   -1    0    0    0    0 -0.00000000000E+00 -0.00000000000E+00 -0.45593999997E+02  0.45594000000E+02  0.51100000000E-03 0. -1.
         23    2    1    2    0    0  0.17763568394E-14  0.17763568394E-14  0.00000000000E+00  0.91188000000E+02  0.91188000000E+02 0.  0.
    9900012    2    3    3    0    0  0.95054343948E+01  0.14067048745E+02 -0.32673301902E+02  0.54367084740E+02  0.40000001282E+02 0.  0.
        -12    1    3    3    0    0 -0.95054343948E+01 -0.14067048745E+02  0.32673301902E+02  0.36820915260E+02  0.00000000000E+00 0.  1.
         11    1    4    4    0    0  0.11283627628E+02  0.83455928184E+01 -0.27092487079E+02  0.30511834234E+02  0.51100000000E-03 0. -1.
        -11    1    4    4    0    0 -0.28078341881E+01  0.13565618572E+02 -0.74452199807E+01  0.15727086218E+02  0.51100000000E-03 0.  1.
        -12    1    4    4    0    0  0.10296409544E+01 -0.78441626458E+01  0.18644051575E+01  0.81281642884E+01  0.00000000000E+00 0.  1.
</event>
<event>
 8    1  0.2527138E-006  0.9118800E+02  0.7816164E-02  0.1184000E+00
        -11   -1    0    0    0    0  0.00000000000E+00  0.00000000000E+00  0.45593999997E+02  0.45594000000E+02  0.51100000000E-03 0.  1.
         11   -1    0    0    0    0 -0.00000000000E+00 -0.00000000000E+00 -0.45593999997E+02  0.45594000000E+02  0.51100000000E-03 0. -1.
         23    2    1    2    0    0 -0.11102230246E-15  0.00000000000E+00  0.00000000000E+00  0.91188000000E+02  0.91188000000E+02 0.  0.
    9900012    2    3    3    0    0  0.46347831001E+00  0.21003538659E+02 -0.30239437536E+02  0.54366986558E+02  0.39999777457E+02 0.  0.
        -12    1    3    3    0    0 -0.46347831001E+00 -0.21003538659E+02  0.30239437536E+02  0.36821013442E+02  0.00000000000E+00 0.  1.
         11    1    4    4    0    0  0.13344642225E+02  0.20465025599E+02 -0.21513109749E+02  0.32553197081E+02  0.51100000000E-03 0. -1.
        -11    1    4    4    0    0 -0.10869076319E+02  0.68925432998E+01 -0.34821657546E+01  0.13333021104E+02  0.51100000000E-03 0.  1.
         12    1    4    4    0    0 -0.20120875962E+01 -0.63540302394E+01 -0.52441620328E+01  0.84807683735E+01  0.00000000000E+00 0. -1.
</event>
<event>
 8    1  0.2527138E-006  0.9118800E+02  0.7816164E-02  0.1184000E+00
        -11   -1    0    0    0    0  0.00000000000E+00  0.00000000000E+00  0.45593999997E+02  0.45594000000E+02  0.51100000000E-03 0.  1.
         11   -1    0    0    0    0 -0.00000000000E+00 -0.00000000000E+00 -0.45593999997E+02  0.45594000000E+02  0.51100000000E-03 0. -1.
         23    2    1    2    0    0  0.00000000000E+00 -0.48849813084E-14  0.00000000000E+00  0.91188000000E+02  0.91188000000E+02 0.  0.
    9900012    2    3    3    0    0  0.26530772604E+02 -0.33449687165E+01  0.25312218225E+02  0.54367094224E+02  0.40000022903E+02 0.  0.
         12    1    3    3    0    0 -0.26530772604E+02  0.33449687165E+01 -0.25312218225E+02  0.36820905776E+02  0.00000000000E+00 0. -1.
         11    1    4    4    0    0  0.20739954103E+02  0.12972619231E+02  0.13861285488E+02  0.28117072777E+02  0.51100000000E-03 0. -1.
        -11    1    4    4    0    0 -0.13074384483E+01 -0.54512316300E+01  0.12015029825E+02  0.13258441218E+02  0.51100000000E-03 0.  1.
         12    1    4    4    0    0  0.70982569491E+01 -0.10866356317E+02 -0.56409708846E+00  0.12991580229E+02  0.00000000000E+00 0. -1.
</event>
<event>
 8    1  0.2527138E-006  0.9118800E+02  0.7816164E-02  0.1184000E+00
        -11   -1    0    0    0    0  0.00000000000E+00  0.00000000000E+00  0.45593999997E+02  0.45594000000E+02  0.51100000000E-03 0. -1.
         11   -1    0    0    0    0 -0.00000000000E+00 -0.00000000000E+00 -0.45593999997E+02  0.45594000000E+02  0.51100000000E-03 0.  1.
         23    2    1    2    0    0  0.00000000000E+00  0.00000000000E+00  0.00000000000E+00  0.91188000000E+02  0.91188000000E+02 0.  0.
    9900012    2    3    3    0    0  0.20020262771E+02  0.45666118779E+01 -0.30563301312E+02  0.54367078602E+02  0.39999987290E+02 0.  0.
         12    1    3    3    0    0 -0.20020262771E+02 -0.45666118779E+01  0.30563301312E+02  0.36820921398E+02  0.00000000000E+00 0. -1.
         11    1    4    4    0    0  0.19344995576E+02 -0.81187467157E-01  0.14526487302E+01  0.19399629734E+02  0.51100000000E-03 0. -1.
        -11    1    4    4    0    0  0.58213638156E+01  0.56372694601E+01 -0.13706049202E+02  0.15922401472E+02  0.51100000000E-03 0.  1.
         12    1    4    4    0    0 -0.51460966204E+01 -0.98947011505E+00 -0.18309900840E+02  0.19045047396E+02  0.00000000000E+00 0. -1.
</event>
<event>
 8    1  0.2527138E-006  0.9118800E+02  0.7816164E-02  0.1184000E+00
        -11   -1    0    0    0    0  0.00000000000E+00  0.00000000000E+00  0.45593999997E+02  0.45594000000E+02  0.51100000000E-03 0.  1.
         11   -1    0    0    0    0 -0.00000000000E+00 -0.00000000000E+00 -0.45593999997E+02  0.45594000000E+02  0.51100000000E-03 0. -1.
         23    2    1    2    0    0  0.00000000000E+00  0.35527136788E-14 -0.17763568394E-14  0.91188000000E+02  0.91188000000E+02 0.  0.
    9900012    2    3    3    0    0  0.25303505155E+02  0.24329976552E+02 -0.11115898949E+02  0.54367104552E+02  0.40000046447E+02 0.  0.
        -12    1    3    3    0    0 -0.25303505155E+02 -0.24329976552E+02  0.11115898949E+02  0.36820895448E+02  0.00000000000E+00 0.  1.
         11    1    4    4    0    0  0.18744294080E+02  0.21165608745E+02  0.13670022068E+01  0.28305480907E+02  0.51100000000E-03 0. -1.
        -11    1    4    4    0    0 -0.68260453836E+01  0.57328087679E+01 -0.71450923341E+01  0.11424199608E+02  0.51100000000E-03 0.  1.
         12    1    4    4    0    0  0.13385256459E+02 -0.25684409606E+01 -0.53378088217E+01  0.14637424038E+02  0.00000000000E+00 0. -1.
</event>
<event>
 8    1  0.2527138E-006  0.9118800E+02  0.7816164E-02  0.1184000E+00
        -11   -1    0    0    0    0  0.00000000000E+00  0.00000000000E+00  0.45593999997E+02  0.45594000000E+02  0.51100000000E-03 0. -1.
         11   -1    0    0    0    0 -0.00000000000E+00 -0.00000000000E+00 -0.45593999997E+02  0.45594000000E+02  0.51100000000E-03 0.  1.
         23    2    1    2    0    0  0.17763568394E-14  0.00000000000E+00  0.00000000000E+00  0.91188000000E+02  0.91188000000E+02 0.  0.
    9900012    2    3    3    0    0  0.90651916958E+01  0.30017610717E+02  0.19301442834E+02  0.54367077291E+02  0.39999984301E+02 0.  0.
         12    1    3    3    0    0 -0.90651916958E+01 -0.30017610717E+02 -0.19301442834E+02  0.36820922709E+02  0.00000000000E+00 0. -1.
         11    1    4    4    0    0 -0.16641640300E+00  0.10390340580E+02 -0.43167762113E+01  0.11252618758E+02  0.51100000000E-03 0.  1.
        -11    1    4    4    0    0 -0.74229066828E+01 -0.16290976137E+01  0.10843475286E+02  0.13241391890E+02  0.51100000000E-03 0. -1.
         12    1    4    4    0    0  0.16654514782E+02  0.21256367751E+02  0.12774743759E+02  0.29873066643E+02  0.00000000000E+00 0. -1.
</event>
<event>
 8    1  0.2527138E-006  0.9118800E+02  0.7816164E-02  0.1184000E+00
        -11   -1    0    0    0    0  0.00000000000E+00  0.00000000000E+00  0.45593999997E+02  0.45594000000E+02  0.51100000000E-03 0.  1.
         11   -1    0    0    0    0 -0.00000000000E+00 -0.00000000000E+00 -0.45593999997E+02  0.45594000000E+02  0.51100000000E-03 0. -1.
         23    2    1    2    0    0 -0.35527136788E-14 -0.88817841970E-15  0.00000000000E+00  0.91188000000E+02  0.91188000000E+02 0.  0.
    9900012    2    3    3    0    0 -0.19003477381E+02  0.62030277316E+01 -0.30921994314E+02  0.54367089664E+02  0.40000012508E+02 0.  0.
        -12    1    3    3    0    0  0.19003477381E+02 -0.62030277316E+01  0.30921994314E+02  0.36820910336E+02  0.00000000000E+00 0.  1.
         11    1    4    4    0    0 -0.23422330171E+01  0.10155940354E+02 -0.91340222030E+01  0.13858554825E+02  0.51100000000E-03 0.  1.
        -11    1    4    4    0    0  0.62684428958E+01  0.64084204533E+01 -0.50680477010E+01  0.10297880209E+02  0.51100000000E-03 0. -1.
        -12    1    4    4    0    0 -0.22929687259E+02 -0.10361333075E+02 -0.16719924410E+02  0.30210654630E+02  0.00000000000E+00 0.  1.
</event>
<event>
 8    1  0.2527138E-006  0.9118800E+02  0.7816164E-02  0.1184000E+00
        -11   -1    0    0    0    0  0.00000000000E+00  0.00000000000E+00  0.45593999997E+02  0.45594000000E+02  0.51100000000E-03 0. -1.
         11   -1    0    0    0    0 -0.00000000000E+00 -0.00000000000E+00 -0.45593999997E+02  0.45594000000E+02  0.51100000000E-03 0.  1.
         23    2    1    2    0    0  0.00000000000E+00 -0.14866580189E-14  0.00000000000E+00  0.91188000000E+02  0.91188000000E+02 0.  0.
    9900012    2    3    3    0    0  0.92947422437E+01  0.10420704788E-01 -0.35628462546E+02  0.54367086304E+02  0.40000004848E+02 0.  0.
         12    1    3    3    0    0 -0.92947422437E+01 -0.10420704788E-01  0.35628462546E+02  0.36820913696E+02  0.00000000000E+00 0. -1.
         11    1    4    4    0    0  0.15642710048E+02  0.13363327987E+02 -0.10786123134E+02  0.23229579528E+02  0.51100000000E-03 0. -1.
        -11    1    4    4    0    0 -0.45565467497E+01 -0.69950336047E+01 -0.39684895657E+01  0.92434583954E+01  0.51100000000E-03 0.  1.
        -12    1    4    4    0    0 -0.17914210542E+01 -0.63578736772E+01 -0.20873849847E+02  0.21894048381E+02  0.00000000000E+00 0.  1.
</event>
<event>
 8    1  0.2527138E-006  0.9118800E+02  0.7816164E-02  0.1184000E+00
        -11   -1    0    0    0    0  0.00000000000E+00  0.00000000000E+00  0.45593999997E+02  0.45594000000E+02  0.51100000000E-03 0.  1.
         11   -1    0    0    0    0 -0.00000000000E+00 -0.00000000000E+00 -0.45593999997E+02  0.45594000000E+02  0.51100000000E-03 0. -1.
         23    2    1    2    0    0  0.00000000000E+00  0.17763568394E-14  0.35527136788E-14  0.91188000000E+02  0.91188000000E+02 0.  0.
    9900012    2    3    3    0    0  0.31296421313E+02 -0.67549376410E+01 -0.18184855060E+02  0.54367026044E+02  0.39999867471E+02 0.  0.
        -12    1    3    3    0    0 -0.31296421313E+02  0.67549376410E+01  0.18184855060E+02  0.36820973956E+02  0.00000000000E+00 0.  1.
         11    1    4    4    0    0  0.17003247725E+02  0.15948429995E+01  0.51094149374E+01  0.17825826170E+02  0.51100000000E-03 0. -1.
        -11    1    4    4    0    0  0.67221139429E+01  0.52189475112E+01  0.35946063731E-01  0.85103185232E+01  0.51100000000E-03 0.  1.
         12    1    4    4    0    0  0.75710596455E+01 -0.13568728152E+02 -0.23330216061E+02  0.28030881350E+02  0.00000000000E+00 0. -1.
</event>
<event>
 8    1  0.2527138E-006  0.9118800E+02  0.7816164E-02  0.1184000E+00
        -11   -1    0    0    0    0  0.00000000000E+00  0.00000000000E+00  0.45593999997E+02  0.45594000000E+02  0.51100000000E-03 0.  1.
         11   -1    0    0    0    0 -0.00000000000E+00 -0.00000000000E+00 -0.45593999997E+02  0.45594000000E+02  0.51100000000E-03 0. -1.
         23    2    1    2    0    0  0.00000000000E+00  0.00000000000E+00  0.88817841970E-15  0.91188000000E+02  0.91188000000E+02 0.  0.
    9900012    2    3    3    0    0  0.33566782814E+02  0.12928350262E+02 -0.78682411277E+01  0.54367077043E+02  0.39999983735E+02 0.  0.
         12    1    3    3    0    0 -0.33566782814E+02 -0.12928350262E+02  0.78682411277E+01  0.36820922957E+02  0.00000000000E+00 0. -1.
         11    1    4    4    0    0  0.23021176049E+02  0.40319307024E+00 -0.69425317903E+01  0.24048614498E+02  0.51100000000E-03 0.  1.
        -11    1    4    4    0    0 -0.65480779716E+01  0.99612665627E+01 -0.43648922385E+01  0.12694740689E+02  0.51100000000E-03 0. -1.
         12    1    4    4    0    0  0.17093684736E+02  0.25638906289E+01  0.34391829012E+01  0.17623721856E+02  0.00000000000E+00 0. -1.
</event>
<event>
 8    1  0.2527138E-006  0.9118800E+02  0.7816164E-02  0.1184000E+00
        -11   -1    0    0    0    0  0.00000000000E+00  0.00000000000E+00  0.45593999997E+02  0.45594000000E+02  0.51100000000E-03 0. -1.
         11   -1    0    0    0    0 -0.00000000000E+00 -0.00000000000E+00 -0.45593999997E+02  0.45594000000E+02  0.51100000000E-03 0.  1.
         23    2    1    2    0    0  0.71054273576E-14  0.66613381478E-15  0.00000000000E+00  0.91188000000E+02  0.91188000000E+02 0.  0.
    9900012    2    3    3    0    0 -0.33588701498E+02  0.19033264758E+01 -0.14965156753E+02  0.54367089682E+02  0.40000012548E+02 0.  0.
         12    1    3    3    0    0  0.33588701498E+02 -0.19033264758E+01  0.14965156753E+02  0.36820910318E+02  0.00000000000E+00 0. -1.
         11    1    4    4    0    0 -0.16083448659E+02 -0.15677950247E+01  0.65727400276E+01  0.17445234700E+02  0.51100000000E-03 0. -1.
        -11    1    4    4    0    0 -0.90624344906E+01 -0.60273581432E+01 -0.21629168367E+02  0.24213171820E+02  0.51100000000E-03 0.  1.
        -12    1    4    4    0    0 -0.84428183489E+01  0.94984796437E+01  0.91271586850E-01  0.12708683162E+02  0.00000000000E+00 0.  1.
</event>
<event>
 8    1  0.2527138E-006  0.9118800E+02  0.7816164E-02  0.1184000E+00
        -11   -1    0    0    0    0  0.00000000000E+00  0.00000000000E+00  0.45593999997E+02  0.45594000000E+02  0.51100000000E-03 0.  1.
         11   -1    0    0    0    0 -0.00000000000E+00 -0.00000000000E+00 -0.45593999997E+02  0.45594000000E+02  0.51100000000E-03 0. -1.
         23    2    1    2    0    0  0.00000000000E+00  0.00000000000E+00  0.35527136788E-14  0.91188000000E+02  0.91188000000E+02 0.  0.
    9900012    2    3    3    0    0  0.14636366568E+02 -0.20687879388E+02  0.26712828656E+02  0.54366989765E+02  0.39999784767E+02 0.  0.
         12    1    3    3    0    0 -0.14636366568E+02  0.20687879388E+02 -0.26712828656E+02  0.36821010235E+02  0.00000000000E+00 0. -1.
         11    1    4    4    0    0  0.52209369695E+01 -0.83724766859E+01  0.65663641466E+01  0.11852159595E+02  0.51100000000E-03 0. -1.
        -11    1    4    4    0    0 -0.60219353753E+01 -0.19071093339E+02  0.71668769364E+01  0.21244633018E+02  0.51100000000E-03 0.  1.
         12    1    4    4    0    0  0.15437364974E+02  0.67556906363E+01  0.12979587573E+02  0.21270197152E+02  0.00000000000E+00 0. -1.
</event>
<event>
 8    1  0.2527138E-006  0.9118800E+02  0.7816164E-02  0.1184000E+00
        -11   -1    0    0    0    0  0.00000000000E+00  0.00000000000E+00  0.45593999997E+02  0.45594000000E+02  0.51100000000E-03 0.  1.
         11   -1    0    0    0    0 -0.00000000000E+00 -0.00000000000E+00 -0.45593999997E+02  0.45594000000E+02  0.51100000000E-03 0. -1.
         23    2    1    2    0    0  0.00000000000E+00  0.35527136788E-14 -0.35527136788E-14  0.91188000000E+02  0.91188000000E+02 0.  0.
    9900012    2    3    3    0    0 -0.17106756894E+02  0.23922916385E+02 -0.22154749543E+02  0.54367082207E+02  0.39999995507E+02 0.  0.
        -12    1    3    3    0    0  0.17106756894E+02 -0.23922916385E+02  0.22154749543E+02  0.36820917793E+02  0.00000000000E+00 0.  1.
         11    1    4    4    0    0 -0.24163531441E+01  0.12712829327E+01 -0.14230453820E+02  0.14490022050E+02  0.51100000000E-03 0. -1.
        -11    1    4    4    0    0 -0.23010046711E+02  0.17754350394E+02 -0.35537804463E+01  0.29279832022E+02  0.51100000000E-03 0.  1.
        -12    1    4    4    0    0  0.83196429610E+01  0.48972830590E+01 -0.43705152769E+01  0.10597228135E+02  0.00000000000E+00 0.  1.
</event>
<event>
 8    1  0.2527138E-006  0.9118800E+02  0.7816164E-02  0.1184000E+00
        -11   -1    0    0    0    0  0.00000000000E+00  0.00000000000E+00  0.45593999997E+02  0.45594000000E+02  0.51100000000E-03 0.  1.
         11   -1    0    0    0    0 -0.00000000000E+00 -0.00000000000E+00 -0.45593999997E+02  0.45594000000E+02  0.51100000000E-03 0. -1.
         23    2    1    2    0    0  0.00000000000E+00  0.00000000000E+00 -0.35527136788E-14  0.91188000000E+02  0.91188000000E+02 0.  0.
    9900012    2    3    3    0    0 -0.24049060479E+02  0.12838229369E+02  0.24750613500E+02  0.54367213590E+02  0.40000295020E+02 0.  0.
         12    1    3    3    0    0  0.24049060479E+02 -0.12838229369E+02 -0.24750613500E+02  0.36820786410E+02  0.00000000000E+00 0. -1.
         11    1    4    4    0    0  0.11248152292E+00  0.38037999358E+01 -0.70715770539E+01  0.80304886735E+01  0.51100000000E-03 0. -1.
        -11    1    4    4    0    0 -0.69484344936E+01  0.30006606767E+01 -0.20712414365E+01  0.78469578664E+01  0.51100000000E-03 0.  1.
        -12    1    4    4    0    0 -0.17213107508E+02  0.60337687566E+01  0.33893431990E+02  0.38489767050E+02  0.00000000000E+00 0.  1.
</event>
<event>
 8    1  0.2527138E-006  0.9118800E+02  0.7816164E-02  0.1184000E+00
        -11   -1    0    0    0    0  0.00000000000E+00  0.00000000000E+00  0.45593999997E+02  0.45594000000E+02  0.51100000000E-03 0. -1.
         11   -1    0    0    0    0 -0.00000000000E+00 -0.00000000000E+00 -0.45593999997E+02  0.45594000000E+02  0.51100000000E-03 0.  1.
         23    2    1    2    0    0 -0.35527136788E-14  0.00000000000E+00 -0.17763568394E-14  0.91188000000E+02  0.91188000000E+02 0.  0.
    9900012    2    3    3    0    0  0.13528511888E+02 -0.32172056194E+02 -0.11735283470E+02  0.54367099526E+02  0.40000034989E+02 0.  0.
         12    1    3    3    0    0 -0.13528511888E+02  0.32172056194E+02  0.11735283470E+02  0.36820900474E+02  0.00000000000E+00 0. -1.
         11    1    4    4    0    0  0.19177871437E+02 -0.47165594877E+01 -0.15007020007E+02  0.24804179809E+02  0.51100000000E-03 0.  1.
        -11    1    4    4    0    0 -0.45929956696E+01 -0.18166034189E+02  0.62469938668E+01  0.19751590823E+02  0.51100000000E-03 0. -1.
        -12    1    4    4    0    0 -0.10563638793E+01 -0.92894625163E+01 -0.29752573290E+01  0.98113288938E+01  0.00000000000E+00 0.  1.
</event>
<event>
 8    1  0.2527138E-006  0.9118800E+02  0.7816164E-02  0.1184000E+00
        -11   -1    0    0    0    0  0.00000000000E+00  0.00000000000E+00  0.45593999997E+02  0.45594000000E+02  0.51100000000E-03 0.  1.
         11   -1    0    0    0    0 -0.00000000000E+00 -0.00000000000E+00 -0.45593999997E+02  0.45594000000E+02  0.51100000000E-03 0. -1.
         23    2    1    2    0    0  0.35527136788E-14 -0.35527136788E-14  0.88817841970E-15  0.91188000000E+02  0.91188000000E+02 0.  0.
    9900012    2    3    3    0    0 -0.29602193766E+02 -0.21557531051E+02  0.38430659149E+01  0.54366998162E+02  0.39999803909E+02 0.  0.
         12    1    3    3    0    0  0.29602193766E+02  0.21557531051E+02 -0.38430659149E+01  0.36821001838E+02  0.00000000000E+00 0. -1.
         11    1    4    4    0    0 -0.12370057080E+02  0.47763821903E+00  0.10329905674E+02  0.16123070487E+02  0.51100000000E-03 0. -1.
        -11    1    4    4    0    0 -0.17045090380E+02 -0.21524555439E+02  0.39973562070E+01  0.27745638393E+02  0.51100000000E-03 0.  1.
         12    1    4    4    0    0 -0.18704630606E+00 -0.51061383048E+00 -0.10484195966E+02  0.10498289282E+02  0.00000000000E+00 0. -1.
</event>
<event>
 8    1  0.2527138E-006  0.9118800E+02  0.7816164E-02  0.1184000E+00
        -11   -1    0    0    0    0  0.00000000000E+00  0.00000000000E+00  0.45593999997E+02  0.45594000000E+02  0.51100000000E-03 0. -1.
         11   -1    0    0    0    0 -0.00000000000E+00 -0.00000000000E+00 -0.45593999997E+02  0.45594000000E+02  0.51100000000E-03 0.  1.
         23    2    1    2    0    0 -0.88817841970E-15  0.00000000000E+00  0.00000000000E+00  0.91188000000E+02  0.91188000000E+02 0.  0.
    9900012    2    3    3    0    0  0.64973933940E+01  0.34590648376E+02 -0.10819009788E+02  0.54367081370E+02  0.39999993599E+02 0.  0.
         12    1    3    3    0    0 -0.64973933940E+01 -0.34590648376E+02  0.10819009788E+02  0.36820918630E+02  0.00000000000E+00 0. -1.
         11    1    4    4    0    0  0.15246079961E+02  0.15839635309E+02 -0.19633271177E+02  0.29475453148E+02  0.51100000000E-03 0. -1.
        -11    1    4    4    0    0 -0.58972461957E+01  0.13372258898E+02  0.54751090015E+00  0.14625135527E+02  0.51100000000E-03 0.  1.
         12    1    4    4    0    0 -0.28514403716E+01  0.53787541688E+01  0.82667504895E+01  0.10266492695E+02  0.00000000000E+00 0. -1.
</event>
<event>
 8    1  0.2527138E-006  0.9118800E+02  0.7816164E-02  0.1184000E+00
        -11   -1    0    0    0    0  0.00000000000E+00  0.00000000000E+00  0.45593999997E+02  0.45594000000E+02  0.51100000000E-03 0. -1.
         11   -1    0    0    0    0 -0.00000000000E+00 -0.00000000000E+00 -0.45593999997E+02  0.45594000000E+02  0.51100000000E-03 0.  1.
         23    2    1    2    0    0  0.35527136788E-14 -0.71054273576E-14 -0.17763568394E-14  0.91188000000E+02  0.91188000000E+02 0.  0.
    9900012    2    3    3    0    0 -0.86908560928E+01  0.34298715962E+02  0.10190574267E+02  0.54367072525E+02  0.39999973434E+02 0.  0.
        -12    1    3    3    0    0  0.86908560928E+01 -0.34298715962E+02 -0.10190574267E+02  0.36820927475E+02  0.00000000000E+00 0.  1.
         11    1    4    4    0    0  0.13045055412E+02  0.73355440330E+01  0.53558538748E+01  0.15895560637E+02  0.51100000000E-03 0.  1.
        -11    1    4    4    0    0 -0.10326392930E+02  0.18474342756E+02 -0.42627830094E+01  0.21589512511E+02  0.51100000000E-03 0. -1.
         12    1    4    4    0    0 -0.11409518575E+02  0.84888291731E+01  0.90975034012E+01  0.16881999377E+02  0.00000000000E+00 0. -1.
</event>
<event>
 8    1  0.2527138E-006  0.9118800E+02  0.7816164E-02  0.1184000E+00
        -11   -1    0    0    0    0  0.00000000000E+00  0.00000000000E+00  0.45593999997E+02  0.45594000000E+02  0.51100000000E-03 0. -1.
         11   -1    0    0    0    0 -0.00000000000E+00 -0.00000000000E+00 -0.45593999997E+02  0.45594000000E+02  0.51100000000E-03 0.  1.
         23    2    1    2    0    0  0.35527136788E-14 -0.35527136788E-14  0.00000000000E+00  0.91188000000E+02  0.91188000000E+02 0.  0.
    9900012    2    3    3    0    0 -0.26402614462E+02  0.18499045545E+02  0.17789536277E+02  0.54367077449E+02  0.39999984661E+02 0.  0.
        -12    1    3    3    0    0  0.26402614462E+02 -0.18499045545E+02 -0.17789536277E+02  0.36820922551E+02  0.00000000000E+00 0.  1.
         11    1    4    4    0    0 -0.17920822771E+02  0.24987615786E+02  0.66717823616E+01  0.31465052226E+02  0.51100000000E-03 0.  1.
        -11    1    4    4    0    0  0.32838646820E+01  0.31694938392E+01  0.41204378427E+01  0.61487776609E+01  0.51100000000E-03 0. -1.
        -12    1    4    4    0    0 -0.11765656373E+02 -0.96580640799E+01  0.69973160731E+01  0.16753247562E+02  0.00000000000E+00 0.  1.
</event>
<event>
 8    1  0.2527138E-006  0.9118800E+02  0.7816164E-02  0.1184000E+00
        -11   -1    0    0    0    0  0.00000000000E+00  0.00000000000E+00  0.45593999997E+02  0.45594000000E+02  0.51100000000E-03 0.  1.
         11   -1    0    0    0    0 -0.00000000000E+00 -0.00000000000E+00 -0.45593999997E+02  0.45594000000E+02  0.51100000000E-03 0. -1.
         23    2    1    2    0    0  0.00000000000E+00  0.00000000000E+00  0.00000000000E+00  0.91188000000E+02  0.91188000000E+02 0.  0.
    9900012    2    3    3    0    0  0.17339770122E+02  0.89979088998E+01  0.31211395074E+02  0.54367066077E+02  0.39999958736E+02 0.  0.
         12    1    3    3    0    0 -0.17339770122E+02 -0.89979088998E+01 -0.31211395074E+02  0.36820933923E+02  0.00000000000E+00 0. -1.
         11    1    4    4    0    0 -0.96775356450E+00  0.10777037930E+02  0.43634989518E+01  0.11667099762E+02  0.51100000000E-03 0. -1.
        -11    1    4    4    0    0  0.17499618730E+02 -0.85102407296E+01  0.53831734808E+01  0.20190081970E+02  0.51100000000E-03 0.  1.
         12    1    4    4    0    0  0.80790495682E+00  0.67311116997E+01  0.21464722642E+02  0.22509884345E+02  0.00000000000E+00 0. -1.
</event>
<event>
 8    1  0.2527138E-006  0.9118800E+02  0.7816164E-02  0.1184000E+00
        -11   -1    0    0    0    0  0.00000000000E+00  0.00000000000E+00  0.45593999997E+02  0.45594000000E+02  0.51100000000E-03 0. -1.
         11   -1    0    0    0    0 -0.00000000000E+00 -0.00000000000E+00 -0.45593999997E+02  0.45594000000E+02  0.51100000000E-03 0.  1.
         23    2    1    2    0    0  0.88817841970E-15 -0.88817841970E-15  0.00000000000E+00  0.91188000000E+02  0.91188000000E+02 0.  0.
    9900012    2    3    3    0    0  0.74575181507E+01 -0.44164293260E+01  0.35786305170E+02  0.54367094760E+02  0.40000024125E+02 0.  0.
        -12    1    3    3    0    0 -0.74575181507E+01  0.44164293260E+01 -0.35786305170E+02  0.36820905240E+02  0.00000000000E+00 0.  1.
         11    1    4    4    0    0  0.33547808925E+01  0.15008302692E+01  0.94460784238E+01  0.10135849455E+02  0.51100000000E-03 0. -1.
        -11    1    4    4    0    0  0.56468329441E+01 -0.98774342275E+01  0.33790037288E+02  0.35654130888E+02  0.51100000000E-03 0.  1.
        -12    1    4    4    0    0 -0.15440956858E+01  0.39601746323E+01 -0.74498105421E+01  0.85771144168E+01  0.00000000000E+00 0.  1.
</event>
<event>
 8    1  0.2527138E-006  0.9118800E+02  0.7816164E-02  0.1184000E+00
        -11   -1    0    0    0    0  0.00000000000E+00  0.00000000000E+00  0.45593999997E+02  0.45594000000E+02  0.51100000000E-03 0. -1.
         11   -1    0    0    0    0 -0.00000000000E+00 -0.00000000000E+00 -0.45593999997E+02  0.45594000000E+02  0.51100000000E-03 0.  1.
         23    2    1    2    0    0  0.00000000000E+00  0.00000000000E+00  0.00000000000E+00  0.91188000000E+02  0.91188000000E+02 0.  0.
    9900012    2    3    3    0    0  0.20582959008E+02 -0.22674905130E+02  0.20444329015E+02  0.54367080497E+02  0.39999991609E+02 0.  0.
        -12    1    3    3    0    0 -0.20582959008E+02  0.22674905130E+02 -0.20444329015E+02  0.36820919503E+02  0.00000000000E+00 0.  1.
         11    1    4    4    0    0  0.43558212328E+01 -0.14950342116E+02  0.12919412298E+02  0.20233564253E+02  0.51100000000E-03 0. -1.
        -11    1    4    4    0    0  0.19062629420E+02 -0.14875765648E+02  0.12607261816E+01  0.24212841113E+02  0.51100000000E-03 0.  1.
         12    1    4    4    0    0 -0.28354916442E+01  0.71512026341E+01  0.62641905358E+01  0.99206751306E+01  0.00000000000E+00 0. -1.
</event>
<event>
 8    1  0.2527138E-006  0.9118800E+02  0.7816164E-02  0.1184000E+00
        -11   -1    0    0    0    0  0.00000000000E+00  0.00000000000E+00  0.45593999997E+02  0.45594000000E+02  0.51100000000E-03 0.  1.
         11   -1    0    0    0    0 -0.00000000000E+00 -0.00000000000E+00 -0.45593999997E+02  0.45594000000E+02  0.51100000000E-03 0. -1.
         23    2    1    2    0    0  0.00000000000E+00  0.00000000000E+00  0.88817841970E-15  0.91188000000E+02  0.91188000000E+02 0.  0.
    9900012    2    3    3    0    0 -0.36192223968E+02  0.27474896710E+01  0.61930511827E+01  0.54367086673E+02  0.40000005689E+02 0.  0.
         12    1    3    3    0    0  0.36192223968E+02 -0.27474896710E+01 -0.61930511827E+01  0.36820913327E+02  0.00000000000E+00 0. -1.
         11    1    4    4    0    0 -0.33265675274E+01  0.17593985795E+01 -0.13282176382E+02  0.13804989844E+02  0.51100000000E-03 0. -1.
        -11    1    4    4    0    0 -0.26211159027E+02 -0.43967316606E+01  0.17358840161E+02  0.31744061474E+02  0.51100000000E-03 0.  1.
         12    1    4    4    0    0 -0.66544974136E+01  0.53848227521E+01  0.21163874042E+01  0.88180353562E+01  0.00000000000E+00 0. -1.
</event>
<event>
 8    1  0.2527138E-006  0.9118800E+02  0.7816164E-02  0.1184000E+00
        -11   -1    0    0    0    0  0.00000000000E+00  0.00000000000E+00  0.45593999997E+02  0.45594000000E+02  0.51100000000E-03 0. -1.
         11   -1    0    0    0    0 -0.00000000000E+00 -0.00000000000E+00 -0.45593999997E+02  0.45594000000E+02  0.51100000000E-03 0.  1.
         23    2    1    2    0    0  0.00000000000E+00  0.00000000000E+00 -0.35527136788E-14  0.91188000000E+02  0.91188000000E+02 0.  0.
    9900012    2    3    3    0    0 -0.10889376252E+02 -0.18308092343E+02 -0.30033583680E+02  0.54367069688E+02  0.39999966968E+02 0.  0.
         12    1    3    3    0    0  0.10889376252E+02  0.18308092343E+02  0.30033583680E+02  0.36820930312E+02  0.00000000000E+00 0. -1.
         11    1    4    4    0    0  0.29572003114E+01 -0.11025488024E+02  0.14170068287E+00  0.11416063209E+02  0.51100000000E-03 0. -1.
        -11    1    4    4    0    0 -0.50489801595E+01  0.92857771944E+01 -0.53833396570E+01  0.11861627413E+02  0.51100000000E-03 0.  1.
         12    1    4    4    0    0 -0.87975964043E+01 -0.16568381513E+02 -0.24791944705E+02  0.31089379066E+02  0.00000000000E+00 0. -1.
</event>
<event>
 8    1  0.2527138E-006  0.9118800E+02  0.7816164E-02  0.1184000E+00
        -11   -1    0    0    0    0  0.00000000000E+00  0.00000000000E+00  0.45593999997E+02  0.45594000000E+02  0.51100000000E-03 0.  1.
         11   -1    0    0    0    0 -0.00000000000E+00 -0.00000000000E+00 -0.45593999997E+02  0.45594000000E+02  0.51100000000E-03 0. -1.
         23    2    1    2    0    0  0.00000000000E+00 -0.88817841970E-15  0.71054273576E-14  0.91188000000E+02  0.91188000000E+02 0.  0.
    9900012    2    3    3    0    0 -0.24252011784E+02 -0.51148178510E+01  0.27229729603E+02  0.54367087308E+02  0.40000007137E+02 0.  0.
         12    1    3    3    0    0  0.24252011784E+02  0.51148178510E+01 -0.27229729603E+02  0.36820912692E+02  0.00000000000E+00 0. -1.
         11    1    4    4    0    0  0.94580365718E+01 -0.42371282189E+01  0.80344438116E+01  0.13113351935E+02  0.51100000000E-03 0. -1.
        -11    1    4    4    0    0 -0.12615753178E+02 -0.58436913207E+01  0.12155922231E+02  0.18468145604E+02  0.51100000000E-03 0.  1.
         12    1    4    4    0    0 -0.21094295178E+02  0.49660016887E+01  0.70393635600E+01  0.22785589770E+02  0.00000000000E+00 0. -1.
</event>
<event>
 8    1  0.2527138E-006  0.9118800E+02  0.7816164E-02  0.1184000E+00
        -11   -1    0    0    0    0  0.00000000000E+00  0.00000000000E+00  0.45593999997E+02  0.45594000000E+02  0.51100000000E-03 0.  1.
         11   -1    0    0    0    0 -0.00000000000E+00 -0.00000000000E+00 -0.45593999997E+02  0.45594000000E+02  0.51100000000E-03 0. -1.
         23    2    1    2    0    0  0.72164496601E-15  0.00000000000E+00 -0.17763568394E-14  0.91188000000E+02  0.91188000000E+02 0.  0.
    9900012    2    3    3    0    0 -0.40701169604E+00 -0.34076195405E+02  0.13943698615E+02  0.54367089055E+02  0.40000011118E+02 0.  0.
         12    1    3    3    0    0  0.40701169604E+00  0.34076195405E+02 -0.13943698615E+02  0.36820910945E+02  0.00000000000E+00 0. -1.
         11    1    4    4    0    0 -0.14084486039E+02 -0.19434797192E+02  0.13713021208E+01  0.24040893466E+02  0.51100000000E-03 0. -1.
        -11    1    4    4    0    0  0.71242320427E-01 -0.13888365219E+02  0.75116708136E+01  0.15789773988E+02  0.51100000000E-03 0.  1.
         12    1    4    4    0    0  0.13606232023E+02 -0.75303299426E+00  0.50607256801E+01  0.14536421601E+02  0.00000000000E+00 0. -1.
</event>
<event>
 8    1  0.2527138E-006  0.9118800E+02  0.7816164E-02  0.1184000E+00
        -11   -1    0    0    0    0  0.00000000000E+00  0.00000000000E+00  0.45593999997E+02  0.45594000000E+02  0.51100000000E-03 0. -1.
         11   -1    0    0    0    0 -0.00000000000E+00 -0.00000000000E+00 -0.45593999997E+02  0.45594000000E+02  0.51100000000E-03 0.  1.
         23    2    1    2    0    0  0.00000000000E+00  0.71054273576E-14  0.00000000000E+00  0.91188000000E+02  0.91188000000E+02 0.  0.
    9900012    2    3    3    0    0 -0.31916333877E+02  0.17872735791E+02  0.42062605517E+01  0.54367086368E+02  0.40000004994E+02 0.  0.
        -12    1    3    3    0    0  0.31916333877E+02 -0.17872735791E+02 -0.42062605517E+01  0.36820913632E+02  0.00000000000E+00 0.  1.
         11    1    4    4    0    0 -0.28401201665E+02 -0.46659773583E+01 -0.23691811447E+01  0.28879276658E+02  0.51100000000E-03 0. -1.
        -11    1    4    4    0    0  0.21625940591E+01  0.16220304513E+01  0.19311374494E+01  0.33222113056E+01  0.51100000000E-03 0.  1.
         12    1    4    4    0    0 -0.56777262717E+01  0.20916682698E+02  0.46443042470E+01  0.22165598405E+02  0.00000000000E+00 0. -1.
</event>
<event>
 8    1  0.2527138E-006  0.9118800E+02  0.7816164E-02  0.1184000E+00
        -11   -1    0    0    0    0  0.00000000000E+00  0.00000000000E+00  0.45593999997E+02  0.45594000000E+02  0.51100000000E-03 0.  1.
         11   -1    0    0    0    0 -0.00000000000E+00 -0.00000000000E+00 -0.45593999997E+02  0.45594000000E+02  0.51100000000E-03 0. -1.
         23    2    1    2    0    0  0.00000000000E+00  0.00000000000E+00  0.17763568394E-14  0.91188000000E+02  0.91188000000E+02 0.  0.
    9900012    2    3    3    0    0 -0.19242545120E+02 -0.29171884687E+02  0.11597632334E+02  0.54367089166E+02  0.40000011371E+02 0.  0.
        -12    1    3    3    0    0  0.19242545120E+02  0.29171884687E+02 -0.11597632334E+02  0.36820910834E+02  0.00000000000E+00 0.  1.
         11    1    4    4    0    0  0.30971786477E+01 -0.54495991921E+01 -0.91214516453E+00  0.63342447058E+01  0.51100000000E-03 0. -1.
        -11    1    4    4    0    0 -0.10785418861E+02  0.69571865043E+01 -0.29431881847E+00  0.12838003268E+02  0.51100000000E-03 0.  1.
        -12    1    4    4    0    0 -0.11554304907E+02 -0.30679471999E+02  0.12804096317E+02  0.35194841192E+02  0.00000000000E+00 0.  1.
</event>
<event>
 8    1  0.2527138E-006  0.9118800E+02  0.7816164E-02  0.1184000E+00
        -11   -1    0    0    0    0  0.00000000000E+00  0.00000000000E+00  0.45593999997E+02  0.45594000000E+02  0.51100000000E-03 0.  1.
         11   -1    0    0    0    0 -0.00000000000E+00 -0.00000000000E+00 -0.45593999997E+02  0.45594000000E+02  0.51100000000E-03 0. -1.
         23    2    1    2    0    0  0.00000000000E+00  0.00000000000E+00  0.99920072216E-15  0.91188000000E+02  0.91188000000E+02 0.  0.
    9900012    2    3    3    0    0 -0.34263454376E+02 -0.13468651840E+02  0.62515814695E+00  0.54367085958E+02  0.40000004058E+02 0.  0.
        -12    1    3    3    0    0  0.34263454376E+02  0.13468651840E+02 -0.62515814695E+00  0.36820914042E+02  0.00000000000E+00 0.  1.
         11    1    4    4    0    0 -0.15672851735E+01 -0.93775175094E+00  0.76905138800E+01  0.79044142832E+01  0.51100000000E-03 0. -1.
        -11    1    4    4    0    0 -0.58797418559E+01 -0.26563073551E+01  0.10929817253E+02  0.12692054148E+02  0.51100000000E-03 0.  1.
         12    1    4    4    0    0 -0.26816427347E+02 -0.98745927341E+01 -0.17995172986E+02  0.33770617526E+02  0.00000000000E+00 0. -1.
</event>
<event>
 8    1  0.2527138E-006  0.9118800E+02  0.7816164E-02  0.1184000E+00
        -11   -1    0    0    0    0  0.00000000000E+00  0.00000000000E+00  0.45593999997E+02  0.45594000000E+02  0.51100000000E-03 0.  1.
         11   -1    0    0    0    0 -0.00000000000E+00 -0.00000000000E+00 -0.45593999997E+02  0.45594000000E+02  0.51100000000E-03 0. -1.
         23    2    1    2    0    0 -0.35527136788E-14  0.17763568394E-14 -0.17763568394E-14  0.91188000000E+02  0.91188000000E+02 0.  0.
    9900012    2    3    3    0    0 -0.31658839723E+02  0.11132563367E+02 -0.15151339911E+02  0.54367092884E+02  0.40000019848E+02 0.  0.
        -12    1    3    3    0    0  0.31658839723E+02 -0.11132563367E+02  0.15151339911E+02  0.36820907116E+02  0.00000000000E+00 0.  1.
         11    1    4    4    0    0 -0.35281084887E+02 -0.76415208842E+00 -0.18109410643E+02  0.39664715218E+02  0.51100000000E-03 0. -1.
        -11    1    4    4    0    0  0.24566329510E+01  0.65074386396E+00  0.22160254999E+01  0.33718366374E+01  0.51100000000E-03 0.  1.
         12    1    4    4    0    0  0.11656122134E+01  0.11245971592E+02  0.74204523181E+00  0.11330541028E+02  0.00000000000E+00 0. -1.
</event>
<event>
 8    1  0.2527138E-006  0.9118800E+02  0.7816164E-02  0.1184000E+00
        -11   -1    0    0    0    0  0.00000000000E+00  0.00000000000E+00  0.45593999997E+02  0.45594000000E+02  0.51100000000E-03 0. -1.
         11   -1    0    0    0    0 -0.00000000000E+00 -0.00000000000E+00 -0.45593999997E+02  0.45594000000E+02  0.51100000000E-03 0.  1.
         23    2    1    2    0    0  0.00000000000E+00 -0.17763568394E-14  0.35527136788E-14  0.91188000000E+02  0.91188000000E+02 0.  0.
    9900012    2    3    3    0    0 -0.26234327376E+02  0.13923919899E+02 -0.21763883377E+02  0.54367053545E+02  0.39999930165E+02 0.  0.
         12    1    3    3    0    0  0.26234327376E+02 -0.13923919899E+02  0.21763883377E+02  0.36820946455E+02  0.00000000000E+00 0. -1.
         11    1    4    4    0    0 -0.35340723349E+01  0.37083063688E+01 -0.79240044823E+01  0.94356266718E+01  0.51100000000E-03 0. -1.
        -11    1    4    4    0    0 -0.79707437195E+01 -0.12920499370E+02 -0.66756172139E+01  0.16584207092E+02  0.51100000000E-03 0.  1.
         12    1    4    4    0    0 -0.14729511322E+02  0.23136112900E+02 -0.71642616807E+01  0.28347219781E+02  0.00000000000E+00 0. -1.
</event>
<event>
 8    1  0.2527138E-006  0.9118800E+02  0.7816164E-02  0.1184000E+00
        -11   -1    0    0    0    0  0.00000000000E+00  0.00000000000E+00  0.45593999997E+02  0.45594000000E+02  0.51100000000E-03 0.  1.
         11   -1    0    0    0    0 -0.00000000000E+00 -0.00000000000E+00 -0.45593999997E+02  0.45594000000E+02  0.51100000000E-03 0. -1.
         23    2    1    2    0    0  0.71054273576E-14 -0.88817841970E-15  0.17763568394E-14  0.91188000000E+02  0.91188000000E+02 0.  0.
    9900012    2    3    3    0    0  0.35161880015E+02 -0.72574465101E+01  0.81701032843E+01  0.54367096647E+02  0.40000028427E+02 0.  0.
         12    1    3    3    0    0 -0.35161880015E+02  0.72574465101E+01 -0.81701032843E+01  0.36820903353E+02  0.00000000000E+00 0. -1.
         11    1    4    4    0    0 -0.14416684614E+01 -0.54193034060E+01 -0.74310741327E+01  0.93095714394E+01  0.51100000000E-03 0. -1.
        -11    1    4    4    0    0  0.33192850376E+02  0.44338212251E+01  0.76095868115E+01  0.34341372984E+02  0.51100000000E-03 0.  1.
        -12    1    4    4    0    0  0.34106981003E+01 -0.62719643292E+01  0.79915906055E+01  0.10716152224E+02  0.00000000000E+00 0.  1.
</event>
<event>
 8    1  0.2527138E-006  0.9118800E+02  0.7816164E-02  0.1184000E+00
        -11   -1    0    0    0    0  0.00000000000E+00  0.00000000000E+00  0.45593999997E+02  0.45594000000E+02  0.51100000000E-03 0. -1.
         11   -1    0    0    0    0 -0.00000000000E+00 -0.00000000000E+00 -0.45593999997E+02  0.45594000000E+02  0.51100000000E-03 0.  1.
         23    2    1    2    0    0  0.35527136788E-14  0.00000000000E+00 -0.17763568394E-14  0.91188000000E+02  0.91188000000E+02 0.  0.
    9900012    2    3    3    0    0 -0.21188919882E+02 -0.26060458438E+02 -0.15088507088E+02  0.54367070273E+02  0.39999968302E+02 0.  0.
        -12    1    3    3    0    0  0.21188919882E+02  0.26060458438E+02  0.15088507088E+02  0.36820929727E+02  0.00000000000E+00 0.  1.
         11    1    4    4    0    0 -0.54713129692E+01 -0.32642587714E+01  0.72372433503E+01  0.96420092567E+01  0.51100000000E-03 0. -1.
        -11    1    4    4    0    0  0.42081389743E+01 -0.16704087544E+02 -0.14330355114E+02  0.22407455283E+02  0.51100000000E-03 0.  1.
         12    1    4    4    0    0 -0.19925745887E+02 -0.60921121226E+01 -0.79953953238E+01  0.22317605733E+02  0.00000000000E+00 0. -1.
</event>
<event>
 8    1  0.2527138E-006  0.9118800E+02  0.7816164E-02  0.1184000E+00
        -11   -1    0    0    0    0  0.00000000000E+00  0.00000000000E+00  0.45593999997E+02  0.45594000000E+02  0.51100000000E-03 0. -1.
         11   -1    0    0    0    0 -0.00000000000E+00 -0.00000000000E+00 -0.45593999997E+02  0.45594000000E+02  0.51100000000E-03 0.  1.
         23    2    1    2    0    0  0.00000000000E+00  0.00000000000E+00  0.00000000000E+00  0.91188000000E+02  0.91188000000E+02 0.  0.
    9900012    2    3    3    0    0  0.19173285231E+02 -0.13075882452E+02  0.28586467501E+02  0.54367086205E+02  0.40000004622E+02 0.  0.
        -12    1    3    3    0    0 -0.19173285231E+02  0.13075882452E+02 -0.28586467501E+02  0.36820913795E+02  0.00000000000E+00 0.  1.
         11    1    4    4    0    0  0.39958670871E+01 -0.10144867316E+02  0.11969338416E+02  0.16191057687E+02  0.51100000000E-03 0. -1.
        -11    1    4    4    0    0  0.13276470627E+02 -0.92163755768E+01 -0.39066785578E+01  0.16627338593E+02  0.51100000000E-03 0.  1.
        -12    1    4    4    0    0  0.19009475178E+01  0.62853604407E+01  0.20523807643E+02  0.21548689926E+02  0.00000000000E+00 0.  1.
</event>
<event>
 8    1  0.2527138E-006  0.9118800E+02  0.7816164E-02  0.1184000E+00
        -11   -1    0    0    0    0  0.00000000000E+00  0.00000000000E+00  0.45593999997E+02  0.45594000000E+02  0.51100000000E-03 0. -1.
         11   -1    0    0    0    0 -0.00000000000E+00 -0.00000000000E+00 -0.45593999997E+02  0.45594000000E+02  0.51100000000E-03 0.  1.
         23    2    1    2    0    0  0.00000000000E+00 -0.17763568394E-14 -0.35527136788E-14  0.91188000000E+02  0.91188000000E+02 0.  0.
    9900012    2    3    3    0    0 -0.17233960736E+02 -0.13045035807E+02 -0.29809362956E+02  0.54367075491E+02  0.39999980197E+02 0.  0.
         12    1    3    3    0    0  0.17233960736E+02  0.13045035807E+02  0.29809362956E+02  0.36820924509E+02  0.00000000000E+00 0. -1.
         11    1    4    4    0    0 -0.39930043402E+01  0.37869343401E+01  0.41215785398E+01  0.68754901846E+01  0.51100000000E-03 0. -1.
        -11    1    4    4    0    0 -0.79822321189E+01 -0.92546316422E+01 -0.36018050614E+02  0.38035039198E+02  0.51100000000E-03 0.  1.
        -12    1    4    4    0    0 -0.52587242768E+01 -0.75773385050E+01  0.20871091188E+01  0.94565461090E+01  0.00000000000E+00 0.  1.
</event>
<event>
 8    1  0.2527138E-006  0.9118800E+02  0.7816164E-02  0.1184000E+00
        -11   -1    0    0    0    0  0.00000000000E+00  0.00000000000E+00  0.45593999997E+02  0.45594000000E+02  0.51100000000E-03 0.  1.
         11   -1    0    0    0    0 -0.00000000000E+00 -0.00000000000E+00 -0.45593999997E+02  0.45594000000E+02  0.51100000000E-03 0. -1.
         23    2    1    2    0    0  0.00000000000E+00  0.00000000000E+00  0.00000000000E+00  0.91188000000E+02  0.91188000000E+02 0.  0.
    9900012    2    3    3    0    0 -0.91706187718E+01 -0.37976810009E+01 -0.35457814547E+02  0.54367092323E+02  0.40000018570E+02 0.  0.
        -12    1    3    3    0    0  0.91706187718E+01  0.37976810009E+01  0.35457814547E+02  0.36820907677E+02  0.00000000000E+00 0.  1.
         11    1    4    4    0    0 -0.43969323322E+01 -0.56924807496E+01  0.29179854179E+01  0.77622155457E+01  0.51100000000E-03 0. -1.
        -11    1    4    4    0    0 -0.27792368540E+00  0.86079559495E+00 -0.41190770893E+02  0.41200701664E+02  0.51100000000E-03 0.  1.
        -12    1    4    4    0    0 -0.44957627542E+01  0.10340041537E+01  0.28149709275E+01  0.54041751133E+01  0.00000000000E+00 0.  1.
</event>
<event>
 8    1  0.2527138E-006  0.9118800E+02  0.7816164E-02  0.1184000E+00
        -11   -1    0    0    0    0  0.00000000000E+00  0.00000000000E+00  0.45593999997E+02  0.45594000000E+02  0.51100000000E-03 0.  1.
         11   -1    0    0    0    0 -0.00000000000E+00 -0.00000000000E+00 -0.45593999997E+02  0.45594000000E+02  0.51100000000E-03 0. -1.
         23    2    1    2    0    0 -0.35527136788E-14  0.71054273576E-14  0.00000000000E+00  0.91188000000E+02  0.91188000000E+02 0.  0.
    9900012    2    3    3    0    0  0.27015754037E+02  0.21304490490E+02 -0.13116781308E+02  0.54367051708E+02  0.39999925978E+02 0.  0.
        -12    1    3    3    0    0 -0.27015754037E+02 -0.21304490490E+02  0.13116781308E+02  0.36820948292E+02  0.00000000000E+00 0.  1.
         11    1    4    4    0    0 -0.33310827930E+01  0.20090605134E+02 -0.28253184200E+01  0.20559935595E+02  0.51100000000E-03 0. -1.
        -11    1    4    4    0    0  0.49143746443E+01  0.41053785920E+01 -0.36189204563E+01  0.73553923796E+01  0.51100000000E-03 0.  1.
        -12    1    4    4    0    0  0.25432462186E+02 -0.28914932358E+01 -0.66725424321E+01  0.26451723733E+02  0.00000000000E+00 0.  1.
</event>
<event>
 8    1  0.2527138E-006  0.9118800E+02  0.7816164E-02  0.1184000E+00
        -11   -1    0    0    0    0  0.00000000000E+00  0.00000000000E+00  0.45593999997E+02  0.45594000000E+02  0.51100000000E-03 0.  1.
         11   -1    0    0    0    0 -0.00000000000E+00 -0.00000000000E+00 -0.45593999997E+02  0.45594000000E+02  0.51100000000E-03 0. -1.
         23    2    1    2    0    0  0.35527136788E-14  0.00000000000E+00  0.35527136788E-14  0.91188000000E+02  0.91188000000E+02 0.  0.
    9900012    2    3    3    0    0  0.24503711244E+02 -0.92858481787E+01  0.25867329916E+02  0.54367114647E+02  0.40000069462E+02 0.  0.
         12    1    3    3    0    0 -0.24503711244E+02  0.92858481787E+01 -0.25867329916E+02  0.36820885353E+02  0.00000000000E+00 0. -1.
         11    1    4    4    0    0 -0.60582362183E+01  0.91003631085E+00  0.45307591636E+01  0.76195912635E+01  0.51100000000E-03 0.  1.
        -11    1    4    4    0    0 -0.28899862743E+01 -0.34145260221E+01 -0.24917388764E+01  0.51205245347E+01  0.51100000000E-03 0. -1.
        -12    1    4    4    0    0  0.33451933737E+02 -0.67813584675E+01  0.23828309629E+02  0.41626998849E+02  0.00000000000E+00 0.  1.
</event>
<event>
 8    1  0.2527138E-006  0.9118800E+02  0.7816164E-02  0.1184000E+00
        -11   -1    0    0    0    0  0.00000000000E+00  0.00000000000E+00  0.45593999997E+02  0.45594000000E+02  0.51100000000E-03 0.  1.
         11   -1    0    0    0    0 -0.00000000000E+00 -0.00000000000E+00 -0.45593999997E+02  0.45594000000E+02  0.51100000000E-03 0. -1.
         23    2    1    2    0    0  0.00000000000E+00  0.66613381478E-15  0.00000000000E+00  0.91188000000E+02  0.91188000000E+02 0.  0.
    9900012    2    3    3    0    0 -0.14437968133E+02  0.13829425591E+01 -0.33843979567E+02  0.54367049349E+02  0.39999920600E+02 0.  0.
        -12    1    3    3    0    0  0.14437968133E+02 -0.13829425591E+01  0.33843979567E+02  0.36820950651E+02  0.00000000000E+00 0.  1.
         11    1    4    4    0    0 -0.17716932036E+02 -0.62662698411E+01 -0.22620407740E+02  0.29408139436E+02  0.51100000000E-03 0. -1.
        -11    1    4    4    0    0 -0.25240619963E+01  0.13306867093E+02 -0.98300659213E+01  0.16735405495E+02  0.51100000000E-03 0.  1.
        -12    1    4    4    0    0  0.58030258993E+01 -0.56576546927E+01 -0.13935059058E+01  0.82235044185E+01  0.00000000000E+00 0.  1.
</event>
<event>
 8    1  0.2527138E-006  0.9118800E+02  0.7816164E-02  0.1184000E+00
        -11   -1    0    0    0    0  0.00000000000E+00  0.00000000000E+00  0.45593999997E+02  0.45594000000E+02  0.51100000000E-03 0.  1.
         11   -1    0    0    0    0 -0.00000000000E+00 -0.00000000000E+00 -0.45593999997E+02  0.45594000000E+02  0.51100000000E-03 0. -1.
         23    2    1    2    0    0  0.00000000000E+00  0.00000000000E+00  0.26645352591E-14  0.91188000000E+02  0.91188000000E+02 0.  0.
    9900012    2    3    3    0    0 -0.27836298006E+02 -0.22912246909E+02  0.74799538228E+01  0.54367078579E+02  0.39999987237E+02 0.  0.
         12    1    3    3    0    0  0.27836298006E+02  0.22912246909E+02 -0.74799538228E+01  0.36820921421E+02  0.00000000000E+00 0. -1.
         11    1    4    4    0    0  0.17280786507E+01  0.22104503072E+01  0.14369719498E+01  0.31523380259E+01  0.51100000000E-03 0. -1.
        -11    1    4    4    0    0 -0.39702076559E+01 -0.20240170827E+02 -0.73778612180E+01  0.21905704744E+02  0.51100000000E-03 0.  1.
        -12    1    4    4    0    0 -0.25594169001E+02 -0.48825263893E+01  0.13420843091E+02  0.29309035809E+02  0.00000000000E+00 0.  1.
</event>
<event>
 8    1  0.2527138E-006  0.9118800E+02  0.7816164E-02  0.1184000E+00
        -11   -1    0    0    0    0  0.00000000000E+00  0.00000000000E+00  0.45593999997E+02  0.45594000000E+02  0.51100000000E-03 0.  1.
         11   -1    0    0    0    0 -0.00000000000E+00 -0.00000000000E+00 -0.45593999997E+02  0.45594000000E+02  0.51100000000E-03 0. -1.
         23    2    1    2    0    0 -0.17763568394E-14  0.00000000000E+00  0.00000000000E+00  0.91188000000E+02  0.91188000000E+02 0.  0.
    9900012    2    3    3    0    0  0.14797535019E+02 -0.18224424000E+02  0.28366930857E+02  0.54367089650E+02  0.40000012475E+02 0.  0.
         12    1    3    3    0    0 -0.14797535019E+02  0.18224424000E+02 -0.28366930857E+02  0.36820910350E+02  0.00000000000E+00 0. -1.
         11    1    4    4    0    0  0.70909109232E+01 -0.13133596770E+02  0.23492560039E+02  0.27832943777E+02  0.51100000000E-03 0. -1.
        -11    1    4    4    0    0  0.15893529338E+02  0.59175761308E+00  0.46323001529E+01  0.16565405424E+02  0.51100000000E-03 0.  1.
         12    1    4    4    0    0 -0.81869052416E+01 -0.56825848430E+01  0.24207066422E+00  0.99687404490E+01  0.00000000000E+00 0. -1.
</event>
<event>
 8    1  0.2527138E-006  0.9118800E+02  0.7816164E-02  0.1184000E+00
        -11   -1    0    0    0    0  0.00000000000E+00  0.00000000000E+00  0.45593999997E+02  0.45594000000E+02  0.51100000000E-03 0.  1.
         11   -1    0    0    0    0 -0.00000000000E+00 -0.00000000000E+00 -0.45593999997E+02  0.45594000000E+02  0.51100000000E-03 0. -1.
         23    2    1    2    0    0 -0.88817841970E-15 -0.71054273576E-14  0.00000000000E+00  0.91188000000E+02  0.91188000000E+02 0.  0.
    9900012    2    3    3    0    0 -0.54740495080E+01 -0.35128727569E+02 -0.95805638831E+01  0.54367083078E+02  0.39999997493E+02 0.  0.
        -12    1    3    3    0    0  0.54740495080E+01  0.35128727569E+02  0.95805638831E+01  0.36820916922E+02  0.00000000000E+00 0.  1.
         11    1    4    4    0    0 -0.83606967506E+01 -0.63514190495E+01 -0.12040755224E+02  0.15975655252E+02  0.51100000000E-03 0. -1.
        -11    1    4    4    0    0  0.10259039995E+01 -0.62725348139E+01 -0.10559931917E+02  0.12325150481E+02  0.51100000000E-03 0.  1.
        -12    1    4    4    0    0  0.18607432430E+01 -0.22504773706E+02  0.13020123259E+02  0.26066277345E+02  0.00000000000E+00 0.  1.
</event>
<event>
 8    1  0.2527138E-006  0.9118800E+02  0.7816164E-02  0.1184000E+00
        -11   -1    0    0    0    0  0.00000000000E+00  0.00000000000E+00  0.45593999997E+02  0.45594000000E+02  0.51100000000E-03 0. -1.
         11   -1    0    0    0    0 -0.00000000000E+00 -0.00000000000E+00 -0.45593999997E+02  0.45594000000E+02  0.51100000000E-03 0.  1.
         23    2    1    2    0    0  0.00000000000E+00  0.00000000000E+00  0.35527136788E-14  0.91188000000E+02  0.91188000000E+02 0.  0.
    9900012    2    3    3    0    0  0.47354765646E+01 -0.22522605121E+02 -0.28741732092E+02  0.54367086875E+02  0.40000006149E+02 0.  0.
         12    1    3    3    0    0 -0.47354765646E+01  0.22522605121E+02  0.28741732092E+02  0.36820913125E+02  0.00000000000E+00 0. -1.
         11    1    4    4    0    0  0.12211537537E+02 -0.58013585634E+01 -0.16730338499E+02  0.21510035721E+02  0.51100000000E-03 0. -1.
        -11    1    4    4    0    0 -0.99646583901E+01 -0.13362953220E+02 -0.18649028260E+02  0.25012980448E+02  0.51100000000E-03 0.  1.
         12    1    4    4    0    0  0.24885974182E+01 -0.33582933379E+01  0.66376346674E+01  0.78440707054E+01  0.00000000000E+00 0. -1.
</event>
<event>
 8    1  0.2527138E-006  0.9118800E+02  0.7816164E-02  0.1184000E+00
        -11   -1    0    0    0    0  0.00000000000E+00  0.00000000000E+00  0.45593999997E+02  0.45594000000E+02  0.51100000000E-03 0.  1.
         11   -1    0    0    0    0 -0.00000000000E+00 -0.00000000000E+00 -0.45593999997E+02  0.45594000000E+02  0.51100000000E-03 0. -1.
         23    2    1    2    0    0  0.00000000000E+00  0.00000000000E+00  0.00000000000E+00  0.91188000000E+02  0.91188000000E+02 0.  0.
    9900012    2    3    3    0    0 -0.88499603686E+01 -0.31026464848E+02  0.17743076718E+02  0.54367080798E+02  0.39999992294E+02 0.  0.
         12    1    3    3    0    0  0.88499603686E+01  0.31026464848E+02 -0.17743076718E+02  0.36820919202E+02  0.00000000000E+00 0. -1.
         11    1    4    4    0    0  0.51399487445E+01 -0.14537969132E+02  0.12817586421E+01  0.15473025724E+02  0.51100000000E-03 0. -1.
        -11    1    4    4    0    0 -0.15625791038E+02 -0.23290075021E+02  0.11473215676E+02  0.30302270843E+02  0.51100000000E-03 0.  1.
         12    1    4    4    0    0  0.16358819254E+01  0.68015793045E+01  0.49881023999E+01  0.85917842304E+01  0.00000000000E+00 0. -1.
</event>
<event>
 8    1  0.2527138E-006  0.9118800E+02  0.7816164E-02  0.1184000E+00
        -11   -1    0    0    0    0  0.00000000000E+00  0.00000000000E+00  0.45593999997E+02  0.45594000000E+02  0.51100000000E-03 0.  1.
         11   -1    0    0    0    0 -0.00000000000E+00 -0.00000000000E+00 -0.45593999997E+02  0.45594000000E+02  0.51100000000E-03 0. -1.
         23    2    1    2    0    0 -0.17763568394E-14 -0.17763568394E-14  0.71054273576E-14  0.91188000000E+02  0.91188000000E+02 0.  0.
    9900012    2    3    3    0    0  0.10318058984E+02  0.11936752265E+02  0.33269080300E+02  0.54367080677E+02  0.39999992019E+02 0.  0.
         12    1    3    3    0    0 -0.10318058984E+02 -0.11936752265E+02 -0.33269080300E+02  0.36820919323E+02  0.00000000000E+00 0. -1.
         11    1    4    4    0    0  0.85689200765E-01  0.15525682262E+01 -0.20904736184E+01  0.26053581225E+01  0.51100000000E-03 0. -1.
        -11    1    4    4    0    0  0.30326800531E+00  0.19576397833E+02  0.32484981287E+02  0.37928898390E+02  0.51100000000E-03 0.  1.
         12    1    4    4    0    0  0.99291017782E+01 -0.91922137938E+01  0.28745726309E+01  0.13832824164E+02  0.00000000000E+00 0. -1.
</event>
<event>
 8    1  0.2527138E-006  0.9118800E+02  0.7816164E-02  0.1184000E+00
        -11   -1    0    0    0    0  0.00000000000E+00  0.00000000000E+00  0.45593999997E+02  0.45594000000E+02  0.51100000000E-03 0. -1.
         11   -1    0    0    0    0 -0.00000000000E+00 -0.00000000000E+00 -0.45593999997E+02  0.45594000000E+02  0.51100000000E-03 0.  1.
         23    2    1    2    0    0  0.00000000000E+00 -0.17763568394E-14  0.35527136788E-14  0.91188000000E+02  0.91188000000E+02 0.  0.
    9900012    2    3    3    0    0  0.26115061382E+02  0.84589776718E+01  0.24540333977E+02  0.54367099333E+02  0.40000034549E+02 0.  0.
        -12    1    3    3    0    0 -0.26115061382E+02 -0.84589776718E+01 -0.24540333977E+02  0.36820900667E+02  0.00000000000E+00 0.  1.
         11    1    4    4    0    0  0.26175550164E+02  0.11260461068E+02  0.14484798070E+02  0.31965086973E+02  0.51100000000E-03 0. -1.
        -11    1    4    4    0    0 -0.25246993784E+01  0.43479398117E+01 -0.40109323502E+01  0.64316612269E+01  0.51100000000E-03 0.  1.
        -12    1    4    4    0    0  0.24642105970E+01 -0.71494232076E+01  0.14066468257E+02  0.15970351133E+02  0.00000000000E+00 0.  1.
</event>
<event>
 8    1  0.2527138E-006  0.9118800E+02  0.7816164E-02  0.1184000E+00
        -11   -1    0    0    0    0  0.00000000000E+00  0.00000000000E+00  0.45593999997E+02  0.45594000000E+02  0.51100000000E-03 0.  1.
         11   -1    0    0    0    0 -0.00000000000E+00 -0.00000000000E+00 -0.45593999997E+02  0.45594000000E+02  0.51100000000E-03 0. -1.
         23    2    1    2    0    0  0.71054273576E-14  0.00000000000E+00  0.44408920985E-15  0.91188000000E+02  0.91188000000E+02 0.  0.
    9900012    2    3    3    0    0 -0.36660166132E+02  0.90444479977E+00 -0.33156469232E+01  0.54367091323E+02  0.40000016290E+02 0.  0.
        -12    1    3    3    0    0  0.36660166132E+02 -0.90444479977E+00  0.33156469232E+01  0.36820908677E+02  0.00000000000E+00 0.  1.
         11    1    4    4    0    0  0.18350557016E+01  0.11682568125E+01  0.53577400158E+01  0.57825281449E+01  0.51100000000E-03 0. -1.
        -11    1    4    4    0    0 -0.12070867439E+02 -0.11045303571E+02  0.47625947162E+01  0.17040741779E+02  0.51100000000E-03 0.  1.
         12    1    4    4    0    0 -0.26424354395E+02  0.10781491558E+02 -0.13435981655E+02  0.31543821399E+02  0.00000000000E+00 0. -1.
</event>
<event>
 8    1  0.2527138E-006  0.9118800E+02  0.7816164E-02  0.1184000E+00
        -11   -1    0    0    0    0  0.00000000000E+00  0.00000000000E+00  0.45593999997E+02  0.45594000000E+02  0.51100000000E-03 0. -1.
         11   -1    0    0    0    0 -0.00000000000E+00 -0.00000000000E+00 -0.45593999997E+02  0.45594000000E+02  0.51100000000E-03 0.  1.
         23    2    1    2    0    0  0.35527136788E-14  0.35527136788E-14  0.17763568394E-14  0.91188000000E+02  0.91188000000E+02 0.  0.
    9900012    2    3    3    0    0  0.30449910119E+02 -0.20225876455E+02  0.44154800533E+01  0.54367087889E+02  0.40000008460E+02 0.  0.
         12    1    3    3    0    0 -0.30449910119E+02  0.20225876455E+02 -0.44154800533E+01  0.36820912111E+02  0.00000000000E+00 0. -1.
         11    1    4    4    0    0  0.10964612330E+02  0.12633787177E+01  0.26047358672E+01  0.11340348254E+02  0.51100000000E-03 0. -1.
        -11    1    4    4    0    0  0.81679661839E+01  0.42375052346E+01 -0.90395559351E+01  0.12899057871E+02  0.51100000000E-03 0.  1.
         12    1    4    4    0    0  0.11317331605E+02 -0.25726760407E+02  0.10850300121E+02  0.30127681763E+02  0.00000000000E+00 0. -1.
</event>
<event>
 8    1  0.2527138E-006  0.9118800E+02  0.7816164E-02  0.1184000E+00
        -11   -1    0    0    0    0  0.00000000000E+00  0.00000000000E+00  0.45593999997E+02  0.45594000000E+02  0.51100000000E-03 0. -1.
         11   -1    0    0    0    0 -0.00000000000E+00 -0.00000000000E+00 -0.45593999997E+02  0.45594000000E+02  0.51100000000E-03 0.  1.
         23    2    1    2    0    0  0.00000000000E+00  0.00000000000E+00  0.35527136788E-14  0.91188000000E+02  0.91188000000E+02 0.  0.
    9900012    2    3    3    0    0  0.24495827827E+02  0.42975599176E+01 -0.27152614023E+02  0.54367094927E+02  0.40000024505E+02 0.  0.
         12    1    3    3    0    0 -0.24495827827E+02 -0.42975599176E+01  0.27152614023E+02  0.36820905073E+02  0.00000000000E+00 0. -1.
         11    1    4    4    0    0  0.90974615301E+01  0.50113582069E+01 -0.36180289207E+01  0.10998529488E+02  0.51100000000E-03 0. -1.
        -11    1    4    4    0    0  0.16968763995E+02 -0.66370952338E+01  0.83560424590E+00  0.18239742854E+02  0.51100000000E-03 0.  1.
         12    1    4    4    0    0 -0.15703976990E+01  0.59232969445E+01 -0.24370189348E+02  0.25128822584E+02  0.00000000000E+00 0. -1.
</event>
<event>
 8    1  0.2527138E-006  0.9118800E+02  0.7816164E-02  0.1184000E+00
        -11   -1    0    0    0    0  0.00000000000E+00  0.00000000000E+00  0.45593999997E+02  0.45594000000E+02  0.51100000000E-03 0. -1.
         11   -1    0    0    0    0 -0.00000000000E+00 -0.00000000000E+00 -0.45593999997E+02  0.45594000000E+02  0.51100000000E-03 0.  1.
         23    2    1    2    0    0  0.00000000000E+00 -0.35527136788E-14  0.00000000000E+00  0.91188000000E+02  0.91188000000E+02 0.  0.
    9900012    2    3    3    0    0 -0.17170253651E+02  0.30464545436E+02  0.11527076835E+02  0.54367086928E+02  0.40000006270E+02 0.  0.
        -12    1    3    3    0    0  0.17170253651E+02 -0.30464545436E+02 -0.11527076835E+02  0.36820913072E+02  0.00000000000E+00 0.  1.
         11    1    4    4    0    0 -0.28661142827E+01  0.61192830105E+01  0.16557346609E+02  0.17883119488E+02  0.51100000000E-03 0. -1.
        -11    1    4    4    0    0  0.28978492683E+01  0.50740045074E+01  0.60184252126E+01  0.83883546911E+01  0.51100000000E-03 0.  1.
        -12    1    4    4    0    0 -0.17201988637E+02  0.19271257918E+02 -0.11048694986E+02  0.28095612749E+02  0.00000000000E+00 0.  1.
</event>
<event>
 8    1  0.2527138E-006  0.9118800E+02  0.7816164E-02  0.1184000E+00
        -11   -1    0    0    0    0  0.00000000000E+00  0.00000000000E+00  0.45593999997E+02  0.45594000000E+02  0.51100000000E-03 0. -1.
         11   -1    0    0    0    0 -0.00000000000E+00 -0.00000000000E+00 -0.45593999997E+02  0.45594000000E+02  0.51100000000E-03 0.  1.
         23    2    1    2    0    0  0.00000000000E+00  0.35527136788E-14 -0.35527136788E-14  0.91188000000E+02  0.91188000000E+02 0.  0.
    9900012    2    3    3    0    0  0.17561502419E+02  0.30253969128E+02 -0.11492177035E+02  0.54367093598E+02  0.40000021476E+02 0.  0.
         12    1    3    3    0    0 -0.17561502419E+02 -0.30253969128E+02  0.11492177035E+02  0.36820906402E+02  0.00000000000E+00 0. -1.
         11    1    4    4    0    0  0.11894027567E+02  0.13095111311E+02 -0.19238782530E+01  0.17794694147E+02  0.51100000000E-03 0. -1.
        -11    1    4    4    0    0  0.57254410222E+01 -0.12427536628E+01 -0.16031620814E+02  0.17068625538E+02  0.51100000000E-03 0.  1.
         12    1    4    4    0    0 -0.57966169848E-01  0.18401611480E+02  0.64633220324E+01  0.19503773913E+02  0.00000000000E+00 0. -1.
</event>
<event>
 8    1  0.2527138E-006  0.9118800E+02  0.7816164E-02  0.1184000E+00
        -11   -1    0    0    0    0  0.00000000000E+00  0.00000000000E+00  0.45593999997E+02  0.45594000000E+02  0.51100000000E-03 0. -1.
         11   -1    0    0    0    0 -0.00000000000E+00 -0.00000000000E+00 -0.45593999997E+02  0.45594000000E+02  0.51100000000E-03 0.  1.
         23    2    1    2    0    0  0.88817841970E-15 -0.88817841970E-15  0.00000000000E+00  0.91188000000E+02  0.91188000000E+02 0.  0.
    9900012    2    3    3    0    0 -0.42284595817E+01 -0.69797883739E+01  0.35905167796E+02  0.54367103886E+02  0.40000044929E+02 0.  0.
        -12    1    3    3    0    0  0.42284595817E+01  0.69797883739E+01 -0.35905167796E+02  0.36820896114E+02  0.00000000000E+00 0.  1.
         11    1    4    4    0    0  0.12735653421E+02  0.23086542688E+01  0.22891388626E+02  0.26297194263E+02  0.51100000000E-03 0. -1.
        -11    1    4    4    0    0 -0.12281664256E+01  0.61916267713E+00 -0.31464193781E+01  0.34339059909E+01  0.51100000000E-03 0.  1.
         12    1    4    4    0    0 -0.15735946577E+02 -0.99076053199E+01  0.16160198548E+02  0.24636003632E+02  0.00000000000E+00 0. -1.
</event>
<event>
 8    1  0.2527138E-006  0.9118800E+02  0.7816164E-02  0.1184000E+00
        -11   -1    0    0    0    0  0.00000000000E+00  0.00000000000E+00  0.45593999997E+02  0.45594000000E+02  0.51100000000E-03 0.  1.
         11   -1    0    0    0    0 -0.00000000000E+00 -0.00000000000E+00 -0.45593999997E+02  0.45594000000E+02  0.51100000000E-03 0. -1.
         23    2    1    2    0    0 -0.71054273576E-14  0.00000000000E+00  0.35527136788E-14  0.91188000000E+02  0.91188000000E+02 0.  0.
    9900012    2    3    3    0    0 -0.30298194309E+02 -0.15500526423E+02  0.14054652618E+02  0.54367079887E+02  0.39999990218E+02 0.  0.
        -12    1    3    3    0    0  0.30298194309E+02  0.15500526423E+02 -0.14054652618E+02  0.36820920113E+02  0.00000000000E+00 0.  1.
         11    1    4    4    0    0 -0.13226168676E+01  0.10876506395E-01 -0.73622222960E+01  0.74800903119E+01  0.51100000000E-03 0. -1.
        -11    1    4    4    0    0 -0.31390138044E+02 -0.95807740877E+01  0.10915390660E+02  0.34587248403E+02  0.51100000000E-03 0.  1.
         12    1    4    4    0    0  0.24145606029E+01 -0.59306288415E+01  0.10501484254E+02  0.12299741172E+02  0.00000000000E+00 0. -1.
</event>
<event>
 8    1  0.2527138E-006  0.9118800E+02  0.7816164E-02  0.1184000E+00
        -11   -1    0    0    0    0  0.00000000000E+00  0.00000000000E+00  0.45593999997E+02  0.45594000000E+02  0.51100000000E-03 0.  1.
         11   -1    0    0    0    0 -0.00000000000E+00 -0.00000000000E+00 -0.45593999997E+02  0.45594000000E+02  0.51100000000E-03 0. -1.
         23    2    1    2    0    0  0.00000000000E+00  0.00000000000E+00  0.88817841970E-15  0.91188000000E+02  0.91188000000E+02 0.  0.
    9900012    2    3    3    0    0  0.35369976296E+02 -0.85528753185E+01 -0.56207652465E+01  0.54367083372E+02  0.39999998162E+02 0.  0.
         12    1    3    3    0    0 -0.35369976296E+02  0.85528753185E+01  0.56207652465E+01  0.36820916628E+02  0.00000000000E+00 0. -1.
         11    1    4    4    0    0  0.53640245070E+01  0.75990949987E+00  0.12197545510E+02  0.13346547796E+02  0.51100000000E-03 0.  1.
        -11    1    4    4    0    0  0.78370267228E-01  0.24114690704E+01 -0.65172898199E+01  0.69495605497E+01  0.51100000000E-03 0. -1.
        -12    1    4    4    0    0  0.29927581522E+02 -0.11724253889E+02 -0.11301020936E+02  0.34070975026E+02  0.00000000000E+00 0.  1.
</event>
<event>
 8    1  0.2527138E-006  0.9118800E+02  0.7816164E-02  0.1184000E+00
        -11   -1    0    0    0    0  0.00000000000E+00  0.00000000000E+00  0.45593999997E+02  0.45594000000E+02  0.51100000000E-03 0.  1.
         11   -1    0    0    0    0 -0.00000000000E+00 -0.00000000000E+00 -0.45593999997E+02  0.45594000000E+02  0.51100000000E-03 0. -1.
         23    2    1    2    0    0  0.35527136788E-14  0.00000000000E+00  0.17763568394E-14  0.91188000000E+02  0.91188000000E+02 0.  0.
    9900012    2    3    3    0    0 -0.29025457744E+02  0.18325402692E+02 -0.13322253923E+02  0.54367081616E+02  0.39999994159E+02 0.  0.
        -12    1    3    3    0    0  0.29025457744E+02 -0.18325402692E+02  0.13322253923E+02  0.36820918384E+02  0.00000000000E+00 0.  1.
         11    1    4    4    0    0 -0.30565810156E+02  0.52330667426E+01 -0.11179661694E+02  0.32964201399E+02  0.51100000000E-03 0. -1.
        -11    1    4    4    0    0  0.45045376425E+01  0.17787441308E+01 -0.71865597210E+01  0.86661081773E+01  0.51100000000E-03 0.  1.
        -12    1    4    4    0    0 -0.29641852310E+01  0.11313591819E+02  0.50439674923E+01  0.12736772039E+02  0.00000000000E+00 0.  1.
</event>
<event>
 8    1  0.2527138E-006  0.9118800E+02  0.7816164E-02  0.1184000E+00
        -11   -1    0    0    0    0  0.00000000000E+00  0.00000000000E+00  0.45593999997E+02  0.45594000000E+02  0.51100000000E-03 0. -1.
         11   -1    0    0    0    0 -0.00000000000E+00 -0.00000000000E+00 -0.45593999997E+02  0.45594000000E+02  0.51100000000E-03 0.  1.
         23    2    1    2    0    0  0.17763568394E-14  0.00000000000E+00 -0.35527136788E-14  0.91188000000E+02  0.91188000000E+02 0.  0.
    9900012    2    3    3    0    0  0.11682357876E+02 -0.17123316343E+02 -0.30431796117E+02  0.54367086608E+02  0.40000005540E+02 0.  0.
         12    1    3    3    0    0 -0.11682357876E+02  0.17123316343E+02  0.30431796117E+02  0.36820913392E+02  0.00000000000E+00 0. -1.
         11    1    4    4    0    0  0.77833954477E+00 -0.46298117039E+01  0.58057545847E+01  0.74664419518E+01  0.51100000000E-03 0. -1.
        -11    1    4    4    0    0 -0.55923531285E+01 -0.74548599565E+01 -0.24016635257E+02  0.25761368749E+02  0.51100000000E-03 0.  1.
         12    1    4    4    0    0  0.16496371460E+02 -0.50386446825E+01 -0.12220915445E+02  0.21139275907E+02  0.00000000000E+00 0. -1.
</event>
<event>
 8    1  0.2527138E-006  0.9118800E+02  0.7816164E-02  0.1184000E+00
        -11   -1    0    0    0    0  0.00000000000E+00  0.00000000000E+00  0.45593999997E+02  0.45594000000E+02  0.51100000000E-03 0.  1.
         11   -1    0    0    0    0 -0.00000000000E+00 -0.00000000000E+00 -0.45593999997E+02  0.45594000000E+02  0.51100000000E-03 0. -1.
         23    2    1    2    0    0  0.00000000000E+00  0.15543122345E-14 -0.17763568394E-14  0.91188000000E+02  0.91188000000E+02 0.  0.
    9900012    2    3    3    0    0  0.34925960433E+02  0.11043904469E+01  0.11607624618E+02  0.54367090998E+02  0.40000015548E+02 0.  0.
         12    1    3    3    0    0 -0.34925960433E+02 -0.11043904469E+01 -0.11607624618E+02  0.36820909002E+02  0.00000000000E+00 0. -1.
         11    1    4    4    0    0  0.98922246109E+01  0.15004671648E+02  0.62837471963E+01  0.19038953703E+02  0.51100000000E-03 0. -1.
        -11    1    4    4    0    0  0.23272120916E+02 -0.25194209199E+01  0.35128523803E+01  0.23670218119E+02  0.51100000000E-03 0.  1.
         12    1    4    4    0    0  0.17616149063E+01 -0.11380860281E+02  0.18110250415E+01  0.11657919176E+02  0.00000000000E+00 0. -1.
</event>
<event>
 8    1  0.2527138E-006  0.9118800E+02  0.7816164E-02  0.1184000E+00
        -11   -1    0    0    0    0  0.00000000000E+00  0.00000000000E+00  0.45593999997E+02  0.45594000000E+02  0.51100000000E-03 0.  1.
         11   -1    0    0    0    0 -0.00000000000E+00 -0.00000000000E+00 -0.45593999997E+02  0.45594000000E+02  0.51100000000E-03 0. -1.
         23    2    1    2    0    0  0.00000000000E+00 -0.88817841970E-15  0.35527136788E-14  0.91188000000E+02  0.91188000000E+02 0.  0.
    9900012    2    3    3    0    0 -0.31340947236E+02  0.66059929553E+01 -0.18162411248E+02  0.54367254504E+02  0.40000388290E+02 0.  0.
        -12    1    3    3    0    0  0.31340947236E+02 -0.66059929553E+01  0.18162411248E+02  0.36820745496E+02  0.00000000000E+00 0.  1.
         11    1    4    4    0    0 -0.18376796117E+02  0.15736140331E+02 -0.17284572430E+02  0.29733637389E+02  0.51100000000E-03 0. -1.
        -11    1    4    4    0    0 -0.10060653500E+02 -0.11094597123E+01  0.75615309256E+01  0.12634255020E+02  0.51100000000E-03 0.  1.
        -12    1    4    4    0    0 -0.29034976184E+01 -0.80206876630E+01 -0.84393697435E+01  0.11999362095E+02  0.00000000000E+00 0.  1.
</event>
<event>
 8    1  0.2527138E-006  0.9118800E+02  0.7816164E-02  0.1184000E+00
        -11   -1    0    0    0    0  0.00000000000E+00  0.00000000000E+00  0.45593999997E+02  0.45594000000E+02  0.51100000000E-03 0.  1.
         11   -1    0    0    0    0 -0.00000000000E+00 -0.00000000000E+00 -0.45593999997E+02  0.45594000000E+02  0.51100000000E-03 0. -1.
         23    2    1    2    0    0  0.00000000000E+00 -0.88817841970E-15  0.00000000000E+00  0.91188000000E+02  0.91188000000E+02 0.  0.
    9900012    2    3    3    0    0 -0.13623357605E+02  0.26690625269E+01 -0.34103665308E+02  0.54367085363E+02  0.40000002703E+02 0.  0.
        -12    1    3    3    0    0  0.13623357605E+02 -0.26690625269E+01  0.34103665308E+02  0.36820914637E+02  0.00000000000E+00 0.  1.
         11    1    4    4    0    0  0.23612525965E+01 -0.13752267592E+00 -0.10903212202E+02  0.11156812398E+02  0.51100000000E-03 0. -1.
        -11    1    4    4    0    0 -0.51822457762E+01 -0.10231378642E+02  0.31457263170E+01  0.11892534403E+02  0.51100000000E-03 0.  1.
         12    1    4    4    0    0 -0.10802364425E+02  0.13037963845E+02 -0.26346179424E+02  0.31317738562E+02  0.00000000000E+00 0. -1.
</event>
<event>
 8    1  0.2527138E-006  0.9118800E+02  0.7816164E-02  0.1184000E+00
        -11   -1    0    0    0    0  0.00000000000E+00  0.00000000000E+00  0.45593999997E+02  0.45594000000E+02  0.51100000000E-03 0. -1.
         11   -1    0    0    0    0 -0.00000000000E+00 -0.00000000000E+00 -0.45593999997E+02  0.45594000000E+02  0.51100000000E-03 0.  1.
         23    2    1    2    0    0 -0.35527136788E-14  0.00000000000E+00 -0.35527136788E-14  0.91188000000E+02  0.91188000000E+02 0.  0.
    9900012    2    3    3    0    0  0.19395532998E+02  0.18918735628E+01  0.31241235319E+02  0.54367072933E+02  0.39999974365E+02 0.  0.
        -12    1    3    3    0    0 -0.19395532998E+02 -0.18918735628E+01 -0.31241235319E+02  0.36820927067E+02  0.00000000000E+00 0.  1.
         11    1    4    4    0    0 -0.42590084020E+01  0.65625762268E+01  0.12341788864E+02  0.14612539544E+02  0.51100000000E-03 0. -1.
        -11    1    4    4    0    0 -0.37310003514E+01 -0.27637380922E+01 -0.21932625115E+01  0.51350766859E+01  0.51100000000E-03 0.  1.
        -12    1    4    4    0    0  0.27385541751E+02 -0.19069645718E+01  0.21092708966E+02  0.34619456703E+02  0.00000000000E+00 0.  1.
</event>
<event>
 8    1  0.2527138E-006  0.9118800E+02  0.7816164E-02  0.1184000E+00
        -11   -1    0    0    0    0  0.00000000000E+00  0.00000000000E+00  0.45593999997E+02  0.45594000000E+02  0.51100000000E-03 0. -1.
         11   -1    0    0    0    0 -0.00000000000E+00 -0.00000000000E+00 -0.45593999997E+02  0.45594000000E+02  0.51100000000E-03 0.  1.
         23    2    1    2    0    0  0.17763568394E-14  0.00000000000E+00  0.00000000000E+00  0.91188000000E+02  0.91188000000E+02 0.  0.
    9900012    2    3    3    0    0 -0.76066770924E+01 -0.35425448081E+02 -0.65544941316E+01  0.54367010043E+02  0.39999830995E+02 0.  0.
         12    1    3    3    0    0  0.76066770924E+01  0.35425448081E+02  0.65544941316E+01  0.36820989957E+02  0.00000000000E+00 0. -1.
         11    1    4    4    0    0 -0.56187514440E+01 -0.14280730133E+02  0.12578905860E+02  0.19842844902E+02  0.51100000000E-03 0.  1.
        -11    1    4    4    0    0  0.87128378729E+01 -0.89412434187E+01 -0.76457139094E+01  0.14639546411E+02  0.51100000000E-03 0. -1.
        -12    1    4    4    0    0 -0.10700763521E+02 -0.12203474529E+02 -0.11487686082E+02  0.19884618730E+02  0.00000000000E+00 0.  1.
</event>
<event>
 8    1  0.2527138E-006  0.9118800E+02  0.7816164E-02  0.1184000E+00
        -11   -1    0    0    0    0  0.00000000000E+00  0.00000000000E+00  0.45593999997E+02  0.45594000000E+02  0.51100000000E-03 0.  1.
         11   -1    0    0    0    0 -0.00000000000E+00 -0.00000000000E+00 -0.45593999997E+02  0.45594000000E+02  0.51100000000E-03 0. -1.
         23    2    1    2    0    0  0.00000000000E+00  0.35527136788E-14 -0.13322676296E-14  0.91188000000E+02  0.91188000000E+02 0.  0.
    9900012    2    3    3    0    0 -0.18106028435E+02  0.31821647433E+02 -0.39158459523E+01  0.54367090715E+02  0.40000014903E+02 0.  0.
        -12    1    3    3    0    0  0.18106028435E+02 -0.31821647433E+02  0.39158459523E+01  0.36820909285E+02  0.00000000000E+00 0.  1.
         11    1    4    4    0    0 -0.92478604402E+01  0.56615333651E+01 -0.19188814056E+02  0.22040564147E+02  0.51100000000E-03 0.  1.
        -11    1    4    4    0    0 -0.46441029085E+01  0.16000451898E+02  0.12908413759E+02  0.21076273361E+02  0.51100000000E-03 0. -1.
        -12    1    4    4    0    0 -0.42140650860E+01  0.10159662171E+02  0.23645543449E+01  0.11250253207E+02  0.00000000000E+00 0.  1.
</event>
<event>
 8    1  0.2527138E-006  0.9118800E+02  0.7816164E-02  0.1184000E+00
        -11   -1    0    0    0    0  0.00000000000E+00  0.00000000000E+00  0.45593999997E+02  0.45594000000E+02  0.51100000000E-03 0.  1.
         11   -1    0    0    0    0 -0.00000000000E+00 -0.00000000000E+00 -0.45593999997E+02  0.45594000000E+02  0.51100000000E-03 0. -1.
         23    2    1    2    0    0  0.00000000000E+00  0.00000000000E+00  0.00000000000E+00  0.91188000000E+02  0.91188000000E+02 0.  0.
    9900012    2    3    3    0    0  0.27403688976E+02  0.23507105814E+02 -0.72272237926E+01  0.54367096195E+02  0.40000027396E+02 0.  0.
        -12    1    3    3    0    0 -0.27403688976E+02 -0.23507105814E+02  0.72272237926E+01  0.36820903805E+02  0.00000000000E+00 0.  1.
         11    1    4    4    0    0  0.15572063140E+02  0.29106360996E+02  0.12605947920E+01  0.33034201979E+02  0.51100000000E-03 0. -1.
        -11    1    4    4    0    0  0.13793511555E+02 -0.55761784106E+01 -0.25700347933E+01  0.15098337848E+02  0.51100000000E-03 0.  1.
         12    1    4    4    0    0 -0.19618857185E+01 -0.23076771432E-01 -0.59177837913E+01  0.62345563684E+01  0.00000000000E+00 0. -1.
</event>
<event>
 8    1  0.2527138E-006  0.9118800E+02  0.7816164E-02  0.1184000E+00
        -11   -1    0    0    0    0  0.00000000000E+00  0.00000000000E+00  0.45593999997E+02  0.45594000000E+02  0.51100000000E-03 0. -1.
         11   -1    0    0    0    0 -0.00000000000E+00 -0.00000000000E+00 -0.45593999997E+02  0.45594000000E+02  0.51100000000E-03 0.  1.
         23    2    1    2    0    0  0.35527136788E-14 -0.88817841970E-15  0.35527136788E-14  0.91188000000E+02  0.91188000000E+02 0.  0.
    9900012    2    3    3    0    0  0.30461949400E+02  0.63392780850E+01  0.19689163932E+02  0.54367082246E+02  0.39999995597E+02 0.  0.
        -12    1    3    3    0    0 -0.30461949400E+02 -0.63392780850E+01 -0.19689163932E+02  0.36820917754E+02  0.00000000000E+00 0.  1.
         11    1    4    4    0    0  0.21676142563E+02  0.36475641356E+01  0.18533824962E+02  0.28751739921E+02  0.51100000000E-03 0. -1.
        -11    1    4    4    0    0  0.52760456502E+01  0.79775295467E+01  0.10574631352E+02  0.14258347164E+02  0.51100000000E-03 0.  1.
        -12    1    4    4    0    0  0.35097611866E+01 -0.52858155973E+01 -0.94192923813E+01  0.11356995161E+02  0.00000000000E+00 0.  1.
</event>
<event>
 8    1  0.2527138E-006  0.9118800E+02  0.7816164E-02  0.1184000E+00
        -11   -1    0    0    0    0  0.00000000000E+00  0.00000000000E+00  0.45593999997E+02  0.45594000000E+02  0.51100000000E-03 0. -1.
         11   -1    0    0    0    0 -0.00000000000E+00 -0.00000000000E+00 -0.45593999997E+02  0.45594000000E+02  0.51100000000E-03 0.  1.
         23    2    1    2    0    0  0.00000000000E+00 -0.35527136788E-14  0.00000000000E+00  0.91188000000E+02  0.91188000000E+02 0.  0.
    9900012    2    3    3    0    0  0.21314578801E+02 -0.13596027347E+02 -0.26769692745E+02  0.54367086394E+02  0.40000005053E+02 0.  0.
         12    1    3    3    0    0 -0.21314578801E+02  0.13596027347E+02  0.26769692745E+02  0.36820913606E+02  0.00000000000E+00 0. -1.
         11    1    4    4    0    0  0.60482487709E+01 -0.26453492613E+01 -0.16043560749E+02  0.17348631868E+02  0.51100000000E-03 0.  1.
        -11    1    4    4    0    0  0.20147942426E+02 -0.17891164145E+02 -0.81154821430E+01  0.28140618137E+02  0.51100000000E-03 0. -1.
         12    1    4    4    0    0 -0.48816123956E+01  0.69404860586E+01 -0.26106498529E+01  0.88778363898E+01  0.00000000000E+00 0. -1.
</event>
<event>
 8    1  0.2527138E-006  0.9118800E+02  0.7816164E-02  0.1184000E+00
        -11   -1    0    0    0    0  0.00000000000E+00  0.00000000000E+00  0.45593999997E+02  0.45594000000E+02  0.51100000000E-03 0.  1.
         11   -1    0    0    0    0 -0.00000000000E+00 -0.00000000000E+00 -0.45593999997E+02  0.45594000000E+02  0.51100000000E-03 0. -1.
         23    2    1    2    0    0  0.00000000000E+00  0.00000000000E+00  0.00000000000E+00  0.91188000000E+02  0.91188000000E+02 0.  0.
    9900012    2    3    3    0    0 -0.19362717320E+02 -0.23215843115E+02 -0.21021145593E+02  0.54367098930E+02  0.40000033631E+02 0.  0.
        -12    1    3    3    0    0  0.19362717320E+02  0.23215843115E+02  0.21021145593E+02  0.36820901070E+02  0.00000000000E+00 0.  1.
         11    1    4    4    0    0 -0.12486117189E+02 -0.72077683905E+01 -0.47290073786E+01  0.15172954843E+02  0.51100000000E-03 0. -1.
        -11    1    4    4    0    0 -0.88005948054E+01 -0.15577787971E+02  0.43865217761E+01  0.18421713290E+02  0.51100000000E-03 0.  1.
        -12    1    4    4    0    0  0.19239946741E+01 -0.43028675364E+00 -0.20678659991E+02  0.20772430797E+02  0.00000000000E+00 0.  1.
</event>
<event>
 8    1  0.2527138E-006  0.9118800E+02  0.7816164E-02  0.1184000E+00
        -11   -1    0    0    0    0  0.00000000000E+00  0.00000000000E+00  0.45593999997E+02  0.45594000000E+02  0.51100000000E-03 0. -1.
         11   -1    0    0    0    0 -0.00000000000E+00 -0.00000000000E+00 -0.45593999997E+02  0.45594000000E+02  0.51100000000E-03 0.  1.
         23    2    1    2    0    0  0.00000000000E+00 -0.35527136788E-14  0.00000000000E+00  0.91188000000E+02  0.91188000000E+02 0.  0.
    9900012    2    3    3    0    0  0.24102575450E+02 -0.23296724015E+02 -0.15235279236E+02  0.54367011059E+02  0.39999833311E+02 0.  0.
         12    1    3    3    0    0 -0.24102575450E+02  0.23296724015E+02  0.15235279236E+02  0.36820988941E+02  0.00000000000E+00 0. -1.
         11    1    4    4    0    0 -0.13226156371E+01  0.45624064134E+01 -0.29260787244E+01  0.55791398412E+01  0.51100000000E-03 0. -1.
        -11    1    4    4    0    0  0.31572111038E+02 -0.25617894083E+02 -0.10925877930E+02  0.42100469136E+02  0.51100000000E-03 0.  1.
        -12    1    4    4    0    0 -0.61469199511E+01 -0.22412363459E+01 -0.13833225814E+01  0.66874020821E+01  0.00000000000E+00 0.  1.
</event>
<event>
 8    1  0.2527138E-006  0.9118800E+02  0.7816164E-02  0.1184000E+00
        -11   -1    0    0    0    0  0.00000000000E+00  0.00000000000E+00  0.45593999997E+02  0.45594000000E+02  0.51100000000E-03 0. -1.
         11   -1    0    0    0    0 -0.00000000000E+00 -0.00000000000E+00 -0.45593999997E+02  0.45594000000E+02  0.51100000000E-03 0.  1.
         23    2    1    2    0    0  0.00000000000E+00  0.00000000000E+00 -0.88817841970E-15  0.91188000000E+02  0.91188000000E+02 0.  0.
    9900012    2    3    3    0    0 -0.35356692689E+02 -0.99368716051E+01  0.26348296975E+01  0.54367089328E+02  0.40000011741E+02 0.  0.
         12    1    3    3    0    0  0.35356692689E+02  0.99368716051E+01 -0.26348296975E+01  0.36820910672E+02  0.00000000000E+00 0. -1.
         11    1    4    4    0    0 -0.28546322796E+02 -0.88125262044E+01 -0.45646693990E+01  0.30222332310E+02  0.51100000000E-03 0. -1.
        -11    1    4    4    0    0 -0.41241218470E+01 -0.30675614322E+01 -0.74909972126E+01  0.90847869348E+01  0.51100000000E-03 0.  1.
         12    1    4    4    0    0 -0.26862480461E+01  0.19432160315E+01  0.14690496309E+02  0.15059970084E+02  0.00000000000E+00 0. -1.
</event>
<event>
 8    1  0.2527138E-006  0.9118800E+02  0.7816164E-02  0.1184000E+00
        -11   -1    0    0    0    0  0.00000000000E+00  0.00000000000E+00  0.45593999997E+02  0.45594000000E+02  0.51100000000E-03 0. -1.
         11   -1    0    0    0    0 -0.00000000000E+00 -0.00000000000E+00 -0.45593999997E+02  0.45594000000E+02  0.51100000000E-03 0.  1.
         23    2    1    2    0    0  0.00000000000E+00  0.00000000000E+00 -0.72164496601E-15  0.91188000000E+02  0.91188000000E+02 0.  0.
    9900012    2    3    3    0    0  0.64007698404E+01  0.36260064992E+02 -0.15599941808E+00  0.54366993718E+02  0.39999793779E+02 0.  0.
        -12    1    3    3    0    0 -0.64007698404E+01 -0.36260064992E+02  0.15599941808E+00  0.36821006282E+02  0.00000000000E+00 0.  1.
         11    1    4    4    0    0  0.17026433475E+02  0.17526372300E+02 -0.13367309875E+02  0.27852435018E+02  0.51100000000E-03 0. -1.
        -11    1    4    4    0    0 -0.25507394406E+01  0.41422690227E+01 -0.54661619396E+00  0.48952480912E+01  0.51100000000E-03 0.  1.
         12    1    4    4    0    0 -0.80749241943E+01  0.14591423670E+02  0.13757926651E+02  0.21619310609E+02  0.00000000000E+00 0. -1.
</event>
<event>
 8    1  0.2527138E-006  0.9118800E+02  0.7816164E-02  0.1184000E+00
        -11   -1    0    0    0    0  0.00000000000E+00  0.00000000000E+00  0.45593999997E+02  0.45594000000E+02  0.51100000000E-03 0.  1.
         11   -1    0    0    0    0 -0.00000000000E+00 -0.00000000000E+00 -0.45593999997E+02  0.45594000000E+02  0.51100000000E-03 0. -1.
         23    2    1    2    0    0 -0.88817841970E-15  0.00000000000E+00 -0.35527136788E-14  0.91188000000E+02  0.91188000000E+02 0.  0.
    9900012    2    3    3    0    0  0.78829210978E+01  0.24009247604E+02  0.26780529187E+02  0.54367066292E+02  0.39999959227E+02 0.  0.
         12    1    3    3    0    0 -0.78829210978E+01 -0.24009247604E+02 -0.26780529187E+02  0.36820933708E+02  0.00000000000E+00 0. -1.
         11    1    4    4    0    0 -0.51818264622E+01  0.23910823484E+01  0.21805106830E+02  0.22539549339E+02  0.51100000000E-03 0. -1.
        -11    1    4    4    0    0  0.11612922077E+02  0.45586561780E+01 -0.31632212966E+01  0.12870403045E+02  0.51100000000E-03 0.  1.
        -12    1    4    4    0    0  0.14518254834E+01  0.17059509078E+02  0.81386436539E+01  0.18957113909E+02  0.00000000000E+00 0.  1.
</event>
<event>
 8    1  0.2527138E-006  0.9118800E+02  0.7816164E-02  0.1184000E+00
        -11   -1    0    0    0    0  0.00000000000E+00  0.00000000000E+00  0.45593999997E+02  0.45594000000E+02  0.51100000000E-03 0.  1.
         11   -1    0    0    0    0 -0.00000000000E+00 -0.00000000000E+00 -0.45593999997E+02  0.45594000000E+02  0.51100000000E-03 0. -1.
         23    2    1    2    0    0  0.35527136788E-14  0.00000000000E+00  0.00000000000E+00  0.91188000000E+02  0.91188000000E+02 0.  0.
    9900012    2    3    3    0    0 -0.23917883167E+02 -0.21769842718E+02 -0.17600785890E+02  0.54367097633E+02  0.40000030675E+02 0.  0.
        -12    1    3    3    0    0  0.23917883167E+02  0.21769842718E+02  0.17600785890E+02  0.36820902367E+02  0.00000000000E+00 0.  1.
         11    1    4    4    0    0 -0.23628125732E+01 -0.66771046494E+01  0.37364915662E+01  0.80079947078E+01  0.51100000000E-03 0. -1.
        -11    1    4    4    0    0 -0.23548702557E+02  0.21075688852E-01 -0.51149837236E+01  0.24097819301E+02  0.51100000000E-03 0.  1.
         12    1    4    4    0    0  0.19936319627E+01 -0.15113813757E+02 -0.16222293732E+02  0.22261283625E+02  0.00000000000E+00 0. -1.
</event>
<event>
 8    1  0.2527138E-006  0.9118800E+02  0.7816164E-02  0.1184000E+00
        -11   -1    0    0    0    0  0.00000000000E+00  0.00000000000E+00  0.45593999997E+02  0.45594000000E+02  0.51100000000E-03 0.  1.
         11   -1    0    0    0    0 -0.00000000000E+00 -0.00000000000E+00 -0.45593999997E+02  0.45594000000E+02  0.51100000000E-03 0. -1.
         23    2    1    2    0    0  0.00000000000E+00 -0.35527136788E-14  0.33306690739E-15  0.91188000000E+02  0.91188000000E+02 0.  0.
    9900012    2    3    3    0    0 -0.30661560705E+02  0.20381770642E+02 -0.48284303724E+00  0.54367068225E+02  0.39999963632E+02 0.  0.
         12    1    3    3    0    0  0.30661560705E+02 -0.20381770642E+02  0.48284303724E+00  0.36820931775E+02  0.00000000000E+00 0. -1.
         11    1    4    4    0    0  0.84845702408E+01  0.38547280042E+01 -0.14520978234E+01  0.94316196121E+01  0.51100000000E-03 0. -1.
        -11    1    4    4    0    0 -0.79753083969E+01  0.88903896065E+01 -0.37034448136E+01  0.12504402230E+02  0.51100000000E-03 0.  1.
        -12    1    4    4    0    0 -0.31170822549E+02  0.76366530315E+01  0.46726995998E+01  0.32431046383E+02  0.00000000000E+00 0.  1.
</event>
<event>
 8    1  0.2527138E-006  0.9118800E+02  0.7816164E-02  0.1184000E+00
        -11   -1    0    0    0    0  0.00000000000E+00  0.00000000000E+00  0.45593999997E+02  0.45594000000E+02  0.51100000000E-03 0.  1.
         11   -1    0    0    0    0 -0.00000000000E+00 -0.00000000000E+00 -0.45593999997E+02  0.45594000000E+02  0.51100000000E-03 0. -1.
         23    2    1    2    0    0  0.00000000000E+00  0.44408920985E-15  0.00000000000E+00  0.91188000000E+02  0.91188000000E+02 0.  0.
    9900012    2    3    3    0    0  0.29974137317E+02 -0.13761776349E+01  0.21340971447E+02  0.54367084272E+02  0.40000000214E+02 0.  0.
         12    1    3    3    0    0 -0.29974137317E+02  0.13761776349E+01 -0.21340971447E+02  0.36820915728E+02  0.00000000000E+00 0. -1.
         11    1    4    4    0    0  0.21664650388E+02  0.11365052779E+02  0.22659139188E+01  0.24569409176E+02  0.51100000000E-03 0. -1.
        -11    1    4    4    0    0  0.63934673661E+01 -0.23783464784E+01  0.17946114984E+02  0.19198854138E+02  0.51100000000E-03 0.  1.
        -12    1    4    4    0    0  0.19160195633E+01 -0.10362883935E+02  0.11289425435E+01  0.10598820958E+02  0.00000000000E+00 0.  1.
</event>
<event>
 8    1  0.2527138E-006  0.9118800E+02  0.7816164E-02  0.1184000E+00
        -11   -1    0    0    0    0  0.00000000000E+00  0.00000000000E+00  0.45593999997E+02  0.45594000000E+02  0.51100000000E-03 0.  1.
         11   -1    0    0    0    0 -0.00000000000E+00 -0.00000000000E+00 -0.45593999997E+02  0.45594000000E+02  0.51100000000E-03 0. -1.
         23    2    1    2    0    0  0.00000000000E+00  0.17763568394E-14  0.00000000000E+00  0.91188000000E+02  0.91188000000E+02 0.  0.
    9900012    2    3    3    0    0  0.14081367938E+02 -0.14976580096E+02  0.30548250699E+02  0.54367102467E+02  0.40000041693E+02 0.  0.
         12    1    3    3    0    0 -0.14081367938E+02  0.14976580096E+02 -0.30548250699E+02  0.36820897533E+02  0.00000000000E+00 0. -1.
         11    1    4    4    0    0  0.13611836135E+02  0.15938290936E+01  0.24017741178E+02  0.27652744270E+02  0.51100000000E-03 0.  1.
        -11    1    4    4    0    0  0.21119078139E+01 -0.16974480780E+02  0.12061728485E+02  0.20930323616E+02  0.51100000000E-03 0. -1.
         12    1    4    4    0    0 -0.16423760104E+01  0.40407159004E+00 -0.55312189632E+01  0.57840345805E+01  0.00000000000E+00 0. -1.
</event>
<event>
 8    1  0.2527138E-006  0.9118800E+02  0.7816164E-02  0.1184000E+00
        -11   -1    0    0    0    0  0.00000000000E+00  0.00000000000E+00  0.45593999997E+02  0.45594000000E+02  0.51100000000E-03 0.  1.
         11   -1    0    0    0    0 -0.00000000000E+00 -0.00000000000E+00 -0.45593999997E+02  0.45594000000E+02  0.51100000000E-03 0. -1.
         23    2    1    2    0    0  0.35527136788E-14  0.00000000000E+00  0.35527136788E-14  0.91188000000E+02  0.91188000000E+02 0.  0.
    9900012    2    3    3    0    0 -0.31883764192E+02 -0.15423127717E+01 -0.18352836807E+02  0.54367085202E+02  0.40000002335E+02 0.  0.
         12    1    3    3    0    0  0.31883764192E+02  0.15423127717E+01  0.18352836807E+02  0.36820914798E+02  0.00000000000E+00 0. -1.
         11    1    4    4    0    0 -0.48360835396E+01 -0.76123589763E+01  0.28621837401E+01  0.94619136125E+01  0.51100000000E-03 0. -1.
        -11    1    4    4    0    0 -0.66668749123E+01 -0.12144038545E+01  0.67354633248E+01  0.95544996875E+01  0.51100000000E-03 0.  1.
         12    1    4    4    0    0 -0.20380805740E+02  0.72844500592E+01 -0.27950483872E+02  0.35350671902E+02  0.00000000000E+00 0. -1.
</event>
<event>
 8    1  0.2527138E-006  0.9118800E+02  0.7816164E-02  0.1184000E+00
        -11   -1    0    0    0    0  0.00000000000E+00  0.00000000000E+00  0.45593999997E+02  0.45594000000E+02  0.51100000000E-03 0.  1.
         11   -1    0    0    0    0 -0.00000000000E+00 -0.00000000000E+00 -0.45593999997E+02  0.45594000000E+02  0.51100000000E-03 0. -1.
         23    2    1    2    0    0  0.00000000000E+00  0.00000000000E+00  0.17763568394E-14  0.91188000000E+02  0.91188000000E+02 0.  0.
    9900012    2    3    3    0    0 -0.29899729571E+02 -0.14833055332E+02 -0.15548858349E+02  0.54367077213E+02  0.39999984123E+02 0.  0.
        -12    1    3    3    0    0  0.29899729571E+02  0.14833055332E+02  0.15548858349E+02  0.36820922787E+02  0.00000000000E+00 0.  1.
         11    1    4    4    0    0 -0.74835290267E+01 -0.34964461398E+01 -0.13712055833E+02  0.16007773665E+02  0.51100000000E-03 0. -1.
        -11    1    4    4    0    0 -0.82793183397E+00 -0.23611811886E+01  0.11278123365E+02  0.11552346715E+02  0.51100000000E-03 0.  1.
        -12    1    4    4    0    0 -0.21588268711E+02 -0.89754280035E+01 -0.13114925881E+02  0.26806956833E+02  0.00000000000E+00 0.  1.
</event>
<event>
 8    1  0.2527138E-006  0.9118800E+02  0.7816164E-02  0.1184000E+00
        -11   -1    0    0    0    0  0.00000000000E+00  0.00000000000E+00  0.45593999997E+02  0.45594000000E+02  0.51100000000E-03 0.  1.
         11   -1    0    0    0    0 -0.00000000000E+00 -0.00000000000E+00 -0.45593999997E+02  0.45594000000E+02  0.51100000000E-03 0. -1.
         23    2    1    2    0    0  0.00000000000E+00 -0.35527136788E-14 -0.44408920985E-15  0.91188000000E+02  0.91188000000E+02 0.  0.
    9900012    2    3    3    0    0 -0.32821807468E+02 -0.16372603971E+02  0.32322490526E+01  0.54367073338E+02  0.39999975290E+02 0.  0.
         12    1    3    3    0    0  0.32821807468E+02  0.16372603971E+02 -0.32322490526E+01  0.36820926662E+02  0.00000000000E+00 0. -1.
         11    1    4    4    0    0 -0.13711589696E+01  0.28902213357E+01 -0.42683048233E+01  0.53340306162E+01  0.51100000000E-03 0. -1.
        -11    1    4    4    0    0 -0.16746774747E+01  0.72526773367E+01 -0.26315332276E+01  0.78949883207E+01  0.51100000000E-03 0.  1.
        -12    1    4    4    0    0 -0.29775971024E+02 -0.26515502644E+02  0.10132087103E+02  0.41138054401E+02  0.00000000000E+00 0.  1.
</event>
<event>
 8    1  0.2527138E-006  0.9118800E+02  0.7816164E-02  0.1184000E+00
        -11   -1    0    0    0    0  0.00000000000E+00  0.00000000000E+00  0.45593999997E+02  0.45594000000E+02  0.51100000000E-03 0. -1.
         11   -1    0    0    0    0 -0.00000000000E+00 -0.00000000000E+00 -0.45593999997E+02  0.45594000000E+02  0.51100000000E-03 0.  1.
         23    2    1    2    0    0  0.35527136788E-14  0.17763568394E-14  0.00000000000E+00  0.91188000000E+02  0.91188000000E+02 0.  0.
    9900012    2    3    3    0    0  0.58989784402E+01 -0.11041020520E+02  0.34627698112E+02  0.54367088043E+02  0.40000008812E+02 0.  0.
        -12    1    3    3    0    0 -0.58989784402E+01  0.11041020520E+02 -0.34627698112E+02  0.36820911957E+02  0.00000000000E+00 0.  1.
         11    1    4    4    0    0 -0.43203541058E+01  0.30287195202E+01  0.59189348333E+01  0.79292112693E+01  0.51100000000E-03 0. -1.
        -11    1    4    4    0    0 -0.10587008979E+02 -0.12943575115E+01  0.15096604527E+02  0.18484252459E+02  0.51100000000E-03 0.  1.
        -12    1    4    4    0    0  0.20806341525E+02 -0.12775382529E+02  0.13612158752E+02  0.27953624315E+02  0.00000000000E+00 0.  1.
</event>
<event>
 8    1  0.2527138E-006  0.9118800E+02  0.7816164E-02  0.1184000E+00
        -11   -1    0    0    0    0  0.00000000000E+00  0.00000000000E+00  0.45593999997E+02  0.45594000000E+02  0.51100000000E-03 0.  1.
         11   -1    0    0    0    0 -0.00000000000E+00 -0.00000000000E+00 -0.45593999997E+02  0.45594000000E+02  0.51100000000E-03 0. -1.
         23    2    1    2    0    0 -0.35527136788E-14  0.00000000000E+00  0.00000000000E+00  0.91188000000E+02  0.91188000000E+02 0.  0.
    9900012    2    3    3    0    0  0.27936155476E+02 -0.17812746731E+02  0.16064144079E+02  0.54367089448E+02  0.40000012016E+02 0.  0.
         12    1    3    3    0    0 -0.27936155476E+02  0.17812746731E+02 -0.16064144079E+02  0.36820910552E+02  0.00000000000E+00 0. -1.
         11    1    4    4    0    0  0.10291952582E+01  0.58361715763E+01 -0.11539261853E+01  0.60375232878E+01  0.51100000000E-03 0. -1.
        -11    1    4    4    0    0  0.28019280249E+02 -0.15878213359E+02  0.22124094630E+02  0.39072666770E+02  0.51100000000E-03 0.  1.
         12    1    4    4    0    0 -0.11123200310E+01 -0.77707049484E+01 -0.49060243656E+01  0.92568993903E+01  0.00000000000E+00 0. -1.
</event>
<event>
 8    1  0.2527138E-006  0.9118800E+02  0.7816164E-02  0.1184000E+00
        -11   -1    0    0    0    0  0.00000000000E+00  0.00000000000E+00  0.45593999997E+02  0.45594000000E+02  0.51100000000E-03 0.  1.
         11   -1    0    0    0    0 -0.00000000000E+00 -0.00000000000E+00 -0.45593999997E+02  0.45594000000E+02  0.51100000000E-03 0. -1.
         23    2    1    2    0    0  0.00000000000E+00  0.88817841970E-15  0.17763568394E-14  0.91188000000E+02  0.91188000000E+02 0.  0.
    9900012    2    3    3    0    0  0.33315369146E+02 -0.69487251336E+01 -0.14056369329E+02  0.54367080389E+02  0.39999991362E+02 0.  0.
        -12    1    3    3    0    0 -0.33315369146E+02  0.69487251336E+01  0.14056369329E+02  0.36820919611E+02  0.00000000000E+00 0.  1.
         11    1    4    4    0    0  0.74190044905E+01 -0.10033932820E+02 -0.45299579951E+01  0.13275615058E+02  0.51100000000E-03 0. -1.
        -11    1    4    4    0    0  0.31057867295E+02  0.75839153506E+01 -0.11483738014E+02  0.33970327228E+02  0.51100000000E-03 0.  1.
        -12    1    4    4    0    0 -0.51615026396E+01 -0.44987076641E+01  0.19573266802E+01  0.71211381028E+01  0.00000000000E+00 0.  1.
</event>
<event>
 8    1  0.2527138E-006  0.9118800E+02  0.7816164E-02  0.1184000E+00
        -11   -1    0    0    0    0  0.00000000000E+00  0.00000000000E+00  0.45593999997E+02  0.45594000000E+02  0.51100000000E-03 0.  1.
         11   -1    0    0    0    0 -0.00000000000E+00 -0.00000000000E+00 -0.45593999997E+02  0.45594000000E+02  0.51100000000E-03 0. -1.
         23    2    1    2    0    0  0.00000000000E+00  0.00000000000E+00  0.17763568394E-14  0.91188000000E+02  0.91188000000E+02 0.  0.
    9900012    2    3    3    0    0  0.26673085429E+02 -0.20761808377E+02  0.14603861208E+02  0.54367096486E+02  0.40000028060E+02 0.  0.
         12    1    3    3    0    0 -0.26673085429E+02  0.20761808377E+02 -0.14603861208E+02  0.36820903514E+02  0.00000000000E+00 0. -1.
         11    1    4    4    0    0  0.13031313588E+02 -0.13312400349E+02  0.17912056012E+02  0.25843314178E+02  0.51100000000E-03 0. -1.
        -11    1    4    4    0    0  0.92827651994E+01  0.63036034497E+00  0.91492071487E+01  0.13048949215E+02  0.51100000000E-03 0.  1.
         12    1    4    4    0    0  0.43590066418E+01 -0.80797683729E+01 -0.12457401952E+02  0.15474833093E+02  0.00000000000E+00 0. -1.
</event>
<event>
 8    1  0.2527138E-006  0.9118800E+02  0.7816164E-02  0.1184000E+00
        -11   -1    0    0    0    0  0.00000000000E+00  0.00000000000E+00  0.45593999997E+02  0.45594000000E+02  0.51100000000E-03 0. -1.
         11   -1    0    0    0    0 -0.00000000000E+00 -0.00000000000E+00 -0.45593999997E+02  0.45594000000E+02  0.51100000000E-03 0.  1.
         23    2    1    2    0    0  0.00000000000E+00 -0.35527136788E-14  0.00000000000E+00  0.91188000000E+02  0.91188000000E+02 0.  0.
    9900012    2    3    3    0    0 -0.23020641243E+02  0.17154434961E+02  0.23055464834E+02  0.54367095329E+02  0.40000025422E+02 0.  0.
        -12    1    3    3    0    0  0.23020641243E+02 -0.17154434961E+02 -0.23055464834E+02  0.36820904671E+02  0.00000000000E+00 0.  1.
         11    1    4    4    0    0 -0.17331733955E+01 -0.51497043528E-01  0.19401001442E+02  0.19478331530E+02  0.51100000000E-03 0. -1.
        -11    1    4    4    0    0 -0.22371795442E+02  0.69849017196E+01  0.63128363599E+01  0.24272164850E+02  0.51100000000E-03 0.  1.
         12    1    4    4    0    0  0.10843275945E+01  0.10221030285E+02 -0.26583729681E+01  0.10616598949E+02  0.00000000000E+00 0. -1.
</event>
<event>
 8    1  0.2527138E-006  0.9118800E+02  0.7816164E-02  0.1184000E+00
        -11   -1    0    0    0    0  0.00000000000E+00  0.00000000000E+00  0.45593999997E+02  0.45594000000E+02  0.51100000000E-03 0.  1.
         11   -1    0    0    0    0 -0.00000000000E+00 -0.00000000000E+00 -0.45593999997E+02  0.45594000000E+02  0.51100000000E-03 0. -1.
         23    2    1    2    0    0  0.00000000000E+00  0.00000000000E+00  0.00000000000E+00  0.91188000000E+02  0.91188000000E+02 0.  0.
    9900012    2    3    3    0    0  0.20573823230E+02 -0.29003578018E+02 -0.95542725966E+01  0.54367165341E+02  0.40000185027E+02 0.  0.
        -12    1    3    3    0    0 -0.20573823230E+02  0.29003578018E+02  0.95542725966E+01  0.36820834659E+02  0.00000000000E+00 0.  1.
         11    1    4    4    0    0 -0.26165163667E+01 -0.26049976312E+01 -0.25035148558E+01  0.44609144186E+01  0.51100000000E-03 0. -1.
        -11    1    4    4    0    0  0.26537094795E+01 -0.27866060240E+02  0.44375805439E+00  0.27995649819E+02  0.51100000000E-03 0.  1.
         12    1    4    4    0    0  0.20536630117E+02  0.14674798534E+01 -0.74945157952E+01  0.21910601103E+02  0.00000000000E+00 0. -1.
</event>
<event>
 8    1  0.2527138E-006  0.9118800E+02  0.7816164E-02  0.1184000E+00
        -11   -1    0    0    0    0  0.00000000000E+00  0.00000000000E+00  0.45593999997E+02  0.45594000000E+02  0.51100000000E-03 0. -1.
         11   -1    0    0    0    0 -0.00000000000E+00 -0.00000000000E+00 -0.45593999997E+02  0.45594000000E+02  0.51100000000E-03 0.  1.
         23    2    1    2    0    0  0.00000000000E+00 -0.17763568394E-14  0.17763568394E-14  0.91188000000E+02  0.91188000000E+02 0.  0.
    9900012    2    3    3    0    0  0.31859229494E+02  0.11730133693E+02 -0.14253867510E+02  0.54367091817E+02  0.40000017416E+02 0.  0.
         12    1    3    3    0    0 -0.31859229494E+02 -0.11730133693E+02  0.14253867510E+02  0.36820908183E+02  0.00000000000E+00 0. -1.
         11    1    4    4    0    0  0.20226716518E+02 -0.33707592726E+01 -0.15034657816E+02  0.25426816849E+02  0.51100000000E-03 0. -1.
        -11    1    4    4    0    0  0.94827692198E+01  0.49397420115E+01 -0.95171559706E+01  0.14314336214E+02  0.51100000000E-03 0.  1.
         12    1    4    4    0    0  0.21497437555E+01  0.10161150954E+02  0.10297946276E+02  0.14625938754E+02  0.00000000000E+00 0. -1.
</event>
<event>
 8    1  0.2527138E-006  0.9118800E+02  0.7816164E-02  0.1184000E+00
        -11   -1    0    0    0    0  0.00000000000E+00  0.00000000000E+00  0.45593999997E+02  0.45594000000E+02  0.51100000000E-03 0.  1.
         11   -1    0    0    0    0 -0.00000000000E+00 -0.00000000000E+00 -0.45593999997E+02  0.45594000000E+02  0.51100000000E-03 0. -1.
         23    2    1    2    0    0 -0.35527136788E-14  0.00000000000E+00  0.00000000000E+00  0.91188000000E+02  0.91188000000E+02 0.  0.
    9900012    2    3    3    0    0 -0.31659224855E+02  0.16082836183E+02 -0.97373143508E+01  0.54367089788E+02  0.40000012789E+02 0.  0.
        -12    1    3    3    0    0  0.31659224855E+02 -0.16082836183E+02  0.97373143508E+01  0.36820910212E+02  0.00000000000E+00 0.  1.
         11    1    4    4    0    0 -0.74343809554E+01 -0.35722194324E+01 -0.14716189590E+01  0.83783312471E+01  0.51100000000E-03 0. -1.
        -11    1    4    4    0    0 -0.24755452991E+01 -0.85934338747E+01  0.13968340255E+01  0.90513300594E+01  0.51100000000E-03 0.  1.
         12    1    4    4    0    0 -0.21749298600E+02  0.28248489490E+02 -0.96625294173E+01  0.36937428481E+02  0.00000000000E+00 0. -1.
</event>
<event>
 8    1  0.2527138E-006  0.9118800E+02  0.7816164E-02  0.1184000E+00
        -11   -1    0    0    0    0  0.00000000000E+00  0.00000000000E+00  0.45593999997E+02  0.45594000000E+02  0.51100000000E-03 0. -1.
         11   -1    0    0    0    0 -0.00000000000E+00 -0.00000000000E+00 -0.45593999997E+02  0.45594000000E+02  0.51100000000E-03 0.  1.
         23    2    1    2    0    0  0.66613381478E-15  0.00000000000E+00  0.28310687128E-14  0.91188000000E+02  0.91188000000E+02 0.  0.
    9900012    2    3    3    0    0  0.49371716981E+00  0.36815711357E+02  0.37581995454E+00  0.54367060305E+02  0.39999945578E+02 0.  0.
        -12    1    3    3    0    0 -0.49371716981E+00 -0.36815711357E+02 -0.37581995454E+00  0.36820939695E+02  0.00000000000E+00 0.  1.
         11    1    4    4    0    0  0.73727646387E+01  0.75847350000E+01  0.16064399739E+02  0.19234105196E+02  0.51100000000E-03 0. -1.
        -11    1    4    4    0    0 -0.17643359648E+01  0.15225614781E+02 -0.12747283326E+02  0.19935532581E+02  0.51100000000E-03 0.  1.
         12    1    4    4    0    0 -0.51147115040E+01  0.14005361576E+02 -0.29412964593E+01  0.15197422528E+02  0.00000000000E+00 0. -1.
</event>
<event>
 8    1  0.2527138E-006  0.9118800E+02  0.7816164E-02  0.1184000E+00
        -11   -1    0    0    0    0  0.00000000000E+00  0.00000000000E+00  0.45593999997E+02  0.45594000000E+02  0.51100000000E-03 0. -1.
         11   -1    0    0    0    0 -0.00000000000E+00 -0.00000000000E+00 -0.45593999997E+02  0.45594000000E+02  0.51100000000E-03 0.  1.
         23    2    1    2    0    0  0.00000000000E+00  0.00000000000E+00  0.22204460493E-15  0.91188000000E+02  0.91188000000E+02 0.  0.
    9900012    2    3    3    0    0  0.33625776445E+02  0.14936511997E+02 -0.14098686997E+01  0.54367082549E+02  0.39999996287E+02 0.  0.
         12    1    3    3    0    0 -0.33625776445E+02 -0.14936511997E+02  0.14098686997E+01  0.36820917451E+02  0.00000000000E+00 0. -1.
         11    1    4    4    0    0  0.25753573587E+02  0.55355242187E+01 -0.61955685016E+01  0.27060555245E+02  0.51100000000E-03 0. -1.
        -11    1    4    4    0    0  0.13178444061E+02  0.48739278444E+01 -0.53226972060E+01  0.15025234318E+02  0.51100000000E-03 0.  1.
         12    1    4    4    0    0 -0.53062412024E+01  0.45270599335E+01  0.10108397008E+02  0.12281292986E+02  0.00000000000E+00 0. -1.
</event>
<event>
 8    1  0.2527138E-006  0.9118800E+02  0.7816164E-02  0.1184000E+00
        -11   -1    0    0    0    0  0.00000000000E+00  0.00000000000E+00  0.45593999997E+02  0.45594000000E+02  0.51100000000E-03 0.  1.
         11   -1    0    0    0    0 -0.00000000000E+00 -0.00000000000E+00 -0.45593999997E+02  0.45594000000E+02  0.51100000000E-03 0. -1.
         23    2    1    2    0    0  0.17763568394E-14  0.71054273576E-14  0.00000000000E+00  0.91188000000E+02  0.91188000000E+02 0.  0.
    9900012    2    3    3    0    0  0.10600019796E+02 -0.33992810503E+02  0.93759799770E+01  0.54367074074E+02  0.39999976966E+02 0.  0.
         12    1    3    3    0    0 -0.10600019796E+02  0.33992810503E+02 -0.93759799770E+01  0.36820925926E+02  0.00000000000E+00 0. -1.
         11    1    4    4    0    0 -0.61175804094E+01  0.17115794380E+01 -0.15635000038E+01  0.65420812254E+01  0.51100000000E-03 0. -1.
        -11    1    4    4    0    0  0.11709240993E+02 -0.68937385757E+01  0.12605931691E+02  0.18534817783E+02  0.51100000000E-03 0.  1.
        -12    1    4    4    0    0  0.50083592123E+01 -0.28810651365E+02 -0.16664517103E+01  0.29290175066E+02  0.00000000000E+00 0.  1.
</event>
<event>
 8    1  0.2527138E-006  0.9118800E+02  0.7816164E-02  0.1184000E+00
        -11   -1    0    0    0    0  0.00000000000E+00  0.00000000000E+00  0.45593999997E+02  0.45594000000E+02  0.51100000000E-03 0.  1.
         11   -1    0    0    0    0 -0.00000000000E+00 -0.00000000000E+00 -0.45593999997E+02  0.45594000000E+02  0.51100000000E-03 0. -1.
         23    2    1    2    0    0  0.00000000000E+00  0.35527136788E-14  0.35527136788E-14  0.91188000000E+02  0.91188000000E+02 0.  0.
    9900012    2    3    3    0    0  0.90543993768E+01  0.30667569485E+02  0.18256461597E+02  0.54367077195E+02  0.39999984081E+02 0.  0.
         12    1    3    3    0    0 -0.90543993768E+01 -0.30667569485E+02 -0.18256461597E+02  0.36820922805E+02  0.00000000000E+00 0. -1.
         11    1    4    4    0    0  0.11070101566E+02 -0.33427800832E+00 -0.45524846097E+01  0.11974306112E+02  0.51100000000E-03 0. -1.
        -11    1    4    4    0    0 -0.11275024200E+01  0.78690090670E+01  0.16630258074E+02  0.18432526937E+02  0.51100000000E-03 0.  1.
        -12    1    4    4    0    0 -0.88819976966E+00  0.23132838426E+02  0.61786881325E+01  0.23960244146E+02  0.00000000000E+00 0.  1.
</event>
<event>
 8    1  0.2527138E-006  0.9118800E+02  0.7816164E-02  0.1184000E+00
        -11   -1    0    0    0    0  0.00000000000E+00  0.00000000000E+00  0.45593999997E+02  0.45594000000E+02  0.51100000000E-03 0. -1.
         11   -1    0    0    0    0 -0.00000000000E+00 -0.00000000000E+00 -0.45593999997E+02  0.45594000000E+02  0.51100000000E-03 0.  1.
         23    2    1    2    0    0  0.00000000000E+00  0.44408920985E-15  0.71054273576E-14  0.91188000000E+02  0.91188000000E+02 0.  0.
    9900012    2    3    3    0    0  0.86749133286E+01  0.29709664151E+01  0.35660888894E+02  0.54367085299E+02  0.40000002557E+02 0.  0.
        -12    1    3    3    0    0 -0.86749133286E+01 -0.29709664151E+01 -0.35660888894E+02  0.36820914701E+02  0.00000000000E+00 0.  1.
         11    1    4    4    0    0 -0.12385475502E+01 -0.19220294636E+01 -0.75469720739E+00  0.24078549435E+01  0.51100000000E-03 0. -1.
        -11    1    4    4    0    0 -0.12657899364E+02  0.68521458178E+01  0.13473374687E+02  0.19715631979E+02  0.51100000000E-03 0.  1.
         12    1    4    4    0    0  0.22571360243E+02 -0.19591499391E+01  0.22942211415E+02  0.32243598377E+02  0.00000000000E+00 0. -1.
</event>
<event>
 8    1  0.2527138E-006  0.9118800E+02  0.7816164E-02  0.1184000E+00
        -11   -1    0    0    0    0  0.00000000000E+00  0.00000000000E+00  0.45593999997E+02  0.45594000000E+02  0.51100000000E-03 0. -1.
         11   -1    0    0    0    0 -0.00000000000E+00 -0.00000000000E+00 -0.45593999997E+02  0.45594000000E+02  0.51100000000E-03 0.  1.
         23    2    1    2    0    0  0.00000000000E+00  0.17763568394E-14  0.88817841970E-15  0.91188000000E+02  0.91188000000E+02 0.  0.
    9900012    2    3    3    0    0  0.35147380297E+02 -0.75580915614E+01 -0.79571370104E+01  0.54367093992E+02  0.40000022375E+02 0.  0.
         12    1    3    3    0    0 -0.35147380297E+02  0.75580915614E+01  0.79571370104E+01  0.36820906008E+02  0.00000000000E+00 0. -1.
         11    1    4    4    0    0  0.59193990295E+01  0.89925517246E+01  0.51083643597E+01  0.11916402900E+02  0.51100000000E-03 0. -1.
        -11    1    4    4    0    0  0.11720315028E+02 -0.38512653936E+01  0.59088004329E+01  0.13678887101E+02  0.51100000000E-03 0.  1.
         12    1    4    4    0    0  0.17507666239E+02 -0.12699377892E+02 -0.18974301803E+02  0.28771803991E+02  0.00000000000E+00 0. -1.
</event>
<event>
 8    1  0.2527138E-006  0.9118800E+02  0.7816164E-02  0.1184000E+00
        -11   -1    0    0    0    0  0.00000000000E+00  0.00000000000E+00  0.45593999997E+02  0.45594000000E+02  0.51100000000E-03 0.  1.
         11   -1    0    0    0    0 -0.00000000000E+00 -0.00000000000E+00 -0.45593999997E+02  0.45594000000E+02  0.51100000000E-03 0. -1.
         23    2    1    2    0    0  0.00000000000E+00  0.00000000000E+00  0.44408920985E-15  0.91188000000E+02  0.91188000000E+02 0.  0.
    9900012    2    3    3    0    0  0.14361636525E+02  0.33723068554E+02  0.35039741617E+01  0.54367084866E+02  0.40000001569E+02 0.  0.
        -12    1    3    3    0    0 -0.14361636525E+02 -0.33723068554E+02 -0.35039741617E+01  0.36820915134E+02  0.00000000000E+00 0.  1.
         11    1    4    4    0    0 -0.89404690838E+01  0.25644875537E+01  0.75219816712E+01  0.11961972763E+02  0.51100000000E-03 0. -1.
        -11    1    4    4    0    0  0.10083523648E+02  0.95688327767E+01  0.60512613889E+01  0.15161061128E+02  0.51100000000E-03 0.  1.
         12    1    4    4    0    0  0.13218581961E+02  0.21589748223E+02 -0.10069268898E+02  0.27244050976E+02  0.00000000000E+00 0. -1.
</event>
<event>
 8    1  0.2527138E-006  0.9118800E+02  0.7816164E-02  0.1184000E+00
        -11   -1    0    0    0    0  0.00000000000E+00  0.00000000000E+00  0.45593999997E+02  0.45594000000E+02  0.51100000000E-03 0.  1.
         11   -1    0    0    0    0 -0.00000000000E+00 -0.00000000000E+00 -0.45593999997E+02  0.45594000000E+02  0.51100000000E-03 0. -1.
         23    2    1    2    0    0  0.00000000000E+00  0.44408920985E-15  0.00000000000E+00  0.91188000000E+02  0.91188000000E+02 0.  0.
    9900012    2    3    3    0    0 -0.19743937368E+02 -0.37973521589E+01 -0.30846969453E+02  0.54367102799E+02  0.40000042452E+02 0.  0.
        -12    1    3    3    0    0  0.19743937368E+02  0.37973521589E+01  0.30846969453E+02  0.36820897201E+02  0.00000000000E+00 0.  1.
         11    1    4    4    0    0  0.15699359297E+01  0.64635931793E+01 -0.21843703981E+01  0.70010149199E+01  0.51100000000E-03 0.  1.
        -11    1    4    4    0    0 -0.19543590140E+02  0.64139760949E+01 -0.12461589554E+02  0.24049578362E+02  0.51100000000E-03 0. -1.
         12    1    4    4    0    0 -0.17702831584E+01 -0.16674921433E+02 -0.16201009501E+02  0.23316509518E+02  0.00000000000E+00 0. -1.
</event>
<event>
 8    1  0.2527138E-006  0.9118800E+02  0.7816164E-02  0.1184000E+00
        -11   -1    0    0    0    0  0.00000000000E+00  0.00000000000E+00  0.45593999997E+02  0.45594000000E+02  0.51100000000E-03 0.  1.
         11   -1    0    0    0    0 -0.00000000000E+00 -0.00000000000E+00 -0.45593999997E+02  0.45594000000E+02  0.51100000000E-03 0. -1.
         23    2    1    2    0    0  0.00000000000E+00 -0.17763568394E-14 -0.35527136788E-14  0.91188000000E+02  0.91188000000E+02 0.  0.
    9900012    2    3    3    0    0 -0.19333979637E+02 -0.12999551198E+02 -0.28512948404E+02  0.54367091176E+02  0.40000015953E+02 0.  0.
        -12    1    3    3    0    0  0.19333979637E+02  0.12999551198E+02  0.28512948404E+02  0.36820908824E+02  0.00000000000E+00 0.  1.
         11    1    4    4    0    0 -0.14996709706E+02 -0.21728713813E+01 -0.64058652927E+01  0.16451680232E+02  0.51100000000E-03 0. -1.
        -11    1    4    4    0    0  0.34981305031E+01 -0.19017604603E+02 -0.12221296988E+02  0.22875014801E+02  0.51100000000E-03 0.  1.
        -12    1    4    4    0    0 -0.78354004340E+01  0.81909247863E+01 -0.98857861239E+01  0.15040396142E+02  0.00000000000E+00 0.  1.
</event>
<event>
 8    1  0.2527138E-006  0.9118800E+02  0.7816164E-02  0.1184000E+00
        -11   -1    0    0    0    0  0.00000000000E+00  0.00000000000E+00  0.45593999997E+02  0.45594000000E+02  0.51100000000E-03 0.  1.
         11   -1    0    0    0    0 -0.00000000000E+00 -0.00000000000E+00 -0.45593999997E+02  0.45594000000E+02  0.51100000000E-03 0. -1.
         23    2    1    2    0    0  0.17763568394E-14 -0.17763568394E-14 -0.71054273576E-14  0.91188000000E+02  0.91188000000E+02 0.  0.
    9900012    2    3    3    0    0  0.86541617611E+01 -0.13280667061E+02 -0.33234161935E+02  0.54367079956E+02  0.39999990376E+02 0.  0.
        -12    1    3    3    0    0 -0.86541617611E+01  0.13280667061E+02  0.33234161935E+02  0.36820920044E+02  0.00000000000E+00 0.  1.
         11    1    4    4    0    0  0.16703803270E+01 -0.11947706325E+02 -0.34017064544E+02  0.36092915334E+02  0.51100000000E-03 0. -1.
        -11    1    4    4    0    0  0.12586830329E+02 -0.55234998443E+00  0.44029155887E+00  0.12606634966E+02  0.51100000000E-03 0.  1.
        -12    1    4    4    0    0 -0.56030488953E+01 -0.78061075147E+00  0.34261105057E+00  0.56675296559E+01  0.00000000000E+00 0.  1.
</event>
<event>
 8    1  0.2527138E-006  0.9118800E+02  0.7816164E-02  0.1184000E+00
        -11   -1    0    0    0    0  0.00000000000E+00  0.00000000000E+00  0.45593999997E+02  0.45594000000E+02  0.51100000000E-03 0.  1.
         11   -1    0    0    0    0 -0.00000000000E+00 -0.00000000000E+00 -0.45593999997E+02  0.45594000000E+02  0.51100000000E-03 0. -1.
         23    2    1    2    0    0  0.17763568394E-14  0.00000000000E+00  0.00000000000E+00  0.91188000000E+02  0.91188000000E+02 0.  0.
    9900012    2    3    3    0    0 -0.10594663639E+02  0.25807575475E+02 -0.24031272914E+02  0.54367083018E+02  0.39999997357E+02 0.  0.
        -12    1    3    3    0    0  0.10594663639E+02 -0.25807575475E+02  0.24031272914E+02  0.36820916982E+02  0.00000000000E+00 0.  1.
         11    1    4    4    0    0  0.34984189808E+01  0.19672143538E+02 -0.15847055855E+02  0.25502183166E+02  0.51100000000E-03 0. -1.
        -11    1    4    4    0    0  0.54907643332E+01  0.41945734125E+01  0.12807572487E+01  0.70273237059E+01  0.51100000000E-03 0.  1.
        -12    1    4    4    0    0 -0.19583846953E+02  0.19408585249E+01 -0.94649743079E+01  0.21837576146E+02  0.00000000000E+00 0.  1.
</event>
<event>
 8    1  0.2527138E-006  0.9118800E+02  0.7816164E-02  0.1184000E+00
        -11   -1    0    0    0    0  0.00000000000E+00  0.00000000000E+00  0.45593999997E+02  0.45594000000E+02  0.51100000000E-03 0.  1.
         11   -1    0    0    0    0 -0.00000000000E+00 -0.00000000000E+00 -0.45593999997E+02  0.45594000000E+02  0.51100000000E-03 0. -1.
         23    2    1    2    0    0  0.22204460493E-15  0.00000000000E+00  0.00000000000E+00  0.91188000000E+02  0.91188000000E+02 0.  0.
    9900012    2    3    3    0    0 -0.12681647798E+01  0.19289311273E+02  0.31338361133E+02  0.54367100367E+02  0.40000036906E+02 0.  0.
         12    1    3    3    0    0  0.12681647798E+01 -0.19289311273E+02 -0.31338361133E+02  0.36820899633E+02  0.00000000000E+00 0. -1.
         11    1    4    4    0    0 -0.62934370207E+01  0.10357861383E+02 -0.73308149571E+01  0.14164515175E+02  0.51100000000E-03 0. -1.
        -11    1    4    4    0    0  0.28931189937E+01  0.31979142988E+01  0.10036197861E+02  0.10923463789E+02  0.51100000000E-03 0.  1.
         12    1    4    4    0    0  0.21321532472E+01  0.57335355909E+01  0.28632978229E+02  0.29279121402E+02  0.00000000000E+00 0. -1.
</event>
<event>
 8    1  0.2527138E-006  0.9118800E+02  0.7816164E-02  0.1184000E+00
        -11   -1    0    0    0    0  0.00000000000E+00  0.00000000000E+00  0.45593999997E+02  0.45594000000E+02  0.51100000000E-03 0.  1.
         11   -1    0    0    0    0 -0.00000000000E+00 -0.00000000000E+00 -0.45593999997E+02  0.45594000000E+02  0.51100000000E-03 0. -1.
         23    2    1    2    0    0  0.00000000000E+00  0.00000000000E+00  0.00000000000E+00  0.91188000000E+02  0.91188000000E+02 0.  0.
    9900012    2    3    3    0    0  0.15253466452E+02 -0.48951099285E+01 -0.33153417565E+02  0.54367089687E+02  0.40000012561E+02 0.  0.
        -12    1    3    3    0    0 -0.15253466452E+02  0.48951099285E+01  0.33153417565E+02  0.36820910313E+02  0.00000000000E+00 0.  1.
         11    1    4    4    0    0  0.31334878600E+01 -0.14170659472E+01  0.47702623923E+01  0.58806654063E+01  0.51100000000E-03 0. -1.
        -11    1    4    4    0    0 -0.61969582856E+01  0.49747469395E+01 -0.19924187812E+02  0.21450493219E+02  0.51100000000E-03 0.  1.
         12    1    4    4    0    0  0.18316936877E+02 -0.84527909208E+01 -0.17999492145E+02  0.27035931062E+02  0.00000000000E+00 0. -1.
</event>
<event>
 8    1  0.2527138E-006  0.9118800E+02  0.7816164E-02  0.1184000E+00
        -11   -1    0    0    0    0  0.00000000000E+00  0.00000000000E+00  0.45593999997E+02  0.45594000000E+02  0.51100000000E-03 0. -1.
         11   -1    0    0    0    0 -0.00000000000E+00 -0.00000000000E+00 -0.45593999997E+02  0.45594000000E+02  0.51100000000E-03 0.  1.
         23    2    1    2    0    0  0.00000000000E+00  0.35527136788E-14  0.71054273576E-14  0.91188000000E+02  0.91188000000E+02 0.  0.
    9900012    2    3    3    0    0 -0.37562846246E+01  0.24732690044E+02  0.27017855847E+02  0.54367079784E+02  0.39999989983E+02 0.  0.
        -12    1    3    3    0    0  0.37562846246E+01 -0.24732690044E+02 -0.27017855847E+02  0.36820920216E+02  0.00000000000E+00 0.  1.
         11    1    4    4    0    0  0.12836073508E+01  0.21887952971E+02  0.18595427673E+02  0.28749261968E+02  0.51100000000E-03 0. -1.
        -11    1    4    4    0    0 -0.63434648501E+01  0.11305463767E+02 -0.85822207529E+00  0.12991905276E+02  0.51100000000E-03 0.  1.
        -12    1    4    4    0    0  0.13035728748E+01 -0.84607266941E+01  0.92806502493E+01  0.12625912541E+02  0.00000000000E+00 0.  1.
</event>
<event>
 8    1  0.2527138E-006  0.9118800E+02  0.7816164E-02  0.1184000E+00
        -11   -1    0    0    0    0  0.00000000000E+00  0.00000000000E+00  0.45593999997E+02  0.45594000000E+02  0.51100000000E-03 0.  1.
         11   -1    0    0    0    0 -0.00000000000E+00 -0.00000000000E+00 -0.45593999997E+02  0.45594000000E+02  0.51100000000E-03 0. -1.
         23    2    1    2    0    0 -0.71054273576E-14  0.35527136788E-14  0.00000000000E+00  0.91188000000E+02  0.91188000000E+02 0.  0.
    9900012    2    3    3    0    0 -0.24949366566E+02  0.17008145172E+02  0.21072069148E+02  0.54367082135E+02  0.39999995342E+02 0.  0.
         12    1    3    3    0    0  0.24949366566E+02 -0.17008145172E+02 -0.21072069148E+02  0.36820917865E+02  0.00000000000E+00 0. -1.
         11    1    4    4    0    0 -0.30771164268E+00  0.40046445216E+01 -0.76729618847E+01  0.86606124809E+01  0.51100000000E-03 0. -1.
        -11    1    4    4    0    0 -0.33599399547E+01 -0.27013352896E+01 -0.23291375384E+01  0.49001317104E+01  0.51100000000E-03 0.  1.
        -12    1    4    4    0    0 -0.21281714969E+02  0.15704835940E+02  0.31074168572E+02  0.40806337943E+02  0.00000000000E+00 0.  1.
</event>
<event>
 8    1  0.2527138E-006  0.9118800E+02  0.7816164E-02  0.1184000E+00
        -11   -1    0    0    0    0  0.00000000000E+00  0.00000000000E+00  0.45593999997E+02  0.45594000000E+02  0.51100000000E-03 0.  1.
         11   -1    0    0    0    0 -0.00000000000E+00 -0.00000000000E+00 -0.45593999997E+02  0.45594000000E+02  0.51100000000E-03 0. -1.
         23    2    1    2    0    0  0.88817841970E-15  0.00000000000E+00  0.00000000000E+00  0.91188000000E+02  0.91188000000E+02 0.  0.
    9900012    2    3    3    0    0 -0.45848678183E+01  0.25455293986E+02  0.26206615664E+02  0.54367085979E+02  0.40000004105E+02 0.  0.
         12    1    3    3    0    0  0.45848678183E+01 -0.25455293986E+02 -0.26206615664E+02  0.36820914021E+02  0.00000000000E+00 0. -1.
         11    1    4    4    0    0 -0.13090525740E+02  0.14540499713E+02  0.16010605503E+02  0.25280970806E+02  0.51100000000E-03 0. -1.
        -11    1    4    4    0    0 -0.13833642105E+01  0.12923323752E+02  0.13232807932E+02  0.18548131965E+02  0.51100000000E-03 0.  1.
         12    1    4    4    0    0  0.98890221317E+01 -0.20085294803E+01 -0.30367977708E+01  0.10537983208E+02  0.00000000000E+00 0. -1.
</event>
<event>
 8    1  0.2527138E-006  0.9118800E+02  0.7816164E-02  0.1184000E+00
        -11   -1    0    0    0    0  0.00000000000E+00  0.00000000000E+00  0.45593999997E+02  0.45594000000E+02  0.51100000000E-03 0. -1.
         11   -1    0    0    0    0 -0.00000000000E+00 -0.00000000000E+00 -0.45593999997E+02  0.45594000000E+02  0.51100000000E-03 0.  1.
         23    2    1    2    0    0  0.17763568394E-14  0.35527136788E-14  0.71054273576E-14  0.91188000000E+02  0.91188000000E+02 0.  0.
    9900012    2    3    3    0    0 -0.14047307506E+02 -0.14897411316E+02 -0.30602622062E+02  0.54367079464E+02  0.39999989253E+02 0.  0.
         12    1    3    3    0    0  0.14047307506E+02  0.14897411316E+02  0.30602622062E+02  0.36820920536E+02  0.00000000000E+00 0. -1.
         11    1    4    4    0    0 -0.47758686208E+01  0.42320452399E+01 -0.99134564688E+01  0.11789645771E+02  0.51100000000E-03 0. -1.
        -11    1    4    4    0    0 -0.86706183872E+01 -0.10901163274E+02 -0.28179620124E+02  0.31434152996E+02  0.51100000000E-03 0.  1.
         12    1    4    4    0    0 -0.60082049748E+00 -0.82282932819E+01  0.74904545310E+01  0.11143280697E+02  0.00000000000E+00 0. -1.
</event>
<event>
 8    1  0.2527138E-006  0.9118800E+02  0.7816164E-02  0.1184000E+00
        -11   -1    0    0    0    0  0.00000000000E+00  0.00000000000E+00  0.45593999997E+02  0.45594000000E+02  0.51100000000E-03 0.  1.
         11   -1    0    0    0    0 -0.00000000000E+00 -0.00000000000E+00 -0.45593999997E+02  0.45594000000E+02  0.51100000000E-03 0. -1.
         23    2    1    2    0    0  0.00000000000E+00 -0.17763568394E-14  0.44408920985E-15  0.91188000000E+02  0.91188000000E+02 0.  0.
    9900012    2    3    3    0    0  0.35078980713E+02 -0.10901846406E+02 -0.25287301375E+01  0.54367087205E+02  0.40000006902E+02 0.  0.
         12    1    3    3    0    0 -0.35078980713E+02  0.10901846406E+02  0.25287301375E+01  0.36820912795E+02  0.00000000000E+00 0. -1.
         11    1    4    4    0    0  0.41372911569E+02 -0.11320988629E+02 -0.61887294514E+01  0.43338008349E+02  0.51100000000E-03 0. -1.
        -11    1    4    4    0    0  0.16029475463E+01 -0.68264414650E+00 -0.77323402382E+00  0.19061308936E+01  0.51100000000E-03 0.  1.
         12    1    4    4    0    0 -0.78968784018E+01  0.11017863689E+01  0.44332333378E+01  0.91229479623E+01  0.00000000000E+00 0. -1.
</event>
<event>
 8    1  0.2527138E-006  0.9118800E+02  0.7816164E-02  0.1184000E+00
        -11   -1    0    0    0    0  0.00000000000E+00  0.00000000000E+00  0.45593999997E+02  0.45594000000E+02  0.51100000000E-03 0. -1.
         11   -1    0    0    0    0 -0.00000000000E+00 -0.00000000000E+00 -0.45593999997E+02  0.45594000000E+02  0.51100000000E-03 0.  1.
         23    2    1    2    0    0 -0.17763568394E-14  0.00000000000E+00  0.00000000000E+00  0.91188000000E+02  0.91188000000E+02 0.  0.
    9900012    2    3    3    0    0 -0.61569559825E+01 -0.15438937580E+02  0.32855907749E+02  0.54367087809E+02  0.40000008278E+02 0.  0.
        -12    1    3    3    0    0  0.61569559825E+01  0.15438937580E+02 -0.32855907749E+02  0.36820912191E+02  0.00000000000E+00 0.  1.
         11    1    4    4    0    0 -0.83380297713E+01 -0.11323889388E+02  0.11986122487E+02  0.18477563256E+02  0.51100000000E-03 0. -1.
        -11    1    4    4    0    0 -0.90186926182E+01  0.80493077004E+01  0.12377654551E+02  0.17301286179E+02  0.51100000000E-03 0.  1.
         12    1    4    4    0    0  0.11199766407E+02 -0.12164355892E+02  0.84921307111E+01  0.18588238374E+02  0.00000000000E+00 0. -1.
</event>
<event>
 8    1  0.2527138E-006  0.9118800E+02  0.7816164E-02  0.1184000E+00
        -11   -1    0    0    0    0  0.00000000000E+00  0.00000000000E+00  0.45593999997E+02  0.45594000000E+02  0.51100000000E-03 0. -1.
         11   -1    0    0    0    0 -0.00000000000E+00 -0.00000000000E+00 -0.45593999997E+02  0.45594000000E+02  0.51100000000E-03 0.  1.
         23    2    1    2    0    0  0.35527136788E-14 -0.35527136788E-14  0.00000000000E+00  0.91188000000E+02  0.91188000000E+02 0.  0.
    9900012    2    3    3    0    0  0.30389070506E+02 -0.12898869523E+02  0.16306520309E+02  0.54367094990E+02  0.40000024649E+02 0.  0.
        -12    1    3    3    0    0 -0.30389070506E+02  0.12898869523E+02 -0.16306520309E+02  0.36820905010E+02  0.00000000000E+00 0.  1.
         11    1    4    4    0    0  0.66964735618E+00  0.23856449617E+01  0.70473834498E+01  0.74702973980E+01  0.51100000000E-03 0. -1.
        -11    1    4    4    0    0  0.92003897053E+01  0.96088742895E+01  0.55853357464E+01  0.14428222742E+02  0.51100000000E-03 0.  1.
        -12    1    4    4    0    0  0.20519033444E+02 -0.24893388774E+02  0.36738011127E+01  0.32468574850E+02  0.00000000000E+00 0.  1.
</event>
<event>
 8    1  0.2527138E-006  0.9118800E+02  0.7816164E-02  0.1184000E+00
        -11   -1    0    0    0    0  0.00000000000E+00  0.00000000000E+00  0.45593999997E+02  0.45594000000E+02  0.51100000000E-03 0. -1.
         11   -1    0    0    0    0 -0.00000000000E+00 -0.00000000000E+00 -0.45593999997E+02  0.45594000000E+02  0.51100000000E-03 0.  1.
         23    2    1    2    0    0  0.00000000000E+00  0.35527136788E-14 -0.17763568394E-14  0.91188000000E+02  0.91188000000E+02 0.  0.
    9900012    2    3    3    0    0 -0.29638356667E+02 -0.16346718742E+02  0.14495945446E+02  0.54367084287E+02  0.40000000249E+02 0.  0.
        -12    1    3    3    0    0  0.29638356667E+02  0.16346718742E+02 -0.14495945446E+02  0.36820915713E+02  0.00000000000E+00 0.  1.
         11    1    4    4    0    0 -0.30314913532E+02 -0.41691463710E+01  0.72509890899E+01  0.31447616873E+02  0.51100000000E-03 0. -1.
        -11    1    4    4    0    0  0.84363658354E+01 -0.25902166819E+01  0.44785363453E+00  0.88364056102E+01  0.51100000000E-03 0.  1.
        -12    1    4    4    0    0 -0.77598089704E+01 -0.95873556890E+01  0.67971027217E+01  0.14083061804E+02  0.00000000000E+00 0.  1.
</event>
<event>
 8    1  0.2527138E-006  0.9118800E+02  0.7816164E-02  0.1184000E+00
        -11   -1    0    0    0    0  0.00000000000E+00  0.00000000000E+00  0.45593999997E+02  0.45594000000E+02  0.51100000000E-03 0.  1.
         11   -1    0    0    0    0 -0.00000000000E+00 -0.00000000000E+00 -0.45593999997E+02  0.45594000000E+02  0.51100000000E-03 0. -1.
         23    2    1    2    0    0 -0.35527136788E-14 -0.35527136788E-14  0.13322676296E-14  0.91188000000E+02  0.91188000000E+02 0.  0.
    9900012    2    3    3    0    0  0.22334172664E+02 -0.29064541563E+02 -0.34952358192E+01  0.54367088573E+02  0.40000010021E+02 0.  0.
         12    1    3    3    0    0 -0.22334172664E+02  0.29064541563E+02  0.34952358192E+01  0.36820911427E+02  0.00000000000E+00 0. -1.
         11    1    4    4    0    0 -0.31418385431E+01  0.67611046313E+01  0.57357003596E+01  0.94064841542E+01  0.51100000000E-03 0. -1.
        -11    1    4    4    0    0  0.12234574668E+02 -0.15826432727E+02 -0.36481057818E+01  0.20333948614E+02  0.51100000000E-03 0.  1.
         12    1    4    4    0    0  0.13241436539E+02 -0.19999213467E+02 -0.55828303970E+01  0.24626655805E+02  0.00000000000E+00 0. -1.
</event>
<event>
 8    1  0.2527138E-006  0.9118800E+02  0.7816164E-02  0.1184000E+00
        -11   -1    0    0    0    0  0.00000000000E+00  0.00000000000E+00  0.45593999997E+02  0.45594000000E+02  0.51100000000E-03 0.  1.
         11   -1    0    0    0    0 -0.00000000000E+00 -0.00000000000E+00 -0.45593999997E+02  0.45594000000E+02  0.51100000000E-03 0. -1.
         23    2    1    2    0    0  0.00000000000E+00  0.00000000000E+00  0.35527136788E-14  0.91188000000E+02  0.91188000000E+02 0.  0.
    9900012    2    3    3    0    0  0.21134075923E+02  0.17736429711E+02 -0.24383403053E+02  0.54367075942E+02  0.39999981225E+02 0.  0.
        -12    1    3    3    0    0 -0.21134075923E+02 -0.17736429711E+02  0.24383403053E+02  0.36820924058E+02  0.00000000000E+00 0.  1.
         11    1    4    4    0    0  0.12953022841E+02  0.14658985042E+02 -0.72456271514E+01  0.20860626938E+02  0.51100000000E-03 0. -1.
        -11    1    4    4    0    0  0.26044887085E+01  0.12244960553E+02  0.86460386663E+00  0.12548703538E+02  0.51100000000E-03 0.  1.
         12    1    4    4    0    0  0.55765643737E+01 -0.91675158838E+01 -0.18002379769E+02  0.20957745466E+02  0.00000000000E+00 0. -1.
</event>
<event>
 8    1  0.2527138E-006  0.9118800E+02  0.7816164E-02  0.1184000E+00
        -11   -1    0    0    0    0  0.00000000000E+00  0.00000000000E+00  0.45593999997E+02  0.45594000000E+02  0.51100000000E-03 0.  1.
         11   -1    0    0    0    0 -0.00000000000E+00 -0.00000000000E+00 -0.45593999997E+02  0.45594000000E+02  0.51100000000E-03 0. -1.
         23    2    1    2    0    0  0.00000000000E+00  0.00000000000E+00 -0.17763568394E-14  0.91188000000E+02  0.91188000000E+02 0.  0.
    9900012    2    3    3    0    0 -0.36427381173E+02  0.48419494603E+01  0.23195618201E+01  0.54367096416E+02  0.40000027900E+02 0.  0.
         12    1    3    3    0    0  0.36427381173E+02 -0.48419494603E+01 -0.23195618201E+01  0.36820903584E+02  0.00000000000E+00 0. -1.
         11    1    4    4    0    0 -0.12746495520E+02  0.54455710948E+01 -0.12830211694E+02  0.18887607709E+02  0.51100000000E-03 0. -1.
        -11    1    4    4    0    0 -0.51095432070E+01  0.93009957929E+01  0.24289618681E+01  0.10886496707E+02  0.51100000000E-03 0.  1.
         12    1    4    4    0    0 -0.18571342446E+02 -0.99046174273E+01  0.12720811646E+02  0.24592992001E+02  0.00000000000E+00 0. -1.
</event>
<event>
 8    1  0.2527138E-006  0.9118800E+02  0.7816164E-02  0.1184000E+00
        -11   -1    0    0    0    0  0.00000000000E+00  0.00000000000E+00  0.45593999997E+02  0.45594000000E+02  0.51100000000E-03 0.  1.
         11   -1    0    0    0    0 -0.00000000000E+00 -0.00000000000E+00 -0.45593999997E+02  0.45594000000E+02  0.51100000000E-03 0. -1.
         23    2    1    2    0    0 -0.17763568394E-14  0.17763568394E-14 -0.71054273576E-14  0.91188000000E+02  0.91188000000E+02 0.  0.
    9900012    2    3    3    0    0  0.22642087484E+01 -0.14125151581E+02  0.33928351118E+02  0.54367088034E+02  0.40000008791E+02 0.  0.
         12    1    3    3    0    0 -0.22642087484E+01  0.14125151581E+02 -0.33928351118E+02  0.36820911966E+02  0.00000000000E+00 0. -1.
         11    1    4    4    0    0 -0.89676112126E+01  0.53743232142E+00  0.28330590152E+01  0.94198252641E+01  0.51100000000E-03 0. -1.
        -11    1    4    4    0    0 -0.86084339968E+01 -0.46748607047E+01  0.62475000350E+01  0.11618550488E+02  0.51100000000E-03 0.  1.
        -12    1    4    4    0    0  0.19840253958E+02 -0.99877231973E+01  0.24847792067E+02  0.33328712282E+02  0.00000000000E+00 0.  1.
</event>
<event>
 8    1  0.2527138E-006  0.9118800E+02  0.7816164E-02  0.1184000E+00
        -11   -1    0    0    0    0  0.00000000000E+00  0.00000000000E+00  0.45593999997E+02  0.45594000000E+02  0.51100000000E-03 0.  1.
         11   -1    0    0    0    0 -0.00000000000E+00 -0.00000000000E+00 -0.45593999997E+02  0.45594000000E+02  0.51100000000E-03 0. -1.
         23    2    1    2    0    0 -0.35527136788E-14  0.00000000000E+00  0.00000000000E+00  0.91188000000E+02  0.91188000000E+02 0.  0.
    9900012    2    3    3    0    0 -0.20448540379E+02  0.10988090750E+02 -0.28581472453E+02  0.54367061534E+02  0.39999948379E+02 0.  0.
        -12    1    3    3    0    0  0.20448540379E+02 -0.10988090750E+02  0.28581472453E+02  0.36820938466E+02  0.00000000000E+00 0.  1.
         11    1    4    4    0    0 -0.22899788448E+02  0.15220427433E+02 -0.28132406491E+02  0.39338200486E+02  0.51100000000E-03 0. -1.
        -11    1    4    4    0    0 -0.40853207867E+01 -0.54269176410E+00  0.44502549040E+01  0.60654042942E+01  0.51100000000E-03 0.  1.
         12    1    4    4    0    0  0.65365688562E+01 -0.36896449189E+01 -0.48993208659E+01  0.89634567543E+01  0.00000000000E+00 0. -1.
</event>
<event>
 8    1  0.2527138E-006  0.9118800E+02  0.7816164E-02  0.1184000E+00
        -11   -1    0    0    0    0  0.00000000000E+00  0.00000000000E+00  0.45593999997E+02  0.45594000000E+02  0.51100000000E-03 0. -1.
         11   -1    0    0    0    0 -0.00000000000E+00 -0.00000000000E+00 -0.45593999997E+02  0.45594000000E+02  0.51100000000E-03 0.  1.
         23    2    1    2    0    0  0.88817841970E-15  0.17763568394E-14  0.00000000000E+00  0.91188000000E+02  0.91188000000E+02 0.  0.
    9900012    2    3    3    0    0  0.77180845855E+01 -0.10812661392E+02 -0.34340916721E+02  0.54367067946E+02  0.39999962997E+02 0.  0.
         12    1    3    3    0    0 -0.77180845855E+01  0.10812661392E+02  0.34340916721E+02  0.36820932054E+02  0.00000000000E+00 0. -1.
         11    1    4    4    0    0 -0.14256923802E+01  0.43142803095E+01  0.76710011431E+00  0.46080425560E+01  0.51100000000E-03 0. -1.
        -11    1    4    4    0    0  0.47786668584E+01 -0.24314135297E+02 -0.21761338819E+02  0.32978306501E+02  0.51100000000E-03 0.  1.
        -12    1    4    4    0    0  0.43651101073E+01  0.91871935949E+01 -0.13346678016E+02  0.16780718890E+02  0.00000000000E+00 0.  1.
</event>
<event>
 8    1  0.2527138E-006  0.9118800E+02  0.7816164E-02  0.1184000E+00
        -11   -1    0    0    0    0  0.00000000000E+00  0.00000000000E+00  0.45593999997E+02  0.45594000000E+02  0.51100000000E-03 0. -1.
         11   -1    0    0    0    0 -0.00000000000E+00 -0.00000000000E+00 -0.45593999997E+02  0.45594000000E+02  0.51100000000E-03 0.  1.
         23    2    1    2    0    0  0.88817841970E-15  0.00000000000E+00  0.00000000000E+00  0.91188000000E+02  0.91188000000E+02 0.  0.
    9900012    2    3    3    0    0 -0.35820936160E+01 -0.11726380826E+02  0.34719362322E+02  0.54367169998E+02  0.40000195644E+02 0.  0.
        -12    1    3    3    0    0  0.35820936160E+01  0.11726380826E+02 -0.34719362322E+02  0.36820830002E+02  0.00000000000E+00 0.  1.
         11    1    4    4    0    0  0.59249900390E+01 -0.28660874927E+01  0.10163409841E+02  0.12108462509E+02  0.51100000000E-03 0. -1.
        -11    1    4    4    0    0  0.72641125092E+01 -0.51931100283E+01  0.23407510527E+02  0.25052889487E+02  0.51100000000E-03 0.  1.
        -12    1    4    4    0    0 -0.16771196164E+02 -0.36671833053E+01  0.11484419536E+01  0.17205818001E+02  0.00000000000E+00 0.  1.
</event>
<event>
 8    1  0.2527138E-006  0.9118800E+02  0.7816164E-02  0.1184000E+00
        -11   -1    0    0    0    0  0.00000000000E+00  0.00000000000E+00  0.45593999997E+02  0.45594000000E+02  0.51100000000E-03 0.  1.
         11   -1    0    0    0    0 -0.00000000000E+00 -0.00000000000E+00 -0.45593999997E+02  0.45594000000E+02  0.51100000000E-03 0. -1.
         23    2    1    2    0    0  0.00000000000E+00 -0.66613381478E-15  0.00000000000E+00  0.91188000000E+02  0.91188000000E+02 0.  0.
    9900012    2    3    3    0    0 -0.20972228421E+01 -0.12930308829E+01  0.36738391754E+02  0.54367086090E+02  0.40000004359E+02 0.  0.
         12    1    3    3    0    0  0.20972228421E+01  0.12930308829E+01 -0.36738391754E+02  0.36820913910E+02  0.00000000000E+00 0. -1.
         11    1    4    4    0    0  0.92193814086E+01 -0.56908631051E+00  0.18246300624E+02  0.20451120740E+02  0.51100000000E-03 0. -1.
        -11    1    4    4    0    0 -0.16415391554E+01  0.11202334403E+02  0.13816322921E+02  0.17862746883E+02  0.51100000000E-03 0.  1.
         12    1    4    4    0    0 -0.96750650953E+01 -0.11926278976E+02  0.46757682082E+01  0.16053218467E+02  0.00000000000E+00 0. -1.
</event>
<event>
 8    1  0.2527138E-006  0.9118800E+02  0.7816164E-02  0.1184000E+00
        -11   -1    0    0    0    0  0.00000000000E+00  0.00000000000E+00  0.45593999997E+02  0.45594000000E+02  0.51100000000E-03 0.  1.
         11   -1    0    0    0    0 -0.00000000000E+00 -0.00000000000E+00 -0.45593999997E+02  0.45594000000E+02  0.51100000000E-03 0. -1.
         23    2    1    2    0    0  0.13322676296E-14  0.00000000000E+00  0.44408920985E-15  0.91188000000E+02  0.91188000000E+02 0.  0.
    9900012    2    3    3    0    0 -0.14049921610E+01 -0.36763029453E+02 -0.15118998374E+01  0.54367079606E+02  0.39999989578E+02 0.  0.
         12    1    3    3    0    0  0.14049921610E+01  0.36763029453E+02  0.15118998374E+01  0.36820920394E+02  0.00000000000E+00 0. -1.
         11    1    4    4    0    0  0.10398878863E+02 -0.83834099108E+01 -0.67072266208E+00  0.13374158384E+02  0.51100000000E-03 0. -1.
        -11    1    4    4    0    0  0.58474230099E+01 -0.16186327907E+02  0.63833261902E+01  0.18355827971E+02  0.51100000000E-03 0.  1.
         12    1    4    4    0    0 -0.17651294034E+02 -0.12193291635E+02 -0.72245033655E+01  0.22637093251E+02  0.00000000000E+00 0. -1.
</event>
<event>
 8    1  0.2527138E-006  0.9118800E+02  0.7816164E-02  0.1184000E+00
        -11   -1    0    0    0    0  0.00000000000E+00  0.00000000000E+00  0.45593999997E+02  0.45594000000E+02  0.51100000000E-03 0. -1.
         11   -1    0    0    0    0 -0.00000000000E+00 -0.00000000000E+00 -0.45593999997E+02  0.45594000000E+02  0.51100000000E-03 0.  1.
         23    2    1    2    0    0  0.00000000000E+00  0.00000000000E+00  0.00000000000E+00  0.91188000000E+02  0.91188000000E+02 0.  0.
    9900012    2    3    3    0    0  0.33700546510E+02 -0.56507230256E+01  0.13715521480E+02  0.54367176608E+02  0.40000210713E+02 0.  0.
        -12    1    3    3    0    0 -0.33700546510E+02  0.56507230256E+01 -0.13715521480E+02  0.36820823392E+02  0.00000000000E+00 0.  1.
         11    1    4    4    0    0  0.38302490189E+02 -0.10134603201E+02  0.60490661934E+01  0.40079697339E+02  0.51100000000E-03 0. -1.
        -11    1    4    4    0    0  0.24540828726E+01  0.21354871818E+01  0.57523879852E+01  0.66085396301E+01  0.51100000000E-03 0.  1.
         12    1    4    4    0    0 -0.70560265511E+01  0.23483929939E+01  0.19140673016E+01  0.76789396390E+01  0.00000000000E+00 0. -1.
</event>
<event>
 8    1  0.2527138E-006  0.9118800E+02  0.7816164E-02  0.1184000E+00
        -11   -1    0    0    0    0  0.00000000000E+00  0.00000000000E+00  0.45593999997E+02  0.45594000000E+02  0.51100000000E-03 0.  1.
         11   -1    0    0    0    0 -0.00000000000E+00 -0.00000000000E+00 -0.45593999997E+02  0.45594000000E+02  0.51100000000E-03 0. -1.
         23    2    1    2    0    0  0.71054273576E-14  0.00000000000E+00  0.71054273576E-14  0.91188000000E+02  0.91188000000E+02 0.  0.
    9900012    2    3    3    0    0  0.19258559798E+02 -0.11932931320E+02  0.29025744494E+02  0.54367070913E+02  0.39999969760E+02 0.  0.
         12    1    3    3    0    0 -0.19258559798E+02  0.11932931320E+02 -0.29025744494E+02  0.36820929087E+02  0.00000000000E+00 0. -1.
         11    1    4    4    0    0  0.20741418930E+01 -0.71148317804E+01  0.33570194843E+01  0.81358758555E+01  0.51100000000E-03 0. -1.
        -11    1    4    4    0    0  0.53994064516E+01 -0.18855743806E+02  0.17001236619E+02  0.25956400200E+02  0.51100000000E-03 0.  1.
         12    1    4    4    0    0  0.11785011453E+02  0.14037644266E+02  0.86674883910E+01  0.20274794858E+02  0.00000000000E+00 0. -1.
</event>
<event>
 8    1  0.2527138E-006  0.9118800E+02  0.7816164E-02  0.1184000E+00
        -11   -1    0    0    0    0  0.00000000000E+00  0.00000000000E+00  0.45593999997E+02  0.45594000000E+02  0.51100000000E-03 0. -1.
         11   -1    0    0    0    0 -0.00000000000E+00 -0.00000000000E+00 -0.45593999997E+02  0.45594000000E+02  0.51100000000E-03 0.  1.
         23    2    1    2    0    0 -0.35527136788E-14  0.35527136788E-14 -0.35527136788E-14  0.91188000000E+02  0.91188000000E+02 0.  0.
    9900012    2    3    3    0    0 -0.23211970941E+02 -0.18651868283E+02 -0.21658530592E+02  0.54367085660E+02  0.40000003379E+02 0.  0.
         12    1    3    3    0    0  0.23211970941E+02  0.18651868283E+02  0.21658530592E+02  0.36820914340E+02  0.00000000000E+00 0. -1.
         11    1    4    4    0    0 -0.10812065688E+02 -0.96527978833E+01  0.10817561593E+02  0.18085820703E+02  0.51100000000E-03 0. -1.
        -11    1    4    4    0    0 -0.39067021865E+01 -0.25485083263E+01 -0.51536099945E+01  0.69510368219E+01  0.51100000000E-03 0.  1.
        -12    1    4    4    0    0 -0.84932030668E+01 -0.64505620736E+01 -0.27322482191E+02  0.29330228135E+02  0.00000000000E+00 0.  1.
</event>
<event>
 8    1  0.2527138E-006  0.9118800E+02  0.7816164E-02  0.1184000E+00
        -11   -1    0    0    0    0  0.00000000000E+00  0.00000000000E+00  0.45593999997E+02  0.45594000000E+02  0.51100000000E-03 0.  1.
         11   -1    0    0    0    0 -0.00000000000E+00 -0.00000000000E+00 -0.45593999997E+02  0.45594000000E+02  0.51100000000E-03 0. -1.
         23    2    1    2    0    0  0.00000000000E+00 -0.80491169285E-15 -0.77715611724E-15  0.91188000000E+02  0.91188000000E+02 0.  0.
    9900012    2    3    3    0    0 -0.36815008819E+02 -0.10911852386E+00 -0.65003594333E+00  0.54367091159E+02  0.40000015914E+02 0.  0.
        -12    1    3    3    0    0  0.36815008819E+02  0.10911852386E+00  0.65003594333E+00  0.36820908841E+02  0.00000000000E+00 0.  1.
         11    1    4    4    0    0 -0.21171399066E+02 -0.16177920731E+02 -0.57242548375E+01  0.27252896200E+02  0.51100000000E-03 0. -1.
        -11    1    4    4    0    0 -0.29007373693E+01 -0.17927970975E+01  0.38439289970E+01  0.51385006679E+01  0.51100000000E-03 0.  1.
        -12    1    4    4    0    0 -0.12742872384E+02  0.17861599305E+02  0.12302898971E+01  0.21975694291E+02  0.00000000000E+00 0.  1.
</event>
<event>
 8    1  0.2527138E-006  0.9118800E+02  0.7816164E-02  0.1184000E+00
        -11   -1    0    0    0    0  0.00000000000E+00  0.00000000000E+00  0.45593999997E+02  0.45594000000E+02  0.51100000000E-03 0.  1.
         11   -1    0    0    0    0 -0.00000000000E+00 -0.00000000000E+00 -0.45593999997E+02  0.45594000000E+02  0.51100000000E-03 0. -1.
         23    2    1    2    0    0  0.00000000000E+00  0.35527136788E-14  0.77715611724E-15  0.91188000000E+02  0.91188000000E+02 0.  0.
    9900012    2    3    3    0    0  0.27836294655E+02 -0.24096282099E+02  0.53823223220E+00  0.54367084680E+02  0.40000001145E+02 0.  0.
        -12    1    3    3    0    0 -0.27836294655E+02  0.24096282099E+02 -0.53823223220E+00  0.36820915320E+02  0.00000000000E+00 0.  1.
         11    1    4    4    0    0  0.12596031676E+02  0.39412994616E+01 -0.37840329466E+01  0.13729994939E+02  0.51100000000E-03 0. -1.
        -11    1    4    4    0    0  0.56234549927E+01 -0.45979215497E+01  0.12118647801E+02  0.14128897813E+02  0.51100000000E-03 0.  1.
         12    1    4    4    0    0  0.96168079858E+01 -0.23439660011E+02 -0.77963826224E+01  0.26508191927E+02  0.00000000000E+00 0. -1.
</event>
<event>
 8    1  0.2527138E-006  0.9118800E+02  0.7816164E-02  0.1184000E+00
        -11   -1    0    0    0    0  0.00000000000E+00  0.00000000000E+00  0.45593999997E+02  0.45594000000E+02  0.51100000000E-03 0. -1.
         11   -1    0    0    0    0 -0.00000000000E+00 -0.00000000000E+00 -0.45593999997E+02  0.45594000000E+02  0.51100000000E-03 0.  1.
         23    2    1    2    0    0  0.00000000000E+00 -0.35527136788E-14  0.35527136788E-14  0.91188000000E+02  0.91188000000E+02 0.  0.
    9900012    2    3    3    0    0  0.20217414718E+02  0.23923847041E+02 -0.19356843611E+02  0.54367058816E+02  0.39999942182E+02 0.  0.
         12    1    3    3    0    0 -0.20217414718E+02 -0.23923847041E+02  0.19356843611E+02  0.36820941184E+02  0.00000000000E+00 0. -1.
         11    1    4    4    0    0  0.54975496175E+01  0.81325516620E+01  0.77404393550E+01  0.12501033957E+02  0.51100000000E-03 0. -1.
        -11    1    4    4    0    0  0.12108418250E+02  0.20621430671E+02 -0.14110681758E+02  0.27766320162E+02  0.51100000000E-03 0.  1.
         12    1    4    4    0    0  0.26114468502E+01 -0.48301352915E+01 -0.12986601208E+02  0.14099704696E+02  0.00000000000E+00 0. -1.
</event>
<event>
 8    1  0.2527138E-006  0.9118800E+02  0.7816164E-02  0.1184000E+00
        -11   -1    0    0    0    0  0.00000000000E+00  0.00000000000E+00  0.45593999997E+02  0.45594000000E+02  0.51100000000E-03 0.  1.
         11   -1    0    0    0    0 -0.00000000000E+00 -0.00000000000E+00 -0.45593999997E+02  0.45594000000E+02  0.51100000000E-03 0. -1.
         23    2    1    2    0    0  0.00000000000E+00  0.00000000000E+00 -0.88817841970E-15  0.91188000000E+02  0.91188000000E+02 0.  0.
    9900012    2    3    3    0    0 -0.28216965458E+02  0.23565199580E+02 -0.20650742549E+01  0.54367077923E+02  0.39999985742E+02 0.  0.
         12    1    3    3    0    0  0.28216965458E+02 -0.23565199580E+02  0.20650742549E+01  0.36820922077E+02  0.00000000000E+00 0. -1.
         11    1    4    4    0    0 -0.29269369623E+01  0.16651579121E+02 -0.58716642346E+01  0.17897443626E+02  0.51100000000E-03 0. -1.
        -11    1    4    4    0    0 -0.14944159748E+02  0.16432402025E+02  0.22578508949E+01  0.22325985708E+02  0.51100000000E-03 0.  1.
        -12    1    4    4    0    0 -0.10345868748E+02 -0.95187815668E+01  0.15487390848E+01  0.14143648589E+02  0.00000000000E+00 0.  1.
</event>
<event>
 8    1  0.2527138E-006  0.9118800E+02  0.7816164E-02  0.1184000E+00
        -11   -1    0    0    0    0  0.00000000000E+00  0.00000000000E+00  0.45593999997E+02  0.45594000000E+02  0.51100000000E-03 0.  1.
         11   -1    0    0    0    0 -0.00000000000E+00 -0.00000000000E+00 -0.45593999997E+02  0.45594000000E+02  0.51100000000E-03 0. -1.
         23    2    1    2    0    0 -0.35527136788E-14  0.00000000000E+00 -0.35527136788E-14  0.91188000000E+02  0.91188000000E+02 0.  0.
    9900012    2    3    3    0    0 -0.14471706278E+02 -0.27979683051E+02 -0.19065315394E+02  0.54367092932E+02  0.40000019958E+02 0.  0.
        -12    1    3    3    0    0  0.14471706278E+02  0.27979683051E+02  0.19065315394E+02  0.36820907068E+02  0.00000000000E+00 0.  1.
         11    1    4    4    0    0 -0.35159786383E+01 -0.47878692519E+01 -0.21758772843E+02  0.22555043641E+02  0.51100000000E-03 0. -1.
        -11    1    4    4    0    0  0.46913429771E+01 -0.69828425284E+01 -0.23310962524E+01  0.87294214416E+01  0.51100000000E-03 0.  1.
        -12    1    4    4    0    0 -0.15647070617E+02 -0.16208971270E+02  0.50245537014E+01  0.23082627850E+02  0.00000000000E+00 0.  1.
</event>
<event>
 8    1  0.2527138E-006  0.9118800E+02  0.7816164E-02  0.1184000E+00
        -11   -1    0    0    0    0  0.00000000000E+00  0.00000000000E+00  0.45593999997E+02  0.45594000000E+02  0.51100000000E-03 0.  1.
         11   -1    0    0    0    0 -0.00000000000E+00 -0.00000000000E+00 -0.45593999997E+02  0.45594000000E+02  0.51100000000E-03 0. -1.
         23    2    1    2    0    0  0.00000000000E+00  0.00000000000E+00 -0.35527136788E-14  0.91188000000E+02  0.91188000000E+02 0.  0.
    9900012    2    3    3    0    0  0.19436440826E+02 -0.17808360786E+02 -0.25707522470E+02  0.54366950891E+02  0.39999696146E+02 0.  0.
        -12    1    3    3    0    0 -0.19436440826E+02  0.17808360786E+02  0.25707522470E+02  0.36821049109E+02  0.00000000000E+00 0.  1.
         11    1    4    4    0    0  0.76247690710E+00 -0.81519561273E+01  0.52265682382E+01  0.97135356871E+01  0.51100000000E-03 0. -1.
        -11    1    4    4    0    0  0.15900315611E+02 -0.36181907553E+01 -0.38351612882E+01  0.16751710457E+02  0.51100000000E-03 0.  1.
         12    1    4    4    0    0  0.27736483083E+01 -0.60382139039E+01 -0.27098929420E+02  0.27901704748E+02  0.00000000000E+00 0. -1.
</event>
<event>
 8    1  0.2527138E-006  0.9118800E+02  0.7816164E-02  0.1184000E+00
        -11   -1    0    0    0    0  0.00000000000E+00  0.00000000000E+00  0.45593999997E+02  0.45594000000E+02  0.51100000000E-03 0. -1.
         11   -1    0    0    0    0 -0.00000000000E+00 -0.00000000000E+00 -0.45593999997E+02  0.45594000000E+02  0.51100000000E-03 0.  1.
         23    2    1    2    0    0  0.35527136788E-14  0.00000000000E+00  0.35527136788E-14  0.91188000000E+02  0.91188000000E+02 0.  0.
    9900012    2    3    3    0    0 -0.19849788725E+02  0.11586295212E+02 -0.28766711356E+02  0.54367081606E+02  0.39999994136E+02 0.  0.
         12    1    3    3    0    0  0.19849788725E+02 -0.11586295212E+02  0.28766711356E+02  0.36820918394E+02  0.00000000000E+00 0. -1.
         11    1    4    4    0    0 -0.54985208636E+01  0.36008674119E+01 -0.11071512253E+02  0.12875494617E+02  0.51100000000E-03 0. -1.
        -11    1    4    4    0    0 -0.23595976155E+02 -0.11490522565E+01 -0.15644658460E+02  0.28334532825E+02  0.51100000000E-03 0.  1.
         12    1    4    4    0    0  0.92447082941E+01  0.91344800564E+01 -0.20505406435E+01  0.13157054164E+02  0.00000000000E+00 0. -1.
</event>
<event>
 8    1  0.2527138E-006  0.9118800E+02  0.7816164E-02  0.1184000E+00
        -11   -1    0    0    0    0  0.00000000000E+00  0.00000000000E+00  0.45593999997E+02  0.45594000000E+02  0.51100000000E-03 0. -1.
         11   -1    0    0    0    0 -0.00000000000E+00 -0.00000000000E+00 -0.45593999997E+02  0.45594000000E+02  0.51100000000E-03 0.  1.
         23    2    1    2    0    0  0.00000000000E+00  0.35527136788E-14  0.15543122345E-14  0.91188000000E+02  0.91188000000E+02 0.  0.
    9900012    2    3    3    0    0 -0.31322563479E+02  0.19346059765E+02  0.63633010600E+00  0.54367110177E+02  0.40000059271E+02 0.  0.
        -12    1    3    3    0    0  0.31322563479E+02 -0.19346059765E+02 -0.63633010600E+00  0.36820889823E+02  0.00000000000E+00 0.  1.
         11    1    4    4    0    0  0.14807678863E+01  0.89132455255E+01  0.10754368882E+02  0.14046176335E+02  0.51100000000E-03 0. -1.
        -11    1    4    4    0    0 -0.20550848090E+02 -0.25257272633E+01 -0.86070675472E+01  0.22423163636E+02  0.51100000000E-03 0.  1.
         12    1    4    4    0    0 -0.12252483276E+02  0.12958541503E+02 -0.15109712287E+01  0.17897770206E+02  0.00000000000E+00 0. -1.
</event>
<event>
 8    1  0.2527138E-006  0.9118800E+02  0.7816164E-02  0.1184000E+00
        -11   -1    0    0    0    0  0.00000000000E+00  0.00000000000E+00  0.45593999997E+02  0.45594000000E+02  0.51100000000E-03 0.  1.
         11   -1    0    0    0    0 -0.00000000000E+00 -0.00000000000E+00 -0.45593999997E+02  0.45594000000E+02  0.51100000000E-03 0. -1.
         23    2    1    2    0    0 -0.35527136788E-14  0.17763568394E-14  0.00000000000E+00  0.91188000000E+02  0.91188000000E+02 0.  0.
    9900012    2    3    3    0    0 -0.25048538087E+02 -0.88240050000E+01  0.25504641562E+02  0.54367094719E+02  0.40000024030E+02 0.  0.
         12    1    3    3    0    0  0.25048538087E+02  0.88240050000E+01 -0.25504641562E+02  0.36820905281E+02  0.00000000000E+00 0. -1.
         11    1    4    4    0    0  0.48876215076E+01  0.59412374659E+01  0.38888855019E+00  0.77031409953E+01  0.51100000000E-03 0. -1.
        -11    1    4    4    0    0 -0.13011251659E+02 -0.17559955094E+02  0.16992237469E+02  0.27683584073E+02  0.51100000000E-03 0.  1.
         12    1    4    4    0    0 -0.16924907936E+02  0.27947126283E+01  0.81235155425E+01  0.18980369651E+02  0.00000000000E+00 0. -1.
</event>
<event>
 8    1  0.2527138E-006  0.9118800E+02  0.7816164E-02  0.1184000E+00
        -11   -1    0    0    0    0  0.00000000000E+00  0.00000000000E+00  0.45593999997E+02  0.45594000000E+02  0.51100000000E-03 0.  1.
         11   -1    0    0    0    0 -0.00000000000E+00 -0.00000000000E+00 -0.45593999997E+02  0.45594000000E+02  0.51100000000E-03 0. -1.
         23    2    1    2    0    0  0.71054273576E-14 -0.17763568394E-14 -0.88817841970E-15  0.91188000000E+02  0.91188000000E+02 0.  0.
    9900012    2    3    3    0    0 -0.36325879026E+02  0.80837311407E+00  0.59629497012E+01  0.54367085790E+02  0.40000003677E+02 0.  0.
        -12    1    3    3    0    0  0.36325879026E+02 -0.80837311407E+00 -0.59629497012E+01  0.36820914210E+02  0.00000000000E+00 0.  1.
         11    1    4    4    0    0 -0.14325590390E+02 -0.14126169911E+02  0.68176622891E+00  0.20130474953E+02  0.51100000000E-03 0. -1.
        -11    1    4    4    0    0  0.24199725537E+01  0.54826899016E+00 -0.37439726169E+01  0.44915695769E+01  0.51100000000E-03 0.  1.
         12    1    4    4    0    0 -0.24420261189E+02  0.14386274035E+02  0.90251560892E+01  0.29745041261E+02  0.00000000000E+00 0. -1.
</event>
<event>
 8    1  0.2527138E-006  0.9118800E+02  0.7816164E-02  0.1184000E+00
        -11   -1    0    0    0    0  0.00000000000E+00  0.00000000000E+00  0.45593999997E+02  0.45594000000E+02  0.51100000000E-03 0. -1.
         11   -1    0    0    0    0 -0.00000000000E+00 -0.00000000000E+00 -0.45593999997E+02  0.45594000000E+02  0.51100000000E-03 0.  1.
         23    2    1    2    0    0  0.00000000000E+00  0.00000000000E+00 -0.17763568394E-14  0.91188000000E+02  0.91188000000E+02 0.  0.
    9900012    2    3    3    0    0  0.27326484425E+02  0.21845269474E+02  0.11481551790E+02  0.54367101302E+02  0.40000039038E+02 0.  0.
        -12    1    3    3    0    0 -0.27326484425E+02 -0.21845269474E+02 -0.11481551790E+02  0.36820898698E+02  0.00000000000E+00 0.  1.
         11    1    4    4    0    0  0.30516981121E+01 -0.49517576562E+01  0.96650246957E+01  0.11280313288E+02  0.51100000000E-03 0. -1.
        -11    1    4    4    0    0  0.16038764211E+02  0.29561796904E+02  0.46417608349E+01  0.33951255316E+02  0.51100000000E-03 0.  1.
        -12    1    4    4    0    0  0.82360221022E+01 -0.27647697743E+01 -0.28252337407E+01  0.91355326973E+01  0.00000000000E+00 0.  1.
</event>
<event>
 8    1  0.2527138E-006  0.9118800E+02  0.7816164E-02  0.1184000E+00
        -11   -1    0    0    0    0  0.00000000000E+00  0.00000000000E+00  0.45593999997E+02  0.45594000000E+02  0.51100000000E-03 0.  1.
         11   -1    0    0    0    0 -0.00000000000E+00 -0.00000000000E+00 -0.45593999997E+02  0.45594000000E+02  0.51100000000E-03 0. -1.
         23    2    1    2    0    0 -0.35527136788E-14  0.35527136788E-14 -0.35527136788E-14  0.91188000000E+02  0.91188000000E+02 0.  0.
    9900012    2    3    3    0    0  0.30749335219E+02 -0.16906278188E+02  0.11155161443E+02  0.54367061862E+02  0.39999949126E+02 0.  0.
        -12    1    3    3    0    0 -0.30749335219E+02  0.16906278188E+02 -0.11155161443E+02  0.36820938138E+02  0.00000000000E+00 0.  1.
         11    1    4    4    0    0  0.54219166434E+00 -0.14691930905E+01 -0.88446356962E+01  0.89822091379E+01  0.51100000000E-03 0. -1.
        -11    1    4    4    0    0  0.15156258255E+02 -0.25679409526E+00  0.18554350477E+02  0.23959174222E+02  0.51100000000E-03 0.  1.
         12    1    4    4    0    0  0.15050885299E+02 -0.15180291002E+02  0.14454466623E+01  0.21425678501E+02  0.00000000000E+00 0. -1.
</event>
<event>
 8    1  0.2527138E-006  0.9118800E+02  0.7816164E-02  0.1184000E+00
        -11   -1    0    0    0    0  0.00000000000E+00  0.00000000000E+00  0.45593999997E+02  0.45594000000E+02  0.51100000000E-03 0. -1.
         11   -1    0    0    0    0 -0.00000000000E+00 -0.00000000000E+00 -0.45593999997E+02  0.45594000000E+02  0.51100000000E-03 0.  1.
         23    2    1    2    0    0  0.88817841970E-15  0.00000000000E+00  0.00000000000E+00  0.91188000000E+02  0.91188000000E+02 0.  0.
    9900012    2    3    3    0    0  0.79090402901E+01  0.35065909336E+02  0.79755164163E+01  0.54367085047E+02  0.40000001982E+02 0.  0.
        -12    1    3    3    0    0 -0.79090402901E+01 -0.35065909336E+02 -0.79755164163E+01  0.36820914953E+02  0.00000000000E+00 0.  1.
         11    1    4    4    0    0  0.13264138354E+02  0.82815628511E+01  0.14169916760E+02  0.21102326667E+02  0.51100000000E-03 0. -1.
        -11    1    4    4    0    0  0.31176261161E+01  0.23292878948E+02 -0.49567237054E+01  0.24017637528E+02  0.51100000000E-03 0.  1.
         12    1    4    4    0    0 -0.84727241802E+01  0.34914675370E+01 -0.12376766378E+01  0.92471208522E+01  0.00000000000E+00 0. -1.
</event>
<event>
 8    1  0.2527138E-006  0.9118800E+02  0.7816164E-02  0.1184000E+00
        -11   -1    0    0    0    0  0.00000000000E+00  0.00000000000E+00  0.45593999997E+02  0.45594000000E+02  0.51100000000E-03 0. -1.
         11   -1    0    0    0    0 -0.00000000000E+00 -0.00000000000E+00 -0.45593999997E+02  0.45594000000E+02  0.51100000000E-03 0.  1.
         23    2    1    2    0    0  0.00000000000E+00  0.71054273576E-14  0.00000000000E+00  0.91188000000E+02  0.91188000000E+02 0.  0.
    9900012    2    3    3    0    0  0.20273687654E+02  0.18432240168E+02 -0.24596925049E+02  0.54367100900E+02  0.40000038121E+02 0.  0.
         12    1    3    3    0    0 -0.20273687654E+02 -0.18432240168E+02  0.24596925049E+02  0.36820899100E+02  0.00000000000E+00 0. -1.
         11    1    4    4    0    0  0.10303368144E+02  0.43443299298E+00 -0.93630440614E+01  0.13928916738E+02  0.51100000000E-03 0. -1.
        -11    1    4    4    0    0  0.76316006305E+01  0.20010677993E+02 -0.23392486748E+02  0.31715563978E+02  0.51100000000E-03 0.  1.
         12    1    4    4    0    0  0.23387188796E+01 -0.20128708173E+01  0.81586057604E+01  0.87226201843E+01  0.00000000000E+00 0. -1.
</event>
<event>
 8    1  0.2527138E-006  0.9118800E+02  0.7816164E-02  0.1184000E+00
        -11   -1    0    0    0    0  0.00000000000E+00  0.00000000000E+00  0.45593999997E+02  0.45594000000E+02  0.51100000000E-03 0. -1.
         11   -1    0    0    0    0 -0.00000000000E+00 -0.00000000000E+00 -0.45593999997E+02  0.45594000000E+02  0.51100000000E-03 0.  1.
         23    2    1    2    0    0  0.35527136788E-14  0.00000000000E+00 -0.66613381478E-15  0.91188000000E+02  0.91188000000E+02 0.  0.
    9900012    2    3    3    0    0 -0.19320529573E+02  0.31307117512E+02  0.15366990403E+01  0.54367083202E+02  0.39999997776E+02 0.  0.
        -12    1    3    3    0    0  0.19320529573E+02 -0.31307117512E+02 -0.15366990403E+01  0.36820916798E+02  0.00000000000E+00 0.  1.
         11    1    4    4    0    0 -0.33189327208E+01 -0.15233029339E+00  0.33266761731E+01  0.47016266914E+01  0.51100000000E-03 0. -1.
        -11    1    4    4    0    0  0.51582346141E+01  0.10152815329E+02  0.12068537160E+02  0.16593270711E+02  0.51100000000E-03 0.  1.
         12    1    4    4    0    0 -0.21159831467E+02  0.21306632475E+02 -0.13858514293E+02  0.33072185800E+02  0.00000000000E+00 0. -1.
</event>
<event>
 8    1  0.2527138E-006  0.9118800E+02  0.7816164E-02  0.1184000E+00
        -11   -1    0    0    0    0  0.00000000000E+00  0.00000000000E+00  0.45593999997E+02  0.45594000000E+02  0.51100000000E-03 0. -1.
         11   -1    0    0    0    0 -0.00000000000E+00 -0.00000000000E+00 -0.45593999997E+02  0.45594000000E+02  0.51100000000E-03 0.  1.
         23    2    1    2    0    0  0.00000000000E+00  0.00000000000E+00  0.00000000000E+00  0.91188000000E+02  0.91188000000E+02 0.  0.
    9900012    2    3    3    0    0  0.78483464414E+01  0.27014708656E+02 -0.23756871409E+02  0.54367082510E+02  0.39999996199E+02 0.  0.
         12    1    3    3    0    0 -0.78483464414E+01 -0.27014708656E+02  0.23756871409E+02  0.36820917490E+02  0.00000000000E+00 0. -1.
         11    1    4    4    0    0  0.33815078376E+01 -0.72349513290E+01  0.43533742550E+01  0.90956574064E+01  0.51100000000E-03 0. -1.
        -11    1    4    4    0    0  0.20678670015E+01  0.21776517132E+02 -0.22516702531E+02  0.31392589340E+02  0.51100000000E-03 0.  1.
         12    1    4    4    0    0  0.23989716024E+01  0.12473142853E+02 -0.55935431330E+01  0.13878835764E+02  0.00000000000E+00 0. -1.
</event>
<event>
 8    1  0.2527138E-006  0.9118800E+02  0.7816164E-02  0.1184000E+00
        -11   -1    0    0    0    0  0.00000000000E+00  0.00000000000E+00  0.45593999997E+02  0.45594000000E+02  0.51100000000E-03 0. -1.
         11   -1    0    0    0    0 -0.00000000000E+00 -0.00000000000E+00 -0.45593999997E+02  0.45594000000E+02  0.51100000000E-03 0.  1.
         23    2    1    2    0    0 -0.71054273576E-14  0.00000000000E+00  0.00000000000E+00  0.91188000000E+02  0.91188000000E+02 0.  0.
    9900012    2    3    3    0    0 -0.29773344726E+02 -0.94858886598E+01  0.19476829286E+02  0.54367068197E+02  0.39999963568E+02 0.  0.
        -12    1    3    3    0    0  0.29773344726E+02  0.94858886598E+01 -0.19476829286E+02  0.36820931803E+02  0.00000000000E+00 0.  1.
         11    1    4    4    0    0 -0.18497021849E+02  0.10037078420E+02  0.11218037969E+02  0.23848000684E+02  0.51100000000E-03 0. -1.
        -11    1    4    4    0    0 -0.75367448680E+01 -0.20748598486E+00 -0.26881177121E+01  0.80044706717E+01  0.51100000000E-03 0.  1.
        -12    1    4    4    0    0 -0.37395780081E+01 -0.19315481095E+02  0.10946909029E+02  0.22514596841E+02  0.00000000000E+00 0.  1.
</event>
<event>
 8    1  0.2527138E-006  0.9118800E+02  0.7816164E-02  0.1184000E+00
        -11   -1    0    0    0    0  0.00000000000E+00  0.00000000000E+00  0.45593999997E+02  0.45594000000E+02  0.51100000000E-03 0.  1.
         11   -1    0    0    0    0 -0.00000000000E+00 -0.00000000000E+00 -0.45593999997E+02  0.45594000000E+02  0.51100000000E-03 0. -1.
         23    2    1    2    0    0 -0.35527136788E-14  0.00000000000E+00  0.00000000000E+00  0.91188000000E+02  0.91188000000E+02 0.  0.
    9900012    2    3    3    0    0  0.16261027526E+02 -0.33020531768E+02 -0.10014796234E+01  0.54367088878E+02  0.40000010714E+02 0.  0.
        -12    1    3    3    0    0 -0.16261027526E+02  0.33020531768E+02  0.10014796234E+01  0.36820911122E+02  0.00000000000E+00 0.  1.
         11    1    4    4    0    0  0.39171867956E+01  0.18278286309E+01  0.16950569656E+01  0.46431162243E+01  0.51100000000E-03 0. -1.
        -11    1    4    4    0    0 -0.10596681793E+02 -0.18932329134E+02 -0.20860835963E+01  0.21796203717E+02  0.51100000000E-03 0.  1.
        -12    1    4    4    0    0  0.22940522524E+02 -0.15916031265E+02 -0.61045299271E+00  0.27927768936E+02  0.00000000000E+00 0.  1.
</event>
<event>
 8    1  0.2527138E-006  0.9118800E+02  0.7816164E-02  0.1184000E+00
        -11   -1    0    0    0    0  0.00000000000E+00  0.00000000000E+00  0.45593999997E+02  0.45594000000E+02  0.51100000000E-03 0.  1.
         11   -1    0    0    0    0 -0.00000000000E+00 -0.00000000000E+00 -0.45593999997E+02  0.45594000000E+02  0.51100000000E-03 0. -1.
         23    2    1    2    0    0  0.17763568394E-14  0.00000000000E+00  0.00000000000E+00  0.91188000000E+02  0.91188000000E+02 0.  0.
    9900012    2    3    3    0    0 -0.11803979597E+02 -0.80617065331E+01  0.33933103641E+02  0.54367074302E+02  0.39999977486E+02 0.  0.
         12    1    3    3    0    0  0.11803979597E+02  0.80617065331E+01 -0.33933103641E+02  0.36820925698E+02  0.00000000000E+00 0. -1.
         11    1    4    4    0    0 -0.10853254953E+02  0.25290807133E+01  0.16521121603E+01  0.11265827408E+02  0.51100000000E-03 0. -1.
        -11    1    4    4    0    0 -0.79478230676E+01 -0.96127563132E+01  0.27970978242E+01  0.12782673114E+02  0.51100000000E-03 0.  1.
        -12    1    4    4    0    0  0.69970984237E+01 -0.97803093311E+00  0.29483893657E+02  0.30318573780E+02  0.00000000000E+00 0.  1.
</event>
<event>
 8    1  0.2527138E-006  0.9118800E+02  0.7816164E-02  0.1184000E+00
        -11   -1    0    0    0    0  0.00000000000E+00  0.00000000000E+00  0.45593999997E+02  0.45594000000E+02  0.51100000000E-03 0. -1.
         11   -1    0    0    0    0 -0.00000000000E+00 -0.00000000000E+00 -0.45593999997E+02  0.45594000000E+02  0.51100000000E-03 0.  1.
         23    2    1    2    0    0  0.17763568394E-14 -0.35527136788E-14  0.00000000000E+00  0.91188000000E+02  0.91188000000E+02 0.  0.
    9900012    2    3    3    0    0  0.15499652541E+02 -0.28357978305E+02 -0.17645498690E+02  0.54367112091E+02  0.40000063633E+02 0.  0.
         12    1    3    3    0    0 -0.15499652541E+02  0.28357978305E+02  0.17645498690E+02  0.36820887909E+02  0.00000000000E+00 0. -1.
         11    1    4    4    0    0  0.49820386861E+01 -0.47782051406E+01 -0.85522354637E+01  0.10990572575E+02  0.51100000000E-03 0. -1.
        -11    1    4    4    0    0  0.15158483429E+02 -0.30367620241E+02 -0.54202521738E+01  0.34370788657E+02  0.51100000000E-03 0.  1.
        -12    1    4    4    0    0 -0.46408695746E+01  0.67878470771E+01 -0.36730110524E+01  0.90057508594E+01  0.00000000000E+00 0.  1.
</event>
<event>
 8    1  0.2527138E-006  0.9118800E+02  0.7816164E-02  0.1184000E+00
        -11   -1    0    0    0    0  0.00000000000E+00  0.00000000000E+00  0.45593999997E+02  0.45594000000E+02  0.51100000000E-03 0.  1.
         11   -1    0    0    0    0 -0.00000000000E+00 -0.00000000000E+00 -0.45593999997E+02  0.45594000000E+02  0.51100000000E-03 0. -1.
         23    2    1    2    0    0  0.17763568394E-14  0.00000000000E+00  0.00000000000E+00  0.91188000000E+02  0.91188000000E+02 0.  0.
    9900012    2    3    3    0    0  0.12084696332E+02  0.11614477790E+02 -0.32784817342E+02  0.54367078937E+02  0.39999988054E+02 0.  0.
        -12    1    3    3    0    0 -0.12084696332E+02 -0.11614477790E+02  0.32784817342E+02  0.36820921063E+02  0.00000000000E+00 0.  1.
         11    1    4    4    0    0  0.83418954116E+01  0.17147278185E+01 -0.34975894540E+01  0.92065543391E+01  0.51100000000E-03 0. -1.
        -11    1    4    4    0    0  0.17661418616E+02  0.66948513471E+00 -0.14873768835E+02  0.23099846698E+02  0.51100000000E-03 0.  1.
        -12    1    4    4    0    0 -0.13918617696E+02  0.92302648370E+01 -0.14413459053E+02  0.22060677900E+02  0.00000000000E+00 0.  1.
</event>
<event>
 8    1  0.2527138E-006  0.9118800E+02  0.7816164E-02  0.1184000E+00
        -11   -1    0    0    0    0  0.00000000000E+00  0.00000000000E+00  0.45593999997E+02  0.45594000000E+02  0.51100000000E-03 0.  1.
         11   -1    0    0    0    0 -0.00000000000E+00 -0.00000000000E+00 -0.45593999997E+02  0.45594000000E+02  0.51100000000E-03 0. -1.
         23    2    1    2    0    0  0.00000000000E+00  0.17763568394E-14 -0.35527136788E-14  0.91188000000E+02  0.91188000000E+02 0.  0.
    9900012    2    3    3    0    0  0.29129035773E+02  0.14563687279E+02  0.17180751565E+02  0.54367082893E+02  0.39999997071E+02 0.  0.
         12    1    3    3    0    0 -0.29129035773E+02 -0.14563687279E+02 -0.17180751565E+02  0.36820917107E+02  0.00000000000E+00 0. -1.
         11    1    4    4    0    0  0.40570972018E+01 -0.35974901621E+01 -0.33459931122E+01  0.63716279976E+01  0.51100000000E-03 0. -1.
        -11    1    4    4    0    0  0.14613273008E+02  0.20890472719E+02  0.80631121100E+00  0.25507052680E+02  0.51100000000E-03 0.  1.
        -12    1    4    4    0    0  0.10458665564E+02 -0.27292952774E+01  0.19720433466E+02  0.22488402215E+02  0.00000000000E+00 0.  1.
</event>
<event>
 8    1  0.2527138E-006  0.9118800E+02  0.7816164E-02  0.1184000E+00
        -11   -1    0    0    0    0  0.00000000000E+00  0.00000000000E+00  0.45593999997E+02  0.45594000000E+02  0.51100000000E-03 0. -1.
         11   -1    0    0    0    0 -0.00000000000E+00 -0.00000000000E+00 -0.45593999997E+02  0.45594000000E+02  0.51100000000E-03 0.  1.
         23    2    1    2    0    0  0.00000000000E+00  0.00000000000E+00  0.00000000000E+00  0.91188000000E+02  0.91188000000E+02 0.  0.
    9900012    2    3    3    0    0 -0.42173716212E+01  0.16556872148E+02 -0.32616869609E+02  0.54367130621E+02  0.40000105877E+02 0.  0.
         12    1    3    3    0    0  0.42173716212E+01 -0.16556872148E+02  0.32616869609E+02  0.36820869379E+02  0.00000000000E+00 0. -1.
         11    1    4    4    0    0 -0.52504248692E+01  0.20657753375E+01 -0.15062033931E+02  0.16084130547E+02  0.51100000000E-03 0. -1.
        -11    1    4    4    0    0  0.54954881291E+01  0.77506725977E+01 -0.25338361081E+02  0.27061150345E+02  0.51100000000E-03 0.  1.
         12    1    4    4    0    0 -0.44624348811E+01  0.67404242129E+01  0.77835254030E+01  0.11221849729E+02  0.00000000000E+00 0. -1.
</event>
<event>
 8    1  0.2527138E-006  0.9118800E+02  0.7816164E-02  0.1184000E+00
        -11   -1    0    0    0    0  0.00000000000E+00  0.00000000000E+00  0.45593999997E+02  0.45594000000E+02  0.51100000000E-03 0. -1.
         11   -1    0    0    0    0 -0.00000000000E+00 -0.00000000000E+00 -0.45593999997E+02  0.45594000000E+02  0.51100000000E-03 0.  1.
         23    2    1    2    0    0  0.35527136788E-14  0.35527136788E-14  0.00000000000E+00  0.91188000000E+02  0.91188000000E+02 0.  0.
    9900012    2    3    3    0    0  0.21366589757E+02  0.27911746564E+02  0.10962783651E+02  0.54367090459E+02  0.40000014319E+02 0.  0.
         12    1    3    3    0    0 -0.21366589757E+02 -0.27911746564E+02 -0.10962783651E+02  0.36820909541E+02  0.00000000000E+00 0. -1.
         11    1    4    4    0    0  0.57379552377E+01 -0.91924941798E+01  0.56167058348E+01  0.12205468621E+02  0.51100000000E-03 0. -1.
        -11    1    4    4    0    0  0.87836886579E+01  0.15408599615E+02 -0.28831883842E+01  0.17969165368E+02  0.51100000000E-03 0.  1.
        -12    1    4    4    0    0  0.68449458609E+01  0.21695641129E+02  0.82292662000E+01  0.24192456470E+02  0.00000000000E+00 0.  1.
</event>
<event>
 8    1  0.2527138E-006  0.9118800E+02  0.7816164E-02  0.1184000E+00
        -11   -1    0    0    0    0  0.00000000000E+00  0.00000000000E+00  0.45593999997E+02  0.45594000000E+02  0.51100000000E-03 0.  1.
         11   -1    0    0    0    0 -0.00000000000E+00 -0.00000000000E+00 -0.45593999997E+02  0.45594000000E+02  0.51100000000E-03 0. -1.
         23    2    1    2    0    0  0.00000000000E+00  0.17763568394E-14  0.00000000000E+00  0.91188000000E+02  0.91188000000E+02 0.  0.
    9900012    2    3    3    0    0 -0.63668719985E+01  0.13138045995E+02 -0.33802833747E+02  0.54367124386E+02  0.40000091663E+02 0.  0.
        -12    1    3    3    0    0  0.63668719985E+01 -0.13138045995E+02  0.33802833747E+02  0.36820875614E+02  0.00000000000E+00 0.  1.
         11    1    4    4    0    0  0.10175415365E+02 -0.33648961655E+01 -0.15132473711E+02  0.18543283553E+02  0.51100000000E-03 0. -1.
        -11    1    4    4    0    0 -0.14409348937E+02  0.14357683704E+02 -0.38558614528E+01  0.20703624947E+02  0.51100000000E-03 0.  1.
         12    1    4    4    0    0 -0.21329384263E+01  0.21452584562E+01 -0.14814498584E+02  0.15120215887E+02  0.00000000000E+00 0. -1.
</event>
<event>
 8    1  0.2527138E-006  0.9118800E+02  0.7816164E-02  0.1184000E+00
        -11   -1    0    0    0    0  0.00000000000E+00  0.00000000000E+00  0.45593999997E+02  0.45594000000E+02  0.51100000000E-03 0. -1.
         11   -1    0    0    0    0 -0.00000000000E+00 -0.00000000000E+00 -0.45593999997E+02  0.45594000000E+02  0.51100000000E-03 0.  1.
         23    2    1    2    0    0 -0.44408920985E-15 -0.35527136788E-14  0.35527136788E-14  0.91188000000E+02  0.91188000000E+02 0.  0.
    9900012    2    3    3    0    0 -0.30741003605E+01 -0.19172927683E+02  0.31284633286E+02  0.54367088431E+02  0.40000009696E+02 0.  0.
        -12    1    3    3    0    0  0.30741003605E+01  0.19172927683E+02 -0.31284633286E+02  0.36820911569E+02  0.00000000000E+00 0.  1.
         11    1    4    4    0    0  0.15435846484E+01 -0.43330519837E+01  0.16121129720E+02  0.16764510634E+02  0.51100000000E-03 0. -1.
        -11    1    4    4    0    0 -0.30763152254E+01 -0.14301605380E+02 -0.64070808241E+01  0.15970294823E+02  0.51100000000E-03 0.  1.
        -12    1    4    4    0    0 -0.15413697835E+01 -0.53827031924E+00  0.21570584390E+02  0.21632282974E+02  0.00000000000E+00 0.  1.
</event>
<event>
 8    1  0.2527138E-006  0.9118800E+02  0.7816164E-02  0.1184000E+00
        -11   -1    0    0    0    0  0.00000000000E+00  0.00000000000E+00  0.45593999997E+02  0.45594000000E+02  0.51100000000E-03 0. -1.
         11   -1    0    0    0    0 -0.00000000000E+00 -0.00000000000E+00 -0.45593999997E+02  0.45594000000E+02  0.51100000000E-03 0.  1.
         23    2    1    2    0    0  0.17763568394E-14  0.35527136788E-14  0.35527136788E-14  0.91188000000E+02  0.91188000000E+02 0.  0.
    9900012    2    3    3    0    0  0.97797130588E+01  0.29186164197E+02  0.20206582376E+02  0.54367069277E+02  0.39999966030E+02 0.  0.
        -12    1    3    3    0    0 -0.97797130588E+01 -0.29186164197E+02 -0.20206582376E+02  0.36820930723E+02  0.00000000000E+00 0.  1.
         11    1    4    4    0    0  0.15569788496E+02  0.18702284245E+02  0.12833946150E+02  0.27511886955E+02  0.51100000000E-03 0. -1.
        -11    1    4    4    0    0  0.63691608155E+01  0.11397859345E+02  0.66184303935E+01  0.14638341035E+02  0.51100000000E-03 0.  1.
        -12    1    4    4    0    0 -0.12159236252E+02 -0.91397939339E+00  0.75420583196E+00  0.12216841286E+02  0.00000000000E+00 0.  1.
</event>
<event>
 8    1  0.2527138E-006  0.9118800E+02  0.7816164E-02  0.1184000E+00
        -11   -1    0    0    0    0  0.00000000000E+00  0.00000000000E+00  0.45593999997E+02  0.45594000000E+02  0.51100000000E-03 0. -1.
         11   -1    0    0    0    0 -0.00000000000E+00 -0.00000000000E+00 -0.45593999997E+02  0.45594000000E+02  0.51100000000E-03 0.  1.
         23    2    1    2    0    0  0.00000000000E+00 -0.88817841970E-15 -0.35527136788E-14  0.91188000000E+02  0.91188000000E+02 0.  0.
    9900012    2    3    3    0    0 -0.27403100567E+02  0.75363947551E+01  0.23410548250E+02  0.54367069322E+02  0.39999966133E+02 0.  0.
        -12    1    3    3    0    0  0.27403100567E+02 -0.75363947551E+01 -0.23410548250E+02  0.36820930678E+02  0.00000000000E+00 0.  1.
         11    1    4    4    0    0 -0.28986136234E+02  0.10957256779E+02  0.20808252621E+02  0.37326142947E+02  0.51100000000E-03 0. -1.
        -11    1    4    4    0    0 -0.40019593775E-01  0.60139484189E+01 -0.21062785728E+01  0.63722513165E+01  0.51100000000E-03 0.  1.
         12    1    4    4    0    0  0.16230552604E+01 -0.94348104432E+01  0.47085742024E+01  0.10668675058E+02  0.00000000000E+00 0. -1.
</event>
<event>
 8    1  0.2527138E-006  0.9118800E+02  0.7816164E-02  0.1184000E+00
        -11   -1    0    0    0    0  0.00000000000E+00  0.00000000000E+00  0.45593999997E+02  0.45594000000E+02  0.51100000000E-03 0.  1.
         11   -1    0    0    0    0 -0.00000000000E+00 -0.00000000000E+00 -0.45593999997E+02  0.45594000000E+02  0.51100000000E-03 0. -1.
         23    2    1    2    0    0  0.00000000000E+00  0.88817841970E-15  0.00000000000E+00  0.91188000000E+02  0.91188000000E+02 0.  0.
    9900012    2    3    3    0    0 -0.10675480007E+02 -0.24877658652E+01  0.35151459584E+02  0.54367082531E+02  0.39999996245E+02 0.  0.
         12    1    3    3    0    0  0.10675480007E+02  0.24877658652E+01 -0.35151459584E+02  0.36820917469E+02  0.00000000000E+00 0. -1.
         11    1    4    4    0    0 -0.16004851709E+01 -0.14416877321E+01  0.21182097143E+02  0.21291342277E+02  0.51100000000E-03 0. -1.
        -11    1    4    4    0    0 -0.27041798800E+01  0.84794838874E+01  0.18675111102E+02  0.20687532737E+02  0.51100000000E-03 0.  1.
         12    1    4    4    0    0 -0.63708149566E+01 -0.95255620205E+01 -0.47057486612E+01  0.12388207517E+02  0.00000000000E+00 0. -1.
</event>
<event>
 8    1  0.2527138E-006  0.9118800E+02  0.7816164E-02  0.1184000E+00
        -11   -1    0    0    0    0  0.00000000000E+00  0.00000000000E+00  0.45593999997E+02  0.45594000000E+02  0.51100000000E-03 0.  1.
         11   -1    0    0    0    0 -0.00000000000E+00 -0.00000000000E+00 -0.45593999997E+02  0.45594000000E+02  0.51100000000E-03 0. -1.
         23    2    1    2    0    0  0.00000000000E+00  0.00000000000E+00 -0.35527136788E-14  0.91188000000E+02  0.91188000000E+02 0.  0.
    9900012    2    3    3    0    0  0.12378394020E+02 -0.29330619262E+02 -0.18500549792E+02  0.54367079215E+02  0.39999988687E+02 0.  0.
        -12    1    3    3    0    0 -0.12378394020E+02  0.29330619262E+02  0.18500549792E+02  0.36820920785E+02  0.00000000000E+00 0.  1.
         11    1    4    4    0    0  0.13748672844E+02 -0.18517578932E+02 -0.23190639146E+02  0.32706765030E+02  0.51100000000E-03 0. -1.
        -11    1    4    4    0    0  0.40317226618E+01 -0.10643085587E+02 -0.34471658521E+01  0.11891720276E+02  0.51100000000E-03 0.  1.
        -12    1    4    4    0    0 -0.54020014859E+01 -0.16995474348E+00  0.81372552070E+01  0.97685939097E+01  0.00000000000E+00 0.  1.
</event>
<event>
 8    1  0.2527138E-006  0.9118800E+02  0.7816164E-02  0.1184000E+00
        -11   -1    0    0    0    0  0.00000000000E+00  0.00000000000E+00  0.45593999997E+02  0.45594000000E+02  0.51100000000E-03 0.  1.
         11   -1    0    0    0    0 -0.00000000000E+00 -0.00000000000E+00 -0.45593999997E+02  0.45594000000E+02  0.51100000000E-03 0. -1.
         23    2    1    2    0    0 -0.71054273576E-14  0.66613381478E-15 -0.35527136788E-14  0.91188000000E+02  0.91188000000E+02 0.  0.
    9900012    2    3    3    0    0  0.29615156743E+02 -0.13424672119E+01  0.21838275356E+02  0.54367217857E+02  0.40000304747E+02 0.  0.
         12    1    3    3    0    0 -0.29615156743E+02  0.13424672119E+01 -0.21838275356E+02  0.36820782143E+02  0.00000000000E+00 0. -1.
         11    1    4    4    0    0  0.47189042997E+01  0.68535068498E+01 -0.38057911514E+01  0.91500087694E+01  0.51100000000E-03 0. -1.
        -11    1    4    4    0    0  0.10826369989E+02  0.65226565153E+01  0.20716303741E+02  0.24267685842E+02  0.51100000000E-03 0.  1.
         12    1    4    4    0    0  0.14069882454E+02 -0.14718630577E+02  0.49277627668E+01  0.20949523246E+02  0.00000000000E+00 0. -1.
</event>
<event>
 8    1  0.2527138E-006  0.9118800E+02  0.7816164E-02  0.1184000E+00
        -11   -1    0    0    0    0  0.00000000000E+00  0.00000000000E+00  0.45593999997E+02  0.45594000000E+02  0.51100000000E-03 0.  1.
         11   -1    0    0    0    0 -0.00000000000E+00 -0.00000000000E+00 -0.45593999997E+02  0.45594000000E+02  0.51100000000E-03 0. -1.
         23    2    1    2    0    0  0.00000000000E+00  0.00000000000E+00  0.00000000000E+00  0.91188000000E+02  0.91188000000E+02 0.  0.
    9900012    2    3    3    0    0 -0.11004657071E+02 -0.34781830449E+02 -0.49901412696E+01  0.54367085881E+02  0.40000003884E+02 0.  0.
        -12    1    3    3    0    0  0.11004657071E+02  0.34781830449E+02  0.49901412696E+01  0.36820914119E+02  0.00000000000E+00 0.  1.
         11    1    4    4    0    0 -0.21200820018E+02 -0.19176004982E+02 -0.12093295307E+01  0.28612172492E+02  0.51100000000E-03 0. -1.
        -11    1    4    4    0    0  0.90050379749E+01 -0.47725342749E+01 -0.90678580673E+01  0.13641621697E+02  0.51100000000E-03 0.  1.
         12    1    4    4    0    0  0.11911249723E+01 -0.10833291192E+02  0.52870463284E+01  0.12113291693E+02  0.00000000000E+00 0. -1.
</event>
<event>
 8    1  0.2527138E-006  0.9118800E+02  0.7816164E-02  0.1184000E+00
        -11   -1    0    0    0    0  0.00000000000E+00  0.00000000000E+00  0.45593999997E+02  0.45594000000E+02  0.51100000000E-03 0. -1.
         11   -1    0    0    0    0 -0.00000000000E+00 -0.00000000000E+00 -0.45593999997E+02  0.45594000000E+02  0.51100000000E-03 0.  1.
         23    2    1    2    0    0  0.17763568394E-14  0.00000000000E+00  0.00000000000E+00  0.91188000000E+02  0.91188000000E+02 0.  0.
    9900012    2    3    3    0    0  0.15849692361E+02  0.13394283102E+02  0.30416451814E+02  0.54367080556E+02  0.39999991744E+02 0.  0.
        -12    1    3    3    0    0 -0.15849692361E+02 -0.13394283102E+02 -0.30416451814E+02  0.36820919444E+02  0.00000000000E+00 0.  1.
         11    1    4    4    0    0  0.73589316639E+01  0.27824544382E+01  0.22925364127E+02  0.24237744296E+02  0.51100000000E-03 0. -1.
        -11    1    4    4    0    0 -0.63444496668E+01  0.59581455713E+01  0.11161652379E+02  0.14153940240E+02  0.51100000000E-03 0.  1.
         12    1    4    4    0    0  0.14835210363E+02  0.46536830925E+01 -0.36705646922E+01  0.15975396021E+02  0.00000000000E+00 0. -1.
</event>
<event>
 8    1  0.2527138E-006  0.9118800E+02  0.7816164E-02  0.1184000E+00
        -11   -1    0    0    0    0  0.00000000000E+00  0.00000000000E+00  0.45593999997E+02  0.45594000000E+02  0.51100000000E-03 0. -1.
         11   -1    0    0    0    0 -0.00000000000E+00 -0.00000000000E+00 -0.45593999997E+02  0.45594000000E+02  0.51100000000E-03 0.  1.
         23    2    1    2    0    0 -0.22204460493E-15 -0.35527136788E-14  0.00000000000E+00  0.91188000000E+02  0.91188000000E+02 0.  0.
    9900012    2    3    3    0    0 -0.12972565120E+01 -0.21226860863E+02  0.30058565639E+02  0.54367083867E+02  0.39999999292E+02 0.  0.
        -12    1    3    3    0    0  0.12972565120E+01  0.21226860863E+02 -0.30058565639E+02  0.36820916133E+02  0.00000000000E+00 0.  1.
         11    1    4    4    0    0 -0.81405702857E+00  0.92181185764E+01 -0.29978517862E+00  0.92588482193E+01  0.51100000000E-03 0. -1.
        -11    1    4    4    0    0  0.47608158911E+01 -0.93508000930E+01  0.47479053067E+01  0.11517180010E+02  0.51100000000E-03 0.  1.
         12    1    4    4    0    0 -0.52440153745E+01 -0.21094179347E+02  0.25610445511E+02  0.33591055637E+02  0.00000000000E+00 0. -1.
</event>
<event>
 8    1  0.2527138E-006  0.9118800E+02  0.7816164E-02  0.1184000E+00
        -11   -1    0    0    0    0  0.00000000000E+00  0.00000000000E+00  0.45593999997E+02  0.45594000000E+02  0.51100000000E-03 0.  1.
         11   -1    0    0    0    0 -0.00000000000E+00 -0.00000000000E+00 -0.45593999997E+02  0.45594000000E+02  0.51100000000E-03 0. -1.
         23    2    1    2    0    0  0.35527136788E-14  0.88817841970E-15  0.00000000000E+00  0.91188000000E+02  0.91188000000E+02 0.  0.
    9900012    2    3    3    0    0  0.26556036455E+02  0.31016205459E+01 -0.25316747696E+02  0.54367070678E+02  0.39999969226E+02 0.  0.
        -12    1    3    3    0    0 -0.26556036455E+02 -0.31016205459E+01  0.25316747696E+02  0.36820929322E+02  0.00000000000E+00 0.  1.
         11    1    4    4    0    0  0.19089663957E+02 -0.14605902580E+01  0.31894395161E+00  0.19148115297E+02  0.51100000000E-03 0. -1.
        -11    1    4    4    0    0  0.13257534617E+02 -0.11228201292E+01 -0.73194339478E+01  0.15185422705E+02  0.51100000000E-03 0.  1.
        -12    1    4    4    0    0 -0.57911621189E+01  0.56850309331E+01 -0.18316257699E+02  0.20033532677E+02  0.00000000000E+00 0.  1.
</event>
<event>
 8    1  0.2527138E-006  0.9118800E+02  0.7816164E-02  0.1184000E+00
        -11   -1    0    0    0    0  0.00000000000E+00  0.00000000000E+00  0.45593999997E+02  0.45594000000E+02  0.51100000000E-03 0. -1.
         11   -1    0    0    0    0 -0.00000000000E+00 -0.00000000000E+00 -0.45593999997E+02  0.45594000000E+02  0.51100000000E-03 0.  1.
         23    2    1    2    0    0  0.00000000000E+00 -0.19984014443E-14  0.00000000000E+00  0.91188000000E+02  0.91188000000E+02 0.  0.
    9900012    2    3    3    0    0  0.30163540264E+02  0.12857216713E+01 -0.21078063841E+02  0.54367122542E+02  0.40000087459E+02 0.  0.
         12    1    3    3    0    0 -0.30163540264E+02 -0.12857216713E+01  0.21078063841E+02  0.36820877458E+02  0.00000000000E+00 0. -1.
         11    1    4    4    0    0  0.20333425999E+02 -0.16997912376E+02 -0.12309033089E+02  0.29221388294E+02  0.51100000000E-03 0. -1.
        -11    1    4    4    0    0  0.17913793996E+01  0.35020243108E+01 -0.72535997375E+01  0.82515406949E+01  0.51100000000E-03 0.  1.
         12    1    4    4    0    0  0.80387348652E+01  0.14781609736E+02 -0.15154310148E+01  0.16894193552E+02  0.00000000000E+00 0. -1.
</event>
<event>
 8    1  0.2527138E-006  0.9118800E+02  0.7816164E-02  0.1184000E+00
        -11   -1    0    0    0    0  0.00000000000E+00  0.00000000000E+00  0.45593999997E+02  0.45594000000E+02  0.51100000000E-03 0. -1.
         11   -1    0    0    0    0 -0.00000000000E+00 -0.00000000000E+00 -0.45593999997E+02  0.45594000000E+02  0.51100000000E-03 0.  1.
         23    2    1    2    0    0  0.00000000000E+00  0.00000000000E+00  0.71054273576E-14  0.91188000000E+02  0.91188000000E+02 0.  0.
    9900012    2    3    3    0    0  0.55439677989E+01  0.71995526301E+01  0.35682075391E+02  0.54367086904E+02  0.40000006214E+02 0.  0.
        -12    1    3    3    0    0 -0.55439677989E+01 -0.71995526301E+01 -0.35682075391E+02  0.36820913096E+02  0.00000000000E+00 0.  1.
         11    1    4    4    0    0  0.88616119465E+01  0.97015520178E+00  0.47320004990E+01  0.10092630796E+02  0.51100000000E-03 0. -1.
        -11    1    4    4    0    0  0.46636127667E+01 -0.18832080179E+01 -0.46805680478E+01  0.68704784395E+01  0.51100000000E-03 0.  1.
         12    1    4    4    0    0 -0.79812569143E+01  0.81126054462E+01  0.35630642940E+02  0.37403977668E+02  0.00000000000E+00 0. -1.
</event>
<event>
 8    1  0.2527138E-006  0.9118800E+02  0.7816164E-02  0.1184000E+00
        -11   -1    0    0    0    0  0.00000000000E+00  0.00000000000E+00  0.45593999997E+02  0.45594000000E+02  0.51100000000E-03 0. -1.
         11   -1    0    0    0    0 -0.00000000000E+00 -0.00000000000E+00 -0.45593999997E+02  0.45594000000E+02  0.51100000000E-03 0.  1.
         23    2    1    2    0    0 -0.35527136788E-14  0.00000000000E+00 -0.35527136788E-14  0.91188000000E+02  0.91188000000E+02 0.  0.
    9900012    2    3    3    0    0  0.24980380782E+02 -0.87460094802E+01  0.25598190474E+02  0.54367089346E+02  0.40000011782E+02 0.  0.
        -12    1    3    3    0    0 -0.24980380782E+02  0.87460094802E+01 -0.25598190474E+02  0.36820910654E+02  0.00000000000E+00 0.  1.
         11    1    4    4    0    0  0.14847394591E+02 -0.24823192704E+01 -0.62819343427E+01  0.16311644137E+02  0.51100000000E-03 0. -1.
        -11    1    4    4    0    0  0.38095683788E+01  0.42718325263E+01  0.20582568356E+02  0.21363601868E+02  0.51100000000E-03 0.  1.
         12    1    4    4    0    0  0.63234178125E+01 -0.10535522736E+02  0.11297556461E+02  0.16691843342E+02  0.00000000000E+00 0. -1.
</event>
<event>
 8    1  0.2527138E-006  0.9118800E+02  0.7816164E-02  0.1184000E+00
        -11   -1    0    0    0    0  0.00000000000E+00  0.00000000000E+00  0.45593999997E+02  0.45594000000E+02  0.51100000000E-03 0. -1.
         11   -1    0    0    0    0 -0.00000000000E+00 -0.00000000000E+00 -0.45593999997E+02  0.45594000000E+02  0.51100000000E-03 0.  1.
         23    2    1    2    0    0  0.35527136788E-14 -0.20816681712E-15  0.00000000000E+00  0.91188000000E+02  0.91188000000E+02 0.  0.
    9900012    2    3    3    0    0 -0.18134480025E+02  0.29213246617E-01 -0.32045595273E+02  0.54367076661E+02  0.39999982863E+02 0.  0.
         12    1    3    3    0    0  0.18134480025E+02 -0.29213246617E-01  0.32045595273E+02  0.36820923339E+02  0.00000000000E+00 0. -1.
         11    1    4    4    0    0 -0.14469588375E+02  0.47914111227E+01 -0.42301256873E+01  0.15818361858E+02  0.51100000000E-03 0. -1.
        -11    1    4    4    0    0  0.52400493940E+01 -0.60754847300E+01  0.12513474656E+01  0.81200679244E+01  0.51100000000E-03 0.  1.
        -12    1    4    4    0    0 -0.89049410445E+01  0.13132868539E+01 -0.29066817051E+02  0.30428646878E+02  0.00000000000E+00 0.  1.
</event>
<event>
 8    1  0.2527138E-006  0.9118800E+02  0.7816164E-02  0.1184000E+00
        -11   -1    0    0    0    0  0.00000000000E+00  0.00000000000E+00  0.45593999997E+02  0.45594000000E+02  0.51100000000E-03 0.  1.
         11   -1    0    0    0    0 -0.00000000000E+00 -0.00000000000E+00 -0.45593999997E+02  0.45594000000E+02  0.51100000000E-03 0. -1.
         23    2    1    2    0    0  0.35527136788E-14  0.00000000000E+00  0.00000000000E+00  0.91188000000E+02  0.91188000000E+02 0.  0.
    9900012    2    3    3    0    0 -0.25980655232E+02  0.81028065452E+01 -0.24801813434E+02  0.54367083800E+02  0.39999999139E+02 0.  0.
        -12    1    3    3    0    0  0.25980655232E+02 -0.81028065452E+01  0.24801813434E+02  0.36820916200E+02  0.00000000000E+00 0.  1.
         11    1    4    4    0    0 -0.13768879750E+02  0.10756632262E+02 -0.28710207651E+02  0.33608975153E+02  0.51100000000E-03 0. -1.
        -11    1    4    4    0    0 -0.62446922137E+01  0.67830989173E+01  0.19029871492E+01  0.94142430453E+01  0.51100000000E-03 0.  1.
         12    1    4    4    0    0 -0.59670832680E+01 -0.94369246344E+01  0.20054070678E+01  0.11343865602E+02  0.00000000000E+00 0. -1.
</event>
<event>
 8    1  0.2527138E-006  0.9118800E+02  0.7816164E-02  0.1184000E+00
        -11   -1    0    0    0    0  0.00000000000E+00  0.00000000000E+00  0.45593999997E+02  0.45594000000E+02  0.51100000000E-03 0.  1.
         11   -1    0    0    0    0 -0.00000000000E+00 -0.00000000000E+00 -0.45593999997E+02  0.45594000000E+02  0.51100000000E-03 0. -1.
         23    2    1    2    0    0  0.00000000000E+00  0.00000000000E+00  0.17763568394E-14  0.91188000000E+02  0.91188000000E+02 0.  0.
    9900012    2    3    3    0    0 -0.30738784705E+02  0.20126640075E+02  0.24140704396E+01  0.54367051317E+02  0.39999925087E+02 0.  0.
         12    1    3    3    0    0  0.30738784705E+02 -0.20126640075E+02 -0.24140704396E+01  0.36820948683E+02  0.00000000000E+00 0. -1.
         11    1    4    4    0    0 -0.78958282869E+01  0.10364471709E+02 -0.16660719621E+02  0.21150554525E+02  0.51100000000E-03 0. -1.
        -11    1    4    4    0    0 -0.10240823607E+02  0.57427284791E+01  0.24891689597E+01  0.12002056528E+02  0.51100000000E-03 0.  1.
        -12    1    4    4    0    0 -0.12602132811E+02  0.40194398868E+01  0.16585621101E+02  0.21214440264E+02  0.00000000000E+00 0.  1.
</event>
<event>
 8    1  0.2527138E-006  0.9118800E+02  0.7816164E-02  0.1184000E+00
        -11   -1    0    0    0    0  0.00000000000E+00  0.00000000000E+00  0.45593999997E+02  0.45594000000E+02  0.51100000000E-03 0.  1.
         11   -1    0    0    0    0 -0.00000000000E+00 -0.00000000000E+00 -0.45593999997E+02  0.45594000000E+02  0.51100000000E-03 0. -1.
         23    2    1    2    0    0  0.35527136788E-14  0.00000000000E+00  0.00000000000E+00  0.91188000000E+02  0.91188000000E+02 0.  0.
    9900012    2    3    3    0    0  0.17234563147E+02 -0.19758871033E+02  0.25852203944E+02  0.54367087462E+02  0.40000007487E+02 0.  0.
         12    1    3    3    0    0 -0.17234563147E+02  0.19758871033E+02 -0.25852203944E+02  0.36820912538E+02  0.00000000000E+00 0. -1.
         11    1    4    4    0    0  0.97184077215E+00 -0.82564724682E+01 -0.81826261983E+01  0.11664869646E+02  0.51100000000E-03 0. -1.
        -11    1    4    4    0    0  0.13952845750E+01 -0.61933173256E+01  0.21867930456E+02  0.22770823025E+02  0.51100000000E-03 0.  1.
         12    1    4    4    0    0  0.14867437800E+02 -0.53090812396E+01  0.12166899686E+02  0.19931394791E+02  0.00000000000E+00 0. -1.
</event>
<event>
 8    1  0.2527138E-006  0.9118800E+02  0.7816164E-02  0.1184000E+00
        -11   -1    0    0    0    0  0.00000000000E+00  0.00000000000E+00  0.45593999997E+02  0.45594000000E+02  0.51100000000E-03 0.  1.
         11   -1    0    0    0    0 -0.00000000000E+00 -0.00000000000E+00 -0.45593999997E+02  0.45594000000E+02  0.51100000000E-03 0. -1.
         23    2    1    2    0    0  0.00000000000E+00  0.88817841970E-15  0.22204460493E-15  0.91188000000E+02  0.91188000000E+02 0.  0.
    9900012    2    3    3    0    0 -0.36690931449E+02  0.24666915085E+01  0.18578658335E+01  0.54367344343E+02  0.40000593094E+02 0.  0.
         12    1    3    3    0    0  0.36690931449E+02 -0.24666915085E+01 -0.18578658335E+01  0.36820655657E+02  0.00000000000E+00 0. -1.
         11    1    4    4    0    0 -0.16970462329E+02 -0.11821429430E+02 -0.44586196275E+01  0.21157080958E+02  0.51100000000E-03 0. -1.
        -11    1    4    4    0    0 -0.19154453525E+02  0.81259388024E+01 -0.39926977382E+01  0.21186448658E+02  0.51100000000E-03 0.  1.
        -12    1    4    4    0    0 -0.56601559451E+00  0.61621821364E+01  0.10309183199E+02  0.12023814726E+02  0.00000000000E+00 0.  1.
</event>
<event>
 8    1  0.2527138E-006  0.9118800E+02  0.7816164E-02  0.1184000E+00
        -11   -1    0    0    0    0  0.00000000000E+00  0.00000000000E+00  0.45593999997E+02  0.45594000000E+02  0.51100000000E-03 0.  1.
         11   -1    0    0    0    0 -0.00000000000E+00 -0.00000000000E+00 -0.45593999997E+02  0.45594000000E+02  0.51100000000E-03 0. -1.
         23    2    1    2    0    0  0.17763568394E-14 -0.71054273576E-14 -0.35527136788E-14  0.91188000000E+02  0.91188000000E+02 0.  0.
    9900012    2    3    3    0    0 -0.82727573120E+01 -0.29944002510E+02  0.19766078831E+02  0.54367086483E+02  0.40000005255E+02 0.  0.
         12    1    3    3    0    0  0.82727573120E+01  0.29944002510E+02 -0.19766078831E+02  0.36820913517E+02  0.00000000000E+00 0. -1.
         11    1    4    4    0    0  0.78924453281E+01  0.23014768909E+01 -0.12041208926E+01  0.83088745641E+01  0.51100000000E-03 0. -1.
        -11    1    4    4    0    0  0.19727336792E+01 -0.14989491971E+02  0.12538059488E+02  0.19641269911E+02  0.51100000000E-03 0.  1.
         12    1    4    4    0    0 -0.18137936319E+02 -0.17255987430E+02  0.84321402357E+01  0.26416942008E+02  0.00000000000E+00 0. -1.
</event>
<event>
 8    1  0.2527138E-006  0.9118800E+02  0.7816164E-02  0.1184000E+00
        -11   -1    0    0    0    0  0.00000000000E+00  0.00000000000E+00  0.45593999997E+02  0.45594000000E+02  0.51100000000E-03 0.  1.
         11   -1    0    0    0    0 -0.00000000000E+00 -0.00000000000E+00 -0.45593999997E+02  0.45594000000E+02  0.51100000000E-03 0. -1.
         23    2    1    2    0    0  0.00000000000E+00 -0.35527136788E-14  0.00000000000E+00  0.91188000000E+02  0.91188000000E+02 0.  0.
    9900012    2    3    3    0    0  0.16834908507E+02  0.29980335833E+02  0.13173637363E+02  0.54367090146E+02  0.40000013605E+02 0.  0.
         12    1    3    3    0    0 -0.16834908507E+02 -0.29980335833E+02 -0.13173637363E+02  0.36820909854E+02  0.00000000000E+00 0. -1.
         11    1    4    4    0    0  0.36619964821E+01  0.12481071195E+02 -0.27492663298E+01  0.13294578671E+02  0.51100000000E-03 0. -1.
        -11    1    4    4    0    0 -0.58684259003E+01 -0.21730046392E+00 -0.49842483927E+01  0.77024914372E+01  0.51100000000E-03 0.  1.
        -12    1    4    4    0    0  0.19041337925E+02  0.17716565102E+02  0.20907152086E+02  0.33370020038E+02  0.00000000000E+00 0.  1.
</event>
<event>
 8    1  0.2527138E-006  0.9118800E+02  0.7816164E-02  0.1184000E+00
        -11   -1    0    0    0    0  0.00000000000E+00  0.00000000000E+00  0.45593999997E+02  0.45594000000E+02  0.51100000000E-03 0. -1.
         11   -1    0    0    0    0 -0.00000000000E+00 -0.00000000000E+00 -0.45593999997E+02  0.45594000000E+02  0.51100000000E-03 0.  1.
         23    2    1    2    0    0  0.00000000000E+00  0.88817841970E-15  0.35527136788E-14  0.91188000000E+02  0.91188000000E+02 0.  0.
    9900012    2    3    3    0    0 -0.23184494703E+02 -0.46686160381E+01 -0.28221684942E+02  0.54367078348E+02  0.39999986710E+02 0.  0.
         12    1    3    3    0    0  0.23184494703E+02  0.46686160381E+01  0.28221684942E+02  0.36820921652E+02  0.00000000000E+00 0. -1.
         11    1    4    4    0    0 -0.80926855035E+01 -0.14428804845E+02 -0.12914338911E+02  0.20987189370E+02  0.51100000000E-03 0. -1.
        -11    1    4    4    0    0 -0.13556089633E+02  0.19789168673E+01 -0.19941479859E+02  0.24193931002E+02  0.51100000000E-03 0.  1.
        -12    1    4    4    0    0 -0.15357195668E+01  0.77812719392E+01  0.46341338287E+01  0.91859579752E+01  0.00000000000E+00 0.  1.
</event>
<event>
 8    1  0.2527138E-006  0.9118800E+02  0.7816164E-02  0.1184000E+00
        -11   -1    0    0    0    0  0.00000000000E+00  0.00000000000E+00  0.45593999997E+02  0.45594000000E+02  0.51100000000E-03 0. -1.
         11   -1    0    0    0    0 -0.00000000000E+00 -0.00000000000E+00 -0.45593999997E+02  0.45594000000E+02  0.51100000000E-03 0.  1.
         23    2    1    2    0    0 -0.35527136788E-14  0.00000000000E+00  0.00000000000E+00  0.91188000000E+02  0.91188000000E+02 0.  0.
    9900012    2    3    3    0    0  0.21914546675E+02 -0.17543803731E+02 -0.23827446070E+02  0.54367087579E+02  0.40000007753E+02 0.  0.
         12    1    3    3    0    0 -0.21914546675E+02  0.17543803731E+02  0.23827446070E+02  0.36820912421E+02  0.00000000000E+00 0. -1.
         11    1    4    4    0    0  0.28751920698E+01 -0.57470354616E+01 -0.15678660528E+02  0.16944484125E+02  0.51100000000E-03 0. -1.
        -11    1    4    4    0    0  0.43000194936E+01 -0.17708517131E+02 -0.11003256972E+02  0.21287400285E+02  0.51100000000E-03 0.  1.
        -12    1    4    4    0    0  0.14739335112E+02  0.59117488623E+01  0.28544714306E+01  0.16135203169E+02  0.00000000000E+00 0.  1.
</event>
<event>
 8    1  0.2527138E-006  0.9118800E+02  0.7816164E-02  0.1184000E+00
        -11   -1    0    0    0    0  0.00000000000E+00  0.00000000000E+00  0.45593999997E+02  0.45594000000E+02  0.51100000000E-03 0. -1.
         11   -1    0    0    0    0 -0.00000000000E+00 -0.00000000000E+00 -0.45593999997E+02  0.45594000000E+02  0.51100000000E-03 0.  1.
         23    2    1    2    0    0 -0.35527136788E-14  0.35527136788E-14  0.17763568394E-14  0.91188000000E+02  0.91188000000E+02 0.  0.
    9900012    2    3    3    0    0 -0.16607561991E+02  0.30386585688E+02 -0.12514942285E+02  0.54367089019E+02  0.40000011037E+02 0.  0.
         12    1    3    3    0    0  0.16607561991E+02 -0.30386585688E+02  0.12514942285E+02  0.36820910981E+02  0.00000000000E+00 0. -1.
         11    1    4    4    0    0 -0.41014980766E+01 -0.15183990241E+01 -0.11451482478E+01  0.45209718911E+01  0.51100000000E-03 0. -1.
        -11    1    4    4    0    0 -0.22196173070E+02  0.11403637659E+02 -0.10723776962E+02  0.27160862346E+02  0.51100000000E-03 0.  1.
         12    1    4    4    0    0  0.96901091552E+01  0.20501347054E+02 -0.64601707482E+00  0.22685254782E+02  0.00000000000E+00 0. -1.
</event>
<event>
 8    1  0.2527138E-006  0.9118800E+02  0.7816164E-02  0.1184000E+00
        -11   -1    0    0    0    0  0.00000000000E+00  0.00000000000E+00  0.45593999997E+02  0.45594000000E+02  0.51100000000E-03 0.  1.
         11   -1    0    0    0    0 -0.00000000000E+00 -0.00000000000E+00 -0.45593999997E+02  0.45594000000E+02  0.51100000000E-03 0. -1.
         23    2    1    2    0    0  0.00000000000E+00  0.00000000000E+00  0.17763568394E-14  0.91188000000E+02  0.91188000000E+02 0.  0.
    9900012    2    3    3    0    0 -0.25628213016E+02 -0.25834449164E+02 -0.56174736683E+01  0.54367080995E+02  0.39999992744E+02 0.  0.
        -12    1    3    3    0    0  0.25628213016E+02  0.25834449164E+02  0.56174736683E+01  0.36820919005E+02  0.00000000000E+00 0.  1.
         11    1    4    4    0    0 -0.82443917139E+01 -0.75979138256E+01 -0.13746079662E+02  0.17738460914E+02  0.51100000000E-03 0. -1.
        -11    1    4    4    0    0 -0.19860831859E+02 -0.18961407772E+02  0.13553084544E+02  0.30621458615E+02  0.51100000000E-03 0.  1.
         12    1    4    4    0    0  0.24770105569E+01  0.72487243410E+00 -0.54244785495E+01  0.60071614660E+01  0.00000000000E+00 0. -1.
</event>
<event>
 8    1  0.2527138E-006  0.9118800E+02  0.7816164E-02  0.1184000E+00
        -11   -1    0    0    0    0  0.00000000000E+00  0.00000000000E+00  0.45593999997E+02  0.45594000000E+02  0.51100000000E-03 0. -1.
         11   -1    0    0    0    0 -0.00000000000E+00 -0.00000000000E+00 -0.45593999997E+02  0.45594000000E+02  0.51100000000E-03 0.  1.
         23    2    1    2    0    0  0.35527136788E-14  0.00000000000E+00 -0.35527136788E-14  0.91188000000E+02  0.91188000000E+02 0.  0.
    9900012    2    3    3    0    0 -0.14008718575E+02  0.12740247194E+02 -0.31578827979E+02  0.54367075633E+02  0.39999980522E+02 0.  0.
         12    1    3    3    0    0  0.14008718575E+02 -0.12740247194E+02  0.31578827979E+02  0.36820924367E+02  0.00000000000E+00 0. -1.
         11    1    4    4    0    0 -0.11331969546E+01 -0.40745261217E+01  0.38825002687E+01  0.57410545244E+01  0.51100000000E-03 0. -1.
        -11    1    4    4    0    0  0.21247650151E+01 -0.31230079359E+01 -0.17449047514E+02  0.17853208797E+02  0.51100000000E-03 0.  1.
        -12    1    4    4    0    0 -0.15000286636E+02  0.19937781251E+02 -0.18012280733E+02  0.30772812312E+02  0.00000000000E+00 0.  1.
</event>
<event>
 8    1  0.2527138E-006  0.9118800E+02  0.7816164E-02  0.1184000E+00
        -11   -1    0    0    0    0  0.00000000000E+00  0.00000000000E+00  0.45593999997E+02  0.45594000000E+02  0.51100000000E-03 0.  1.
         11   -1    0    0    0    0 -0.00000000000E+00 -0.00000000000E+00 -0.45593999997E+02  0.45594000000E+02  0.51100000000E-03 0. -1.
         23    2    1    2    0    0 -0.35527136788E-14  0.35527136788E-14  0.00000000000E+00  0.91188000000E+02  0.91188000000E+02 0.  0.
    9900012    2    3    3    0    0 -0.24989768760E+02  0.17476352263E+02 -0.20636558004E+02  0.54367096191E+02  0.40000027386E+02 0.  0.
        -12    1    3    3    0    0  0.24989768760E+02 -0.17476352263E+02  0.20636558004E+02  0.36820903809E+02  0.00000000000E+00 0.  1.
         11    1    4    4    0    0 -0.46946820098E+01 -0.10012588523E+02 -0.61977122839E+01  0.12676892597E+02  0.51100000000E-03 0. -1.
        -11    1    4    4    0    0  0.21079284898E+01 -0.12986608756E+01 -0.47607188469E-01  0.24763176883E+01  0.51100000000E-03 0.  1.
        -12    1    4    4    0    0 -0.22403015240E+02  0.28787601662E+02 -0.14391238532E+02  0.39213885905E+02  0.00000000000E+00 0.  1.
</event>
<event>
 8    1  0.2527138E-006  0.9118800E+02  0.7816164E-02  0.1184000E+00
        -11   -1    0    0    0    0  0.00000000000E+00  0.00000000000E+00  0.45593999997E+02  0.45594000000E+02  0.51100000000E-03 0. -1.
         11   -1    0    0    0    0 -0.00000000000E+00 -0.00000000000E+00 -0.45593999997E+02  0.45594000000E+02  0.51100000000E-03 0.  1.
         23    2    1    2    0    0  0.00000000000E+00  0.00000000000E+00 -0.35527136788E-14  0.91188000000E+02  0.91188000000E+02 0.  0.
    9900012    2    3    3    0    0 -0.33175861036E+02  0.54576766057E+01 -0.15011739243E+02  0.54367132214E+02  0.40000109509E+02 0.  0.
         12    1    3    3    0    0  0.33175861036E+02 -0.54576766057E+01  0.15011739243E+02  0.36820867786E+02  0.00000000000E+00 0. -1.
         11    1    4    4    0    0 -0.88745353123E+01 -0.64129472775E+01  0.11009390137E+02  0.15527071238E+02  0.51100000000E-03 0. -1.
        -11    1    4    4    0    0 -0.19258367494E+02  0.43189224016E+01 -0.17187949412E+02  0.26171805717E+02  0.51100000000E-03 0.  1.
         12    1    4    4    0    0 -0.50429582295E+01  0.75517014817E+01 -0.88331799671E+01  0.12668255259E+02  0.00000000000E+00 0. -1.
</event>
<event>
 8    1  0.2527138E-006  0.9118800E+02  0.7816164E-02  0.1184000E+00
        -11   -1    0    0    0    0  0.00000000000E+00  0.00000000000E+00  0.45593999997E+02  0.45594000000E+02  0.51100000000E-03 0.  1.
         11   -1    0    0    0    0 -0.00000000000E+00 -0.00000000000E+00 -0.45593999997E+02  0.45594000000E+02  0.51100000000E-03 0. -1.
         23    2    1    2    0    0  0.35527136788E-14 -0.35527136788E-14  0.66613381478E-15  0.91188000000E+02  0.91188000000E+02 0.  0.
    9900012    2    3    3    0    0  0.22329280572E+02 -0.29233185386E+02  0.16131953954E+01  0.54367105143E+02  0.40000047794E+02 0.  0.
         12    1    3    3    0    0 -0.22329280572E+02  0.29233185386E+02 -0.16131953954E+01  0.36820894857E+02  0.00000000000E+00 0. -1.
         11    1    4    4    0    0  0.67549265670E+01 -0.97371255860E+01  0.12938850343E+02  0.17545782857E+02  0.51100000000E-03 0. -1.
        -11    1    4    4    0    0 -0.32497392502E+01 -0.10345105786E+01  0.48198898487E+01  0.59044352605E+01  0.51100000000E-03 0.  1.
        -12    1    4    4    0    0  0.18824093256E+02 -0.18461549221E+02 -0.16145544797E+02  0.30916887025E+02  0.00000000000E+00 0.  1.
</event>
<event>
 8    1  0.2527138E-006  0.9118800E+02  0.7816164E-02  0.1184000E+00
        -11   -1    0    0    0    0  0.00000000000E+00  0.00000000000E+00  0.45593999997E+02  0.45594000000E+02  0.51100000000E-03 0. -1.
         11   -1    0    0    0    0 -0.00000000000E+00 -0.00000000000E+00 -0.45593999997E+02  0.45594000000E+02  0.51100000000E-03 0.  1.
         23    2    1    2    0    0 -0.35527136788E-14  0.35527136788E-14  0.00000000000E+00  0.91188000000E+02  0.91188000000E+02 0.  0.
    9900012    2    3    3    0    0  0.22035765402E+02  0.23275931401E+02 -0.18122776074E+02  0.54367096262E+02  0.40000027549E+02 0.  0.
        -12    1    3    3    0    0 -0.22035765402E+02 -0.23275931401E+02  0.18122776074E+02  0.36820903738E+02  0.00000000000E+00 0.  1.
         11    1    4    4    0    0  0.28646869982E+01  0.72374440676E+01 -0.16748176604E+02  0.18468580022E+02  0.51100000000E-03 0. -1.
        -11    1    4    4    0    0 -0.21779649421E+01 -0.27211931990E+01 -0.61605250303E+01  0.70781701467E+01  0.51100000000E-03 0.  1.
         12    1    4    4    0    0  0.21349043346E+02  0.18759680533E+02  0.47859255604E+01  0.28820346093E+02  0.00000000000E+00 0. -1.
</event>
<event>
 8    1  0.2527138E-006  0.9118800E+02  0.7816164E-02  0.1184000E+00
        -11   -1    0    0    0    0  0.00000000000E+00  0.00000000000E+00  0.45593999997E+02  0.45594000000E+02  0.51100000000E-03 0.  1.
         11   -1    0    0    0    0 -0.00000000000E+00 -0.00000000000E+00 -0.45593999997E+02  0.45594000000E+02  0.51100000000E-03 0. -1.
         23    2    1    2    0    0 -0.35527136788E-14 -0.17763568394E-14 -0.35527136788E-14  0.91188000000E+02  0.91188000000E+02 0.  0.
    9900012    2    3    3    0    0 -0.15620379384E+02  0.14265601414E+02 -0.30137608944E+02  0.54367094136E+02  0.40000022702E+02 0.  0.
        -12    1    3    3    0    0  0.15620379384E+02 -0.14265601414E+02  0.30137608944E+02  0.36820905864E+02  0.00000000000E+00 0.  1.
         11    1    4    4    0    0 -0.20508545927E+02 -0.29228465511E+01 -0.16711063366E+02  0.26615843535E+02  0.51100000000E-03 0. -1.
        -11    1    4    4    0    0 -0.11541520728E+01  0.71497422868E+01 -0.14271489679E+02  0.16003946379E+02  0.51100000000E-03 0.  1.
         12    1    4    4    0    0  0.60423186160E+01  0.10038705679E+02  0.84494410083E+00  0.11747304222E+02  0.00000000000E+00 0. -1.
</event>
<event>
 8    1  0.2527138E-006  0.9118800E+02  0.7816164E-02  0.1184000E+00
        -11   -1    0    0    0    0  0.00000000000E+00  0.00000000000E+00  0.45593999997E+02  0.45594000000E+02  0.51100000000E-03 0.  1.
         11   -1    0    0    0    0 -0.00000000000E+00 -0.00000000000E+00 -0.45593999997E+02  0.45594000000E+02  0.51100000000E-03 0. -1.
         23    2    1    2    0    0  0.00000000000E+00 -0.35527136788E-14 -0.17763568394E-14  0.91188000000E+02  0.91188000000E+02 0.  0.
    9900012    2    3    3    0    0  0.17605698484E+02 -0.29786041523E+02 -0.12594014665E+02  0.54367107913E+02  0.40000054109E+02 0.  0.
        -12    1    3    3    0    0 -0.17605698484E+02  0.29786041523E+02  0.12594014665E+02  0.36820892087E+02  0.00000000000E+00 0.  1.
         11    1    4    4    0    0  0.13072895988E+02 -0.38476445721E+02 -0.89447951904E+01  0.41609456210E+02  0.51100000000E-03 0. -1.
        -11    1    4    4    0    0  0.35361819033E+01  0.54822561776E+01  0.14198060231E+01  0.66764934400E+01  0.51100000000E-03 0.  1.
         12    1    4    4    0    0  0.99662059273E+00  0.32081480200E+01 -0.50690254978E+01  0.60811582631E+01  0.00000000000E+00 0. -1.
</event>
<event>
 8    1  0.2527138E-006  0.9118800E+02  0.7816164E-02  0.1184000E+00
        -11   -1    0    0    0    0  0.00000000000E+00  0.00000000000E+00  0.45593999997E+02  0.45594000000E+02  0.51100000000E-03 0.  1.
         11   -1    0    0    0    0 -0.00000000000E+00 -0.00000000000E+00 -0.45593999997E+02  0.45594000000E+02  0.51100000000E-03 0. -1.
         23    2    1    2    0    0  0.35527136788E-14  0.17763568394E-14 -0.35527136788E-14  0.91188000000E+02  0.91188000000E+02 0.  0.
    9900012    2    3    3    0    0 -0.31513154817E+02  0.95571756580E+01  0.16473296394E+02  0.54366973029E+02  0.39999746614E+02 0.  0.
         12    1    3    3    0    0  0.31513154817E+02 -0.95571756580E+01 -0.16473296394E+02  0.36821026971E+02  0.00000000000E+00 0. -1.
         11    1    4    4    0    0 -0.19758869785E+02 -0.25994038672E+01  0.80795081886E+01  0.21504610865E+02  0.51100000000E-03 0.  1.
        -11    1    4    4    0    0  0.76657256801E+01  0.42780145417E+01 -0.26544252345E+01  0.91711903376E+01  0.51100000000E-03 0. -1.
         12    1    4    4    0    0 -0.19420010713E+02  0.78785649835E+01  0.11048213440E+02  0.23691171826E+02  0.00000000000E+00 0. -1.
</event>
<event>
 8    1  0.2527138E-006  0.9118800E+02  0.7816164E-02  0.1184000E+00
        -11   -1    0    0    0    0  0.00000000000E+00  0.00000000000E+00  0.45593999997E+02  0.45594000000E+02  0.51100000000E-03 0.  1.
         11   -1    0    0    0    0 -0.00000000000E+00 -0.00000000000E+00 -0.45593999997E+02  0.45594000000E+02  0.51100000000E-03 0. -1.
         23    2    1    2    0    0  0.00000000000E+00  0.88817841970E-15  0.00000000000E+00  0.91188000000E+02  0.91188000000E+02 0.  0.
    9900012    2    3    3    0    0 -0.35077690509E+02  0.78130484058E+01 -0.80184571299E+01  0.54367031089E+02  0.39999878973E+02 0.  0.
         12    1    3    3    0    0  0.35077690509E+02 -0.78130484058E+01  0.80184571299E+01  0.36820968911E+02  0.00000000000E+00 0. -1.
         11    1    4    4    0    0 -0.31463441791E+02  0.38498970632E+01 -0.11647437026E+01  0.31719497236E+02  0.51100000000E-03 0. -1.
        -11    1    4    4    0    0 -0.62401701282E+01  0.11744333799E+02 -0.33209298445E+01  0.13707577281E+02  0.51100000000E-03 0.  1.
        -12    1    4    4    0    0  0.26259214102E+01 -0.77811824565E+01 -0.35327835827E+01  0.89399565724E+01  0.00000000000E+00 0.  1.
</event>
<event>
 8    1  0.2527138E-006  0.9118800E+02  0.7816164E-02  0.1184000E+00
        -11   -1    0    0    0    0  0.00000000000E+00  0.00000000000E+00  0.45593999997E+02  0.45594000000E+02  0.51100000000E-03 0.  1.
         11   -1    0    0    0    0 -0.00000000000E+00 -0.00000000000E+00 -0.45593999997E+02  0.45594000000E+02  0.51100000000E-03 0. -1.
         23    2    1    2    0    0  0.00000000000E+00 -0.35527136788E-14  0.00000000000E+00  0.91188000000E+02  0.91188000000E+02 0.  0.
    9900012    2    3    3    0    0 -0.27136048659E+02 -0.15346603990E+02  0.19593279854E+02  0.54367081947E+02  0.39999994914E+02 0.  0.
         12    1    3    3    0    0  0.27136048659E+02  0.15346603990E+02 -0.19593279854E+02  0.36820918053E+02  0.00000000000E+00 0. -1.
         11    1    4    4    0    0 -0.11442477732E+02 -0.33901066736E+01 -0.52007410646E+01  0.13018096166E+02  0.51100000000E-03 0. -1.
        -11    1    4    4    0    0 -0.18298683480E+01  0.33173532960E+01  0.19754924262E+02  0.20114926893E+02  0.51100000000E-03 0.  1.
        -12    1    4    4    0    0 -0.13863702579E+02 -0.15273850613E+02  0.50390966566E+01  0.21234058888E+02  0.00000000000E+00 0.  1.
</event>
<event>
 8    1  0.2527138E-006  0.9118800E+02  0.7816164E-02  0.1184000E+00
        -11   -1    0    0    0    0  0.00000000000E+00  0.00000000000E+00  0.45593999997E+02  0.45594000000E+02  0.51100000000E-03 0.  1.
         11   -1    0    0    0    0 -0.00000000000E+00 -0.00000000000E+00 -0.45593999997E+02  0.45594000000E+02  0.51100000000E-03 0. -1.
         23    2    1    2    0    0  0.17763568394E-14  0.35527136788E-14 -0.35527136788E-14  0.91188000000E+02  0.91188000000E+02 0.  0.
    9900012    2    3    3    0    0 -0.13387763020E+02  0.28314021206E+02  0.19361482198E+02  0.54367041451E+02  0.39999902595E+02 0.  0.
         12    1    3    3    0    0  0.13387763020E+02 -0.28314021206E+02 -0.19361482198E+02  0.36820958549E+02  0.00000000000E+00 0. -1.
         11    1    4    4    0    0 -0.12123933252E+01 -0.62987817846E+01  0.18414414663E+01  0.66734890784E+01  0.51100000000E-03 0. -1.
        -11    1    4    4    0    0 -0.28540582429E+01 -0.36819889562E+01  0.25680812663E+00  0.46656877095E+01  0.51100000000E-03 0.  1.
         12    1    4    4    0    0 -0.93213114524E+01  0.38294791947E+02  0.17263232606E+02  0.43027864663E+02  0.00000000000E+00 0. -1.
</event>
<event>
 8    1  0.2527138E-006  0.9118800E+02  0.7816164E-02  0.1184000E+00
        -11   -1    0    0    0    0  0.00000000000E+00  0.00000000000E+00  0.45593999997E+02  0.45594000000E+02  0.51100000000E-03 0. -1.
         11   -1    0    0    0    0 -0.00000000000E+00 -0.00000000000E+00 -0.45593999997E+02  0.45594000000E+02  0.51100000000E-03 0.  1.
         23    2    1    2    0    0  0.00000000000E+00  0.00000000000E+00  0.00000000000E+00  0.91188000000E+02  0.91188000000E+02 0.  0.
    9900012    2    3    3    0    0  0.33854113152E+02  0.91367313629E+01 -0.11234047526E+02  0.54367018738E+02  0.39999850817E+02 0.  0.
        -12    1    3    3    0    0 -0.33854113152E+02 -0.91367313629E+01  0.11234047526E+02  0.36820981262E+02  0.00000000000E+00 0.  1.
         11    1    4    4    0    0 -0.74794592781E+01  0.31171875516E+01 -0.17241888270E+01  0.82844430529E+01  0.51100000000E-03 0.  1.
        -11    1    4    4    0    0  0.15543697055E+02  0.10523335345E+02 -0.57628024043E+01  0.19635605332E+02  0.51100000000E-03 0. -1.
        -12    1    4    4    0    0  0.25789875374E+02 -0.45037915335E+01 -0.37470562948E+01  0.26446970354E+02  0.00000000000E+00 0.  1.
</event>
<event>
 8    1  0.2527138E-006  0.9118800E+02  0.7816164E-02  0.1184000E+00
        -11   -1    0    0    0    0  0.00000000000E+00  0.00000000000E+00  0.45593999997E+02  0.45594000000E+02  0.51100000000E-03 0.  1.
         11   -1    0    0    0    0 -0.00000000000E+00 -0.00000000000E+00 -0.45593999997E+02  0.45594000000E+02  0.51100000000E-03 0. -1.
         23    2    1    2    0    0  0.13183898417E-14  0.00000000000E+00  0.00000000000E+00  0.91188000000E+02  0.91188000000E+02 0.  0.
    9900012    2    3    3    0    0  0.92261065938E-01  0.17200826278E+02 -0.32556130150E+02  0.54367101762E+02  0.40000040087E+02 0.  0.
        -12    1    3    3    0    0 -0.92261065938E-01 -0.17200826278E+02  0.32556130150E+02  0.36820898238E+02  0.00000000000E+00 0.  1.
         11    1    4    4    0    0  0.32677146245E+01  0.95242022032E+01 -0.18678560567E+02  0.21219731657E+02  0.51100000000E-03 0. -1.
        -11    1    4    4    0    0  0.74029422824E+01  0.10360285019E+02  0.29687921482E+01  0.13074891479E+02  0.51100000000E-03 0.  1.
         12    1    4    4    0    0 -0.10578395841E+02 -0.26836609443E+01 -0.16846361731E+02  0.20072478626E+02  0.00000000000E+00 0. -1.
</event>
<event>
 8    1  0.2527138E-006  0.9118800E+02  0.7816164E-02  0.1184000E+00
        -11   -1    0    0    0    0  0.00000000000E+00  0.00000000000E+00  0.45593999997E+02  0.45594000000E+02  0.51100000000E-03 0. -1.
         11   -1    0    0    0    0 -0.00000000000E+00 -0.00000000000E+00 -0.45593999997E+02  0.45594000000E+02  0.51100000000E-03 0.  1.
         23    2    1    2    0    0  0.71054273576E-14 -0.17763568394E-14 -0.71054273576E-14  0.91188000000E+02  0.91188000000E+02 0.  0.
    9900012    2    3    3    0    0 -0.27806705323E+02  0.69030605349E+01  0.23128226299E+02  0.54367082611E+02  0.39999996427E+02 0.  0.
        -12    1    3    3    0    0  0.27806705323E+02 -0.69030605349E+01 -0.23128226299E+02  0.36820917389E+02  0.00000000000E+00 0.  1.
         11    1    4    4    0    0 -0.12856088534E+02 -0.12784322876E-01  0.11606287303E+02  0.17320077397E+02  0.51100000000E-03 0. -1.
        -11    1    4    4    0    0  0.25238490303E+01 -0.94964455316E+01 -0.12137325036E+01  0.99007796922E+01  0.51100000000E-03 0.  1.
         12    1    4    4    0    0 -0.17474465819E+02  0.16412290389E+02  0.12735671500E+02  0.27146225521E+02  0.00000000000E+00 0. -1.
</event>
<event>
 8    1  0.2527138E-006  0.9118800E+02  0.7816164E-02  0.1184000E+00
        -11   -1    0    0    0    0  0.00000000000E+00  0.00000000000E+00  0.45593999997E+02  0.45594000000E+02  0.51100000000E-03 0. -1.
         11   -1    0    0    0    0 -0.00000000000E+00 -0.00000000000E+00 -0.45593999997E+02  0.45594000000E+02  0.51100000000E-03 0.  1.
         23    2    1    2    0    0  0.00000000000E+00  0.88817841970E-15  0.00000000000E+00  0.91188000000E+02  0.91188000000E+02 0.  0.
    9900012    2    3    3    0    0 -0.41969649538E+01 -0.65111972920E+00 -0.36575161030E+02  0.54367070135E+02  0.39999967988E+02 0.  0.
         12    1    3    3    0    0  0.41969649538E+01  0.65111972920E+00  0.36575161030E+02  0.36820929865E+02  0.00000000000E+00 0. -1.
         11    1    4    4    0    0 -0.70404125495E+00 -0.18146691837E+02 -0.14022370925E+02  0.22943953133E+02  0.51100000000E-03 0. -1.
        -11    1    4    4    0    0 -0.53537966619E+01  0.12245780481E+01 -0.52183705790E+01  0.75758908291E+01  0.51100000000E-03 0.  1.
        -12    1    4    4    0    0  0.18608729630E+01  0.16270994060E+02 -0.17334419526E+02  0.23847226174E+02  0.00000000000E+00 0.  1.
</event>
<event>
 8    1  0.2527138E-006  0.9118800E+02  0.7816164E-02  0.1184000E+00
        -11   -1    0    0    0    0  0.00000000000E+00  0.00000000000E+00  0.45593999997E+02  0.45594000000E+02  0.51100000000E-03 0.  1.
         11   -1    0    0    0    0 -0.00000000000E+00 -0.00000000000E+00 -0.45593999997E+02  0.45594000000E+02  0.51100000000E-03 0. -1.
         23    2    1    2    0    0  0.21649348980E-14  0.00000000000E+00  0.00000000000E+00  0.91188000000E+02  0.91188000000E+02 0.  0.
    9900012    2    3    3    0    0  0.45244040782E+00 -0.21171714789E+02 -0.30121986012E+02  0.54367078628E+02  0.39999987347E+02 0.  0.
        -12    1    3    3    0    0 -0.45244040782E+00  0.21171714789E+02  0.30121986012E+02  0.36820921372E+02  0.00000000000E+00 0.  1.
         11    1    4    4    0    0 -0.27665218916E+01  0.28158079831E+01 -0.32392838380E+01  0.51064055870E+01  0.51100000000E-03 0. -1.
        -11    1    4    4    0    0 -0.13756041773E+02 -0.19037273318E+02 -0.13551515114E+02  0.27116231722E+02  0.51100000000E-03 0.  1.
        -12    1    4    4    0    0  0.16975004072E+02 -0.49502494534E+01 -0.13331187060E+02  0.22144441319E+02  0.00000000000E+00 0.  1.
</event>
<event>
 8    1  0.2527138E-006  0.9118800E+02  0.7816164E-02  0.1184000E+00
        -11   -1    0    0    0    0  0.00000000000E+00  0.00000000000E+00  0.45593999997E+02  0.45594000000E+02  0.51100000000E-03 0.  1.
         11   -1    0    0    0    0 -0.00000000000E+00 -0.00000000000E+00 -0.45593999997E+02  0.45594000000E+02  0.51100000000E-03 0. -1.
         23    2    1    2    0    0  0.00000000000E+00  0.00000000000E+00  0.00000000000E+00  0.91188000000E+02  0.91188000000E+02 0.  0.
    9900012    2    3    3    0    0 -0.20378465350E+02  0.18930534960E+02  0.24127489000E+02  0.54367044970E+02  0.39999910618E+02 0.  0.
         12    1    3    3    0    0  0.20378465350E+02 -0.18930534960E+02 -0.24127489000E+02  0.36820955030E+02  0.00000000000E+00 0. -1.
         11    1    4    4    0    0  0.53921149473E+01  0.56274906112E+01  0.68868625642E+01  0.10400597599E+02  0.51100000000E-03 0. -1.
        -11    1    4    4    0    0 -0.17149143626E+02  0.20570115533E+02  0.48559002909E+01  0.27217688147E+02  0.51100000000E-03 0.  1.
        -12    1    4    4    0    0 -0.86214366710E+01 -0.72670711843E+01  0.12384726144E+02  0.16748759224E+02  0.00000000000E+00 0.  1.
</event>
<event>
 8    1  0.2527138E-006  0.9118800E+02  0.7816164E-02  0.1184000E+00
        -11   -1    0    0    0    0  0.00000000000E+00  0.00000000000E+00  0.45593999997E+02  0.45594000000E+02  0.51100000000E-03 0.  1.
         11   -1    0    0    0    0 -0.00000000000E+00 -0.00000000000E+00 -0.45593999997E+02  0.45594000000E+02  0.51100000000E-03 0. -1.
         23    2    1    2    0    0 -0.17763568394E-14  0.00000000000E+00  0.00000000000E+00  0.91188000000E+02  0.91188000000E+02 0.  0.
    9900012    2    3    3    0    0 -0.97976598042E+01  0.82906483768E+01  0.34511603252E+02  0.54367085465E+02  0.40000002934E+02 0.  0.
         12    1    3    3    0    0  0.97976598042E+01 -0.82906483768E+01 -0.34511603252E+02  0.36820914535E+02  0.00000000000E+00 0. -1.
         11    1    4    4    0    0 -0.16225667018E+02  0.26201157352E+01  0.25106101450E+02  0.30007559163E+02  0.51100000000E-03 0. -1.
        -11    1    4    4    0    0  0.60142724602E+01  0.25287091904E+01  0.15870731215E+02  0.17159427525E+02  0.51100000000E-03 0.  1.
         12    1    4    4    0    0  0.41373475396E+00  0.31418234512E+01 -0.64652294127E+01  0.72000987774E+01  0.00000000000E+00 0. -1.
</event>
<event>
 8    1  0.2527138E-006  0.9118800E+02  0.7816164E-02  0.1184000E+00
        -11   -1    0    0    0    0  0.00000000000E+00  0.00000000000E+00  0.45593999997E+02  0.45594000000E+02  0.51100000000E-03 0. -1.
         11   -1    0    0    0    0 -0.00000000000E+00 -0.00000000000E+00 -0.45593999997E+02  0.45594000000E+02  0.51100000000E-03 0.  1.
         23    2    1    2    0    0  0.00000000000E+00 -0.71054273576E-14  0.00000000000E+00  0.91188000000E+02  0.91188000000E+02 0.  0.
    9900012    2    3    3    0    0  0.16882360898E+02 -0.23642136363E+02 -0.22623325696E+02  0.54367087642E+02  0.40000007898E+02 0.  0.
         12    1    3    3    0    0 -0.16882360898E+02  0.23642136363E+02  0.22623325696E+02  0.36820912358E+02  0.00000000000E+00 0. -1.
         11    1    4    4    0    0  0.32225771845E+01  0.88361278521E+01 -0.11532140892E+01  0.94758673547E+01  0.51100000000E-03 0. -1.
        -11    1    4    4    0    0  0.11097911644E+02 -0.16948321756E+02 -0.20949772306E+02  0.29142790071E+02  0.51100000000E-03 0.  1.
         12    1    4    4    0    0  0.25618720693E+01 -0.15529942460E+02 -0.52033930091E+00  0.15748430217E+02  0.00000000000E+00 0. -1.
</event>
<event>
 8    1  0.2527138E-006  0.9118800E+02  0.7816164E-02  0.1184000E+00
        -11   -1    0    0    0    0  0.00000000000E+00  0.00000000000E+00  0.45593999997E+02  0.45594000000E+02  0.51100000000E-03 0.  1.
         11   -1    0    0    0    0 -0.00000000000E+00 -0.00000000000E+00 -0.45593999997E+02  0.45594000000E+02  0.51100000000E-03 0. -1.
         23    2    1    2    0    0  0.17763568394E-14  0.00000000000E+00  0.00000000000E+00  0.91188000000E+02  0.91188000000E+02 0.  0.
    9900012    2    3    3    0    0  0.13317336309E+02  0.86181336912E+01 -0.33228873303E+02  0.54367059006E+02  0.39999942615E+02 0.  0.
        -12    1    3    3    0    0 -0.13317336309E+02 -0.86181336912E+01  0.33228873303E+02  0.36820940994E+02  0.00000000000E+00 0.  1.
         11    1    4    4    0    0  0.35777678895E+01  0.36403643560E+01  0.61057920114E+01  0.79582266909E+01  0.51100000000E-03 0. -1.
        -11    1    4    4    0    0  0.75836451185E+01 -0.80224160329E+01 -0.13781432101E+02  0.17657822723E+02  0.51100000000E-03 0.  1.
         12    1    4    4    0    0  0.21559233008E+01  0.13000185368E+02 -0.25553233214E+02  0.28751009592E+02  0.00000000000E+00 0. -1.
</event>
<event>
 8    1  0.2527138E-006  0.9118800E+02  0.7816164E-02  0.1184000E+00
        -11   -1    0    0    0    0  0.00000000000E+00  0.00000000000E+00  0.45593999997E+02  0.45594000000E+02  0.51100000000E-03 0.  1.
         11   -1    0    0    0    0 -0.00000000000E+00 -0.00000000000E+00 -0.45593999997E+02  0.45594000000E+02  0.51100000000E-03 0. -1.
         23    2    1    2    0    0  0.00000000000E+00 -0.35527136788E-14  0.00000000000E+00  0.91188000000E+02  0.91188000000E+02 0.  0.
    9900012    2    3    3    0    0 -0.21458192191E+02  0.23751997345E+02  0.18198030724E+02  0.54367085940E+02  0.40000004017E+02 0.  0.
         12    1    3    3    0    0  0.21458192191E+02 -0.23751997345E+02 -0.18198030724E+02  0.36820914060E+02  0.00000000000E+00 0. -1.
         11    1    4    4    0    0 -0.22812851810E+02  0.12085123624E+01  0.12496965900E+02  0.26039601894E+02  0.51100000000E-03 0. -1.
        -11    1    4    4    0    0 -0.67773279900E+01  0.10478078526E+02  0.58376688620E+01  0.13776816842E+02  0.51100000000E-03 0.  1.
         12    1    4    4    0    0  0.81319876083E+01  0.12065406457E+02 -0.13660403782E+00  0.14550667204E+02  0.00000000000E+00 0. -1.
</event>
<event>
 8    1  0.2527138E-006  0.9118800E+02  0.7816164E-02  0.1184000E+00
        -11   -1    0    0    0    0  0.00000000000E+00  0.00000000000E+00  0.45593999997E+02  0.45594000000E+02  0.51100000000E-03 0.  1.
         11   -1    0    0    0    0 -0.00000000000E+00 -0.00000000000E+00 -0.45593999997E+02  0.45594000000E+02  0.51100000000E-03 0. -1.
         23    2    1    2    0    0  0.00000000000E+00  0.35527136788E-14  0.00000000000E+00  0.91188000000E+02  0.91188000000E+02 0.  0.
    9900012    2    3    3    0    0  0.12639508286E+02  0.25913120989E+02 -0.22902597766E+02  0.54367136437E+02  0.40000119135E+02 0.  0.
        -12    1    3    3    0    0 -0.12639508286E+02 -0.25913120989E+02  0.22902597766E+02  0.36820863563E+02  0.00000000000E+00 0.  1.
         11    1    4    4    0    0  0.41388462664E+01  0.28218249098E+02 -0.59392534608E+01  0.29132016108E+02  0.51100000000E-03 0. -1.
        -11    1    4    4    0    0  0.11159287377E+02  0.90481618930E+00 -0.44533991188E+01  0.12049114120E+02  0.51100000000E-03 0.  1.
         12    1    4    4    0    0 -0.26586253576E+01 -0.32099442984E+01 -0.12509945186E+02  0.13186006209E+02  0.00000000000E+00 0. -1.
</event>
<event>
 8    1  0.2527138E-006  0.9118800E+02  0.7816164E-02  0.1184000E+00
        -11   -1    0    0    0    0  0.00000000000E+00  0.00000000000E+00  0.45593999997E+02  0.45594000000E+02  0.51100000000E-03 0.  1.
         11   -1    0    0    0    0 -0.00000000000E+00 -0.00000000000E+00 -0.45593999997E+02  0.45594000000E+02  0.51100000000E-03 0. -1.
         23    2    1    2    0    0 -0.35527136788E-14 -0.26645352591E-14  0.00000000000E+00  0.91188000000E+02  0.91188000000E+02 0.  0.
    9900012    2    3    3    0    0  0.26421937890E+02  0.64271009178E+01 -0.24826466438E+02  0.54367083881E+02  0.39999999323E+02 0.  0.
        -12    1    3    3    0    0 -0.26421937890E+02 -0.64271009178E+01  0.24826466438E+02  0.36820916119E+02  0.00000000000E+00 0.  1.
         11    1    4    4    0    0  0.19753961316E+02 -0.18665558485E+01 -0.81823716549E+01  0.21462856860E+02  0.51100000000E-03 0. -1.
        -11    1    4    4    0    0 -0.27251682151E+01  0.67183302488E+01  0.53011129673E+01  0.89813307525E+01  0.51100000000E-03 0.  1.
         12    1    4    4    0    0  0.93931447884E+01  0.15753265175E+01 -0.21945207751E+02  0.23922896269E+02  0.00000000000E+00 0. -1.
</event>
<event>
 8    1  0.2527138E-006  0.9118800E+02  0.7816164E-02  0.1184000E+00
        -11   -1    0    0    0    0  0.00000000000E+00  0.00000000000E+00  0.45593999997E+02  0.45594000000E+02  0.51100000000E-03 0.  1.
         11   -1    0    0    0    0 -0.00000000000E+00 -0.00000000000E+00 -0.45593999997E+02  0.45594000000E+02  0.51100000000E-03 0. -1.
         23    2    1    2    0    0 -0.35527136788E-14  0.00000000000E+00 -0.35527136788E-14  0.91188000000E+02  0.91188000000E+02 0.  0.
    9900012    2    3    3    0    0  0.24094885096E+02  0.96671141363E+01 -0.26110594783E+02  0.54367085516E+02  0.40000003050E+02 0.  0.
        -12    1    3    3    0    0 -0.24094885096E+02 -0.96671141363E+01  0.26110594783E+02  0.36820914484E+02  0.00000000000E+00 0.  1.
         11    1    4    4    0    0  0.12994467905E+02 -0.37521502542E+01 -0.17217095140E+02  0.21894364412E+02  0.51100000000E-03 0. -1.
        -11    1    4    4    0    0  0.18638022894E+02  0.59364368772E+01 -0.96756927528E+01  0.21822836908E+02  0.51100000000E-03 0.  1.
        -12    1    4    4    0    0 -0.75376057036E+01  0.74828275132E+01  0.78219310923E+00  0.10649884196E+02  0.00000000000E+00 0.  1.
</event>
<event>
 8    1  0.2527138E-006  0.9118800E+02  0.7816164E-02  0.1184000E+00
        -11   -1    0    0    0    0  0.00000000000E+00  0.00000000000E+00  0.45593999997E+02  0.45594000000E+02  0.51100000000E-03 0. -1.
         11   -1    0    0    0    0 -0.00000000000E+00 -0.00000000000E+00 -0.45593999997E+02  0.45594000000E+02  0.51100000000E-03 0.  1.
         23    2    1    2    0    0 -0.11102230246E-14 -0.35527136788E-14  0.00000000000E+00  0.91188000000E+02  0.91188000000E+02 0.  0.
    9900012    2    3    3    0    0 -0.12486621861E+01  0.28315868544E+02  0.23503840236E+02  0.54367108179E+02  0.40000054716E+02 0.  0.
        -12    1    3    3    0    0  0.12486621861E+01 -0.28315868544E+02 -0.23503840236E+02  0.36820891821E+02  0.00000000000E+00 0.  1.
         11    1    4    4    0    0  0.98316692382E+01  0.34833361978E+00  0.93963091569E+00  0.98826091109E+01  0.51100000000E-03 0. -1.
        -11    1    4    4    0    0  0.13715786880E+01  0.92725614099E+00 -0.41612688086E+01  0.44785254724E+01  0.51100000000E-03 0.  1.
         12    1    4    4    0    0 -0.12451910112E+02  0.27040278783E+02  0.26725478129E+02  0.40005973596E+02  0.00000000000E+00 0. -1.
</event>
<event>
 8    1  0.2527138E-006  0.9118800E+02  0.7816164E-02  0.1184000E+00
        -11   -1    0    0    0    0  0.00000000000E+00  0.00000000000E+00  0.45593999997E+02  0.45594000000E+02  0.51100000000E-03 0.  1.
         11   -1    0    0    0    0 -0.00000000000E+00 -0.00000000000E+00 -0.45593999997E+02  0.45594000000E+02  0.51100000000E-03 0. -1.
         23    2    1    2    0    0 -0.35527136788E-14 -0.71054273576E-14  0.17763568394E-14  0.91188000000E+02  0.91188000000E+02 0.  0.
    9900012    2    3    3    0    0 -0.11719274336E+02 -0.33436596014E+02  0.10021585686E+02  0.54367088501E+02  0.40000009855E+02 0.  0.
         12    1    3    3    0    0  0.11719274336E+02  0.33436596014E+02 -0.10021585686E+02  0.36820911499E+02  0.00000000000E+00 0. -1.
         11    1    4    4    0    0  0.19059365761E+01 -0.18701742099E+02  0.11070133975E+02  0.21815948713E+02  0.51100000000E-03 0. -1.
        -11    1    4    4    0    0  0.18403711791E+01 -0.12409290420E+02  0.76120614047E+01  0.14673817973E+02  0.51100000000E-03 0.  1.
         12    1    4    4    0    0 -0.15465582091E+02 -0.23255634947E+01 -0.86606096939E+01  0.17877321814E+02  0.00000000000E+00 0. -1.
</event>
<event>
 8    1  0.2527138E-006  0.9118800E+02  0.7816164E-02  0.1184000E+00
        -11   -1    0    0    0    0  0.00000000000E+00  0.00000000000E+00  0.45593999997E+02  0.45594000000E+02  0.51100000000E-03 0. -1.
         11   -1    0    0    0    0 -0.00000000000E+00 -0.00000000000E+00 -0.45593999997E+02  0.45594000000E+02  0.51100000000E-03 0.  1.
         23    2    1    2    0    0 -0.35527136788E-14  0.17763568394E-14  0.00000000000E+00  0.91188000000E+02  0.91188000000E+02 0.  0.
    9900012    2    3    3    0    0 -0.28465429714E+02  0.76110129554E+01  0.22080870365E+02  0.54367176502E+02  0.40000210470E+02 0.  0.
        -12    1    3    3    0    0  0.28465429714E+02 -0.76110129554E+01 -0.22080870365E+02  0.36820823498E+02  0.00000000000E+00 0.  1.
         11    1    4    4    0    0 -0.22944270593E+02  0.19144276067E+01  0.44070406513E+01  0.23441983569E+02  0.51100000000E-03 0. -1.
        -11    1    4    4    0    0 -0.55007060059E+01  0.36598394281E+01 -0.49213210224E+01  0.82384216977E+01  0.51100000000E-03 0.  1.
        -12    1    4    4    0    0 -0.20453115628E-01  0.20367459206E+01  0.22595150736E+02  0.22686771235E+02  0.00000000000E+00 0.  1.
</event>
<event>
 8    1  0.2527138E-006  0.9118800E+02  0.7816164E-02  0.1184000E+00
        -11   -1    0    0    0    0  0.00000000000E+00  0.00000000000E+00  0.45593999997E+02  0.45594000000E+02  0.51100000000E-03 0.  1.
         11   -1    0    0    0    0 -0.00000000000E+00 -0.00000000000E+00 -0.45593999997E+02  0.45594000000E+02  0.51100000000E-03 0. -1.
         23    2    1    2    0    0 -0.35527136788E-14 -0.22204460493E-15 -0.35527136788E-14  0.91188000000E+02  0.91188000000E+02 0.  0.
    9900012    2    3    3    0    0 -0.18506105769E+02 -0.13794471116E+01 -0.31802317422E+02  0.54367269175E+02  0.40000421736E+02 0.  0.
        -12    1    3    3    0    0  0.18506105769E+02  0.13794471116E+01  0.31802317422E+02  0.36820730825E+02  0.00000000000E+00 0.  1.
         11    1    4    4    0    0 -0.20168043147E+02  0.27547135384E+01 -0.14343658777E+02  0.24901384669E+02  0.51100000000E-03 0. -1.
        -11    1    4    4    0    0 -0.10438472413E+02 -0.50273950228E+01 -0.79646885543E+01  0.14059611341E+02  0.51100000000E-03 0.  1.
        -12    1    4    4    0    0  0.12100409791E+02  0.89323437275E+00 -0.94939700909E+01  0.15406273165E+02  0.00000000000E+00 0.  1.
</event>
<event>
 8    1  0.2527138E-006  0.9118800E+02  0.7816164E-02  0.1184000E+00
        -11   -1    0    0    0    0  0.00000000000E+00  0.00000000000E+00  0.45593999997E+02  0.45594000000E+02  0.51100000000E-03 0. -1.
         11   -1    0    0    0    0 -0.00000000000E+00 -0.00000000000E+00 -0.45593999997E+02  0.45594000000E+02  0.51100000000E-03 0.  1.
         23    2    1    2    0    0  0.00000000000E+00 -0.17763568394E-14  0.00000000000E+00  0.91188000000E+02  0.91188000000E+02 0.  0.
    9900012    2    3    3    0    0  0.22337048914E+02 -0.94658709393E+01 -0.27698990107E+02  0.54367074974E+02  0.39999979018E+02 0.  0.
         12    1    3    3    0    0 -0.22337048914E+02  0.94658709393E+01  0.27698990107E+02  0.36820925026E+02  0.00000000000E+00 0. -1.
         11    1    4    4    0    0 -0.32892824157E+01 -0.97913517807E+01 -0.13083278256E+02  0.16669196702E+02  0.51100000000E-03 0. -1.
        -11    1    4    4    0    0 -0.10286796430E+01 -0.61038812499E+01 -0.67803334752E+01  0.91808752533E+01  0.51100000000E-03 0.  1.
         12    1    4    4    0    0  0.26655010973E+02  0.64293620913E+01 -0.78353783758E+01  0.28517003018E+02  0.00000000000E+00 0. -1.
</event>
<event>
 8    1  0.2527138E-006  0.9118800E+02  0.7816164E-02  0.1184000E+00
        -11   -1    0    0    0    0  0.00000000000E+00  0.00000000000E+00  0.45593999997E+02  0.45594000000E+02  0.51100000000E-03 0.  1.
         11   -1    0    0    0    0 -0.00000000000E+00 -0.00000000000E+00 -0.45593999997E+02  0.45594000000E+02  0.51100000000E-03 0. -1.
         23    2    1    2    0    0  0.00000000000E+00  0.00000000000E+00  0.00000000000E+00  0.91188000000E+02  0.91188000000E+02 0.  0.
    9900012    2    3    3    0    0 -0.23893229642E+02 -0.17210544878E+02  0.22106347674E+02  0.54367083591E+02  0.39999998662E+02 0.  0.
        -12    1    3    3    0    0  0.23893229642E+02  0.17210544878E+02 -0.22106347674E+02  0.36820916409E+02  0.00000000000E+00 0.  1.
         11    1    4    4    0    0  0.65087521563E-01 -0.13991559389E+02  0.88944627273E+01  0.16579488471E+02  0.51100000000E-03 0. -1.
        -11    1    4    4    0    0 -0.20181183904E+02  0.26041680875E+01  0.19673994643E+02  0.28304203586E+02  0.51100000000E-03 0.  1.
        -12    1    4    4    0    0 -0.37771332603E+01 -0.58231535765E+01 -0.64621096960E+01  0.94833915328E+01  0.00000000000E+00 0.  1.
</event>
<event>
 8    1  0.2527138E-006  0.9118800E+02  0.7816164E-02  0.1184000E+00
        -11   -1    0    0    0    0  0.00000000000E+00  0.00000000000E+00  0.45593999997E+02  0.45594000000E+02  0.51100000000E-03 0. -1.
         11   -1    0    0    0    0 -0.00000000000E+00 -0.00000000000E+00 -0.45593999997E+02  0.45594000000E+02  0.51100000000E-03 0.  1.
         23    2    1    2    0    0  0.00000000000E+00  0.00000000000E+00  0.00000000000E+00  0.91188000000E+02  0.91188000000E+02 0.  0.
    9900012    2    3    3    0    0 -0.33527797643E+02 -0.12695977124E+02 -0.83951331375E+01  0.54367091397E+02  0.40000016458E+02 0.  0.
         12    1    3    3    0    0  0.33527797643E+02  0.12695977124E+02  0.83951331375E+01  0.36820908603E+02  0.00000000000E+00 0. -1.
         11    1    4    4    0    0 -0.28243130979E+02 -0.11357882060E+02  0.42199272047E+01  0.30732453828E+02  0.51100000000E-03 0. -1.
        -11    1    4    4    0    0 -0.59377554550E+01 -0.84059334178E+01 -0.14341713945E+01  0.10391029993E+02  0.51100000000E-03 0.  1.
        -12    1    4    4    0    0  0.65308879076E+00  0.70678383539E+01 -0.11180888948E+02  0.13243607576E+02  0.00000000000E+00 0.  1.
</event>
<event>
 8    1  0.2527138E-006  0.9118800E+02  0.7816164E-02  0.1184000E+00
        -11   -1    0    0    0    0  0.00000000000E+00  0.00000000000E+00  0.45593999997E+02  0.45594000000E+02  0.51100000000E-03 0.  1.
         11   -1    0    0    0    0 -0.00000000000E+00 -0.00000000000E+00 -0.45593999997E+02  0.45594000000E+02  0.51100000000E-03 0. -1.
         23    2    1    2    0    0 -0.17763568394E-14  0.00000000000E+00  0.71054273576E-14  0.91188000000E+02  0.91188000000E+02 0.  0.
    9900012    2    3    3    0    0  0.12710517765E+02 -0.19238944175E+02 -0.28706887504E+02  0.54367087124E+02  0.40000006717E+02 0.  0.
        -12    1    3    3    0    0 -0.12710517765E+02  0.19238944175E+02  0.28706887504E+02  0.36820912876E+02  0.00000000000E+00 0.  1.
         11    1    4    4    0    0 -0.38866472984E+01 -0.24195131255E+01 -0.13918749009E+02  0.14652359715E+02  0.51100000000E-03 0. -1.
        -11    1    4    4    0    0  0.65831743750E+00  0.33275588111E+01 -0.13579621846E+02  0.13996862478E+02  0.51100000000E-03 0.  1.
        -12    1    4    4    0    0  0.15938847626E+02 -0.20146989861E+02 -0.12085166492E+01  0.25717864930E+02  0.00000000000E+00 0.  1.
</event>
<event>
 8    1  0.2527138E-006  0.9118800E+02  0.7816164E-02  0.1184000E+00
        -11   -1    0    0    0    0  0.00000000000E+00  0.00000000000E+00  0.45593999997E+02  0.45594000000E+02  0.51100000000E-03 0.  1.
         11   -1    0    0    0    0 -0.00000000000E+00 -0.00000000000E+00 -0.45593999997E+02  0.45594000000E+02  0.51100000000E-03 0. -1.
         23    2    1    2    0    0  0.00000000000E+00  0.17763568394E-14  0.00000000000E+00  0.91188000000E+02  0.91188000000E+02 0.  0.
    9900012    2    3    3    0    0 -0.18243676477E+02  0.12383132071E+02 -0.29489053377E+02  0.54367109729E+02  0.40000058249E+02 0.  0.
        -12    1    3    3    0    0  0.18243676477E+02 -0.12383132071E+02  0.29489053377E+02  0.36820890271E+02  0.00000000000E+00 0.  1.
         11    1    4    4    0    0 -0.59146350827E+01  0.15295924092E+02 -0.27716648464E+01  0.16632207559E+02  0.51100000000E-03 0. -1.
        -11    1    4    4    0    0 -0.58617584236E+01  0.10254203363E+02 -0.14030702516E+02  0.18340379270E+02  0.51100000000E-03 0.  1.
        -12    1    4    4    0    0 -0.64672829710E+01 -0.13166995384E+02 -0.12686686015E+02  0.19394522900E+02  0.00000000000E+00 0.  1.
</event>
<event>
 8    1  0.2527138E-006  0.9118800E+02  0.7816164E-02  0.1184000E+00
        -11   -1    0    0    0    0  0.00000000000E+00  0.00000000000E+00  0.45593999997E+02  0.45594000000E+02  0.51100000000E-03 0. -1.
         11   -1    0    0    0    0 -0.00000000000E+00 -0.00000000000E+00 -0.45593999997E+02  0.45594000000E+02  0.51100000000E-03 0.  1.
         23    2    1    2    0    0  0.00000000000E+00  0.35527136788E-14 -0.35527136788E-14  0.91188000000E+02  0.91188000000E+02 0.  0.
    9900012    2    3    3    0    0 -0.50069983949E+01 -0.18445165989E+02  0.31471973174E+02  0.54367091854E+02  0.40000017499E+02 0.  0.
        -12    1    3    3    0    0  0.50069983949E+01  0.18445165989E+02 -0.31471973174E+02  0.36820908146E+02  0.00000000000E+00 0.  1.
         11    1    4    4    0    0 -0.29278401589E+01 -0.61645276529E+01  0.29678565744E+02  0.30453093669E+02  0.51100000000E-03 0. -1.
        -11    1    4    4    0    0 -0.22690731588E-01  0.46779512417E+01 -0.37056718333E+01  0.59678929855E+01  0.51100000000E-03 0.  1.
        -12    1    4    4    0    0 -0.20564675044E+01 -0.16958589578E+02  0.54990792635E+01  0.17946105199E+02  0.00000000000E+00 0.  1.
</event>
<event>
 8    1  0.2527138E-006  0.9118800E+02  0.7816164E-02  0.1184000E+00
        -11   -1    0    0    0    0  0.00000000000E+00  0.00000000000E+00  0.45593999997E+02  0.45594000000E+02  0.51100000000E-03 0.  1.
         11   -1    0    0    0    0 -0.00000000000E+00 -0.00000000000E+00 -0.45593999997E+02  0.45594000000E+02  0.51100000000E-03 0. -1.
         23    2    1    2    0    0  0.22204460493E-15  0.88817841970E-15  0.71054273576E-14  0.91188000000E+02  0.91188000000E+02 0.  0.
    9900012    2    3    3    0    0 -0.18481627805E+01 -0.44311279509E+01 -0.36506520852E+02  0.54367127315E+02  0.40000098339E+02 0.  0.
        -12    1    3    3    0    0  0.18481627805E+01  0.44311279509E+01  0.36506520852E+02  0.36820872685E+02  0.00000000000E+00 0.  1.
         11    1    4    4    0    0  0.73357945532E+01  0.10102919462E+01 -0.12765538225E+02  0.14757829718E+02  0.51100000000E-03 0. -1.
        -11    1    4    4    0    0 -0.11978481402E+01  0.63917678533E+01  0.45388881018E+01  0.79303872490E+01  0.51100000000E-03 0.  1.
         12    1    4    4    0    0 -0.79861091936E+01 -0.11833187750E+02 -0.28279870729E+02  0.31678910348E+02  0.00000000000E+00 0. -1.
</event>
<event>
 8    1  0.2527138E-006  0.9118800E+02  0.7816164E-02  0.1184000E+00
        -11   -1    0    0    0    0  0.00000000000E+00  0.00000000000E+00  0.45593999997E+02  0.45594000000E+02  0.51100000000E-03 0. -1.
         11   -1    0    0    0    0 -0.00000000000E+00 -0.00000000000E+00 -0.45593999997E+02  0.45594000000E+02  0.51100000000E-03 0.  1.
         23    2    1    2    0    0  0.17763568394E-14  0.00000000000E+00  0.35527136788E-14  0.91188000000E+02  0.91188000000E+02 0.  0.
    9900012    2    3    3    0    0  0.11971162097E+02  0.25670179907E+02  0.23526841970E+02  0.54367093555E+02  0.40000021377E+02 0.  0.
        -12    1    3    3    0    0 -0.11971162097E+02 -0.25670179907E+02 -0.23526841970E+02  0.36820906445E+02  0.00000000000E+00 0.  1.
         11    1    4    4    0    0 -0.44100380202E+00  0.13755429275E+02 -0.21578164638E+00  0.13764188348E+02  0.51100000000E-03 0. -1.
        -11    1    4    4    0    0  0.12083400054E+02 -0.54255392785E+01  0.17969854141E+02  0.22323993626E+02  0.51100000000E-03 0.  1.
        -12    1    4    4    0    0  0.32876584429E+00  0.17340289910E+02  0.57727694754E+01  0.18278911581E+02  0.00000000000E+00 0.  1.
</event>
<event>
 8    1  0.2527138E-006  0.9118800E+02  0.7816164E-02  0.1184000E+00
        -11   -1    0    0    0    0  0.00000000000E+00  0.00000000000E+00  0.45593999997E+02  0.45594000000E+02  0.51100000000E-03 0. -1.
         11   -1    0    0    0    0 -0.00000000000E+00 -0.00000000000E+00 -0.45593999997E+02  0.45594000000E+02  0.51100000000E-03 0.  1.
         23    2    1    2    0    0  0.00000000000E+00  0.00000000000E+00 -0.88817841970E-15  0.91188000000E+02  0.91188000000E+02 0.  0.
    9900012    2    3    3    0    0  0.36357296566E+02  0.35649115008E+00  0.58137576767E+01  0.54367083690E+02  0.39999998889E+02 0.  0.
         12    1    3    3    0    0 -0.36357296566E+02 -0.35649115008E+00 -0.58137576767E+01  0.36820916310E+02  0.00000000000E+00 0. -1.
         11    1    4    4    0    0  0.46656883880E+01 -0.77291137012E+01 -0.79673551267E+01  0.12041037942E+02  0.51100000000E-03 0. -1.
        -11    1    4    4    0    0  0.24045895027E+02  0.96017159262E+01 -0.67676621406E+00  0.25900888578E+02  0.51100000000E-03 0.  1.
        -12    1    4    4    0    0  0.76457131517E+01 -0.15161110749E+01  0.14457879017E+02  0.16425157170E+02  0.00000000000E+00 0.  1.
</event>
<event>
 8    1  0.2527138E-006  0.9118800E+02  0.7816164E-02  0.1184000E+00
        -11   -1    0    0    0    0  0.00000000000E+00  0.00000000000E+00  0.45593999997E+02  0.45594000000E+02  0.51100000000E-03 0.  1.
         11   -1    0    0    0    0 -0.00000000000E+00 -0.00000000000E+00 -0.45593999997E+02  0.45594000000E+02  0.51100000000E-03 0. -1.
         23    2    1    2    0    0  0.00000000000E+00  0.00000000000E+00  0.00000000000E+00  0.91188000000E+02  0.91188000000E+02 0.  0.
    9900012    2    3    3    0    0  0.24830468063E+02 -0.85994559907E+01  0.25792970007E+02  0.54367080818E+02  0.39999992342E+02 0.  0.
         12    1    3    3    0    0 -0.24830468063E+02  0.85994559907E+01 -0.25792970007E+02  0.36820919182E+02  0.00000000000E+00 0. -1.
         11    1    4    4    0    0  0.20947946953E+02 -0.12373514318E+02  0.13225570909E+02  0.27691805002E+02  0.51100000000E-03 0. -1.
        -11    1    4    4    0    0  0.86277759398E+01 -0.31433763195E+01  0.15307543280E+02  0.17850496180E+02  0.51100000000E-03 0.  1.
         12    1    4    4    0    0 -0.47452548299E+01  0.69174346473E+01 -0.27401441808E+01  0.88247796365E+01  0.00000000000E+00 0. -1.
</event>
<event>
 8    1  0.2527138E-006  0.9118800E+02  0.7816164E-02  0.1184000E+00
        -11   -1    0    0    0    0  0.00000000000E+00  0.00000000000E+00  0.45593999997E+02  0.45594000000E+02  0.51100000000E-03 0. -1.
         11   -1    0    0    0    0 -0.00000000000E+00 -0.00000000000E+00 -0.45593999997E+02  0.45594000000E+02  0.51100000000E-03 0.  1.
         23    2    1    2    0    0  0.00000000000E+00  0.49960036108E-15 -0.71054273576E-14  0.91188000000E+02  0.91188000000E+02 0.  0.
    9900012    2    3    3    0    0 -0.15372081047E+02 -0.35610008491E+00  0.33456710253E+02  0.54367093657E+02  0.40000021609E+02 0.  0.
        -12    1    3    3    0    0  0.15372081047E+02  0.35610008491E+00 -0.33456710253E+02  0.36820906343E+02  0.00000000000E+00 0.  1.
         11    1    4    4    0    0  0.36162267994E+01  0.61130111771E+01  0.54858802046E+01  0.89744572982E+01  0.51100000000E-03 0. -1.
        -11    1    4    4    0    0  0.62283226051E+01  0.17098969605E+01 -0.51551815109E+00  0.64793139540E+01  0.51100000000E-03 0.  1.
        -12    1    4    4    0    0 -0.25216630451E+02 -0.81790082226E+01  0.28486348200E+02  0.38913322405E+02  0.00000000000E+00 0.  1.
</event>
<event>
 8    1  0.2527138E-006  0.9118800E+02  0.7816164E-02  0.1184000E+00
        -11   -1    0    0    0    0  0.00000000000E+00  0.00000000000E+00  0.45593999997E+02  0.45594000000E+02  0.51100000000E-03 0.  1.
         11   -1    0    0    0    0 -0.00000000000E+00 -0.00000000000E+00 -0.45593999997E+02  0.45594000000E+02  0.51100000000E-03 0. -1.
         23    2    1    2    0    0  0.35527136788E-14  0.00000000000E+00  0.00000000000E+00  0.91188000000E+02  0.91188000000E+02 0.  0.
    9900012    2    3    3    0    0 -0.27705532300E+02  0.17746754860E+02 -0.16529879055E+02  0.54367072124E+02  0.39999972521E+02 0.  0.
        -12    1    3    3    0    0  0.27705532300E+02 -0.17746754860E+02  0.16529879055E+02  0.36820927876E+02  0.00000000000E+00 0.  1.
         11    1    4    4    0    0 -0.14792162922E+02  0.24550996040E+01  0.44554943251E+01  0.15642475121E+02  0.51100000000E-03 0. -1.
        -11    1    4    4    0    0  0.72451792805E+01  0.12969386264E+01 -0.18059599927E+01  0.75786650780E+01  0.51100000000E-03 0.  1.
         12    1    4    4    0    0 -0.20158548659E+02  0.13994716629E+02 -0.19179413388E+02  0.31145931925E+02  0.00000000000E+00 0. -1.
</event>
<event>
 8    1  0.2527138E-006  0.9118800E+02  0.7816164E-02  0.1184000E+00
        -11   -1    0    0    0    0  0.00000000000E+00  0.00000000000E+00  0.45593999997E+02  0.45594000000E+02  0.51100000000E-03 0. -1.
         11   -1    0    0    0    0 -0.00000000000E+00 -0.00000000000E+00 -0.45593999997E+02  0.45594000000E+02  0.51100000000E-03 0.  1.
         23    2    1    2    0    0 -0.44408920985E-15 -0.27755575616E-15  0.00000000000E+00  0.91188000000E+02  0.91188000000E+02 0.  0.
    9900012    2    3    3    0    0  0.18167945626E+01 -0.32872594176E+00  0.36774653505E+02  0.54367028481E+02  0.39999873027E+02 0.  0.
        -12    1    3    3    0    0 -0.18167945626E+01  0.32872594176E+00 -0.36774653505E+02  0.36820971519E+02  0.00000000000E+00 0.  1.
         11    1    4    4    0    0 -0.32223473113E+01 -0.11344686566E+02  0.12280692668E+02  0.17026474918E+02  0.51100000000E-03 0.  1.
        -11    1    4    4    0    0 -0.85221319119E+01 -0.18452399543E+01  0.12099999080E+02  0.14914476887E+02  0.51100000000E-03 0. -1.
         12    1    4    4    0    0  0.13561273786E+02  0.12861200579E+02  0.12393961757E+02  0.22426076675E+02  0.00000000000E+00 0. -1.
</event>
<event>
 8    1  0.2527138E-006  0.9118800E+02  0.7816164E-02  0.1184000E+00
        -11   -1    0    0    0    0  0.00000000000E+00  0.00000000000E+00  0.45593999997E+02  0.45594000000E+02  0.51100000000E-03 0. -1.
         11   -1    0    0    0    0 -0.00000000000E+00 -0.00000000000E+00 -0.45593999997E+02  0.45594000000E+02  0.51100000000E-03 0.  1.
         23    2    1    2    0    0  0.35527136788E-14 -0.22204460493E-15 -0.71054273576E-14  0.91188000000E+02  0.91188000000E+02 0.  0.
    9900012    2    3    3    0    0 -0.22252093202E+02  0.13391257068E+01  0.29305824556E+02  0.54367078469E+02  0.39999986986E+02 0.  0.
        -12    1    3    3    0    0  0.22252093202E+02 -0.13391257068E+01 -0.29305824556E+02  0.36820921531E+02  0.00000000000E+00 0.  1.
         11    1    4    4    0    0  0.29878455645E+01  0.24169684157E+01  0.78505987162E+01  0.87407584284E+01  0.51100000000E-03 0. -1.
        -11    1    4    4    0    0  0.33886870057E+00  0.52100835354E+01 -0.57446568124E+01  0.77627884549E+01  0.51100000000E-03 0.  1.
         12    1    4    4    0    0 -0.25578807467E+02 -0.62879262443E+01  0.27199882652E+02  0.37863531586E+02  0.00000000000E+00 0. -1.
</event>
<event>
 8    1  0.2527138E-006  0.9118800E+02  0.7816164E-02  0.1184000E+00
        -11   -1    0    0    0    0  0.00000000000E+00  0.00000000000E+00  0.45593999997E+02  0.45594000000E+02  0.51100000000E-03 0.  1.
         11   -1    0    0    0    0 -0.00000000000E+00 -0.00000000000E+00 -0.45593999997E+02  0.45594000000E+02  0.51100000000E-03 0. -1.
         23    2    1    2    0    0  0.00000000000E+00  0.35527136788E-14 -0.35527136788E-14  0.91188000000E+02  0.91188000000E+02 0.  0.
    9900012    2    3    3    0    0 -0.13693618526E+01 -0.22545093188E+02  0.29079616166E+02  0.54367075852E+02  0.39999981020E+02 0.  0.
         12    1    3    3    0    0  0.13693618526E+01  0.22545093188E+02 -0.29079616166E+02  0.36820924148E+02  0.00000000000E+00 0. -1.
         11    1    4    4    0    0  0.74503732418E+00  0.94851631171E+01  0.20527618817E+01  0.97333052750E+01  0.51100000000E-03 0. -1.
        -11    1    4    4    0    0 -0.51519541852E+01 -0.19186821650E+02  0.78649846662E+01  0.21366673607E+02  0.51100000000E-03 0.  1.
        -12    1    4    4    0    0  0.30375550084E+01 -0.12843434655E+02  0.19161869618E+02  0.23267096970E+02  0.00000000000E+00 0.  1.
</event>
<event>
 8    1  0.2527138E-006  0.9118800E+02  0.7816164E-02  0.1184000E+00
        -11   -1    0    0    0    0  0.00000000000E+00  0.00000000000E+00  0.45593999997E+02  0.45594000000E+02  0.51100000000E-03 0. -1.
         11   -1    0    0    0    0 -0.00000000000E+00 -0.00000000000E+00 -0.45593999997E+02  0.45594000000E+02  0.51100000000E-03 0.  1.
         23    2    1    2    0    0  0.00000000000E+00  0.00000000000E+00  0.00000000000E+00  0.91188000000E+02  0.91188000000E+02 0.  0.
    9900012    2    3    3    0    0 -0.21228280966E+02  0.88197089572E+01 -0.28763422670E+02  0.54367331041E+02  0.40000562771E+02 0.  0.
         12    1    3    3    0    0  0.21228280966E+02 -0.88197089572E+01  0.28763422670E+02  0.36820668959E+02  0.00000000000E+00 0. -1.
         11    1    4    4    0    0 -0.60179946933E+01  0.98869414976E+01 -0.21960421732E+02  0.24823939962E+02  0.51100000000E-03 0.  1.
        -11    1    4    4    0    0 -0.28544202642E+01 -0.33749224571E+01 -0.14259313054E+02  0.14928691358E+02  0.51100000000E-03 0. -1.
        -12    1    4    4    0    0 -0.12355866009E+02  0.23076899166E+01  0.74563121158E+01  0.14614699721E+02  0.00000000000E+00 0.  1.
</event>
<event>
 8    1  0.2527138E-006  0.9118800E+02  0.7816164E-02  0.1184000E+00
        -11   -1    0    0    0    0  0.00000000000E+00  0.00000000000E+00  0.45593999997E+02  0.45594000000E+02  0.51100000000E-03 0.  1.
         11   -1    0    0    0    0 -0.00000000000E+00 -0.00000000000E+00 -0.45593999997E+02  0.45594000000E+02  0.51100000000E-03 0. -1.
         23    2    1    2    0    0  0.35527136788E-14  0.71054273576E-14 -0.35527136788E-14  0.91188000000E+02  0.91188000000E+02 0.  0.
    9900012    2    3    3    0    0 -0.12150543921E+02 -0.28830433705E+02  0.19415174466E+02  0.54367100707E+02  0.40000037682E+02 0.  0.
         12    1    3    3    0    0  0.12150543921E+02  0.28830433705E+02 -0.19415174466E+02  0.36820899293E+02  0.00000000000E+00 0. -1.
         11    1    4    4    0    0 -0.47375735269E+01 -0.20225564168E+01 -0.65022268930E+01  0.82954380361E+01  0.51100000000E-03 0. -1.
        -11    1    4    4    0    0  0.18445564924E+01  0.17684749510E+01  0.13211715542E+02  0.13456571633E+02  0.51100000000E-03 0.  1.
        -12    1    4    4    0    0 -0.92575268864E+01 -0.28576352239E+02  0.12705685818E+02  0.32615091038E+02  0.00000000000E+00 0.  1.
</event>
<event>
 8    1  0.2527138E-006  0.9118800E+02  0.7816164E-02  0.1184000E+00
        -11   -1    0    0    0    0  0.00000000000E+00  0.00000000000E+00  0.45593999997E+02  0.45594000000E+02  0.51100000000E-03 0.  1.
         11   -1    0    0    0    0 -0.00000000000E+00 -0.00000000000E+00 -0.45593999997E+02  0.45594000000E+02  0.51100000000E-03 0. -1.
         23    2    1    2    0    0 -0.22204460493E-15  0.00000000000E+00  0.00000000000E+00  0.91188000000E+02  0.91188000000E+02 0.  0.
    9900012    2    3    3    0    0  0.18291989306E+01  0.30346139566E+02  0.20773691497E+02  0.54367076414E+02  0.39999982301E+02 0.  0.
         12    1    3    3    0    0 -0.18291989306E+01 -0.30346139566E+02 -0.20773691497E+02  0.36820923586E+02  0.00000000000E+00 0. -1.
         11    1    4    4    0    0 -0.33958245861E+01  0.18578261566E+01  0.12002677791E+02  0.12611400281E+02  0.51100000000E-03 0.  1.
        -11    1    4    4    0    0 -0.69650423014E+01  0.23934054129E+02  0.12947388905E+02  0.28088888213E+02  0.51100000000E-03 0. -1.
         12    1    4    4    0    0  0.12190065818E+02  0.45542592812E+01 -0.41763751985E+01  0.13666787920E+02  0.00000000000E+00 0. -1.
</event>
<event>
 8    1  0.2527138E-006  0.9118800E+02  0.7816164E-02  0.1184000E+00
        -11   -1    0    0    0    0  0.00000000000E+00  0.00000000000E+00  0.45593999997E+02  0.45594000000E+02  0.51100000000E-03 0. -1.
         11   -1    0    0    0    0 -0.00000000000E+00 -0.00000000000E+00 -0.45593999997E+02  0.45594000000E+02  0.51100000000E-03 0.  1.
         23    2    1    2    0    0  0.00000000000E+00 -0.35527136788E-14 -0.35527136788E-14  0.91188000000E+02  0.91188000000E+02 0.  0.
    9900012    2    3    3    0    0  0.10023705730E+02 -0.25042749862E+02  0.25063243085E+02  0.54367079980E+02  0.39999990429E+02 0.  0.
        -12    1    3    3    0    0 -0.10023705730E+02  0.25042749862E+02 -0.25063243085E+02  0.36820920020E+02  0.00000000000E+00 0.  1.
         11    1    4    4    0    0  0.16785655885E+02 -0.11024884508E+02  0.17030752013E+02  0.26331593881E+02  0.51100000000E-03 0. -1.
        -11    1    4    4    0    0 -0.93391257839E+01 -0.92778051018E+01  0.14518967837E+02  0.19598402109E+02  0.51100000000E-03 0.  1.
        -12    1    4    4    0    0  0.25771756284E+01 -0.47400602526E+01 -0.64864767653E+01  0.84370839894E+01  0.00000000000E+00 0.  1.
</event>
<event>
 8    1  0.2527138E-006  0.9118800E+02  0.7816164E-02  0.1184000E+00
        -11   -1    0    0    0    0  0.00000000000E+00  0.00000000000E+00  0.45593999997E+02  0.45594000000E+02  0.51100000000E-03 0.  1.
         11   -1    0    0    0    0 -0.00000000000E+00 -0.00000000000E+00 -0.45593999997E+02  0.45594000000E+02  0.51100000000E-03 0. -1.
         23    2    1    2    0    0  0.00000000000E+00  0.35527136788E-14  0.44408920985E-15  0.91188000000E+02  0.91188000000E+02 0.  0.
    9900012    2    3    3    0    0  0.22546289253E+02  0.29105137091E+02 -0.58058595525E+00  0.54367065137E+02  0.39999956592E+02 0.  0.
         12    1    3    3    0    0 -0.22546289253E+02 -0.29105137091E+02  0.58058595525E+00  0.36820934863E+02  0.00000000000E+00 0. -1.
         11    1    4    4    0    0  0.24118793883E+01 -0.24026159701E+01  0.12362468804E+01  0.36218824241E+01  0.51100000000E-03 0. -1.
        -11    1    4    4    0    0  0.28966305211E+02  0.21413948962E+02  0.37636309647E+01  0.36218351233E+02  0.51100000000E-03 0.  1.
        -12    1    4    4    0    0 -0.88318953465E+01  0.10093804099E+02 -0.55804638003E+01  0.14526831480E+02  0.00000000000E+00 0.  1.
</event>
<event>
 8    1  0.2527138E-006  0.9118800E+02  0.7816164E-02  0.1184000E+00
        -11   -1    0    0    0    0  0.00000000000E+00  0.00000000000E+00  0.45593999997E+02  0.45594000000E+02  0.51100000000E-03 0.  1.
         11   -1    0    0    0    0 -0.00000000000E+00 -0.00000000000E+00 -0.45593999997E+02  0.45594000000E+02  0.51100000000E-03 0. -1.
         23    2    1    2    0    0 -0.17763568394E-14 -0.11102230246E-14  0.00000000000E+00  0.91188000000E+02  0.91188000000E+02 0.  0.
    9900012    2    3    3    0    0 -0.11235327239E+02 -0.18580930246E+01  0.35015629040E+02  0.54367090656E+02  0.40000014769E+02 0.  0.
         12    1    3    3    0    0  0.11235327239E+02  0.18580930246E+01 -0.35015629040E+02  0.36820909344E+02  0.00000000000E+00 0. -1.
         11    1    4    4    0    0  0.50029149349E+01 -0.38324097585E+01  0.20711228727E+02  0.21648822556E+02  0.51100000000E-03 0. -1.
        -11    1    4    4    0    0 -0.20766760100E+02  0.76797008576E+01  0.10818687655E+02  0.24643054461E+02  0.51100000000E-03 0.  1.
        -12    1    4    4    0    0  0.45285179256E+01 -0.57053841236E+01  0.34857126573E+01  0.80752136399E+01  0.00000000000E+00 0.  1.
</event>
<event>
 8    1  0.2527138E-006  0.9118800E+02  0.7816164E-02  0.1184000E+00
        -11   -1    0    0    0    0  0.00000000000E+00  0.00000000000E+00  0.45593999997E+02  0.45594000000E+02  0.51100000000E-03 0. -1.
         11   -1    0    0    0    0 -0.00000000000E+00 -0.00000000000E+00 -0.45593999997E+02  0.45594000000E+02  0.51100000000E-03 0.  1.
         23    2    1    2    0    0 -0.88817841970E-15  0.88817841970E-15  0.00000000000E+00  0.91188000000E+02  0.91188000000E+02 0.  0.
    9900012    2    3    3    0    0  0.51141755685E+01  0.53459715925E+01 -0.36070006902E+02  0.54367087438E+02  0.40000007431E+02 0.  0.
         12    1    3    3    0    0 -0.51141755685E+01 -0.53459715925E+01  0.36070006902E+02  0.36820912562E+02  0.00000000000E+00 0. -1.
         11    1    4    4    0    0  0.51407937326E+01  0.32209035851E+00 -0.16018594329E+02  0.16826374147E+02  0.51100000000E-03 0. -1.
        -11    1    4    4    0    0 -0.13026251376E+02 -0.24957303838E+00 -0.19562104987E+02  0.23503647874E+02  0.51100000000E-03 0.  1.
         12    1    4    4    0    0  0.12999633211E+02  0.52734542724E+01 -0.48930758628E+00  0.14037065417E+02  0.00000000000E+00 0. -1.
</event>
<event>
 8    1  0.2527138E-006  0.9118800E+02  0.7816164E-02  0.1184000E+00
        -11   -1    0    0    0    0  0.00000000000E+00  0.00000000000E+00  0.45593999997E+02  0.45594000000E+02  0.51100000000E-03 0.  1.
         11   -1    0    0    0    0 -0.00000000000E+00 -0.00000000000E+00 -0.45593999997E+02  0.45594000000E+02  0.51100000000E-03 0. -1.
         23    2    1    2    0    0  0.88817841970E-15  0.17763568394E-14  0.00000000000E+00  0.91188000000E+02  0.91188000000E+02 0.  0.
    9900012    2    3    3    0    0  0.46485929824E+01  0.50213659083E+01 -0.36179512745E+02  0.54367072869E+02  0.39999974220E+02 0.  0.
        -12    1    3    3    0    0 -0.46485929824E+01 -0.50213659083E+01  0.36179512745E+02  0.36820927131E+02  0.00000000000E+00 0.  1.
         11    1    4    4    0    0  0.30054826488E+01  0.94874849783E+01 -0.12381311774E+02  0.15885281826E+02  0.51100000000E-03 0. -1.
        -11    1    4    4    0    0  0.10596930736E+02  0.50460484272E+01 -0.47173596215E+00  0.11746492278E+02  0.51100000000E-03 0.  1.
         12    1    4    4    0    0 -0.89538204026E+01 -0.95121674973E+01 -0.23326465009E+02  0.26735298766E+02  0.00000000000E+00 0. -1.
</event>
<event>
 8    1  0.2527138E-006  0.9118800E+02  0.7816164E-02  0.1184000E+00
        -11   -1    0    0    0    0  0.00000000000E+00  0.00000000000E+00  0.45593999997E+02  0.45594000000E+02  0.51100000000E-03 0.  1.
         11   -1    0    0    0    0 -0.00000000000E+00 -0.00000000000E+00 -0.45593999997E+02  0.45594000000E+02  0.51100000000E-03 0. -1.
         23    2    1    2    0    0  0.66613381478E-15  0.35527136788E-14  0.00000000000E+00  0.91188000000E+02  0.91188000000E+02 0.  0.
    9900012    2    3    3    0    0  0.18306065109E+01 -0.30269919195E+02 -0.20884455799E+02  0.54367087161E+02  0.40000006800E+02 0.  0.
        -12    1    3    3    0    0 -0.18306065109E+01  0.30269919195E+02  0.20884455799E+02  0.36820912839E+02  0.00000000000E+00 0.  1.
         11    1    4    4    0    0  0.42966351570E+01 -0.23427456909E+02  0.55160886745E+01  0.24448600071E+02  0.51100000000E-03 0. -1.
        -11    1    4    4    0    0 -0.60073193147E+01  0.39298757190E+00 -0.11268295880E+02  0.12775633718E+02  0.51100000000E-03 0.  1.
         12    1    4    4    0    0  0.35412906687E+01 -0.72354498581E+01 -0.15132248593E+02  0.17142853372E+02  0.00000000000E+00 0. -1.
</event>
<event>
 8    1  0.2527138E-006  0.9118800E+02  0.7816164E-02  0.1184000E+00
        -11   -1    0    0    0    0  0.00000000000E+00  0.00000000000E+00  0.45593999997E+02  0.45594000000E+02  0.51100000000E-03 0. -1.
         11   -1    0    0    0    0 -0.00000000000E+00 -0.00000000000E+00 -0.45593999997E+02  0.45594000000E+02  0.51100000000E-03 0.  1.
         23    2    1    2    0    0  0.00000000000E+00  0.88817841970E-15 -0.88817841970E-15  0.91188000000E+02  0.91188000000E+02 0.  0.
    9900012    2    3    3    0    0 -0.35951771094E+02  0.27067006728E+01 -0.74782829600E+01  0.54367071313E+02  0.39999970673E+02 0.  0.
         12    1    3    3    0    0  0.35951771094E+02 -0.27067006728E+01  0.74782829600E+01  0.36820928687E+02  0.00000000000E+00 0. -1.
         11    1    4    4    0    0 -0.14672165594E+02  0.15269451162E+02 -0.87354203420E+01  0.22907120090E+02  0.51100000000E-03 0. -1.
        -11    1    4    4    0    0 -0.12188845905E+02 -0.70907717187E+00 -0.73188092220E+01  0.14235017514E+02  0.51100000000E-03 0.  1.
        -12    1    4    4    0    0 -0.90907595955E+01 -0.11853673318E+02  0.85759466040E+01  0.17224933710E+02  0.00000000000E+00 0.  1.
</event>
<event>
 8    1  0.2527138E-006  0.9118800E+02  0.7816164E-02  0.1184000E+00
        -11   -1    0    0    0    0  0.00000000000E+00  0.00000000000E+00  0.45593999997E+02  0.45594000000E+02  0.51100000000E-03 0.  1.
         11   -1    0    0    0    0 -0.00000000000E+00 -0.00000000000E+00 -0.45593999997E+02  0.45594000000E+02  0.51100000000E-03 0. -1.
         23    2    1    2    0    0  0.17763568394E-14  0.00000000000E+00  0.00000000000E+00  0.91188000000E+02  0.91188000000E+02 0.  0.
    9900012    2    3    3    0    0  0.13553204488E+02 -0.27095319337E+02  0.20926877756E+02  0.54367083465E+02  0.39999998375E+02 0.  0.
         12    1    3    3    0    0 -0.13553204488E+02  0.27095319337E+02 -0.20926877756E+02  0.36820916535E+02  0.00000000000E+00 0. -1.
         11    1    4    4    0    0 -0.47433771429E+01 -0.13823951477E+02  0.81487159984E+00  0.14637803016E+02  0.51100000000E-03 0. -1.
        -11    1    4    4    0    0  0.22974817124E+02 -0.34399145527E+01  0.11966989500E+02  0.26132050665E+02  0.51100000000E-03 0.  1.
        -12    1    4    4    0    0 -0.46782354934E+01 -0.98314533074E+01  0.81450166562E+01  0.13597229784E+02  0.00000000000E+00 0.  1.
</event>
<event>
 8    1  0.2527138E-006  0.9118800E+02  0.7816164E-02  0.1184000E+00
        -11   -1    0    0    0    0  0.00000000000E+00  0.00000000000E+00  0.45593999997E+02  0.45594000000E+02  0.51100000000E-03 0. -1.
         11   -1    0    0    0    0 -0.00000000000E+00 -0.00000000000E+00 -0.45593999997E+02  0.45594000000E+02  0.51100000000E-03 0.  1.
         23    2    1    2    0    0  0.00000000000E+00 -0.44408920985E-15  0.17763568394E-14  0.91188000000E+02  0.91188000000E+02 0.  0.
    9900012    2    3    3    0    0  0.33736938616E+02 -0.13165857422E+01 -0.14692359256E+02  0.54367084127E+02  0.39999999885E+02 0.  0.
        -12    1    3    3    0    0 -0.33736938616E+02  0.13165857422E+01  0.14692359256E+02  0.36820915873E+02  0.00000000000E+00 0.  1.
         11    1    4    4    0    0  0.65695530254E+01 -0.35092032606E+01  0.55185026867E+01  0.92697036977E+01  0.51100000000E-03 0. -1.
        -11    1    4    4    0    0  0.46795811313E+00  0.28310099240E+01  0.66354497633E+01  0.72293011978E+01  0.51100000000E-03 0.  1.
         12    1    4    4    0    0  0.26699427478E+02 -0.63839240560E+00 -0.26846311706E+02  0.37868079232E+02  0.00000000000E+00 0. -1.
</event>
<event>
 8    1  0.2527138E-006  0.9118800E+02  0.7816164E-02  0.1184000E+00
        -11   -1    0    0    0    0  0.00000000000E+00  0.00000000000E+00  0.45593999997E+02  0.45594000000E+02  0.51100000000E-03 0.  1.
         11   -1    0    0    0    0 -0.00000000000E+00 -0.00000000000E+00 -0.45593999997E+02  0.45594000000E+02  0.51100000000E-03 0. -1.
         23    2    1    2    0    0  0.00000000000E+00  0.13322676296E-14  0.00000000000E+00  0.91188000000E+02  0.91188000000E+02 0.  0.
    9900012    2    3    3    0    0  0.28217515190E+02 -0.33019139933E+01 -0.23423248194E+02  0.54367090785E+02  0.40000015062E+02 0.  0.
        -12    1    3    3    0    0 -0.28217515190E+02  0.33019139933E+01  0.23423248194E+02  0.36820909215E+02  0.00000000000E+00 0.  1.
         11    1    4    4    0    0  0.98487292353E+01 -0.11011687922E+02  0.24516208348E+01  0.14975486083E+02  0.51100000000E-03 0. -1.
        -11    1    4    4    0    0 -0.86010085847E+00  0.90733529152E+01 -0.32692825216E+01  0.96826502094E+01  0.51100000000E-03 0.  1.
        -12    1    4    4    0    0  0.19228886813E+02 -0.13635789865E+01 -0.22605586507E+02  0.29708954492E+02  0.00000000000E+00 0.  1.
</event>
<event>
 8    1  0.2527138E-006  0.9118800E+02  0.7816164E-02  0.1184000E+00
        -11   -1    0    0    0    0  0.00000000000E+00  0.00000000000E+00  0.45593999997E+02  0.45594000000E+02  0.51100000000E-03 0.  1.
         11   -1    0    0    0    0 -0.00000000000E+00 -0.00000000000E+00 -0.45593999997E+02  0.45594000000E+02  0.51100000000E-03 0. -1.
         23    2    1    2    0    0  0.35527136788E-14  0.00000000000E+00  0.00000000000E+00  0.91188000000E+02  0.91188000000E+02 0.  0.
    9900012    2    3    3    0    0 -0.10095676937E+02  0.79786803885E+01 -0.34499235860E+02  0.54367091422E+02  0.40000016515E+02 0.  0.
        -12    1    3    3    0    0  0.10095676937E+02 -0.79786803885E+01  0.34499235860E+02  0.36820908578E+02  0.00000000000E+00 0.  1.
         11    1    4    4    0    0 -0.16407021370E+02 -0.73914831572E+01 -0.19550683412E+02  0.26571669041E+02  0.51100000000E-03 0. -1.
        -11    1    4    4    0    0  0.11047029794E+02  0.53191486182E+01 -0.88470628548E+01  0.15119547966E+02  0.51100000000E-03 0.  1.
        -12    1    4    4    0    0 -0.47356853616E+01  0.10051014928E+02 -0.61014895931E+01  0.12675874414E+02  0.00000000000E+00 0.  1.
</event>
<event>
 8    1  0.2527138E-006  0.9118800E+02  0.7816164E-02  0.1184000E+00
        -11   -1    0    0    0    0  0.00000000000E+00  0.00000000000E+00  0.45593999997E+02  0.45594000000E+02  0.51100000000E-03 0. -1.
         11   -1    0    0    0    0 -0.00000000000E+00 -0.00000000000E+00 -0.45593999997E+02  0.45594000000E+02  0.51100000000E-03 0.  1.
         23    2    1    2    0    0  0.35527136788E-14  0.35527136788E-14  0.00000000000E+00  0.91188000000E+02  0.91188000000E+02 0.  0.
    9900012    2    3    3    0    0  0.28375476884E+02  0.23340377462E+02 -0.24165103085E+01  0.54367076185E+02  0.39999981779E+02 0.  0.
         12    1    3    3    0    0 -0.28375476884E+02 -0.23340377462E+02  0.24165103085E+01  0.36820923815E+02  0.00000000000E+00 0. -1.
         11    1    4    4    0    0  0.13758278975E+02  0.27265195125E+02 -0.77586242663E-03  0.30539828199E+02  0.51100000000E-03 0. -1.
        -11    1    4    4    0    0  0.17999597633E+02 -0.30093343759E+01 -0.56032570071E+01  0.19090261854E+02  0.51100000000E-03 0.  1.
         12    1    4    4    0    0 -0.33823997232E+01 -0.91548328678E+00  0.31875225611E+01  0.47369861318E+01  0.00000000000E+00 0. -1.
</event>
<event>
 8    1  0.2527138E-006  0.9118800E+02  0.7816164E-02  0.1184000E+00
        -11   -1    0    0    0    0  0.00000000000E+00  0.00000000000E+00  0.45593999997E+02  0.45594000000E+02  0.51100000000E-03 0. -1.
         11   -1    0    0    0    0 -0.00000000000E+00 -0.00000000000E+00 -0.45593999997E+02  0.45594000000E+02  0.51100000000E-03 0.  1.
         23    2    1    2    0    0  0.00000000000E+00 -0.44408920985E-15  0.00000000000E+00  0.91188000000E+02  0.91188000000E+02 0.  0.
    9900012    2    3    3    0    0  0.36457458771E+02  0.37300626978E+01  0.35665707717E+01  0.54367080744E+02  0.39999992173E+02 0.  0.
         12    1    3    3    0    0 -0.36457458771E+02 -0.37300626978E+01 -0.35665707717E+01  0.36820919256E+02  0.00000000000E+00 0. -1.
         11    1    4    4    0    0 -0.34310763777E+01  0.19077974814E+01 -0.11206075209E+01  0.40826140911E+01  0.51100000000E-03 0. -1.
        -11    1    4    4    0    0  0.38273940651E+02 -0.16758269266E+01 -0.61333828427E+01  0.38798470514E+02  0.51100000000E-03 0.  1.
        -12    1    4    4    0    0  0.16145944974E+01  0.34980921430E+01  0.10820561135E+02  0.11485996139E+02  0.00000000000E+00 0.  1.
</event>
<event>
 8    1  0.2527138E-006  0.9118800E+02  0.7816164E-02  0.1184000E+00
        -11   -1    0    0    0    0  0.00000000000E+00  0.00000000000E+00  0.45593999997E+02  0.45594000000E+02  0.51100000000E-03 0.  1.
         11   -1    0    0    0    0 -0.00000000000E+00 -0.00000000000E+00 -0.45593999997E+02  0.45594000000E+02  0.51100000000E-03 0. -1.
         23    2    1    2    0    0  0.00000000000E+00  0.00000000000E+00  0.00000000000E+00  0.91188000000E+02  0.91188000000E+02 0.  0.
    9900012    2    3    3    0    0 -0.11816926784E+02 -0.11194282294E+02  0.33027670011E+02  0.54367099671E+02  0.40000035320E+02 0.  0.
         12    1    3    3    0    0  0.11816926784E+02  0.11194282294E+02 -0.33027670011E+02  0.36820900329E+02  0.00000000000E+00 0. -1.
         11    1    4    4    0    0 -0.12032192938E+02 -0.12262080814E+02  0.11639502210E+02  0.20751151889E+02  0.51100000000E-03 0. -1.
        -11    1    4    4    0    0 -0.12776857611E+02  0.15471756287E+01  0.11810719821E+02  0.17468112256E+02  0.51100000000E-03 0.  1.
        -12    1    4    4    0    0  0.12992123765E+02 -0.47937710911E+00  0.95774479804E+01  0.16147835526E+02  0.00000000000E+00 0.  1.
</event>
<event>
 8    1  0.2527138E-006  0.9118800E+02  0.7816164E-02  0.1184000E+00
        -11   -1    0    0    0    0  0.00000000000E+00  0.00000000000E+00  0.45593999997E+02  0.45594000000E+02  0.51100000000E-03 0.  1.
         11   -1    0    0    0    0 -0.00000000000E+00 -0.00000000000E+00 -0.45593999997E+02  0.45594000000E+02  0.51100000000E-03 0. -1.
         23    2    1    2    0    0  0.00000000000E+00  0.00000000000E+00  0.00000000000E+00  0.91188000000E+02  0.91188000000E+02 0.  0.
    9900012    2    3    3    0    0  0.48345964543E+01 -0.45118064982E+01  0.36222241600E+02  0.54367075144E+02  0.39999979405E+02 0.  0.
         12    1    3    3    0    0 -0.48345964543E+01  0.45118064982E+01 -0.36222241600E+02  0.36820924856E+02  0.00000000000E+00 0. -1.
         11    1    4    4    0    0  0.11919578222E+02  0.44414810935E+01 -0.15885437824E+01  0.12818992586E+02  0.51100000000E-03 0. -1.
        -11    1    4    4    0    0 -0.99343067813E+01 -0.43625502563E+01  0.31064695030E+02  0.32904977945E+02  0.51100000000E-03 0.  1.
        -12    1    4    4    0    0  0.28493250135E+01 -0.45907373354E+01  0.67460903525E+01  0.86431046135E+01  0.00000000000E+00 0.  1.
</event>
<event>
 8    1  0.2527138E-006  0.9118800E+02  0.7816164E-02  0.1184000E+00
        -11   -1    0    0    0    0  0.00000000000E+00  0.00000000000E+00  0.45593999997E+02  0.45594000000E+02  0.51100000000E-03 0. -1.
         11   -1    0    0    0    0 -0.00000000000E+00 -0.00000000000E+00 -0.45593999997E+02  0.45594000000E+02  0.51100000000E-03 0.  1.
         23    2    1    2    0    0  0.00000000000E+00  0.00000000000E+00  0.00000000000E+00  0.91188000000E+02  0.91188000000E+02 0.  0.
    9900012    2    3    3    0    0 -0.23780531961E+02  0.20741428296E+02  0.18975313467E+02  0.54367040354E+02  0.39999900094E+02 0.  0.
        -12    1    3    3    0    0  0.23780531961E+02 -0.20741428296E+02 -0.18975313467E+02  0.36820959646E+02  0.00000000000E+00 0.  1.
         11    1    4    4    0    0 -0.94572046843E+01  0.26388733771E+02  0.16246749725E+02  0.32400013385E+02  0.51100000000E-03 0. -1.
        -11    1    4    4    0    0 -0.61106960987E+01 -0.95965719474E+00  0.87800801414E+01  0.10740174873E+02  0.51100000000E-03 0.  1.
        -12    1    4    4    0    0 -0.82126311776E+01 -0.46876482799E+01 -0.60515163991E+01  0.11226852096E+02  0.00000000000E+00 0.  1.
</event>
<event>
 8    1  0.2527138E-006  0.9118800E+02  0.7816164E-02  0.1184000E+00
        -11   -1    0    0    0    0  0.00000000000E+00  0.00000000000E+00  0.45593999997E+02  0.45594000000E+02  0.51100000000E-03 0.  1.
         11   -1    0    0    0    0 -0.00000000000E+00 -0.00000000000E+00 -0.45593999997E+02  0.45594000000E+02  0.51100000000E-03 0. -1.
         23    2    1    2    0    0  0.35527136788E-14 -0.35527136788E-14 -0.35527136788E-14  0.91188000000E+02  0.91188000000E+02 0.  0.
    9900012    2    3    3    0    0  0.16246462630E+02 -0.11593852007E+02 -0.30942150149E+02  0.54367060195E+02  0.39999945325E+02 0.  0.
        -12    1    3    3    0    0 -0.16246462630E+02  0.11593852007E+02  0.30942150149E+02  0.36820939805E+02  0.00000000000E+00 0.  1.
         11    1    4    4    0    0 -0.47916590604E+00  0.63682140611E+01 -0.90747348954E+01  0.11096601461E+02  0.51100000000E-03 0. -1.
        -11    1    4    4    0    0 -0.25927745761E+01  0.45677611274E+01  0.15387350074E+01  0.54730820754E+01  0.51100000000E-03 0.  1.
         12    1    4    4    0    0  0.19318403112E+02 -0.22529827195E+02 -0.23406150261E+02  0.37797376658E+02  0.00000000000E+00 0. -1.
</event>
<event>
 8    1  0.2527138E-006  0.9118800E+02  0.7816164E-02  0.1184000E+00
        -11   -1    0    0    0    0  0.00000000000E+00  0.00000000000E+00  0.45593999997E+02  0.45594000000E+02  0.51100000000E-03 0. -1.
         11   -1    0    0    0    0 -0.00000000000E+00 -0.00000000000E+00 -0.45593999997E+02  0.45594000000E+02  0.51100000000E-03 0.  1.
         23    2    1    2    0    0  0.00000000000E+00  0.66613381478E-15  0.00000000000E+00  0.91188000000E+02  0.91188000000E+02 0.  0.
    9900012    2    3    3    0    0  0.35610015756E+02 -0.15578319076E+01  0.92346913370E+01  0.54367087648E+02  0.40000007910E+02 0.  0.
        -12    1    3    3    0    0 -0.35610015756E+02  0.15578319076E+01 -0.92346913370E+01  0.36820912352E+02  0.00000000000E+00 0.  1.
         11    1    4    4    0    0  0.87061646268E+01 -0.48238937555E+01  0.16311395290E+02  0.19108345560E+02  0.51100000000E-03 0. -1.
        -11    1    4    4    0    0  0.14359686314E+02  0.94294405021E+01  0.37450450912E+01  0.17582386135E+02  0.51100000000E-03 0.  1.
        -12    1    4    4    0    0  0.12544164815E+02 -0.61633786542E+01 -0.10821749045E+02  0.17676355952E+02  0.00000000000E+00 0.  1.
</event>
<event>
 8    1  0.2527138E-006  0.9118800E+02  0.7816164E-02  0.1184000E+00
        -11   -1    0    0    0    0  0.00000000000E+00  0.00000000000E+00  0.45593999997E+02  0.45594000000E+02  0.51100000000E-03 0.  1.
         11   -1    0    0    0    0 -0.00000000000E+00 -0.00000000000E+00 -0.45593999997E+02  0.45594000000E+02  0.51100000000E-03 0. -1.
         23    2    1    2    0    0  0.00000000000E+00  0.35527136788E-14  0.00000000000E+00  0.91188000000E+02  0.91188000000E+02 0.  0.
    9900012    2    3    3    0    0 -0.18012536116E+02 -0.31121635591E+02  0.79228871481E+01  0.54367084748E+02  0.40000001301E+02 0.  0.
         12    1    3    3    0    0  0.18012536116E+02  0.31121635591E+02 -0.79228871481E+01  0.36820915252E+02  0.00000000000E+00 0. -1.
         11    1    4    4    0    0  0.73876101488E+01 -0.94168076140E+01  0.22111275189E+01  0.12171365351E+02  0.51100000000E-03 0. -1.
        -11    1    4    4    0    0 -0.14097019704E+02 -0.63488565810E+01  0.14503781281E+02  0.21198906012E+02  0.51100000000E-03 0.  1.
         12    1    4    4    0    0 -0.11303126562E+02 -0.15355971396E+02 -0.87920216520E+01  0.20996813385E+02  0.00000000000E+00 0. -1.
</event>
<event>
 8    1  0.2527138E-006  0.9118800E+02  0.7816164E-02  0.1184000E+00
        -11   -1    0    0    0    0  0.00000000000E+00  0.00000000000E+00  0.45593999997E+02  0.45594000000E+02  0.51100000000E-03 0. -1.
         11   -1    0    0    0    0 -0.00000000000E+00 -0.00000000000E+00 -0.45593999997E+02  0.45594000000E+02  0.51100000000E-03 0.  1.
         23    2    1    2    0    0 -0.55511151231E-15  0.17763568394E-14  0.71054273576E-14  0.91188000000E+02  0.91188000000E+02 0.  0.
    9900012    2    3    3    0    0 -0.72594419916E+00 -0.13175974618E+02 -0.34375087718E+02  0.54367082606E+02  0.39999996416E+02 0.  0.
         12    1    3    3    0    0  0.72594419916E+00  0.13175974618E+02  0.34375087718E+02  0.36820917394E+02  0.00000000000E+00 0. -1.
         11    1    4    4    0    0  0.66052901669E+01 -0.66789618777E+01 -0.27422516510E+01  0.97856187506E+01  0.51100000000E-03 0. -1.
        -11    1    4    4    0    0  0.32505191836E+01 -0.85891748293E+00  0.50062319742E+01  0.60304206359E+01  0.51100000000E-03 0.  1.
        -12    1    4    4    0    0 -0.10581753550E+02 -0.56380952577E+01 -0.36639068042E+02  0.38551043219E+02  0.00000000000E+00 0.  1.
</event>
<event>
 8    1  0.2527138E-006  0.9118800E+02  0.7816164E-02  0.1184000E+00
        -11   -1    0    0    0    0  0.00000000000E+00  0.00000000000E+00  0.45593999997E+02  0.45594000000E+02  0.51100000000E-03 0.  1.
         11   -1    0    0    0    0 -0.00000000000E+00 -0.00000000000E+00 -0.45593999997E+02  0.45594000000E+02  0.51100000000E-03 0. -1.
         23    2    1    2    0    0  0.00000000000E+00  0.00000000000E+00  0.00000000000E+00  0.91188000000E+02  0.91188000000E+02 0.  0.
    9900012    2    3    3    0    0 -0.30634482397E+02  0.16365764568E+02 -0.12225774055E+02  0.54367091363E+02  0.40000016380E+02 0.  0.
        -12    1    3    3    0    0  0.30634482397E+02 -0.16365764568E+02  0.12225774055E+02  0.36820908637E+02  0.00000000000E+00 0.  1.
         11    1    4    4    0    0 -0.29633403896E+01  0.56836706792E+01 -0.14420271159E+02  0.15780675499E+02  0.51100000000E-03 0. -1.
        -11    1    4    4    0    0 -0.82214642742E+01  0.91552363423E+01  0.11615507018E+02  0.16921312917E+02  0.51100000000E-03 0.  1.
         12    1    4    4    0    0 -0.19449677733E+02  0.15268575465E+01 -0.94210099140E+01  0.21665102947E+02  0.00000000000E+00 0. -1.
</event>
<event>
 8    1  0.2527138E-006  0.9118800E+02  0.7816164E-02  0.1184000E+00
        -11   -1    0    0    0    0  0.00000000000E+00  0.00000000000E+00  0.45593999997E+02  0.45594000000E+02  0.51100000000E-03 0. -1.
         11   -1    0    0    0    0 -0.00000000000E+00 -0.00000000000E+00 -0.45593999997E+02  0.45594000000E+02  0.51100000000E-03 0.  1.
         23    2    1    2    0    0 -0.17763568394E-14 -0.71054273576E-14  0.17763568394E-14  0.91188000000E+02  0.91188000000E+02 0.  0.
    9900012    2    3    3    0    0 -0.12651600307E+02 -0.33389150307E+02  0.89943823540E+01  0.54366847622E+02  0.39999460719E+02 0.  0.
        -12    1    3    3    0    0  0.12651600307E+02  0.33389150307E+02 -0.89943823540E+01  0.36821152378E+02  0.00000000000E+00 0.  1.
         11    1    4    4    0    0 -0.39795874661E+01 -0.69740050470E+01  0.11490086803E+02  0.14017701588E+02  0.51100000000E-03 0. -1.
        -11    1    4    4    0    0 -0.12483187275E+02 -0.47679769169E+01  0.84337981633E+01  0.15801661943E+02  0.51100000000E-03 0.  1.
         12    1    4    4    0    0  0.38111744343E+01 -0.21647168343E+02 -0.10929502613E+02  0.24547484091E+02  0.00000000000E+00 0. -1.
</event>
<event>
 8    1  0.2527138E-006  0.9118800E+02  0.7816164E-02  0.1184000E+00
        -11   -1    0    0    0    0  0.00000000000E+00  0.00000000000E+00  0.45593999997E+02  0.45594000000E+02  0.51100000000E-03 0. -1.
         11   -1    0    0    0    0 -0.00000000000E+00 -0.00000000000E+00 -0.45593999997E+02  0.45594000000E+02  0.51100000000E-03 0.  1.
         23    2    1    2    0    0  0.35527136788E-14  0.00000000000E+00 -0.35527136788E-14  0.91188000000E+02  0.91188000000E+02 0.  0.
    9900012    2    3    3    0    0  0.16286610215E+02 -0.16797992996E+02 -0.28431375843E+02  0.54367226335E+02  0.40000324074E+02 0.  0.
         12    1    3    3    0    0 -0.16286610215E+02  0.16797992996E+02  0.28431375843E+02  0.36820773665E+02  0.00000000000E+00 0. -1.
         11    1    4    4    0    0  0.94024650677E+01 -0.13038028351E+02 -0.15949017359E+02  0.22644374304E+02  0.51100000000E-03 0. -1.
        -11    1    4    4    0    0 -0.10484160145E+02 -0.39714888300E+01 -0.80343077707E+01  0.13792767637E+02  0.51100000000E-03 0.  1.
        -12    1    4    4    0    0  0.17368305292E+02  0.21152418503E+00 -0.44480507140E+01  0.17930084394E+02  0.00000000000E+00 0.  1.
</event>
<event>
 8    1  0.2527138E-006  0.9118800E+02  0.7816164E-02  0.1184000E+00
        -11   -1    0    0    0    0  0.00000000000E+00  0.00000000000E+00  0.45593999997E+02  0.45594000000E+02  0.51100000000E-03 0.  1.
         11   -1    0    0    0    0 -0.00000000000E+00 -0.00000000000E+00 -0.45593999997E+02  0.45594000000E+02  0.51100000000E-03 0. -1.
         23    2    1    2    0    0 -0.35527136788E-14  0.00000000000E+00  0.00000000000E+00  0.91188000000E+02  0.91188000000E+02 0.  0.
    9900012    2    3    3    0    0  0.31945665988E+02 -0.12229607956E+02  0.13626847243E+02  0.54367084042E+02  0.39999999691E+02 0.  0.
         12    1    3    3    0    0 -0.31945665988E+02  0.12229607956E+02 -0.13626847243E+02  0.36820915958E+02  0.00000000000E+00 0. -1.
         11    1    4    4    0    0 -0.61714832108E+01 -0.29743469915E+01  0.72477920204E+01  0.99731857739E+01  0.51100000000E-03 0. -1.
        -11    1    4    4    0    0  0.23593340660E+02 -0.14953387816E+02  0.12130960569E+01  0.27959276331E+02  0.51100000000E-03 0.  1.
         12    1    4    4    0    0  0.14523808539E+02  0.56981268514E+01  0.51659591655E+01  0.16434621937E+02  0.00000000000E+00 0. -1.
</event>
<event>
 8    1  0.2527138E-006  0.9118800E+02  0.7816164E-02  0.1184000E+00
        -11   -1    0    0    0    0  0.00000000000E+00  0.00000000000E+00  0.45593999997E+02  0.45594000000E+02  0.51100000000E-03 0. -1.
         11   -1    0    0    0    0 -0.00000000000E+00 -0.00000000000E+00 -0.45593999997E+02  0.45594000000E+02  0.51100000000E-03 0.  1.
         23    2    1    2    0    0  0.00000000000E+00  0.00000000000E+00  0.00000000000E+00  0.91188000000E+02  0.91188000000E+02 0.  0.
    9900012    2    3    3    0    0 -0.26592096378E+02  0.25419274891E+02  0.15812697406E+01  0.54367088282E+02  0.40000009356E+02 0.  0.
         12    1    3    3    0    0  0.26592096378E+02 -0.25419274891E+02 -0.15812697406E+01  0.36820911718E+02  0.00000000000E+00 0. -1.
         11    1    4    4    0    0 -0.37181491906E+01  0.21549674514E+02  0.43448382107E+01  0.22295531490E+02  0.51100000000E-03 0. -1.
        -11    1    4    4    0    0 -0.15696153906E+02  0.20838937724E+01 -0.12266415697E+02  0.20029398768E+02  0.51100000000E-03 0.  1.
        -12    1    4    4    0    0 -0.71777932813E+01  0.17857066038E+01  0.95028472266E+01  0.12042158024E+02  0.00000000000E+00 0.  1.
</event>
<event>
 8    1  0.2527138E-006  0.9118800E+02  0.7816164E-02  0.1184000E+00
        -11   -1    0    0    0    0  0.00000000000E+00  0.00000000000E+00  0.45593999997E+02  0.45594000000E+02  0.51100000000E-03 0.  1.
         11   -1    0    0    0    0 -0.00000000000E+00 -0.00000000000E+00 -0.45593999997E+02  0.45594000000E+02  0.51100000000E-03 0. -1.
         23    2    1    2    0    0 -0.35527136788E-14  0.00000000000E+00  0.00000000000E+00  0.91188000000E+02  0.91188000000E+02 0.  0.
    9900012    2    3    3    0    0 -0.20706174028E+02  0.28114169111E+02  0.11688821329E+02  0.54367072639E+02  0.39999973695E+02 0.  0.
        -12    1    3    3    0    0  0.20706174028E+02 -0.28114169111E+02 -0.11688821329E+02  0.36820927361E+02  0.00000000000E+00 0.  1.
         11    1    4    4    0    0  0.66782617988E+01  0.19211999022E+02  0.94723284513E+01  0.22437136485E+02  0.51100000000E-03 0. -1.
        -11    1    4    4    0    0 -0.20934639322E+02  0.55153439599E+01  0.75211965277E+01  0.22918257787E+02  0.51100000000E-03 0.  1.
        -12    1    4    4    0    0 -0.64497965046E+01  0.33868261292E+01 -0.53047036503E+01  0.90116783674E+01  0.00000000000E+00 0.  1.
</event>
<event>
 8    1  0.2527138E-006  0.9118800E+02  0.7816164E-02  0.1184000E+00
        -11   -1    0    0    0    0  0.00000000000E+00  0.00000000000E+00  0.45593999997E+02  0.45594000000E+02  0.51100000000E-03 0.  1.
         11   -1    0    0    0    0 -0.00000000000E+00 -0.00000000000E+00 -0.45593999997E+02  0.45594000000E+02  0.51100000000E-03 0. -1.
         23    2    1    2    0    0  0.00000000000E+00 -0.44408920985E-15  0.00000000000E+00  0.91188000000E+02  0.91188000000E+02 0.  0.
    9900012    2    3    3    0    0  0.16794010916E+02  0.29617854709E+01 -0.32633864338E+02  0.54367080981E+02  0.39999992711E+02 0.  0.
        -12    1    3    3    0    0 -0.16794010916E+02 -0.29617854709E+01  0.32633864338E+02  0.36820919019E+02  0.00000000000E+00 0.  1.
         11    1    4    4    0    0  0.26552356627E+02 -0.39113655660E+01 -0.18733389542E+02  0.32730204812E+02  0.51100000000E-03 0. -1.
        -11    1    4    4    0    0 -0.85187420906E+01 -0.28650401346E-01 -0.11314735467E+02  0.14163086761E+02  0.51100000000E-03 0.  1.
        -12    1    4    4    0    0 -0.12396036209E+01  0.69018014383E+01 -0.25857393288E+01  0.74737894074E+01  0.00000000000E+00 0.  1.
</event>
<event>
 8    1  0.2527138E-006  0.9118800E+02  0.7816164E-02  0.1184000E+00
        -11   -1    0    0    0    0  0.00000000000E+00  0.00000000000E+00  0.45593999997E+02  0.45594000000E+02  0.51100000000E-03 0. -1.
         11   -1    0    0    0    0 -0.00000000000E+00 -0.00000000000E+00 -0.45593999997E+02  0.45594000000E+02  0.51100000000E-03 0.  1.
         23    2    1    2    0    0 -0.13322676296E-14  0.35527136788E-14  0.35527136788E-14  0.91188000000E+02  0.91188000000E+02 0.  0.
    9900012    2    3    3    0    0 -0.36065874385E+01 -0.25056554674E+02 -0.26738367456E+02  0.54367099695E+02  0.40000035374E+02 0.  0.
         12    1    3    3    0    0  0.36065874385E+01  0.25056554674E+02  0.26738367456E+02  0.36820900305E+02  0.00000000000E+00 0. -1.
         11    1    4    4    0    0 -0.47034186168E+01 -0.83470314938E+01 -0.42068465562E+00  0.95902063213E+01  0.51100000000E-03 0. -1.
        -11    1    4    4    0    0 -0.15431810497E+02 -0.80900717651E+01 -0.10608656951E+02  0.20399353886E+02  0.51100000000E-03 0.  1.
        -12    1    4    4    0    0  0.16528641676E+02 -0.86194514152E+01 -0.15709025849E+02  0.24377539487E+02  0.00000000000E+00 0.  1.
</event>
<event>
 8    1  0.2527138E-006  0.9118800E+02  0.7816164E-02  0.1184000E+00
        -11   -1    0    0    0    0  0.00000000000E+00  0.00000000000E+00  0.45593999997E+02  0.45594000000E+02  0.51100000000E-03 0.  1.
         11   -1    0    0    0    0 -0.00000000000E+00 -0.00000000000E+00 -0.45593999997E+02  0.45594000000E+02  0.51100000000E-03 0. -1.
         23    2    1    2    0    0  0.00000000000E+00  0.00000000000E+00  0.00000000000E+00  0.91188000000E+02  0.91188000000E+02 0.  0.
    9900012    2    3    3    0    0 -0.40901411792E+01 -0.12800190169E+02  0.34281279327E+02  0.54367078834E+02  0.39999987817E+02 0.  0.
         12    1    3    3    0    0  0.40901411792E+01  0.12800190169E+02 -0.34281279327E+02  0.36820921166E+02  0.00000000000E+00 0. -1.
         11    1    4    4    0    0 -0.85519177414E+01 -0.16534440511E+01  0.35534938879E+01  0.94072574834E+01  0.51100000000E-03 0. -1.
        -11    1    4    4    0    0  0.16694620514E+02 -0.91293195816E+01  0.24685448101E+02  0.31167710508E+02  0.51100000000E-03 0.  1.
        -12    1    4    4    0    0 -0.12232843951E+02 -0.20174265367E+01  0.60423373384E+01  0.13792110842E+02  0.00000000000E+00 0.  1.
</event>
<event>
 8    1  0.2527138E-006  0.9118800E+02  0.7816164E-02  0.1184000E+00
        -11   -1    0    0    0    0  0.00000000000E+00  0.00000000000E+00  0.45593999997E+02  0.45594000000E+02  0.51100000000E-03 0. -1.
         11   -1    0    0    0    0 -0.00000000000E+00 -0.00000000000E+00 -0.45593999997E+02  0.45594000000E+02  0.51100000000E-03 0.  1.
         23    2    1    2    0    0  0.00000000000E+00 -0.88817841970E-15  0.00000000000E+00  0.91188000000E+02  0.91188000000E+02 0.  0.
    9900012    2    3    3    0    0 -0.35538016361E+02  0.73094224119E+01 -0.62771710310E+01  0.54367066565E+02  0.39999959847E+02 0.  0.
        -12    1    3    3    0    0  0.35538016361E+02 -0.73094224119E+01  0.62771710310E+01  0.36820933435E+02  0.00000000000E+00 0.  1.
         11    1    4    4    0    0 -0.99087206489E+01  0.85125276839E+01 -0.22286933843E+01  0.13251903521E+02  0.51100000000E-03 0. -1.
        -11    1    4    4    0    0 -0.24723373300E+02  0.25328042392E+00 -0.15732681891E+02  0.29305743772E+02  0.51100000000E-03 0.  1.
        -12    1    4    4    0    0 -0.90592241279E+00 -0.14563856959E+01  0.11684204244E+02  0.11809419272E+02  0.00000000000E+00 0.  1.
</event>
<event>
 8    1  0.2527138E-006  0.9118800E+02  0.7816164E-02  0.1184000E+00
        -11   -1    0    0    0    0  0.00000000000E+00  0.00000000000E+00  0.45593999997E+02  0.45594000000E+02  0.51100000000E-03 0. -1.
         11   -1    0    0    0    0 -0.00000000000E+00 -0.00000000000E+00 -0.45593999997E+02  0.45594000000E+02  0.51100000000E-03 0.  1.
         23    2    1    2    0    0  0.17763568394E-14  0.71054273576E-14  0.00000000000E+00  0.91188000000E+02  0.91188000000E+02 0.  0.
    9900012    2    3    3    0    0 -0.93452023875E+01 -0.34437136086E+02 -0.90846511753E+01  0.54367081537E+02  0.39999993979E+02 0.  0.
         12    1    3    3    0    0  0.93452023875E+01  0.34437136086E+02  0.90846511753E+01  0.36820918463E+02  0.00000000000E+00 0. -1.
         11    1    4    4    0    0 -0.12541094218E+02 -0.12780642849E+02 -0.61173731007E+01  0.18922106905E+02  0.51100000000E-03 0.  1.
        -11    1    4    4    0    0  0.30276666820E+01 -0.26911512472E+02  0.32805456882E+01  0.27279264091E+02  0.51100000000E-03 0. -1.
         12    1    4    4    0    0  0.16822514843E+00  0.52550192349E+01 -0.62478237628E+01  0.81657105405E+01  0.00000000000E+00 0. -1.
</event>
<event>
 8    1  0.2527138E-006  0.9118800E+02  0.7816164E-02  0.1184000E+00
        -11   -1    0    0    0    0  0.00000000000E+00  0.00000000000E+00  0.45593999997E+02  0.45594000000E+02  0.51100000000E-03 0. -1.
         11   -1    0    0    0    0 -0.00000000000E+00 -0.00000000000E+00 -0.45593999997E+02  0.45594000000E+02  0.51100000000E-03 0.  1.
         23    2    1    2    0    0 -0.35527136788E-14  0.00000000000E+00  0.00000000000E+00  0.91188000000E+02  0.91188000000E+02 0.  0.
    9900012    2    3    3    0    0  0.25782856266E+02  0.20388391710E+02  0.16593313108E+02  0.54367078859E+02  0.39999987876E+02 0.  0.
         12    1    3    3    0    0 -0.25782856266E+02 -0.20388391710E+02 -0.16593313108E+02  0.36820921141E+02  0.00000000000E+00 0. -1.
         11    1    4    4    0    0  0.13352525521E+02 -0.70323331590E+01  0.82373351115E+01  0.17192944409E+02  0.51100000000E-03 0. -1.
        -11    1    4    4    0    0  0.54447837145E+01  0.13859401396E+02  0.14448075491E+02  0.20747905013E+02  0.51100000000E-03 0.  1.
        -12    1    4    4    0    0  0.69855470305E+01  0.13561323472E+02 -0.60920974951E+01  0.16426229437E+02  0.00000000000E+00 0.  1.
</event>
<event>
 8    1  0.2527138E-006  0.9118800E+02  0.7816164E-02  0.1184000E+00
        -11   -1    0    0    0    0  0.00000000000E+00  0.00000000000E+00  0.45593999997E+02  0.45594000000E+02  0.51100000000E-03 0.  1.
         11   -1    0    0    0    0 -0.00000000000E+00 -0.00000000000E+00 -0.45593999997E+02  0.45594000000E+02  0.51100000000E-03 0. -1.
         23    2    1    2    0    0 -0.33306690739E-15  0.00000000000E+00  0.35527136788E-14  0.91188000000E+02  0.91188000000E+02 0.  0.
    9900012    2    3    3    0    0  0.87060925944E+00 -0.27735752583E+02 -0.24202272520E+02  0.54367083025E+02  0.39999997371E+02 0.  0.
        -12    1    3    3    0    0 -0.87060925944E+00  0.27735752583E+02  0.24202272520E+02  0.36820916975E+02  0.00000000000E+00 0.  1.
         11    1    4    4    0    0  0.11267540518E+01 -0.13850873587E+02 -0.59886656033E+01  0.15132097997E+02  0.51100000000E-03 0. -1.
        -11    1    4    4    0    0 -0.25071113930E+01 -0.11785800086E+02 -0.27192831653E+02  0.29742911505E+02  0.51100000000E-03 0.  1.
        -12    1    4    4    0    0  0.22509666006E+01 -0.20990789096E+01  0.89792247365E+01  0.94920735235E+01  0.00000000000E+00 0.  1.
</event>
<event>
 8    1  0.2527138E-006  0.9118800E+02  0.7816164E-02  0.1184000E+00
        -11   -1    0    0    0    0  0.00000000000E+00  0.00000000000E+00  0.45593999997E+02  0.45594000000E+02  0.51100000000E-03 0. -1.
         11   -1    0    0    0    0 -0.00000000000E+00 -0.00000000000E+00 -0.45593999997E+02  0.45594000000E+02  0.51100000000E-03 0.  1.
         23    2    1    2    0    0  0.35527136788E-14 -0.35527136788E-14 -0.88817841970E-15  0.91188000000E+02  0.91188000000E+02 0.  0.
    9900012    2    3    3    0    0  0.28003725398E+02 -0.22748828460E+02 -0.73522727405E+01  0.54367166944E+02  0.40000188682E+02 0.  0.
         12    1    3    3    0    0 -0.28003725398E+02  0.22748828460E+02  0.73522727405E+01  0.36820833056E+02  0.00000000000E+00 0. -1.
         11    1    4    4    0    0  0.12027225098E+01  0.54895276412E+01 -0.82270435950E+01  0.99632174389E+01  0.51100000000E-03 0. -1.
        -11    1    4    4    0    0  0.11120372044E+02 -0.16175901828E+02 -0.97829538680E+01  0.21932365604E+02  0.51100000000E-03 0.  1.
         12    1    4    4    0    0  0.15680630845E+02 -0.12062454273E+02  0.10657724723E+02  0.22471583902E+02  0.00000000000E+00 0. -1.
</event>
<event>
 8    1  0.2527138E-006  0.9118800E+02  0.7816164E-02  0.1184000E+00
        -11   -1    0    0    0    0  0.00000000000E+00  0.00000000000E+00  0.45593999997E+02  0.45594000000E+02  0.51100000000E-03 0.  1.
         11   -1    0    0    0    0 -0.00000000000E+00 -0.00000000000E+00 -0.45593999997E+02  0.45594000000E+02  0.51100000000E-03 0. -1.
         23    2    1    2    0    0  0.00000000000E+00  0.00000000000E+00  0.35527136788E-14  0.91188000000E+02  0.91188000000E+02 0.  0.
    9900012    2    3    3    0    0  0.32549790733E+02 -0.23425574128E+01 -0.17053140153E+02  0.54366999999E+02  0.39999808097E+02 0.  0.
        -12    1    3    3    0    0 -0.32549790733E+02  0.23425574128E+01  0.17053140153E+02  0.36821000001E+02  0.00000000000E+00 0.  1.
         11    1    4    4    0    0  0.25714860041E+02  0.13517202916E+02 -0.17553498295E+02  0.33942511755E+02  0.51100000000E-03 0. -1.
        -11    1    4    4    0    0  0.17437606302E+01 -0.11930004353E+02  0.44790706693E+01  0.12861873088E+02  0.51100000000E-03 0.  1.
        -12    1    4    4    0    0  0.50911700616E+01 -0.39297559756E+01 -0.39787125272E+01  0.75626151560E+01  0.00000000000E+00 0.  1.
</event>
<event>
 8    1  0.2527138E-006  0.9118800E+02  0.7816164E-02  0.1184000E+00
        -11   -1    0    0    0    0  0.00000000000E+00  0.00000000000E+00  0.45593999997E+02  0.45594000000E+02  0.51100000000E-03 0.  1.
         11   -1    0    0    0    0 -0.00000000000E+00 -0.00000000000E+00 -0.45593999997E+02  0.45594000000E+02  0.51100000000E-03 0. -1.
         23    2    1    2    0    0  0.00000000000E+00  0.00000000000E+00  0.88817841970E-15  0.91188000000E+02  0.91188000000E+02 0.  0.
    9900012    2    3    3    0    0  0.35315273074E+02 -0.99512560247E+01  0.30958250496E+01  0.54367080111E+02  0.39999990728E+02 0.  0.
        -12    1    3    3    0    0 -0.35315273074E+02  0.99512560247E+01 -0.30958250496E+01  0.36820919889E+02  0.00000000000E+00 0.  1.
         11    1    4    4    0    0  0.12713727817E+02  0.62495159219E+01 -0.69706420711E-01  0.14166869221E+02  0.51100000000E-03 0. -1.
        -11    1    4    4    0    0  0.88441315891E+01  0.73786471614E+01 -0.36139982141E+01  0.12071622958E+02  0.51100000000E-03 0.  1.
        -12    1    4    4    0    0  0.13757413668E+02 -0.23579419108E+02  0.67795296844E+01  0.28128587932E+02  0.00000000000E+00 0.  1.
</event>
<event>
 8    1  0.2527138E-006  0.9118800E+02  0.7816164E-02  0.1184000E+00
        -11   -1    0    0    0    0  0.00000000000E+00  0.00000000000E+00  0.45593999997E+02  0.45594000000E+02  0.51100000000E-03 0.  1.
         11   -1    0    0    0    0 -0.00000000000E+00 -0.00000000000E+00 -0.45593999997E+02  0.45594000000E+02  0.51100000000E-03 0. -1.
         23    2    1    2    0    0  0.35527136788E-14  0.00000000000E+00  0.00000000000E+00  0.91188000000E+02  0.91188000000E+02 0.  0.
    9900012    2    3    3    0    0  0.26387158797E+02 -0.25545712173E+02 -0.26295160951E+01  0.54367083191E+02  0.39999997750E+02 0.  0.
         12    1    3    3    0    0 -0.26387158797E+02  0.25545712173E+02  0.26295160951E+01  0.36820916809E+02  0.00000000000E+00 0. -1.
         11    1    4    4    0    0  0.27846512505E+02 -0.72747927952E+01 -0.38671556554E+01  0.29039727306E+02  0.51100000000E-03 0. -1.
        -11    1    4    4    0    0 -0.42082094302E+01 -0.20059599820E+02 -0.21543655077E+01  0.20609169380E+02  0.51100000000E-03 0.  1.
         12    1    4    4    0    0  0.27488557220E+01  0.17886804423E+01  0.33920050679E+01  0.47181865039E+01  0.00000000000E+00 0. -1.
</event>
<event>
 8    1  0.2527138E-006  0.9118800E+02  0.7816164E-02  0.1184000E+00
        -11   -1    0    0    0    0  0.00000000000E+00  0.00000000000E+00  0.45593999997E+02  0.45594000000E+02  0.51100000000E-03 0.  1.
         11   -1    0    0    0    0 -0.00000000000E+00 -0.00000000000E+00 -0.45593999997E+02  0.45594000000E+02  0.51100000000E-03 0. -1.
         23    2    1    2    0    0 -0.53290705182E-14  0.00000000000E+00  0.00000000000E+00  0.91188000000E+02  0.91188000000E+02 0.  0.
    9900012    2    3    3    0    0 -0.15386928185E+02  0.18334392012E+02 -0.27979856062E+02  0.54367084277E+02  0.40000000226E+02 0.  0.
        -12    1    3    3    0    0  0.15386928185E+02 -0.18334392012E+02  0.27979856062E+02  0.36820915723E+02  0.00000000000E+00 0.  1.
         11    1    4    4    0    0  0.11076233248E+02  0.30555494813E+01 -0.85359048214E+01  0.14313664694E+02  0.51100000000E-03 0. -1.
        -11    1    4    4    0    0 -0.65365786635E+01  0.13039787776E+02 -0.11123024490E+02  0.18343516564E+02  0.51100000000E-03 0.  1.
         12    1    4    4    0    0 -0.19926582770E+02  0.22390547554E+01 -0.83209267505E+01  0.21709903019E+02  0.00000000000E+00 0. -1.
</event>
<event>
 8    1  0.2527138E-006  0.9118800E+02  0.7816164E-02  0.1184000E+00
        -11   -1    0    0    0    0  0.00000000000E+00  0.00000000000E+00  0.45593999997E+02  0.45594000000E+02  0.51100000000E-03 0.  1.
         11   -1    0    0    0    0 -0.00000000000E+00 -0.00000000000E+00 -0.45593999997E+02  0.45594000000E+02  0.51100000000E-03 0. -1.
         23    2    1    2    0    0  0.00000000000E+00  0.00000000000E+00 -0.17763568394E-14  0.91188000000E+02  0.91188000000E+02 0.  0.
    9900012    2    3    3    0    0 -0.14707470699E+02 -0.32939741317E+02  0.73786776802E+01  0.54367066596E+02  0.39999959919E+02 0.  0.
        -12    1    3    3    0    0  0.14707470699E+02  0.32939741317E+02 -0.73786776802E+01  0.36820933404E+02  0.00000000000E+00 0.  1.
         11    1    4    4    0    0 -0.66337912530E+01 -0.15975124140E+01  0.93012513144E+01  0.11535705812E+02  0.51100000000E-03 0. -1.
        -11    1    4    4    0    0 -0.66450411765E+01 -0.20460153822E+02  0.12366687851E+02  0.24813493009E+02  0.51100000000E-03 0.  1.
         12    1    4    4    0    0 -0.14286382698E+01 -0.10882075081E+02 -0.14289261485E+02  0.18017867775E+02  0.00000000000E+00 0. -1.
</event>
<event>
 8    1  0.2527138E-006  0.9118800E+02  0.7816164E-02  0.1184000E+00
        -11   -1    0    0    0    0  0.00000000000E+00  0.00000000000E+00  0.45593999997E+02  0.45594000000E+02  0.51100000000E-03 0. -1.
         11   -1    0    0    0    0 -0.00000000000E+00 -0.00000000000E+00 -0.45593999997E+02  0.45594000000E+02  0.51100000000E-03 0.  1.
         23    2    1    2    0    0  0.00000000000E+00  0.00000000000E+00  0.00000000000E+00  0.91188000000E+02  0.91188000000E+02 0.  0.
    9900012    2    3    3    0    0 -0.85694613992E+01  0.27418229223E+02  0.23034433837E+02  0.54367080611E+02  0.39999991869E+02 0.  0.
        -12    1    3    3    0    0  0.85694613992E+01 -0.27418229223E+02 -0.23034433837E+02  0.36820919389E+02  0.00000000000E+00 0.  1.
         11    1    4    4    0    0 -0.50124536180E+01  0.23895656536E+02  0.12714231787E+02  0.27527782017E+02  0.51100000000E-03 0. -1.
        -11    1    4    4    0    0 -0.45608619169E+01  0.50246116987E+01  0.17849712558E+02  0.19096083965E+02  0.51100000000E-03 0.  1.
        -12    1    4    4    0    0  0.10038541358E+01 -0.15020390113E+01 -0.75295105074E+01  0.77432146295E+01  0.00000000000E+00 0.  1.
</event>
<event>
 8    1  0.2527138E-006  0.9118800E+02  0.7816164E-02  0.1184000E+00
        -11   -1    0    0    0    0  0.00000000000E+00  0.00000000000E+00  0.45593999997E+02  0.45594000000E+02  0.51100000000E-03 0.  1.
         11   -1    0    0    0    0 -0.00000000000E+00 -0.00000000000E+00 -0.45593999997E+02  0.45594000000E+02  0.51100000000E-03 0. -1.
         23    2    1    2    0    0  0.35527136788E-14  0.00000000000E+00 -0.11102230246E-15  0.91188000000E+02  0.91188000000E+02 0.  0.
    9900012    2    3    3    0    0  0.30863688510E+02 -0.20071732142E+02  0.58284653200E+00  0.54367062889E+02  0.39999951468E+02 0.  0.
        -12    1    3    3    0    0 -0.30863688510E+02  0.20071732142E+02 -0.58284653200E+00  0.36820937111E+02  0.00000000000E+00 0.  1.
         11    1    4    4    0    0 -0.27501910395E+01  0.14819215852E+01 -0.50316223443E+01  0.59225725842E+01  0.51100000000E-03 0. -1.
        -11    1    4    4    0    0 -0.19264069482E+01 -0.95840698951E+01  0.49019981556E+01  0.10935951063E+02  0.51100000000E-03 0.  1.
        -12    1    4    4    0    0  0.35540286498E+02 -0.11969583832E+02  0.71247072065E+00  0.37508539241E+02  0.00000000000E+00 0.  1.
</event>
<event>
 8    1  0.2527138E-006  0.9118800E+02  0.7816164E-02  0.1184000E+00
        -11   -1    0    0    0    0  0.00000000000E+00  0.00000000000E+00  0.45593999997E+02  0.45594000000E+02  0.51100000000E-03 0.  1.
         11   -1    0    0    0    0 -0.00000000000E+00 -0.00000000000E+00 -0.45593999997E+02  0.45594000000E+02  0.51100000000E-03 0. -1.
         23    2    1    2    0    0  0.00000000000E+00  0.00000000000E+00  0.00000000000E+00  0.91188000000E+02  0.91188000000E+02 0.  0.
    9900012    2    3    3    0    0  0.34615850553E+01 -0.26779810002E+02  0.25032736248E+02  0.54367099971E+02  0.40000036004E+02 0.  0.
         12    1    3    3    0    0 -0.34615850553E+01  0.26779810002E+02 -0.25032736248E+02  0.36820900029E+02  0.00000000000E+00 0. -1.
         11    1    4    4    0    0  0.12255134845E+02 -0.10254410537E+02 -0.30559853648E+01  0.16268998504E+02  0.51100000000E-03 0. -1.
        -11    1    4    4    0    0 -0.20087618603E+01 -0.17368609356E+02  0.13858223291E+02  0.22310402690E+02  0.51100000000E-03 0.  1.
        -12    1    4    4    0    0 -0.67847879290E+01  0.84320988983E+00  0.14230498323E+02  0.15787698777E+02  0.00000000000E+00 0.  1.
</event>
<event>
 8    1  0.2527138E-006  0.9118800E+02  0.7816164E-02  0.1184000E+00
        -11   -1    0    0    0    0  0.00000000000E+00  0.00000000000E+00  0.45593999997E+02  0.45594000000E+02  0.51100000000E-03 0.  1.
         11   -1    0    0    0    0 -0.00000000000E+00 -0.00000000000E+00 -0.45593999997E+02  0.45594000000E+02  0.51100000000E-03 0. -1.
         23    2    1    2    0    0  0.17763568394E-14 -0.35527136788E-14  0.00000000000E+00  0.91188000000E+02  0.91188000000E+02 0.  0.
    9900012    2    3    3    0    0  0.15246901339E+02 -0.29524455607E+02 -0.15862487230E+02  0.54367082298E+02  0.39999995714E+02 0.  0.
        -12    1    3    3    0    0 -0.15246901339E+02  0.29524455607E+02  0.15862487230E+02  0.36820917702E+02  0.00000000000E+00 0.  1.
         11    1    4    4    0    0  0.14183608007E+02 -0.12154467979E+02 -0.18431682477E+02  0.26241812955E+02  0.51100000000E-03 0. -1.
        -11    1    4    4    0    0  0.51956271986E+01 -0.17700622962E+02 -0.53320503732E+01  0.19202535162E+02  0.51100000000E-03 0.  1.
        -12    1    4    4    0    0 -0.41323338667E+01  0.33063533384E+00  0.79012456204E+01  0.89227341809E+01  0.00000000000E+00 0.  1.
</event>
<event>
 8    1  0.2527138E-006  0.9118800E+02  0.7816164E-02  0.1184000E+00
        -11   -1    0    0    0    0  0.00000000000E+00  0.00000000000E+00  0.45593999997E+02  0.45594000000E+02  0.51100000000E-03 0. -1.
         11   -1    0    0    0    0 -0.00000000000E+00 -0.00000000000E+00 -0.45593999997E+02  0.45594000000E+02  0.51100000000E-03 0.  1.
         23    2    1    2    0    0 -0.35527136788E-14  0.00000000000E+00  0.00000000000E+00  0.91188000000E+02  0.91188000000E+02 0.  0.
    9900012    2    3    3    0    0 -0.13995710803E+02 -0.14865108569E+02  0.30641910295E+02  0.54367108645E+02  0.40000055779E+02 0.  0.
        -12    1    3    3    0    0  0.13995710803E+02  0.14865108569E+02 -0.30641910295E+02  0.36820891355E+02  0.00000000000E+00 0.  1.
         11    1    4    4    0    0  0.33398560660E+01  0.21749309186E+01  0.10458387031E+01  0.41205268955E+01  0.51100000000E-03 0. -1.
        -11    1    4    4    0    0 -0.17250258443E+02  0.28876411981E+01  0.23718657865E+02  0.29470063101E+02  0.51100000000E-03 0.  1.
         12    1    4    4    0    0 -0.85308426510E-01 -0.19927680686E+02  0.58774137266E+01  0.20776518648E+02  0.00000000000E+00 0. -1.
</event>
<event>
 8    1  0.2527138E-006  0.9118800E+02  0.7816164E-02  0.1184000E+00
        -11   -1    0    0    0    0  0.00000000000E+00  0.00000000000E+00  0.45593999997E+02  0.45594000000E+02  0.51100000000E-03 0.  1.
         11   -1    0    0    0    0 -0.00000000000E+00 -0.00000000000E+00 -0.45593999997E+02  0.45594000000E+02  0.51100000000E-03 0. -1.
         23    2    1    2    0    0  0.00000000000E+00  0.88817841970E-15 -0.88817841970E-15  0.91188000000E+02  0.91188000000E+02 0.  0.
    9900012    2    3    3    0    0  0.35919724970E+02  0.78404812319E+01  0.20198179759E+01  0.54367089467E+02  0.40000012057E+02 0.  0.
         12    1    3    3    0    0 -0.35919724970E+02 -0.78404812319E+01 -0.20198179759E+01  0.36820910533E+02  0.00000000000E+00 0. -1.
         11    1    4    4    0    0  0.73728717709E+01  0.30670244291E+01  0.94470755411E+01  0.12369846949E+02  0.51100000000E-03 0. -1.
        -11    1    4    4    0    0  0.70492759963E+00 -0.92215030517E+01 -0.55356083908E+01  0.10778497204E+02  0.51100000000E-03 0.  1.
         12    1    4    4    0    0  0.27841925599E+02  0.13994959854E+02 -0.18916491744E+01  0.31218745314E+02  0.00000000000E+00 0. -1.
</event>
<event>
 8    1  0.2527138E-006  0.9118800E+02  0.7816164E-02  0.1184000E+00
        -11   -1    0    0    0    0  0.00000000000E+00  0.00000000000E+00  0.45593999997E+02  0.45594000000E+02  0.51100000000E-03 0. -1.
         11   -1    0    0    0    0 -0.00000000000E+00 -0.00000000000E+00 -0.45593999997E+02  0.45594000000E+02  0.51100000000E-03 0.  1.
         23    2    1    2    0    0 -0.88817841970E-15  0.17763568394E-14  0.00000000000E+00  0.91188000000E+02  0.91188000000E+02 0.  0.
    9900012    2    3    3    0    0  0.77550114306E+01 -0.83825579842E+01 -0.35005284636E+02  0.54367116889E+02  0.40000074572E+02 0.  0.
         12    1    3    3    0    0 -0.77550114306E+01  0.83825579842E+01  0.35005284636E+02  0.36820883111E+02  0.00000000000E+00 0. -1.
         11    1    4    4    0    0  0.15519525138E+02  0.40796033806E+01 -0.16195316712E+02  0.22798840056E+02  0.51100000000E-03 0. -1.
        -11    1    4    4    0    0  0.65195086803E+01 -0.25216764384E+00 -0.56022356305E+01  0.85995712843E+01  0.51100000000E-03 0.  1.
         12    1    4    4    0    0 -0.14284022388E+02 -0.12209993721E+02 -0.13207732293E+02  0.22968705548E+02  0.00000000000E+00 0. -1.
</event>
<event>
 8    1  0.2527138E-006  0.9118800E+02  0.7816164E-02  0.1184000E+00
        -11   -1    0    0    0    0  0.00000000000E+00  0.00000000000E+00  0.45593999997E+02  0.45594000000E+02  0.51100000000E-03 0.  1.
         11   -1    0    0    0    0 -0.00000000000E+00 -0.00000000000E+00 -0.45593999997E+02  0.45594000000E+02  0.51100000000E-03 0. -1.
         23    2    1    2    0    0  0.00000000000E+00  0.22204460493E-14  0.00000000000E+00  0.91188000000E+02  0.91188000000E+02 0.  0.
    9900012    2    3    3    0    0 -0.24852866114E+02 -0.29823849696E+01 -0.27004074591E+02  0.54367087210E+02  0.40000006912E+02 0.  0.
        -12    1    3    3    0    0  0.24852866114E+02  0.29823849696E+01  0.27004074591E+02  0.36820912790E+02  0.00000000000E+00 0.  1.
         11    1    4    4    0    0 -0.19276851766E+02  0.14515704035E+02 -0.20482491046E+02  0.31651779055E+02  0.51100000000E-03 0. -1.
        -11    1    4    4    0    0 -0.29363111915E-02 -0.64467197331E+01 -0.79732049924E+01  0.10253399536E+02  0.51100000000E-03 0.  1.
         12    1    4    4    0    0 -0.55730780371E+01 -0.11051369272E+02  0.14516214470E+01  0.12461908618E+02  0.00000000000E+00 0. -1.
</event>
<event>
 8    1  0.2527138E-006  0.9118800E+02  0.7816164E-02  0.1184000E+00
        -11   -1    0    0    0    0  0.00000000000E+00  0.00000000000E+00  0.45593999997E+02  0.45594000000E+02  0.51100000000E-03 0.  1.
         11   -1    0    0    0    0 -0.00000000000E+00 -0.00000000000E+00 -0.45593999997E+02  0.45594000000E+02  0.51100000000E-03 0. -1.
         23    2    1    2    0    0  0.71054273576E-14  0.17763568394E-14  0.00000000000E+00  0.91188000000E+02  0.91188000000E+02 0.  0.
    9900012    2    3    3    0    0  0.33341140376E+02 -0.15094546632E+02 -0.40376588461E+01  0.54367086533E+02  0.40000005369E+02 0.  0.
        -12    1    3    3    0    0 -0.33341140376E+02  0.15094546632E+02  0.40376588461E+01  0.36820913467E+02  0.00000000000E+00 0.  1.
         11    1    4    4    0    0  0.18801241799E+02 -0.12890581938E+02  0.16019189005E+02  0.27861590273E+02  0.51100000000E-03 0. -1.
        -11    1    4    4    0    0  0.90446816597E+01 -0.58108728584E+01 -0.12736773998E+02  0.16667270978E+02  0.51100000000E-03 0.  1.
        -12    1    4    4    0    0  0.54952169171E+01  0.36069081649E+01 -0.73200738531E+01  0.98382252816E+01  0.00000000000E+00 0.  1.
</event>
<event>
 8    1  0.2527138E-006  0.9118800E+02  0.7816164E-02  0.1184000E+00
        -11   -1    0    0    0    0  0.00000000000E+00  0.00000000000E+00  0.45593999997E+02  0.45594000000E+02  0.51100000000E-03 0. -1.
         11   -1    0    0    0    0 -0.00000000000E+00 -0.00000000000E+00 -0.45593999997E+02  0.45594000000E+02  0.51100000000E-03 0.  1.
         23    2    1    2    0    0  0.00000000000E+00  0.44408920985E-15  0.00000000000E+00  0.91188000000E+02  0.91188000000E+02 0.  0.
    9900012    2    3    3    0    0  0.44548462804E+01 -0.24038600135E+01  0.36471292265E+02  0.54367090752E+02  0.40000014987E+02 0.  0.
        -12    1    3    3    0    0 -0.44548462804E+01  0.24038600135E+01 -0.36471292265E+02  0.36820909248E+02  0.00000000000E+00 0.  1.
         11    1    4    4    0    0  0.89599411988E+00 -0.53776682640E+01  0.26290403779E+02  0.26849719786E+02  0.51100000000E-03 0. -1.
        -11    1    4    4    0    0 -0.10547277942E+02  0.16339529507E+01  0.76301735721E+01  0.13120000885E+02  0.51100000000E-03 0.  1.
         12    1    4    4    0    0  0.14106130102E+02  0.13398552998E+01  0.25507149139E+01  0.14397370081E+02  0.00000000000E+00 0. -1.
</event>
<event>
 8    1  0.2527138E-006  0.9118800E+02  0.7816164E-02  0.1184000E+00
        -11   -1    0    0    0    0  0.00000000000E+00  0.00000000000E+00  0.45593999997E+02  0.45594000000E+02  0.51100000000E-03 0. -1.
         11   -1    0    0    0    0 -0.00000000000E+00 -0.00000000000E+00 -0.45593999997E+02  0.45594000000E+02  0.51100000000E-03 0.  1.
         23    2    1    2    0    0 -0.35527136788E-14  0.00000000000E+00  0.44408920985E-15  0.91188000000E+02  0.91188000000E+02 0.  0.
    9900012    2    3    3    0    0  0.31569054013E+02 -0.18821260450E+02 -0.22215251619E+01  0.54367079448E+02  0.39999989218E+02 0.  0.
        -12    1    3    3    0    0 -0.31569054013E+02  0.18821260450E+02  0.22215251619E+01  0.36820920552E+02  0.00000000000E+00 0.  1.
         11    1    4    4    0    0  0.14922377348E+02  0.64239109791E+01  0.39549299470E+01  0.16720808866E+02  0.51100000000E-03 0. -1.
        -11    1    4    4    0    0  0.48548119179E+01  0.29793770237E+01 -0.40392209159E+01  0.69829214571E+01  0.51100000000E-03 0.  1.
        -12    1    4    4    0    0  0.11791864748E+02 -0.28224548453E+02 -0.21372341930E+01  0.30663349125E+02  0.00000000000E+00 0.  1.
</event>
<event>
 8    1  0.2527138E-006  0.9118800E+02  0.7816164E-02  0.1184000E+00
        -11   -1    0    0    0    0  0.00000000000E+00  0.00000000000E+00  0.45593999997E+02  0.45594000000E+02  0.51100000000E-03 0.  1.
         11   -1    0    0    0    0 -0.00000000000E+00 -0.00000000000E+00 -0.45593999997E+02  0.45594000000E+02  0.51100000000E-03 0. -1.
         23    2    1    2    0    0  0.00000000000E+00  0.00000000000E+00  0.17763568394E-14  0.91188000000E+02  0.91188000000E+02 0.  0.
    9900012    2    3    3    0    0  0.27895971108E+01  0.35554153587E+02 -0.91596147760E+01  0.54367106038E+02  0.40000049834E+02 0.  0.
        -12    1    3    3    0    0 -0.27895971108E+01 -0.35554153587E+02  0.91596147760E+01  0.36820893962E+02  0.00000000000E+00 0.  1.
         11    1    4    4    0    0 -0.78712061964E+01  0.17982349941E+02 -0.69385615182E+01  0.20819808659E+02  0.51100000000E-03 0. -1.
        -11    1    4    4    0    0  0.93002274605E+00  0.22361368661E+02 -0.34010743835E+01  0.22637646917E+02  0.51100000000E-03 0.  1.
        -12    1    4    4    0    0  0.97307805611E+01 -0.47895650148E+01  0.11800211258E+01  0.10909650463E+02  0.00000000000E+00 0.  1.
</event>
<event>
 8    1  0.2527138E-006  0.9118800E+02  0.7816164E-02  0.1184000E+00
        -11   -1    0    0    0    0  0.00000000000E+00  0.00000000000E+00  0.45593999997E+02  0.45594000000E+02  0.51100000000E-03 0. -1.
         11   -1    0    0    0    0 -0.00000000000E+00 -0.00000000000E+00 -0.45593999997E+02  0.45594000000E+02  0.51100000000E-03 0.  1.
         23    2    1    2    0    0  0.35527136788E-14  0.00000000000E+00  0.00000000000E+00  0.91188000000E+02  0.91188000000E+02 0.  0.
    9900012    2    3    3    0    0 -0.21686523335E+02 -0.98676151603E+01  0.28073221712E+02  0.54367069803E+02  0.39999967230E+02 0.  0.
        -12    1    3    3    0    0  0.21686523335E+02  0.98676151603E+01 -0.28073221712E+02  0.36820930197E+02  0.00000000000E+00 0.  1.
         11    1    4    4    0    0  0.22176578885E+01  0.27968530557E+01  0.15104594850E+02  0.15520604994E+02  0.51100000000E-03 0.  1.
        -11    1    4    4    0    0  0.12279547226E+01  0.42775240636E+00 -0.50835264116E+01  0.52471979151E+01  0.51100000000E-03 0. -1.
         12    1    4    4    0    0 -0.25132135946E+02 -0.13092220622E+02  0.18052153273E+02  0.33599266894E+02  0.00000000000E+00 0. -1.
</event>
<event>
 8    1  0.2527138E-006  0.9118800E+02  0.7816164E-02  0.1184000E+00
        -11   -1    0    0    0    0  0.00000000000E+00  0.00000000000E+00  0.45593999997E+02  0.45594000000E+02  0.51100000000E-03 0. -1.
         11   -1    0    0    0    0 -0.00000000000E+00 -0.00000000000E+00 -0.45593999997E+02  0.45594000000E+02  0.51100000000E-03 0.  1.
         23    2    1    2    0    0  0.35527136788E-14  0.17763568394E-14  0.00000000000E+00  0.91188000000E+02  0.91188000000E+02 0.  0.
    9900012    2    3    3    0    0 -0.16785583631E+02  0.10059632203E+02 -0.31190169905E+02  0.54367099460E+02  0.40000034839E+02 0.  0.
         12    1    3    3    0    0  0.16785583631E+02 -0.10059632203E+02  0.31190169905E+02  0.36820900540E+02  0.00000000000E+00 0. -1.
         11    1    4    4    0    0 -0.31283049643E+01  0.10879062084E+02 -0.12248345360E+00  0.11320569165E+02  0.51100000000E-03 0. -1.
        -11    1    4    4    0    0  0.54882137412E+01 -0.65197500411E+01 -0.15622691755E+02  0.17795958210E+02  0.51100000000E-03 0.  1.
        -12    1    4    4    0    0 -0.19145492407E+02  0.57003201608E+01 -0.15444994696E+02  0.25250572085E+02  0.00000000000E+00 0.  1.
</event>
<event>
 8    1  0.2527138E-006  0.9118800E+02  0.7816164E-02  0.1184000E+00
        -11   -1    0    0    0    0  0.00000000000E+00  0.00000000000E+00  0.45593999997E+02  0.45594000000E+02  0.51100000000E-03 0.  1.
         11   -1    0    0    0    0 -0.00000000000E+00 -0.00000000000E+00 -0.45593999997E+02  0.45594000000E+02  0.51100000000E-03 0. -1.
         23    2    1    2    0    0  0.00000000000E+00  0.88817841970E-15  0.35527136788E-14  0.91188000000E+02  0.91188000000E+02 0.  0.
    9900012    2    3    3    0    0  0.31516809641E+02  0.75442390114E+01 -0.17480133498E+02  0.54367083400E+02  0.39999998226E+02 0.  0.
        -12    1    3    3    0    0 -0.31516809641E+02 -0.75442390114E+01  0.17480133498E+02  0.36820916600E+02  0.00000000000E+00 0.  1.
         11    1    4    4    0    0  0.69373027220E+01 -0.10355684559E+02  0.72796585717E+01  0.14434673565E+02  0.51100000000E-03 0. -1.
        -11    1    4    4    0    0  0.57011996406E+01  0.76992148233E+01 -0.10244324359E+02  0.14025967634E+02  0.51100000000E-03 0.  1.
         12    1    4    4    0    0  0.18878307278E+02  0.10200708747E+02 -0.14515467711E+02  0.25906442201E+02  0.00000000000E+00 0. -1.
</event>
<event>
 8    1  0.2527138E-006  0.9118800E+02  0.7816164E-02  0.1184000E+00
        -11   -1    0    0    0    0  0.00000000000E+00  0.00000000000E+00  0.45593999997E+02  0.45594000000E+02  0.51100000000E-03 0.  1.
         11   -1    0    0    0    0 -0.00000000000E+00 -0.00000000000E+00 -0.45593999997E+02  0.45594000000E+02  0.51100000000E-03 0. -1.
         23    2    1    2    0    0  0.00000000000E+00  0.00000000000E+00 -0.17763568394E-14  0.91188000000E+02  0.91188000000E+02 0.  0.
    9900012    2    3    3    0    0 -0.75157983010E+01  0.34632586022E+02  0.99938408170E+01  0.54367080770E+02  0.39999992230E+02 0.  0.
         12    1    3    3    0    0  0.75157983010E+01 -0.34632586022E+02 -0.99938408170E+01  0.36820919230E+02  0.00000000000E+00 0. -1.
         11    1    4    4    0    0 -0.12084160885E+02  0.62923725485E+01  0.11081004163E+02  0.17561593040E+02  0.51100000000E-03 0. -1.
        -11    1    4    4    0    0 -0.86006862356E+00  0.67277297137E+01 -0.10593471664E+02  0.12578700541E+02  0.51100000000E-03 0.  1.
        -12    1    4    4    0    0  0.54284312076E+01  0.21612483760E+02  0.95063083175E+01  0.24226787189E+02  0.00000000000E+00 0.  1.
</event>
<event>
 8    1  0.2527138E-006  0.9118800E+02  0.7816164E-02  0.1184000E+00
        -11   -1    0    0    0    0  0.00000000000E+00  0.00000000000E+00  0.45593999997E+02  0.45594000000E+02  0.51100000000E-03 0. -1.
         11   -1    0    0    0    0 -0.00000000000E+00 -0.00000000000E+00 -0.45593999997E+02  0.45594000000E+02  0.51100000000E-03 0.  1.
         23    2    1    2    0    0  0.00000000000E+00 -0.17763568394E-14  0.00000000000E+00  0.91188000000E+02  0.91188000000E+02 0.  0.
    9900012    2    3    3    0    0 -0.12284580667E+02 -0.97945090030E+01  0.33300625593E+02  0.54367150014E+02  0.40000150087E+02 0.  0.
        -12    1    3    3    0    0  0.12284580667E+02  0.97945090030E+01 -0.33300625593E+02  0.36820849986E+02  0.00000000000E+00 0.  1.
         11    1    4    4    0    0 -0.14784439299E+02 -0.32329413791E+01  0.17966419501E+01  0.15240061611E+02  0.51100000000E-03 0. -1.
        -11    1    4    4    0    0 -0.68535479853E+01 -0.26662232378E+01  0.15629682246E+01  0.75181604314E+01  0.51100000000E-03 0.  1.
         12    1    4    4    0    0  0.93534066169E+01 -0.38953443860E+01  0.29941015419E+02  0.31608927972E+02  0.00000000000E+00 0. -1.
</event>
<event>
 8    1  0.2573637E-006  0.9118800E+02  0.7816164E-02  0.1184000E+00
        -11   -1    0    0    0    0  0.00000000000E+00  0.00000000000E+00  0.45593999997E+02  0.45594000000E+02  0.51100000000E-03 0.  1.
         11   -1    0    0    0    0 -0.00000000000E+00 -0.00000000000E+00 -0.45593999997E+02  0.45594000000E+02  0.51100000000E-03 0. -1.
         23    2    1    2    0    0 -0.17763568394E-14  0.00000000000E+00  0.00000000000E+00  0.91188000000E+02  0.91188000000E+02 0.  0.
    9900012    2    3    3    0    0 -0.93743878871E+01 -0.30128327035E+02 -0.18978447205E+02  0.54367126891E+02  0.40000097374E+02 0.  0.
        -12    1    3    3    0    0  0.93743878871E+01  0.30128327035E+02  0.18978447205E+02  0.36820873109E+02  0.00000000000E+00 0.  1.
         11    1    4    4    0    0 -0.30734483431E+01 -0.57399662516E+01  0.55755892832E+01  0.85720763764E+01  0.51100000000E-03 0. -1.
        -11    1    4    4    0    0  0.62563290089E+01 -0.36701746202E+01  0.40521148813E+01  0.83085178992E+01  0.51100000000E-03 0.  1.
         12    1    4    4    0    0 -0.12557268553E+02 -0.20718186163E+02 -0.28606151369E+02  0.37486532616E+02  0.00000000000E+00 0. -1.
</event>
<event>
 8    1  0.2527138E-006  0.9118800E+02  0.7816164E-02  0.1184000E+00
        -11   -1    0    0    0    0  0.00000000000E+00  0.00000000000E+00  0.45593999997E+02  0.45594000000E+02  0.51100000000E-03 0.  1.
         11   -1    0    0    0    0 -0.00000000000E+00 -0.00000000000E+00 -0.45593999997E+02  0.45594000000E+02  0.51100000000E-03 0. -1.
         23    2    1    2    0    0  0.00000000000E+00  0.00000000000E+00  0.00000000000E+00  0.91188000000E+02  0.91188000000E+02 0.  0.
    9900012    2    3    3    0    0 -0.43702537582E+01  0.35167193364E+02 -0.99974782182E+01  0.54367079618E+02  0.39999989606E+02 0.  0.
        -12    1    3    3    0    0  0.43702537582E+01 -0.35167193364E+02  0.99974782182E+01  0.36820920382E+02  0.00000000000E+00 0.  1.
         11    1    4    4    0    0  0.59530527027E+01  0.16331391162E+02 -0.49308418213E+01  0.18068380533E+02  0.51100000000E-03 0. -1.
        -11    1    4    4    0    0 -0.63862125935E+01 -0.34728659128E+01 -0.10718297231E+02  0.12950922930E+02  0.51100000000E-03 0.  1.
        -12    1    4    4    0    0 -0.39370938674E+01  0.22308668115E+02  0.56516608344E+01  0.23347776155E+02  0.00000000000E+00 0.  1.
</event>
<event>
 8    1  0.2527138E-006  0.9118800E+02  0.7816164E-02  0.1184000E+00
        -11   -1    0    0    0    0  0.00000000000E+00  0.00000000000E+00  0.45593999997E+02  0.45594000000E+02  0.51100000000E-03 0.  1.
         11   -1    0    0    0    0 -0.00000000000E+00 -0.00000000000E+00 -0.45593999997E+02  0.45594000000E+02  0.51100000000E-03 0. -1.
         23    2    1    2    0    0  0.00000000000E+00  0.00000000000E+00  0.00000000000E+00  0.91188000000E+02  0.91188000000E+02 0.  0.
    9900012    2    3    3    0    0  0.26756268320E+02  0.17238937514E+02  0.18512065084E+02  0.54367144297E+02  0.40000137054E+02 0.  0.
         12    1    3    3    0    0 -0.26756268320E+02 -0.17238937514E+02 -0.18512065084E+02  0.36820855703E+02  0.00000000000E+00 0. -1.
         11    1    4    4    0    0 -0.68482123077E+01  0.21222151585E+01  0.90934521596E+00  0.72269438889E+01  0.51100000000E-03 0. -1.
        -11    1    4    4    0    0  0.27584049767E+02  0.40669819740E+01  0.20021930671E+02  0.34326343411E+02  0.51100000000E-03 0.  1.
         12    1    4    4    0    0  0.60204308609E+01  0.11049740381E+02 -0.24192108027E+01  0.12813856997E+02  0.00000000000E+00 0. -1.
</event>
<event>
 8    1  0.2527138E-006  0.9118800E+02  0.7816164E-02  0.1184000E+00
        -11   -1    0    0    0    0  0.00000000000E+00  0.00000000000E+00  0.45593999997E+02  0.45594000000E+02  0.51100000000E-03 0.  1.
         11   -1    0    0    0    0 -0.00000000000E+00 -0.00000000000E+00 -0.45593999997E+02  0.45594000000E+02  0.51100000000E-03 0. -1.
         23    2    1    2    0    0  0.71054273576E-14  0.35527136788E-14  0.88817841970E-15  0.91188000000E+02  0.91188000000E+02 0.  0.
    9900012    2    3    3    0    0  0.32128823256E+02  0.17409774101E+02  0.45186959001E+01  0.54367080257E+02  0.39999991062E+02 0.  0.
         12    1    3    3    0    0 -0.32128823256E+02 -0.17409774101E+02 -0.45186959001E+01  0.36820919743E+02  0.00000000000E+00 0. -1.
         11    1    4    4    0    0  0.19576159076E+02 -0.82905086510E+00 -0.12721590072E+02  0.23361339511E+02  0.51100000000E-03 0. -1.
        -11    1    4    4    0    0  0.10099236470E+02  0.39629064503E+01  0.10237447303E+02  0.14916585814E+02  0.51100000000E-03 0.  1.
         12    1    4    4    0    0  0.24534277105E+01  0.14275918516E+02  0.70028386693E+01  0.16089154932E+02  0.00000000000E+00 0. -1.
</event>
<event>
 8    1  0.2527138E-006  0.9118800E+02  0.7816164E-02  0.1184000E+00
        -11   -1    0    0    0    0  0.00000000000E+00  0.00000000000E+00  0.45593999997E+02  0.45594000000E+02  0.51100000000E-03 0.  1.
         11   -1    0    0    0    0 -0.00000000000E+00 -0.00000000000E+00 -0.45593999997E+02  0.45594000000E+02  0.51100000000E-03 0. -1.
         23    2    1    2    0    0  0.00000000000E+00  0.71054273576E-14  0.22204460493E-15  0.91188000000E+02  0.91188000000E+02 0.  0.
    9900012    2    3    3    0    0  0.32382573845E+02 -0.17465461824E+02 -0.14514057331E+01  0.54367081704E+02  0.39999994361E+02 0.  0.
        -12    1    3    3    0    0 -0.32382573845E+02  0.17465461824E+02  0.14514057331E+01  0.36820918296E+02  0.00000000000E+00 0.  1.
         11    1    4    4    0    0  0.70999893878E+01  0.43522234943E+01 -0.19535405454E+01  0.85538306960E+01  0.51100000000E-03 0. -1.
        -11    1    4    4    0    0  0.74214646254E+01  0.80101410706E+01  0.15595838820E+01  0.11030539393E+02  0.51100000000E-03 0.  1.
         12    1    4    4    0    0  0.17861119832E+02 -0.29827826389E+02 -0.10574490697E+01  0.34782711615E+02  0.00000000000E+00 0. -1.
</event>
<event>
 8    1  0.2527138E-006  0.9118800E+02  0.7816164E-02  0.1184000E+00
        -11   -1    0    0    0    0  0.00000000000E+00  0.00000000000E+00  0.45593999997E+02  0.45594000000E+02  0.51100000000E-03 0. -1.
         11   -1    0    0    0    0 -0.00000000000E+00 -0.00000000000E+00 -0.45593999997E+02  0.45594000000E+02  0.51100000000E-03 0.  1.
         23    2    1    2    0    0  0.00000000000E+00  0.17763568394E-14  0.00000000000E+00  0.91188000000E+02  0.91188000000E+02 0.  0.
    9900012    2    3    3    0    0  0.34126900810E+02 -0.10727624744E+02 -0.87209411540E+01  0.54367053432E+02  0.39999929909E+02 0.  0.
         12    1    3    3    0    0 -0.34126900810E+02  0.10727624744E+02  0.87209411540E+01  0.36820946568E+02  0.00000000000E+00 0. -1.
         11    1    4    4    0    0 -0.24025704891E+00  0.24225211775E+01  0.60046481639E+01  0.64793620163E+01  0.51100000000E-03 0. -1.
        -11    1    4    4    0    0  0.32225145672E+02 -0.17753220950E+02 -0.52862990829E+01  0.37169635806E+02  0.51100000000E-03 0.  1.
        -12    1    4    4    0    0  0.21420121870E+01  0.46030750277E+01 -0.94392902349E+01  0.10718055610E+02  0.00000000000E+00 0.  1.
</event>
<event>
 8    1  0.2527138E-006  0.9118800E+02  0.7816164E-02  0.1184000E+00
        -11   -1    0    0    0    0  0.00000000000E+00  0.00000000000E+00  0.45593999997E+02  0.45594000000E+02  0.51100000000E-03 0. -1.
         11   -1    0    0    0    0 -0.00000000000E+00 -0.00000000000E+00 -0.45593999997E+02  0.45594000000E+02  0.51100000000E-03 0.  1.
         23    2    1    2    0    0 -0.88817841970E-15  0.00000000000E+00  0.00000000000E+00  0.91188000000E+02  0.91188000000E+02 0.  0.
    9900012    2    3    3    0    0 -0.61005195340E+01 -0.99914880346E+01 -0.34910363641E+02  0.54367086631E+02  0.40000005593E+02 0.  0.
         12    1    3    3    0    0  0.61005195340E+01  0.99914880346E+01  0.34910363641E+02  0.36820913369E+02  0.00000000000E+00 0. -1.
         11    1    4    4    0    0 -0.17276714086E+02 -0.18090855091E+01 -0.66009114692E+01  0.18583047987E+02  0.51100000000E-03 0. -1.
        -11    1    4    4    0    0  0.71221413155E+01 -0.87036088574E+01 -0.29463444093E+02  0.31536839445E+02  0.51100000000E-03 0.  1.
        -12    1    4    4    0    0  0.40540532369E+01  0.52120633195E+00  0.11539919209E+01  0.42471991996E+01  0.00000000000E+00 0.  1.
</event>
<event>
 8    1  0.2527138E-006  0.9118800E+02  0.7816164E-02  0.1184000E+00
        -11   -1    0    0    0    0  0.00000000000E+00  0.00000000000E+00  0.45593999997E+02  0.45594000000E+02  0.51100000000E-03 0. -1.
         11   -1    0    0    0    0 -0.00000000000E+00 -0.00000000000E+00 -0.45593999997E+02  0.45594000000E+02  0.51100000000E-03 0.  1.
         23    2    1    2    0    0  0.00000000000E+00  0.00000000000E+00  0.00000000000E+00  0.91188000000E+02  0.91188000000E+02 0.  0.
    9900012    2    3    3    0    0  0.13687129868E+02 -0.93310200486E+01  0.32884262078E+02  0.54367079974E+02  0.39999990417E+02 0.  0.
        -12    1    3    3    0    0 -0.13687129868E+02  0.93310200486E+01 -0.32884262078E+02  0.36820920026E+02  0.00000000000E+00 0.  1.
         11    1    4    4    0    0  0.76232536682E+01  0.25693357438E+01  0.25938689159E+02  0.27157523418E+02  0.51100000000E-03 0. -1.
        -11    1    4    4    0    0 -0.31215998925E+01  0.18466440850E+01 -0.54492853535E+01  0.65459293757E+01  0.51100000000E-03 0.  1.
         12    1    4    4    0    0  0.91854760921E+01 -0.13746999877E+02  0.12394858272E+02  0.20663627181E+02  0.00000000000E+00 0. -1.
</event>
<event>
 8    1  0.2527138E-006  0.9118800E+02  0.7816164E-02  0.1184000E+00
        -11   -1    0    0    0    0  0.00000000000E+00  0.00000000000E+00  0.45593999997E+02  0.45594000000E+02  0.51100000000E-03 0.  1.
         11   -1    0    0    0    0 -0.00000000000E+00 -0.00000000000E+00 -0.45593999997E+02  0.45594000000E+02  0.51100000000E-03 0. -1.
         23    2    1    2    0    0  0.00000000000E+00  0.00000000000E+00  0.00000000000E+00  0.91188000000E+02  0.91188000000E+02 0.  0.
    9900012    2    3    3    0    0 -0.22061416200E+02  0.17411501841E+02  0.23788936838E+02  0.54367082073E+02  0.39999995202E+02 0.  0.
         12    1    3    3    0    0  0.22061416200E+02 -0.17411501841E+02 -0.23788936838E+02  0.36820917927E+02  0.00000000000E+00 0. -1.
         11    1    4    4    0    0 -0.13481577830E+02  0.21354769244E+02 -0.11485479854E+01  0.25280393054E+02  0.51100000000E-03 0. -1.
        -11    1    4    4    0    0 -0.75323935412E+01  0.10830627365E+01  0.66959174292E+01  0.10136335030E+02  0.51100000000E-03 0.  1.
         12    1    4    4    0    0 -0.10474448294E+01 -0.50263301391E+01  0.18241567394E+02  0.18950353989E+02  0.00000000000E+00 0. -1.
</event>
<event>
 8    1  0.2527138E-006  0.9118800E+02  0.7816164E-02  0.1184000E+00
        -11   -1    0    0    0    0  0.00000000000E+00  0.00000000000E+00  0.45593999997E+02  0.45594000000E+02  0.51100000000E-03 0.  1.
         11   -1    0    0    0    0 -0.00000000000E+00 -0.00000000000E+00 -0.45593999997E+02  0.45594000000E+02  0.51100000000E-03 0. -1.
         23    2    1    2    0    0  0.00000000000E+00  0.00000000000E+00  0.00000000000E+00  0.91188000000E+02  0.91188000000E+02 0.  0.
    9900012    2    3    3    0    0  0.11593364646E+02 -0.33552505377E+01  0.34786655834E+02  0.54367146749E+02  0.40000142645E+02 0.  0.
         12    1    3    3    0    0 -0.11593364646E+02  0.33552505377E+01 -0.34786655834E+02  0.36820853251E+02  0.00000000000E+00 0. -1.
         11    1    4    4    0    0  0.62196873826E+01 -0.51307936115E+01  0.40050734620E+02  0.40854264136E+02  0.51100000000E-03 0. -1.
        -11    1    4    4    0    0  0.51190558936E+01  0.22963424237E+01  0.21999194730E+01  0.60264058706E+01  0.51100000000E-03 0.  1.
         12    1    4    4    0    0  0.25462136943E+00 -0.52079934986E+00 -0.74639982592E+01  0.74864767427E+01  0.00000000000E+00 0. -1.
</event>
<event>
 8    1  0.2527138E-006  0.9118800E+02  0.7816164E-02  0.1184000E+00
        -11   -1    0    0    0    0  0.00000000000E+00  0.00000000000E+00  0.45593999997E+02  0.45594000000E+02  0.51100000000E-03 0.  1.
         11   -1    0    0    0    0 -0.00000000000E+00 -0.00000000000E+00 -0.45593999997E+02  0.45594000000E+02  0.51100000000E-03 0. -1.
         23    2    1    2    0    0  0.00000000000E+00  0.00000000000E+00  0.35527136788E-14  0.91188000000E+02  0.91188000000E+02 0.  0.
    9900012    2    3    3    0    0  0.56381517906E+01  0.19208579690E+02 -0.30903417095E+02  0.54367089128E+02  0.40000011285E+02 0.  0.
        -12    1    3    3    0    0 -0.56381517906E+01 -0.19208579690E+02  0.30903417095E+02  0.36820910872E+02  0.00000000000E+00 0.  1.
         11    1    4    4    0    0  0.12130112905E+02  0.10400922706E+02 -0.11725149045E+02  0.19819130975E+02  0.51100000000E-03 0. -1.
        -11    1    4    4    0    0  0.92070955628E+01 -0.21370283575E+01 -0.47331770468E+01  0.10570736215E+02  0.51100000000E-03 0.  1.
         12    1    4    4    0    0 -0.15699056677E+02  0.10944685342E+02 -0.14445091003E+02  0.23977221938E+02  0.00000000000E+00 0. -1.
</event>
<event>
 8    1  0.2527138E-006  0.9118800E+02  0.7816164E-02  0.1184000E+00
        -11   -1    0    0    0    0  0.00000000000E+00  0.00000000000E+00  0.45593999997E+02  0.45594000000E+02  0.51100000000E-03 0. -1.
         11   -1    0    0    0    0 -0.00000000000E+00 -0.00000000000E+00 -0.45593999997E+02  0.45594000000E+02  0.51100000000E-03 0.  1.
         23    2    1    2    0    0  0.17763568394E-14  0.71054273576E-14  0.00000000000E+00  0.91188000000E+02  0.91188000000E+02 0.  0.
    9900012    2    3    3    0    0 -0.44700843095E+01  0.35127831594E+02 -0.10091315623E+02  0.54367070392E+02  0.39999968572E+02 0.  0.
         12    1    3    3    0    0  0.44700843095E+01 -0.35127831594E+02  0.10091315623E+02  0.36820929608E+02  0.00000000000E+00 0. -1.
         11    1    4    4    0    0  0.84982008027E+00  0.21304531684E+02 -0.52731603988E+01  0.21963867722E+02  0.51100000000E-03 0. -1.
        -11    1    4    4    0    0  0.87323914178E+01  0.14445780698E+02 -0.67999520933E+01  0.18198202894E+02  0.51100000000E-03 0.  1.
         12    1    4    4    0    0 -0.14052295808E+02 -0.62248078843E+00  0.19817968687E+01  0.14204999776E+02  0.00000000000E+00 0. -1.
</event>
<event>
 8    1  0.2527138E-006  0.9118800E+02  0.7816164E-02  0.1184000E+00
        -11   -1    0    0    0    0  0.00000000000E+00  0.00000000000E+00  0.45593999997E+02  0.45594000000E+02  0.51100000000E-03 0. -1.
         11   -1    0    0    0    0 -0.00000000000E+00 -0.00000000000E+00 -0.45593999997E+02  0.45594000000E+02  0.51100000000E-03 0.  1.
         23    2    1    2    0    0  0.35527136788E-14  0.00000000000E+00  0.53290705182E-14  0.91188000000E+02  0.91188000000E+02 0.  0.
    9900012    2    3    3    0    0  0.21403434629E+02  0.27251713359E+02  0.12450567446E+02  0.54367088487E+02  0.40000009823E+02 0.  0.
        -12    1    3    3    0    0 -0.21403434629E+02 -0.27251713359E+02 -0.12450567446E+02  0.36820911513E+02  0.00000000000E+00 0.  1.
         11    1    4    4    0    0  0.79952625077E+01  0.90341604077E+01 -0.11002404754E+02  0.16327681632E+02  0.51100000000E-03 0. -1.
        -11    1    4    4    0    0  0.42051349734E+01  0.67210606952E+01 -0.24025317550E+01  0.82842003904E+01  0.51100000000E-03 0.  1.
         12    1    4    4    0    0  0.92030371482E+01  0.11496492256E+02  0.25855503955E+02  0.29755206464E+02  0.00000000000E+00 0. -1.
</event>
<event>
 8    1  0.2527138E-006  0.9118800E+02  0.7816164E-02  0.1184000E+00
        -11   -1    0    0    0    0  0.00000000000E+00  0.00000000000E+00  0.45593999997E+02  0.45594000000E+02  0.51100000000E-03 0. -1.
         11   -1    0    0    0    0 -0.00000000000E+00 -0.00000000000E+00 -0.45593999997E+02  0.45594000000E+02  0.51100000000E-03 0.  1.
         23    2    1    2    0    0  0.00000000000E+00  0.17763568394E-14  0.35527136788E-14  0.91188000000E+02  0.91188000000E+02 0.  0.
    9900012    2    3    3    0    0 -0.33509198010E+02  0.11418207277E+02 -0.10126099468E+02  0.54367086117E+02  0.40000004422E+02 0.  0.
         12    1    3    3    0    0  0.33509198010E+02 -0.11418207277E+02  0.10126099468E+02  0.36820913883E+02  0.00000000000E+00 0. -1.
         11    1    4    4    0    0 -0.15257088307E+02  0.48429869241E+00  0.93733036869E+01  0.17912903481E+02  0.51100000000E-03 0. -1.
        -11    1    4    4    0    0 -0.19818365085E+02  0.78200788869E+01 -0.23112272229E+02  0.31434031817E+02  0.51100000000E-03 0.  1.
        -12    1    4    4    0    0  0.15662553818E+01  0.31138296972E+01  0.36128690740E+01  0.50201508195E+01  0.00000000000E+00 0.  1.
</event>
<event>
 8    1  0.2527138E-006  0.9118800E+02  0.7816164E-02  0.1184000E+00
        -11   -1    0    0    0    0  0.00000000000E+00  0.00000000000E+00  0.45593999997E+02  0.45594000000E+02  0.51100000000E-03 0. -1.
         11   -1    0    0    0    0 -0.00000000000E+00 -0.00000000000E+00 -0.45593999997E+02  0.45594000000E+02  0.51100000000E-03 0.  1.
         23    2    1    2    0    0  0.71054273576E-14  0.17763568394E-14 -0.53290705182E-14  0.91188000000E+02  0.91188000000E+02 0.  0.
    9900012    2    3    3    0    0  0.32389087056E+02  0.15984321710E+02 -0.71574174477E+01  0.54367080330E+02  0.39999991228E+02 0.  0.
         12    1    3    3    0    0 -0.32389087056E+02 -0.15984321710E+02  0.71574174477E+01  0.36820919670E+02  0.00000000000E+00 0. -1.
         11    1    4    4    0    0  0.15238332306E+02  0.10766726629E+02 -0.58405644543E+01  0.19550994020E+02  0.51100000000E-03 0.  1.
        -11    1    4    4    0    0  0.82896355268E+01  0.17347048385E+01  0.14245123789E+02  0.16572592135E+02  0.51100000000E-03 0. -1.
        -12    1    4    4    0    0  0.88611192230E+01  0.34828902428E+01 -0.15561976783E+02  0.18243494175E+02  0.00000000000E+00 0.  1.
</event>
<event>
 8    1  0.2527138E-006  0.9118800E+02  0.7816164E-02  0.1184000E+00
        -11   -1    0    0    0    0  0.00000000000E+00  0.00000000000E+00  0.45593999997E+02  0.45594000000E+02  0.51100000000E-03 0.  1.
         11   -1    0    0    0    0 -0.00000000000E+00 -0.00000000000E+00 -0.45593999997E+02  0.45594000000E+02  0.51100000000E-03 0. -1.
         23    2    1    2    0    0  0.10547118734E-14  0.00000000000E+00  0.00000000000E+00  0.91188000000E+02  0.91188000000E+02 0.  0.
    9900012    2    3    3    0    0  0.21523107863E+00  0.36404062158E+02  0.55207694519E+01  0.54367068978E+02  0.39999965348E+02 0.  0.
         12    1    3    3    0    0 -0.21523107863E+00 -0.36404062158E+02 -0.55207694519E+01  0.36820931022E+02  0.00000000000E+00 0. -1.
         11    1    4    4    0    0 -0.15221509625E+02  0.18632032412E+02 -0.46790295222E+01  0.24510004174E+02  0.51100000000E-03 0. -1.
        -11    1    4    4    0    0  0.15733289594E+02  0.93494389256E+01  0.25560223891E+01  0.18479222397E+02  0.51100000000E-03 0.  1.
        -12    1    4    4    0    0 -0.29654889039E+00  0.84225908203E+01  0.76437765850E+01  0.11377842408E+02  0.00000000000E+00 0.  1.
</event>
<event>
 8    1  0.2527138E-006  0.9118800E+02  0.7816164E-02  0.1184000E+00
        -11   -1    0    0    0    0  0.00000000000E+00  0.00000000000E+00  0.45593999997E+02  0.45594000000E+02  0.51100000000E-03 0. -1.
         11   -1    0    0    0    0 -0.00000000000E+00 -0.00000000000E+00 -0.45593999997E+02  0.45594000000E+02  0.51100000000E-03 0.  1.
         23    2    1    2    0    0 -0.35527136788E-14  0.71054273576E-14 -0.44408920985E-15  0.91188000000E+02  0.91188000000E+02 0.  0.
    9900012    2    3    3    0    0 -0.15180498883E+02  0.33368437964E+02  0.34466349298E+01  0.54367088946E+02  0.40000010869E+02 0.  0.
        -12    1    3    3    0    0  0.15180498883E+02 -0.33368437964E+02 -0.34466349298E+01  0.36820911054E+02  0.00000000000E+00 0.  1.
         11    1    4    4    0    0  0.54839234236E+01  0.47130741860E+01 -0.87341403371E+01  0.11338945810E+02  0.51100000000E-03 0. -1.
        -11    1    4    4    0    0 -0.12479655256E+02  0.10572726536E+02  0.15926217329E+02  0.22829120447E+02  0.51100000000E-03 0.  1.
         12    1    4    4    0    0 -0.81847670506E+01  0.18082637242E+02 -0.37454420623E+01  0.20199022688E+02  0.00000000000E+00 0. -1.
</event>
<event>
 8    1  0.2527138E-006  0.9118800E+02  0.7816164E-02  0.1184000E+00
        -11   -1    0    0    0    0  0.00000000000E+00  0.00000000000E+00  0.45593999997E+02  0.45594000000E+02  0.51100000000E-03 0.  1.
         11   -1    0    0    0    0 -0.00000000000E+00 -0.00000000000E+00 -0.45593999997E+02  0.45594000000E+02  0.51100000000E-03 0. -1.
         23    2    1    2    0    0 -0.17763568394E-14  0.00000000000E+00 -0.88817841970E-15  0.91188000000E+02  0.91188000000E+02 0.  0.
    9900012    2    3    3    0    0 -0.13366285111E+02 -0.34289116594E+02 -0.11747789256E+01  0.54367065737E+02  0.39999957962E+02 0.  0.
         12    1    3    3    0    0  0.13366285111E+02  0.34289116594E+02  0.11747789256E+01  0.36820934263E+02  0.00000000000E+00 0. -1.
         11    1    4    4    0    0 -0.15482539262E+02 -0.86940353432E+01 -0.11171395093E+02  0.20978449445E+02  0.51100000000E-03 0. -1.
        -11    1    4    4    0    0  0.91617499543E+01 -0.22058691214E+02  0.64290901391E+01  0.24735737720E+02  0.51100000000E-03 0.  1.
         12    1    4    4    0    0 -0.70454958041E+01 -0.35363900368E+01  0.35675260286E+01  0.86528785720E+01  0.00000000000E+00 0. -1.
</event>
<event>
 8    1  0.2527138E-006  0.9118800E+02  0.7816164E-02  0.1184000E+00
        -11   -1    0    0    0    0  0.00000000000E+00  0.00000000000E+00  0.45593999997E+02  0.45594000000E+02  0.51100000000E-03 0.  1.
         11   -1    0    0    0    0 -0.00000000000E+00 -0.00000000000E+00 -0.45593999997E+02  0.45594000000E+02  0.51100000000E-03 0. -1.
         23    2    1    2    0    0  0.00000000000E+00  0.00000000000E+00 -0.17763568394E-14  0.91188000000E+02  0.91188000000E+02 0.  0.
    9900012    2    3    3    0    0 -0.28214330647E+02  0.21260853538E+02  0.10378240332E+02  0.54367079053E+02  0.39999988317E+02 0.  0.
         12    1    3    3    0    0  0.28214330647E+02 -0.21260853538E+02 -0.10378240332E+02  0.36820920947E+02  0.00000000000E+00 0. -1.
         11    1    4    4    0    0  0.30863747684E+01  0.10596292354E+02  0.66564199008E+01  0.12888562643E+02  0.51100000000E-03 0. -1.
        -11    1    4    4    0    0 -0.20598104515E+02 -0.76650721416E+00  0.11911836907E+02  0.23806749078E+02  0.51100000000E-03 0.  1.
        -12    1    4    4    0    0 -0.10702600901E+02  0.11431068398E+02 -0.81900164752E+01  0.17671767332E+02  0.00000000000E+00 0.  1.
</event>
<event>
 8    1  0.2527138E-006  0.9118800E+02  0.7816164E-02  0.1184000E+00
        -11   -1    0    0    0    0  0.00000000000E+00  0.00000000000E+00  0.45593999997E+02  0.45594000000E+02  0.51100000000E-03 0. -1.
         11   -1    0    0    0    0 -0.00000000000E+00 -0.00000000000E+00 -0.45593999997E+02  0.45594000000E+02  0.51100000000E-03 0.  1.
         23    2    1    2    0    0  0.00000000000E+00  0.17763568394E-14 -0.17763568394E-14  0.91188000000E+02  0.91188000000E+02 0.  0.
    9900012    2    3    3    0    0 -0.35767973985E+02 -0.53879125876E+01  0.68849518336E+01  0.54367080310E+02  0.39999991183E+02 0.  0.
         12    1    3    3    0    0  0.35767973985E+02  0.53879125876E+01 -0.68849518336E+01  0.36820919690E+02  0.00000000000E+00 0. -1.
         11    1    4    4    0    0 -0.20424673894E+01 -0.49266732746E+01  0.31061092992E+01  0.61718471977E+01  0.51100000000E-03 0. -1.
        -11    1    4    4    0    0 -0.31577577954E+02 -0.12246433531E+02 -0.37036949504E+01  0.34071042253E+02  0.51100000000E-03 0.  1.
         12    1    4    4    0    0 -0.21479286419E+01  0.11785194219E+02  0.74825374848E+01  0.14124190859E+02  0.00000000000E+00 0. -1.
</event>
<event>
 8    1  0.2527138E-006  0.9118800E+02  0.7816164E-02  0.1184000E+00
        -11   -1    0    0    0    0  0.00000000000E+00  0.00000000000E+00  0.45593999997E+02  0.45594000000E+02  0.51100000000E-03 0.  1.
         11   -1    0    0    0    0 -0.00000000000E+00 -0.00000000000E+00 -0.45593999997E+02  0.45594000000E+02  0.51100000000E-03 0. -1.
         23    2    1    2    0    0 -0.88817841970E-15  0.00000000000E+00  0.00000000000E+00  0.91188000000E+02  0.91188000000E+02 0.  0.
    9900012    2    3    3    0    0 -0.31619785924E+01 -0.34379448221E+02 -0.12799807520E+02  0.54367086905E+02  0.40000006217E+02 0.  0.
        -12    1    3    3    0    0  0.31619785924E+01  0.34379448221E+02  0.12799807520E+02  0.36820913095E+02  0.00000000000E+00 0.  1.
         11    1    4    4    0    0  0.13830205742E+02 -0.13828501482E+02 -0.16412738906E+02  0.25531941618E+02  0.51100000000E-03 0. -1.
        -11    1    4    4    0    0 -0.11633597967E+02 -0.13587424975E+02 -0.25978948334E+01  0.18075059528E+02  0.51100000000E-03 0.  1.
         12    1    4    4    0    0 -0.53585863681E+01 -0.69635217638E+01  0.62108262197E+01  0.10760085759E+02  0.00000000000E+00 0. -1.
</event>
<event>
 8    1  0.2527138E-006  0.9118800E+02  0.7816164E-02  0.1184000E+00
        -11   -1    0    0    0    0  0.00000000000E+00  0.00000000000E+00  0.45593999997E+02  0.45594000000E+02  0.51100000000E-03 0.  1.
         11   -1    0    0    0    0 -0.00000000000E+00 -0.00000000000E+00 -0.45593999997E+02  0.45594000000E+02  0.51100000000E-03 0. -1.
         23    2    1    2    0    0  0.00000000000E+00  0.00000000000E+00 -0.35527136788E-14  0.91188000000E+02  0.91188000000E+02 0.  0.
    9900012    2    3    3    0    0  0.85878231125E+01  0.24053125908E+02 -0.26523136511E+02  0.54367077386E+02  0.39999984518E+02 0.  0.
        -12    1    3    3    0    0 -0.85878231125E+01 -0.24053125908E+02  0.26523136511E+02  0.36820922614E+02  0.00000000000E+00 0.  1.
         11    1    4    4    0    0  0.40411964370E+01 -0.60876812166E+01 -0.15278140919E+02  0.16935546092E+02  0.51100000000E-03 0. -1.
        -11    1    4    4    0    0  0.25763003916E+01  0.28191751229E+02 -0.26875802881E+01  0.28436512604E+02  0.51100000000E-03 0.  1.
        -12    1    4    4    0    0  0.19703262839E+01  0.19490558958E+01 -0.85574153034E+01  0.89950186895E+01  0.00000000000E+00 0.  1.
</event>
<event>
 8    1  0.2527138E-006  0.9118800E+02  0.7816164E-02  0.1184000E+00
        -11   -1    0    0    0    0  0.00000000000E+00  0.00000000000E+00  0.45593999997E+02  0.45594000000E+02  0.51100000000E-03 0. -1.
         11   -1    0    0    0    0 -0.00000000000E+00 -0.00000000000E+00 -0.45593999997E+02  0.45594000000E+02  0.51100000000E-03 0.  1.
         23    2    1    2    0    0  0.17763568394E-14  0.00000000000E+00  0.00000000000E+00  0.91188000000E+02  0.91188000000E+02 0.  0.
    9900012    2    3    3    0    0 -0.70993662407E+01 -0.35621178552E+02 -0.60422956883E+01  0.54367099690E+02  0.40000035362E+02 0.  0.
         12    1    3    3    0    0  0.70993662407E+01  0.35621178552E+02  0.60422956883E+01  0.36820900310E+02  0.00000000000E+00 0. -1.
         11    1    4    4    0    0  0.40157938292E+01  0.71088505448E+01  0.28617490460E-01  0.81647520090E+01  0.51100000000E-03 0. -1.
        -11    1    4    4    0    0 -0.88786569081E+01 -0.13671106801E+02 -0.49489555859E+01  0.17035899486E+02  0.51100000000E-03 0.  1.
         12    1    4    4    0    0 -0.22365031618E+01 -0.29058922297E+02 -0.11219575928E+01  0.29166448194E+02  0.00000000000E+00 0. -1.
</event>
<event>
 8    1  0.2527138E-006  0.9118800E+02  0.7816164E-02  0.1184000E+00
        -11   -1    0    0    0    0  0.00000000000E+00  0.00000000000E+00  0.45593999997E+02  0.45594000000E+02  0.51100000000E-03 0. -1.
         11   -1    0    0    0    0 -0.00000000000E+00 -0.00000000000E+00 -0.45593999997E+02  0.45594000000E+02  0.51100000000E-03 0.  1.
         23    2    1    2    0    0  0.00000000000E+00  0.00000000000E+00  0.35527136788E-14  0.91188000000E+02  0.91188000000E+02 0.  0.
    9900012    2    3    3    0    0 -0.11430539188E+02 -0.22812318986E+02  0.26546566806E+02  0.54367091092E+02  0.40000015762E+02 0.  0.
         12    1    3    3    0    0  0.11430539188E+02  0.22812318986E+02 -0.26546566806E+02  0.36820908908E+02  0.00000000000E+00 0. -1.
         11    1    4    4    0    0 -0.16305969976E+01 -0.11096860422E+01 -0.25502666629E+01  0.32239897633E+01  0.51100000000E-03 0. -1.
        -11    1    4    4    0    0 -0.91608650518E+01  0.72336840766E+01  0.14835466323E+02  0.18876935533E+02  0.51100000000E-03 0.  1.
         12    1    4    4    0    0 -0.63907713840E+00 -0.28936317020E+02  0.14261367146E+02  0.32266165796E+02  0.00000000000E+00 0. -1.
</event>
<event>
 8    1  0.2527138E-006  0.9118800E+02  0.7816164E-02  0.1184000E+00
        -11   -1    0    0    0    0  0.00000000000E+00  0.00000000000E+00  0.45593999997E+02  0.45594000000E+02  0.51100000000E-03 0. -1.
         11   -1    0    0    0    0 -0.00000000000E+00 -0.00000000000E+00 -0.45593999997E+02  0.45594000000E+02  0.51100000000E-03 0.  1.
         23    2    1    2    0    0 -0.35527136788E-14  0.17763568394E-14  0.00000000000E+00  0.91188000000E+02  0.91188000000E+02 0.  0.
    9900012    2    3    3    0    0  0.27926345872E+02 -0.10620429263E+02 -0.21519855095E+02  0.54367102743E+02  0.40000042323E+02 0.  0.
         12    1    3    3    0    0 -0.27926345872E+02  0.10620429263E+02  0.21519855095E+02  0.36820897257E+02  0.00000000000E+00 0. -1.
         11    1    4    4    0    0  0.10818348435E+02 -0.17602401230E+02 -0.48651871618E+01  0.21226192270E+02  0.51100000000E-03 0. -1.
        -11    1    4    4    0    0  0.13740381088E+02 -0.55400391895E+01 -0.12891994249E+02  0.19639084058E+02  0.51100000000E-03 0.  1.
        -12    1    4    4    0    0  0.33676163492E+01  0.12522011156E+02 -0.37626736842E+01  0.13501826414E+02  0.00000000000E+00 0.  1.
</event>
<event>
 8    1  0.2527138E-006  0.9118800E+02  0.7816164E-02  0.1184000E+00
        -11   -1    0    0    0    0  0.00000000000E+00  0.00000000000E+00  0.45593999997E+02  0.45594000000E+02  0.51100000000E-03 0. -1.
         11   -1    0    0    0    0 -0.00000000000E+00 -0.00000000000E+00 -0.45593999997E+02  0.45594000000E+02  0.51100000000E-03 0.  1.
         23    2    1    2    0    0 -0.35527136788E-14  0.88817841970E-15  0.35527136788E-14  0.91188000000E+02  0.91188000000E+02 0.  0.
    9900012    2    3    3    0    0 -0.27364966274E+02 -0.36813742312E+01  0.24359521074E+02  0.54367079827E+02  0.39999990082E+02 0.  0.
        -12    1    3    3    0    0  0.27364966274E+02  0.36813742312E+01 -0.24359521074E+02  0.36820920173E+02  0.00000000000E+00 0.  1.
         11    1    4    4    0    0 -0.78183021588E+01 -0.40707515155E+01 -0.67847453244E+01  0.11123382396E+02  0.51100000000E-03 0. -1.
        -11    1    4    4    0    0 -0.19580191744E-01 -0.70977909488E+01  0.20034281646E+01  0.73751436873E+01  0.51100000000E-03 0.  1.
         12    1    4    4    0    0 -0.19527083924E+02  0.74871682331E+01  0.29140838234E+02  0.35868553744E+02  0.00000000000E+00 0. -1.
</event>
<event>
 8    1  0.2527138E-006  0.9118800E+02  0.7816164E-02  0.1184000E+00
        -11   -1    0    0    0    0  0.00000000000E+00  0.00000000000E+00  0.45593999997E+02  0.45594000000E+02  0.51100000000E-03 0.  1.
         11   -1    0    0    0    0 -0.00000000000E+00 -0.00000000000E+00 -0.45593999997E+02  0.45594000000E+02  0.51100000000E-03 0. -1.
         23    2    1    2    0    0  0.35527136788E-14  0.35527136788E-14 -0.17763568394E-14  0.91188000000E+02  0.91188000000E+02 0.  0.
    9900012    2    3    3    0    0 -0.17882086085E+02 -0.29334221485E+02  0.13248112712E+02  0.54367108602E+02  0.40000055681E+02 0.  0.
         12    1    3    3    0    0  0.17882086085E+02  0.29334221485E+02 -0.13248112712E+02  0.36820891398E+02  0.00000000000E+00 0. -1.
         11    1    4    4    0    0 -0.10834472854E+02 -0.12486592809E+02 -0.44998427998E+01  0.17133283033E+02  0.51100000000E-03 0. -1.
        -11    1    4    4    0    0  0.10354880133E+02 -0.85120929605E+01  0.64750037040E+01  0.14886401257E+02  0.51100000000E-03 0.  1.
        -12    1    4    4    0    0 -0.17402493364E+02 -0.83355357155E+01  0.11272951808E+02  0.22347424313E+02  0.00000000000E+00 0.  1.
</event>
<event>
 8    1  0.2527138E-006  0.9118800E+02  0.7816164E-02  0.1184000E+00
        -11   -1    0    0    0    0  0.00000000000E+00  0.00000000000E+00  0.45593999997E+02  0.45594000000E+02  0.51100000000E-03 0. -1.
         11   -1    0    0    0    0 -0.00000000000E+00 -0.00000000000E+00 -0.45593999997E+02  0.45594000000E+02  0.51100000000E-03 0.  1.
         23    2    1    2    0    0 -0.35527136788E-14  0.19984014443E-14 -0.35527136788E-14  0.91188000000E+02  0.91188000000E+02 0.  0.
    9900012    2    3    3    0    0  0.19726638796E+02 -0.17169962625E+01  0.31043376647E+02  0.54367087627E+02  0.40000007862E+02 0.  0.
        -12    1    3    3    0    0 -0.19726638796E+02  0.17169962625E+01 -0.31043376647E+02  0.36820912373E+02  0.00000000000E+00 0.  1.
         11    1    4    4    0    0  0.71697183744E+01  0.64538860498E+01  0.31533633710E+01  0.10148951055E+02  0.51100000000E-03 0. -1.
        -11    1    4    4    0    0  0.94223207838E+01  0.10763407193E+02  0.72614814921E+01  0.16042449223E+02  0.51100000000E-03 0.  1.
         12    1    4    4    0    0  0.31345996373E+01 -0.18934289505E+02  0.20628531784E+02  0.28175687348E+02  0.00000000000E+00 0. -1.
</event>
<event>
 8    1  0.2527138E-006  0.9118800E+02  0.7816164E-02  0.1184000E+00
        -11   -1    0    0    0    0  0.00000000000E+00  0.00000000000E+00  0.45593999997E+02  0.45594000000E+02  0.51100000000E-03 0. -1.
         11   -1    0    0    0    0 -0.00000000000E+00 -0.00000000000E+00 -0.45593999997E+02  0.45594000000E+02  0.51100000000E-03 0.  1.
         23    2    1    2    0    0  0.35527136788E-14  0.00000000000E+00  0.00000000000E+00  0.91188000000E+02  0.91188000000E+02 0.  0.
    9900012    2    3    3    0    0 -0.25640120977E+02 -0.11447733390E+02 -0.23818580910E+02  0.54366929944E+02  0.39999648393E+02 0.  0.
         12    1    3    3    0    0  0.25640120977E+02  0.11447733390E+02  0.23818580910E+02  0.36821070056E+02  0.00000000000E+00 0. -1.
         11    1    4    4    0    0  0.49140036517E+01 -0.40887934897E+01 -0.11676511099E+01  0.64983900672E+01  0.51100000000E-03 0. -1.
        -11    1    4    4    0    0 -0.23908134896E+02 -0.16264275509E+02 -0.90362471955E+01  0.30294873092E+02  0.51100000000E-03 0.  1.
        -12    1    4    4    0    0 -0.66459897322E+01  0.89053356089E+01 -0.13614682605E+02  0.17573666785E+02  0.00000000000E+00 0.  1.
</event>
<event>
 8    1  0.2527138E-006  0.9118800E+02  0.7816164E-02  0.1184000E+00
        -11   -1    0    0    0    0  0.00000000000E+00  0.00000000000E+00  0.45593999997E+02  0.45594000000E+02  0.51100000000E-03 0.  1.
         11   -1    0    0    0    0 -0.00000000000E+00 -0.00000000000E+00 -0.45593999997E+02  0.45594000000E+02  0.51100000000E-03 0. -1.
         23    2    1    2    0    0  0.00000000000E+00  0.00000000000E+00  0.00000000000E+00  0.91188000000E+02  0.91188000000E+02 0.  0.
    9900012    2    3    3    0    0  0.35125794644E+02  0.10764101535E+02  0.24662741657E+01  0.54367220005E+02  0.40000309643E+02 0.  0.
        -12    1    3    3    0    0 -0.35125794644E+02 -0.10764101535E+02 -0.24662741657E+01  0.36820779995E+02  0.00000000000E+00 0.  1.
         11    1    4    4    0    0  0.33116811089E+01  0.11487379447E+02 -0.79911049243E+01  0.14380016568E+02  0.51100000000E-03 0. -1.
        -11    1    4    4    0    0  0.14110039196E+01 -0.70768456485E+01  0.40441864401E+01  0.82721291465E+01  0.51100000000E-03 0.  1.
         12    1    4    4    0    0  0.30403109615E+02  0.63535677368E+01  0.64131926500E+01  0.31715074290E+02  0.00000000000E+00 0. -1.
</event>
<event>
 8    1  0.2527138E-006  0.9118800E+02  0.7816164E-02  0.1184000E+00
        -11   -1    0    0    0    0  0.00000000000E+00  0.00000000000E+00  0.45593999997E+02  0.45594000000E+02  0.51100000000E-03 0.  1.
         11   -1    0    0    0    0 -0.00000000000E+00 -0.00000000000E+00 -0.45593999997E+02  0.45594000000E+02  0.51100000000E-03 0. -1.
         23    2    1    2    0    0  0.00000000000E+00  0.35527136788E-14  0.00000000000E+00  0.91188000000E+02  0.91188000000E+02 0.  0.
    9900012    2    3    3    0    0 -0.22668979447E+02 -0.27596183804E+02 -0.89637053586E+01  0.54367081985E+02  0.39999995001E+02 0.  0.
        -12    1    3    3    0    0  0.22668979447E+02  0.27596183804E+02  0.89637053586E+01  0.36820918015E+02  0.00000000000E+00 0.  1.
         11    1    4    4    0    0 -0.10943462574E+02 -0.58891605748E+01 -0.28190474537E+01  0.12743179125E+02  0.51100000000E-03 0. -1.
        -11    1    4    4    0    0 -0.35888400797E+01 -0.29606543863E+02 -0.47122977037E+01  0.30193260217E+02  0.51100000000E-03 0.  1.
        -12    1    4    4    0    0 -0.81366767930E+01  0.78995206341E+01 -0.14323602012E+01  0.11430642643E+02  0.00000000000E+00 0.  1.
</event>
<event>
 8    1  0.2527138E-006  0.9118800E+02  0.7816164E-02  0.1184000E+00
        -11   -1    0    0    0    0  0.00000000000E+00  0.00000000000E+00  0.45593999997E+02  0.45594000000E+02  0.51100000000E-03 0.  1.
         11   -1    0    0    0    0 -0.00000000000E+00 -0.00000000000E+00 -0.45593999997E+02  0.45594000000E+02  0.51100000000E-03 0. -1.
         23    2    1    2    0    0  0.00000000000E+00 -0.17763568394E-14 -0.71054273576E-14  0.91188000000E+02  0.91188000000E+02 0.  0.
    9900012    2    3    3    0    0 -0.65719229804E+01  0.70585810341E+01  0.35535419764E+02  0.54367084807E+02  0.40000001434E+02 0.  0.
         12    1    3    3    0    0  0.65719229804E+01 -0.70585810341E+01 -0.35535419764E+02  0.36820915193E+02  0.00000000000E+00 0. -1.
         11    1    4    4    0    0  0.30268575873E+01  0.10865842206E+02 -0.34595857392E+00  0.11284860713E+02  0.51100000000E-03 0. -1.
        -11    1    4    4    0    0 -0.11925849950E+02  0.42337503245E+01  0.10787380057E+02  0.16628833621E+02  0.51100000000E-03 0.  1.
        -12    1    4    4    0    0  0.23270693826E+01 -0.80410114968E+01  0.25093998280E+02  0.26453390473E+02  0.00000000000E+00 0.  1.
</event>
<event>
 8    1  0.2527138E-006  0.9118800E+02  0.7816164E-02  0.1184000E+00
        -11   -1    0    0    0    0  0.00000000000E+00  0.00000000000E+00  0.45593999997E+02  0.45594000000E+02  0.51100000000E-03 0.  1.
         11   -1    0    0    0    0 -0.00000000000E+00 -0.00000000000E+00 -0.45593999997E+02  0.45594000000E+02  0.51100000000E-03 0. -1.
         23    2    1    2    0    0  0.00000000000E+00  0.00000000000E+00 -0.17763568394E-14  0.91188000000E+02  0.91188000000E+02 0.  0.
    9900012    2    3    3    0    0 -0.25803101638E+02  0.21931461531E+02  0.14456434171E+02  0.54367115329E+02  0.40000071016E+02 0.  0.
         12    1    3    3    0    0  0.25803101638E+02 -0.21931461531E+02 -0.14456434171E+02  0.36820884671E+02  0.00000000000E+00 0. -1.
         11    1    4    4    0    0 -0.11736635060E+02  0.17273938868E+02 -0.87049738703E+01  0.22625519594E+02  0.51100000000E-03 0. -1.
        -11    1    4    4    0    0 -0.71459677752E+01  0.42842871697E+01  0.84596176781E+00  0.83747014019E+01  0.51100000000E-03 0.  1.
         12    1    4    4    0    0 -0.69204988024E+01  0.37323549264E+00  0.22315446273E+02  0.23366894333E+02  0.00000000000E+00 0. -1.
</event>
<event>
 8    1  0.2527138E-006  0.9118800E+02  0.7816164E-02  0.1184000E+00
        -11   -1    0    0    0    0  0.00000000000E+00  0.00000000000E+00  0.45593999997E+02  0.45594000000E+02  0.51100000000E-03 0. -1.
         11   -1    0    0    0    0 -0.00000000000E+00 -0.00000000000E+00 -0.45593999997E+02  0.45594000000E+02  0.51100000000E-03 0.  1.
         23    2    1    2    0    0  0.17763568394E-14  0.00000000000E+00  0.00000000000E+00  0.91188000000E+02  0.91188000000E+02 0.  0.
    9900012    2    3    3    0    0  0.10250905211E+02  0.35210695821E+02  0.33022985238E+01  0.54367091084E+02  0.40000015744E+02 0.  0.
         12    1    3    3    0    0 -0.10250905211E+02 -0.35210695821E+02 -0.33022985238E+01  0.36820908916E+02  0.00000000000E+00 0. -1.
         11    1    4    4    0    0 -0.10077119782E+02  0.66638817132E+01 -0.33313519770E+01  0.12532101533E+02  0.51100000000E-03 0.  1.
        -11    1    4    4    0    0  0.11516143093E+01 -0.26091374846E+01  0.43211207739E+01  0.51774413502E+01  0.51100000000E-03 0. -1.
        -12    1    4    4    0    0  0.19176410684E+02  0.31155951593E+02  0.23125297269E+01  0.36657548201E+02  0.00000000000E+00 0.  1.
</event>
<event>
 8    1  0.2527138E-006  0.9118800E+02  0.7816164E-02  0.1184000E+00
        -11   -1    0    0    0    0  0.00000000000E+00  0.00000000000E+00  0.45593999997E+02  0.45594000000E+02  0.51100000000E-03 0.  1.
         11   -1    0    0    0    0 -0.00000000000E+00 -0.00000000000E+00 -0.45593999997E+02  0.45594000000E+02  0.51100000000E-03 0. -1.
         23    2    1    2    0    0  0.00000000000E+00  0.00000000000E+00  0.00000000000E+00  0.91188000000E+02  0.91188000000E+02 0.  0.
    9900012    2    3    3    0    0  0.16981406547E+02 -0.26653569186E+02  0.18894413772E+02  0.54367084877E+02  0.40000001595E+02 0.  0.
         12    1    3    3    0    0 -0.16981406547E+02  0.26653569186E+02 -0.18894413772E+02  0.36820915123E+02  0.00000000000E+00 0. -1.
         11    1    4    4    0    0  0.18316998413E+02  0.30752706519E-01  0.11856199620E+02  0.21819322773E+02  0.51100000000E-03 0. -1.
        -11    1    4    4    0    0  0.33276617976E+01 -0.11487501370E+02  0.10908284428E+02  0.16187238498E+02  0.51100000000E-03 0.  1.
         12    1    4    4    0    0 -0.46632536634E+01 -0.15196820523E+02 -0.38700702762E+01  0.16360523607E+02  0.00000000000E+00 0. -1.
</event>
<event>
 8    1  0.2527138E-006  0.9118800E+02  0.7816164E-02  0.1184000E+00
        -11   -1    0    0    0    0  0.00000000000E+00  0.00000000000E+00  0.45593999997E+02  0.45594000000E+02  0.51100000000E-03 0.  1.
         11   -1    0    0    0    0 -0.00000000000E+00 -0.00000000000E+00 -0.45593999997E+02  0.45594000000E+02  0.51100000000E-03 0. -1.
         23    2    1    2    0    0  0.00000000000E+00 -0.71054273576E-14 -0.35527136788E-14  0.91188000000E+02  0.91188000000E+02 0.  0.
    9900012    2    3    3    0    0 -0.11298421645E+02 -0.30999152608E+02 -0.16345614919E+02  0.54367069523E+02  0.39999966592E+02 0.  0.
        -12    1    3    3    0    0  0.11298421645E+02  0.30999152608E+02  0.16345614919E+02  0.36820930477E+02  0.00000000000E+00 0.  1.
         11    1    4    4    0    0 -0.82512413217E+01 -0.27764551878E+02 -0.17962154210E+02  0.34082140609E+02  0.51100000000E-03 0. -1.
        -11    1    4    4    0    0 -0.57663556264E+01 -0.10247520462E+02 -0.20192905032E+01  0.11930635659E+02  0.51100000000E-03 0.  1.
        -12    1    4    4    0    0  0.27191753028E+01  0.70129197324E+01  0.36358297946E+01  0.83542932553E+01  0.00000000000E+00 0.  1.
</event>
<event>
 8    1  0.2527138E-006  0.9118800E+02  0.7816164E-02  0.1184000E+00
        -11   -1    0    0    0    0  0.00000000000E+00  0.00000000000E+00  0.45593999997E+02  0.45594000000E+02  0.51100000000E-03 0.  1.
         11   -1    0    0    0    0 -0.00000000000E+00 -0.00000000000E+00 -0.45593999997E+02  0.45594000000E+02  0.51100000000E-03 0. -1.
         23    2    1    2    0    0 -0.17763568394E-14 -0.35527136788E-14  0.00000000000E+00  0.91188000000E+02  0.91188000000E+02 0.  0.
    9900012    2    3    3    0    0 -0.12533582347E+02 -0.18878182165E+02 -0.29022474806E+02  0.54367075348E+02  0.39999979872E+02 0.  0.
        -12    1    3    3    0    0  0.12533582347E+02  0.18878182165E+02  0.29022474806E+02  0.36820924652E+02  0.00000000000E+00 0.  1.
         11    1    4    4    0    0 -0.13807778714E+02 -0.25947378350E+02 -0.82304565647E+01  0.30523132404E+02  0.51100000000E-03 0. -1.
        -11    1    4    4    0    0 -0.24125365611E+01  0.11781830682E+01 -0.13524628822E+02  0.13788547169E+02  0.51100000000E-03 0.  1.
         12    1    4    4    0    0  0.36867329274E+01  0.58910131165E+01 -0.72673894198E+01  0.10055395775E+02  0.00000000000E+00 0. -1.
</event>
<event>
 8    1  0.2527138E-006  0.9118800E+02  0.7816164E-02  0.1184000E+00
        -11   -1    0    0    0    0  0.00000000000E+00  0.00000000000E+00  0.45593999997E+02  0.45594000000E+02  0.51100000000E-03 0.  1.
         11   -1    0    0    0    0 -0.00000000000E+00 -0.00000000000E+00 -0.45593999997E+02  0.45594000000E+02  0.51100000000E-03 0. -1.
         23    2    1    2    0    0  0.88817841970E-15  0.00000000000E+00  0.00000000000E+00  0.91188000000E+02  0.91188000000E+02 0.  0.
    9900012    2    3    3    0    0  0.29891958606E+01 -0.33335321325E+02  0.15349288509E+02  0.54367087499E+02  0.40000007570E+02 0.  0.
         12    1    3    3    0    0 -0.29891958606E+01  0.33335321325E+02 -0.15349288509E+02  0.36820912501E+02  0.00000000000E+00 0. -1.
         11    1    4    4    0    0 -0.60131148236E+01  0.23672064305E+01  0.77611732662E+01  0.10099357747E+02  0.51100000000E-03 0. -1.
        -11    1    4    4    0    0  0.41104388309E+01 -0.17767203876E+02  0.15624623574E+02  0.24014539410E+02  0.51100000000E-03 0.  1.
         12    1    4    4    0    0  0.48918718532E+01 -0.17935323879E+02 -0.80365083316E+01  0.20253190342E+02  0.00000000000E+00 0. -1.
</event>
<event>
 8    1  0.2527138E-006  0.9118800E+02  0.7816164E-02  0.1184000E+00
        -11   -1    0    0    0    0  0.00000000000E+00  0.00000000000E+00  0.45593999997E+02  0.45594000000E+02  0.51100000000E-03 0.  1.
         11   -1    0    0    0    0 -0.00000000000E+00 -0.00000000000E+00 -0.45593999997E+02  0.45594000000E+02  0.51100000000E-03 0. -1.
         23    2    1    2    0    0 -0.35527136788E-14  0.00000000000E+00 -0.17763568394E-14  0.91188000000E+02  0.91188000000E+02 0.  0.
    9900012    2    3    3    0    0  0.31546794086E+02 -0.16582853379E+02 -0.92513770098E+01  0.54367092625E+02  0.40000019258E+02 0.  0.
        -12    1    3    3    0    0 -0.31546794086E+02  0.16582853379E+02  0.92513770098E+01  0.36820907375E+02  0.00000000000E+00 0.  1.
         11    1    4    4    0    0  0.20344339761E+02  0.17572585523E+00 -0.33364870086E+01  0.20616866535E+02  0.51100000000E-03 0. -1.
        -11    1    4    4    0    0 -0.39110117053E+01 -0.87331314457E+01  0.73769409755E+01  0.12082336522E+02  0.51100000000E-03 0.  1.
        -12    1    4    4    0    0  0.15113466030E+02 -0.80254477887E+01 -0.13291830977E+02  0.21667889569E+02  0.00000000000E+00 0.  1.
</event>
<event>
 8    1  0.2527138E-006  0.9118800E+02  0.7816164E-02  0.1184000E+00
        -11   -1    0    0    0    0  0.00000000000E+00  0.00000000000E+00  0.45593999997E+02  0.45594000000E+02  0.51100000000E-03 0.  1.
         11   -1    0    0    0    0 -0.00000000000E+00 -0.00000000000E+00 -0.45593999997E+02  0.45594000000E+02  0.51100000000E-03 0. -1.
         23    2    1    2    0    0  0.00000000000E+00  0.00000000000E+00  0.00000000000E+00  0.91188000000E+02  0.91188000000E+02 0.  0.
    9900012    2    3    3    0    0  0.24577416772E+01  0.34314244017E+02  0.13125217575E+02  0.54367093262E+02  0.40000020709E+02 0.  0.
         12    1    3    3    0    0 -0.24577416772E+01 -0.34314244017E+02 -0.13125217575E+02  0.36820906738E+02  0.00000000000E+00 0. -1.
         11    1    4    4    0    0 -0.45438765545E+00 -0.86742907377E+01 -0.29012132585E-01  0.86862322044E+01  0.51100000000E-03 0. -1.
        -11    1    4    4    0    0  0.27899069771E+01  0.32217819431E+02  0.63959503217E+01  0.32964824444E+02  0.51100000000E-03 0.  1.
         12    1    4    4    0    0  0.12222235556E+00  0.10770715324E+02  0.67582793861E+01  0.12716036614E+02  0.00000000000E+00 0. -1.
</event>
<event>
 8    1  0.2527138E-006  0.9118800E+02  0.7816164E-02  0.1184000E+00
        -11   -1    0    0    0    0  0.00000000000E+00  0.00000000000E+00  0.45593999997E+02  0.45594000000E+02  0.51100000000E-03 0.  1.
         11   -1    0    0    0    0 -0.00000000000E+00 -0.00000000000E+00 -0.45593999997E+02  0.45594000000E+02  0.51100000000E-03 0. -1.
         23    2    1    2    0    0  0.00000000000E+00  0.17763568394E-14  0.00000000000E+00  0.91188000000E+02  0.91188000000E+02 0.  0.
    9900012    2    3    3    0    0 -0.37171165379E+01 -0.10531046552E+02 -0.35086471620E+02  0.54367076769E+02  0.39999983110E+02 0.  0.
        -12    1    3    3    0    0  0.37171165379E+01  0.10531046552E+02  0.35086471620E+02  0.36820923231E+02  0.00000000000E+00 0.  1.
         11    1    4    4    0    0 -0.11670791232E+01  0.27752371510E+01 -0.42825600668E+01  0.52349150816E+01  0.51100000000E-03 0. -1.
        -11    1    4    4    0    0  0.84722437261E+00  0.40078010186E+01  0.66043464286E+01  0.77715925107E+01  0.51100000000E-03 0.  1.
        -12    1    4    4    0    0 -0.33972617874E+01 -0.17314084722E+02 -0.37408257982E+02  0.41360569177E+02  0.00000000000E+00 0.  1.
</event>
<event>
 8    1  0.2527138E-006  0.9118800E+02  0.7816164E-02  0.1184000E+00
        -11   -1    0    0    0    0  0.00000000000E+00  0.00000000000E+00  0.45593999997E+02  0.45594000000E+02  0.51100000000E-03 0. -1.
         11   -1    0    0    0    0 -0.00000000000E+00 -0.00000000000E+00 -0.45593999997E+02  0.45594000000E+02  0.51100000000E-03 0.  1.
         23    2    1    2    0    0  0.00000000000E+00  0.00000000000E+00  0.00000000000E+00  0.91188000000E+02  0.91188000000E+02 0.  0.
    9900012    2    3    3    0    0  0.13000379085E+02 -0.32241080032E+02 -0.12136026122E+02  0.54367078936E+02  0.39999988050E+02 0.  0.
         12    1    3    3    0    0 -0.13000379085E+02  0.32241080032E+02  0.12136026122E+02  0.36820921064E+02  0.00000000000E+00 0. -1.
         11    1    4    4    0    0 -0.68798878456E+01 -0.21922312585E+01  0.83398733154E+01  0.11031419756E+02  0.51100000000E-03 0. -1.
        -11    1    4    4    0    0  0.85175787782E+01 -0.22701278158E+02 -0.16137362710E+02  0.29125790182E+02  0.51100000000E-03 0.  1.
        -12    1    4    4    0    0  0.11362688152E+02 -0.73475706152E+01 -0.43385367282E+01  0.14209868998E+02  0.00000000000E+00 0.  1.
</event>
<event>
 8    1  0.2527138E-006  0.9118800E+02  0.7816164E-02  0.1184000E+00
        -11   -1    0    0    0    0  0.00000000000E+00  0.00000000000E+00  0.45593999997E+02  0.45594000000E+02  0.51100000000E-03 0.  1.
         11   -1    0    0    0    0 -0.00000000000E+00 -0.00000000000E+00 -0.45593999997E+02  0.45594000000E+02  0.51100000000E-03 0. -1.
         23    2    1    2    0    0 -0.35527136788E-14 -0.17763568394E-14  0.00000000000E+00  0.91188000000E+02  0.91188000000E+02 0.  0.
    9900012    2    3    3    0    0  0.27887463928E+02 -0.15854175218E+02  0.18075225480E+02  0.54367091642E+02  0.40000017016E+02 0.  0.
         12    1    3    3    0    0 -0.27887463928E+02  0.15854175218E+02 -0.18075225480E+02  0.36820908358E+02  0.00000000000E+00 0. -1.
         11    1    4    4    0    0 -0.34533309900E+01  0.63511793726E+01  0.74959529316E+01  0.10414042681E+02  0.51100000000E-03 0. -1.
        -11    1    4    4    0    0  0.23552900788E+02 -0.10813177132E+02 -0.10044774473E+01  0.25935938588E+02  0.51100000000E-03 0.  1.
        -12    1    4    4    0    0  0.77878941295E+01 -0.11392177460E+02  0.11583749995E+02  0.18017110373E+02  0.00000000000E+00 0.  1.
</event>
<event>
 8    1  0.2527138E-006  0.9118800E+02  0.7816164E-02  0.1184000E+00
        -11   -1    0    0    0    0  0.00000000000E+00  0.00000000000E+00  0.45593999997E+02  0.45594000000E+02  0.51100000000E-03 0.  1.
         11   -1    0    0    0    0 -0.00000000000E+00 -0.00000000000E+00 -0.45593999997E+02  0.45594000000E+02  0.51100000000E-03 0. -1.
         23    2    1    2    0    0  0.00000000000E+00  0.00000000000E+00  0.00000000000E+00  0.91188000000E+02  0.91188000000E+02 0.  0.
    9900012    2    3    3    0    0 -0.95110128676E+01  0.31381100859E+02 -0.16749540721E+02  0.54367082422E+02  0.39999995997E+02 0.  0.
        -12    1    3    3    0    0  0.95110128676E+01 -0.31381100859E+02  0.16749540721E+02  0.36820917578E+02  0.00000000000E+00 0.  1.
         11    1    4    4    0    0 -0.13114228912E+02  0.13879717084E+02 -0.16165906568E+01  0.19163582961E+02  0.51100000000E-03 0. -1.
        -11    1    4    4    0    0 -0.97105350079E+01  0.38817384704E+01 -0.11973189775E+02  0.15897158782E+02  0.51100000000E-03 0.  1.
        -12    1    4    4    0    0  0.13313751053E+02  0.13619645305E+02 -0.31597602901E+01  0.19306340679E+02  0.00000000000E+00 0.  1.
</event>
<event>
 8    1  0.2527138E-006  0.9118800E+02  0.7816164E-02  0.1184000E+00
        -11   -1    0    0    0    0  0.00000000000E+00  0.00000000000E+00  0.45593999997E+02  0.45594000000E+02  0.51100000000E-03 0. -1.
         11   -1    0    0    0    0 -0.00000000000E+00 -0.00000000000E+00 -0.45593999997E+02  0.45594000000E+02  0.51100000000E-03 0.  1.
         23    2    1    2    0    0 -0.35527136788E-14  0.00000000000E+00  0.17763568394E-14  0.91188000000E+02  0.91188000000E+02 0.  0.
    9900012    2    3    3    0    0 -0.17083973034E+02  0.30601909983E+02 -0.11288977956E+02  0.54367081319E+02  0.39999993483E+02 0.  0.
         12    1    3    3    0    0  0.17083973034E+02 -0.30601909983E+02  0.11288977956E+02  0.36820918681E+02  0.00000000000E+00 0. -1.
         11    1    4    4    0    0  0.23122487518E+01  0.13935488942E+02  0.37821665998E+01  0.14623581326E+02  0.51100000000E-03 0. -1.
        -11    1    4    4    0    0  0.30242827789E+01  0.98852327528E+01 -0.12436984219E+02  0.16172281522E+02  0.51100000000E-03 0.  1.
         12    1    4    4    0    0 -0.22420504565E+02  0.67811882881E+01 -0.26341603373E+01  0.23571218471E+02  0.00000000000E+00 0. -1.
</event>
<event>
 8    1  0.2527138E-006  0.9118800E+02  0.7816164E-02  0.1184000E+00
        -11   -1    0    0    0    0  0.00000000000E+00  0.00000000000E+00  0.45593999997E+02  0.45594000000E+02  0.51100000000E-03 0.  1.
         11   -1    0    0    0    0 -0.00000000000E+00 -0.00000000000E+00 -0.45593999997E+02  0.45594000000E+02  0.51100000000E-03 0. -1.
         23    2    1    2    0    0 -0.44408920985E-15  0.00000000000E+00 -0.22204460493E-15  0.91188000000E+02  0.91188000000E+02 0.  0.
    9900012    2    3    3    0    0 -0.18481931940E+01  0.36767708583E+02  0.70676486476E+00  0.54367085711E+02  0.40000003495E+02 0.  0.
         12    1    3    3    0    0  0.18481931940E+01 -0.36767708583E+02 -0.70676486476E+00  0.36820914289E+02  0.00000000000E+00 0. -1.
         11    1    4    4    0    0  0.73635150692E+01 -0.41291115119E+01 -0.22344252887E+01  0.87329017334E+01  0.51100000000E-03 0. -1.
        -11    1    4    4    0    0  0.33486022801E+01  0.20459872269E+02  0.56644111537E+01  0.21491976746E+02  0.51100000000E-03 0.  1.
        -12    1    4    4    0    0 -0.12560310543E+02  0.20436947826E+02 -0.27232210002E+01  0.24142207231E+02  0.00000000000E+00 0.  1.
</event>
<event>
 8    1  0.2527138E-006  0.9118800E+02  0.7816164E-02  0.1184000E+00
        -11   -1    0    0    0    0  0.00000000000E+00  0.00000000000E+00  0.45593999997E+02  0.45594000000E+02  0.51100000000E-03 0.  1.
         11   -1    0    0    0    0 -0.00000000000E+00 -0.00000000000E+00 -0.45593999997E+02  0.45594000000E+02  0.51100000000E-03 0. -1.
         23    2    1    2    0    0  0.00000000000E+00  0.17763568394E-14  0.00000000000E+00  0.91188000000E+02  0.91188000000E+02 0.  0.
    9900012    2    3    3    0    0  0.97788770985E+01 -0.12337974174E+02  0.33285545346E+02  0.54367087830E+02  0.40000008326E+02 0.  0.
         12    1    3    3    0    0 -0.97788770985E+01  0.12337974174E+02 -0.33285545346E+02  0.36820912170E+02  0.00000000000E+00 0. -1.
         11    1    4    4    0    0 -0.11199527034E+01 -0.44569951690E+01 -0.84847082800E+00  0.46732219080E+01  0.51100000000E-03 0. -1.
        -11    1    4    4    0    0 -0.87702218880E+01  0.28385696908E+01  0.43422376349E+00  0.92283704083E+01  0.51100000000E-03 0.  1.
        -12    1    4    4    0    0  0.19669051690E+02 -0.10719548696E+02  0.33699792411E+02  0.40465495514E+02  0.00000000000E+00 0.  1.
</event>
<event>
 8    1  0.2527138E-006  0.9118800E+02  0.7816164E-02  0.1184000E+00
        -11   -1    0    0    0    0  0.00000000000E+00  0.00000000000E+00  0.45593999997E+02  0.45594000000E+02  0.51100000000E-03 0.  1.
         11   -1    0    0    0    0 -0.00000000000E+00 -0.00000000000E+00 -0.45593999997E+02  0.45594000000E+02  0.51100000000E-03 0. -1.
         23    2    1    2    0    0 -0.17763568394E-14 -0.17763568394E-14  0.00000000000E+00  0.91188000000E+02  0.91188000000E+02 0.  0.
    9900012    2    3    3    0    0  0.94032551187E+01 -0.10982865159E+02  0.33863495106E+02  0.54367070697E+02  0.39999969269E+02 0.  0.
         12    1    3    3    0    0 -0.94032551187E+01  0.10982865159E+02 -0.33863495106E+02  0.36820929303E+02  0.00000000000E+00 0. -1.
         11    1    4    4    0    0  0.17189950627E+02 -0.11462855512E+02  0.19764692745E+02  0.28592560896E+02  0.51100000000E-03 0. -1.
        -11    1    4    4    0    0  0.33495090417E+01  0.33933420439E+01  0.13421900509E+02  0.14243644006E+02  0.51100000000E-03 0.  1.
         12    1    4    4    0    0 -0.11136204550E+02 -0.29133516915E+01  0.67690185168E+00  0.11530865795E+02  0.00000000000E+00 0. -1.
</event>
<event>
 8    1  0.2527138E-006  0.9118800E+02  0.7816164E-02  0.1184000E+00
        -11   -1    0    0    0    0  0.00000000000E+00  0.00000000000E+00  0.45593999997E+02  0.45594000000E+02  0.51100000000E-03 0.  1.
         11   -1    0    0    0    0 -0.00000000000E+00 -0.00000000000E+00 -0.45593999997E+02  0.45594000000E+02  0.51100000000E-03 0. -1.
         23    2    1    2    0    0 -0.35527136788E-14  0.00000000000E+00  0.00000000000E+00  0.91188000000E+02  0.91188000000E+02 0.  0.
    9900012    2    3    3    0    0  0.25165194080E+02 -0.21400809815E+02 -0.16263704784E+02  0.54366949674E+02  0.39999693370E+02 0.  0.
        -12    1    3    3    0    0 -0.25165194080E+02  0.21400809815E+02  0.16263704784E+02  0.36821050326E+02  0.00000000000E+00 0.  1.
         11    1    4    4    0    0  0.22917586789E+02 -0.66515902861E+01 -0.10717995341E+02  0.26159794762E+02  0.51100000000E-03 0. -1.
        -11    1    4    4    0    0  0.25525040559E+01 -0.15949020753E+02  0.55224558639E+01  0.17069975365E+02  0.51100000000E-03 0.  1.
        -12    1    4    4    0    0 -0.30489676515E+00  0.11998012237E+01 -0.11068165307E+02  0.11137179548E+02  0.00000000000E+00 0.  1.
</event>
<event>
 8    1  0.2527138E-006  0.9118800E+02  0.7816164E-02  0.1184000E+00
        -11   -1    0    0    0    0  0.00000000000E+00  0.00000000000E+00  0.45593999997E+02  0.45594000000E+02  0.51100000000E-03 0. -1.
         11   -1    0    0    0    0 -0.00000000000E+00 -0.00000000000E+00 -0.45593999997E+02  0.45594000000E+02  0.51100000000E-03 0.  1.
         23    2    1    2    0    0  0.00000000000E+00  0.35527136788E-14  0.35527136788E-14  0.91188000000E+02  0.91188000000E+02 0.  0.
    9900012    2    3    3    0    0  0.22119056398E+02  0.24481374835E+02  0.16345935613E+02  0.54367082292E+02  0.39999995702E+02 0.  0.
        -12    1    3    3    0    0 -0.22119056398E+02 -0.24481374835E+02 -0.16345935613E+02  0.36820917708E+02  0.00000000000E+00 0.  1.
         11    1    4    4    0    0  0.30700500055E+01  0.61843993724E-01  0.69889002873E+01  0.76337251197E+01  0.51100000000E-03 0. -1.
        -11    1    4    4    0    0  0.19861486028E+01  0.64512609072E+01  0.18985219557E+02  0.20149494173E+02  0.51100000000E-03 0.  1.
        -12    1    4    4    0    0  0.17062857790E+02  0.17968269934E+02 -0.96281842311E+01  0.26583863000E+02  0.00000000000E+00 0.  1.
</event>
<event>
 8    1  0.2527138E-006  0.9118800E+02  0.7816164E-02  0.1184000E+00
        -11   -1    0    0    0    0  0.00000000000E+00  0.00000000000E+00  0.45593999997E+02  0.45594000000E+02  0.51100000000E-03 0.  1.
         11   -1    0    0    0    0 -0.00000000000E+00 -0.00000000000E+00 -0.45593999997E+02  0.45594000000E+02  0.51100000000E-03 0. -1.
         23    2    1    2    0    0 -0.71054273576E-14  0.17763568394E-14 -0.17763568394E-14  0.91188000000E+02  0.91188000000E+02 0.  0.
    9900012    2    3    3    0    0  0.35209757385E+02 -0.97137993682E+01  0.46575526670E+01  0.54367113127E+02  0.40000065995E+02 0.  0.
         12    1    3    3    0    0 -0.35209757385E+02  0.97137993682E+01 -0.46575526670E+01  0.36820886873E+02  0.00000000000E+00 0. -1.
         11    1    4    4    0    0  0.14705073385E+02 -0.83849858760E+01 -0.60651272426E+01  0.17981461012E+02  0.51100000000E-03 0. -1.
        -11    1    4    4    0    0  0.27011636499E+02  0.18524500357E+01  0.10780599400E+02  0.29142433001E+02  0.51100000000E-03 0.  1.
         12    1    4    4    0    0 -0.65069524994E+01 -0.31812635279E+01 -0.57919490682E-01  0.72432191138E+01  0.00000000000E+00 0. -1.
</event>
<event>
 8    1  0.2527138E-006  0.9118800E+02  0.7816164E-02  0.1184000E+00
        -11   -1    0    0    0    0  0.00000000000E+00  0.00000000000E+00  0.45593999997E+02  0.45594000000E+02  0.51100000000E-03 0.  1.
         11   -1    0    0    0    0 -0.00000000000E+00 -0.00000000000E+00 -0.45593999997E+02  0.45594000000E+02  0.51100000000E-03 0. -1.
         23    2    1    2    0    0  0.00000000000E+00  0.35527136788E-14  0.00000000000E+00  0.91188000000E+02  0.91188000000E+02 0.  0.
    9900012    2    3    3    0    0 -0.21750831882E+02 -0.19763913356E+02  0.22182628133E+02  0.54367082717E+02  0.39999996669E+02 0.  0.
         12    1    3    3    0    0  0.21750831882E+02  0.19763913356E+02 -0.22182628133E+02  0.36820917283E+02  0.00000000000E+00 0. -1.
         11    1    4    4    0    0 -0.11500793703E+02 -0.14293243013E+02  0.96587013362E+01  0.20732958385E+02  0.51100000000E-03 0. -1.
        -11    1    4    4    0    0 -0.17221317334E+02  0.41565924592E+01  0.12613655551E+02  0.21747536371E+02  0.51100000000E-03 0.  1.
        -12    1    4    4    0    0  0.69712791546E+01 -0.96272628021E+01 -0.89728753954E-01  0.11886587961E+02  0.00000000000E+00 0.  1.
</event>
<event>
 8    1  0.2527138E-006  0.9118800E+02  0.7816164E-02  0.1184000E+00
        -11   -1    0    0    0    0  0.00000000000E+00  0.00000000000E+00  0.45593999997E+02  0.45594000000E+02  0.51100000000E-03 0. -1.
         11   -1    0    0    0    0 -0.00000000000E+00 -0.00000000000E+00 -0.45593999997E+02  0.45594000000E+02  0.51100000000E-03 0.  1.
         23    2    1    2    0    0 -0.35527136788E-14 -0.44408920985E-15 -0.71054273576E-14  0.91188000000E+02  0.91188000000E+02 0.  0.
    9900012    2    3    3    0    0 -0.21513229933E+02 -0.37770267663E+01 -0.29642777620E+02  0.54367092103E+02  0.40000018068E+02 0.  0.
         12    1    3    3    0    0  0.21513229933E+02  0.37770267663E+01  0.29642777620E+02  0.36820907897E+02  0.00000000000E+00 0. -1.
         11    1    4    4    0    0 -0.14648171477E+02 -0.24823077377E+01 -0.82078472914E+01  0.16973495125E+02  0.51100000000E-03 0. -1.
        -11    1    4    4    0    0  0.16955395279E+01  0.97954595554E+01 -0.21162463117E+02  0.23381097657E+02  0.51100000000E-03 0.  1.
         12    1    4    4    0    0 -0.85605979838E+01 -0.11090178584E+02 -0.27246721132E+00  0.14012499322E+02  0.00000000000E+00 0. -1.
</event>
<event>
 8    1  0.2527138E-006  0.9118800E+02  0.7816164E-02  0.1184000E+00
        -11   -1    0    0    0    0  0.00000000000E+00  0.00000000000E+00  0.45593999997E+02  0.45594000000E+02  0.51100000000E-03 0.  1.
         11   -1    0    0    0    0 -0.00000000000E+00 -0.00000000000E+00 -0.45593999997E+02  0.45594000000E+02  0.51100000000E-03 0. -1.
         23    2    1    2    0    0  0.00000000000E+00  0.17763568394E-14 -0.17763568394E-14  0.91188000000E+02  0.91188000000E+02 0.  0.
    9900012    2    3    3    0    0 -0.34371758609E+02 -0.11665269773E+02 -0.61873197679E+01  0.54367092425E+02  0.40000018801E+02 0.  0.
        -12    1    3    3    0    0  0.34371758609E+02  0.11665269773E+02  0.61873197679E+01  0.36820907575E+02  0.00000000000E+00 0.  1.
         11    1    4    4    0    0 -0.13125870749E+02 -0.16059651169E+02 -0.13691411152E+02  0.24852678290E+02  0.51100000000E-03 0. -1.
        -11    1    4    4    0    0 -0.19792477901E+02 -0.33743034466E+01  0.26828858558E+01  0.20256504683E+02  0.51100000000E-03 0.  1.
        -12    1    4    4    0    0 -0.14534099591E+01  0.77686848419E+01  0.48212055283E+01  0.92579094524E+01  0.00000000000E+00 0.  1.
</event>
<event>
 8    1  0.2527138E-006  0.9118800E+02  0.7816164E-02  0.1184000E+00
        -11   -1    0    0    0    0  0.00000000000E+00  0.00000000000E+00  0.45593999997E+02  0.45594000000E+02  0.51100000000E-03 0.  1.
         11   -1    0    0    0    0 -0.00000000000E+00 -0.00000000000E+00 -0.45593999997E+02  0.45594000000E+02  0.51100000000E-03 0. -1.
         23    2    1    2    0    0  0.00000000000E+00 -0.35527136788E-14  0.17763568394E-14  0.91188000000E+02  0.91188000000E+02 0.  0.
    9900012    2    3    3    0    0  0.24225218839E+02  0.22903519488E+02  0.15631631619E+02  0.54367077418E+02  0.39999984589E+02 0.  0.
         12    1    3    3    0    0 -0.24225218839E+02 -0.22903519488E+02 -0.15631631619E+02  0.36820922582E+02  0.00000000000E+00 0. -1.
         11    1    4    4    0    0  0.84119065600E+01  0.98664923619E+01 -0.44039400802E+01  0.13693156393E+02  0.51100000000E-03 0. -1.
        -11    1    4    4    0    0  0.12640563674E+02 -0.30465237495E+01 -0.20561582574E+01  0.13164077788E+02  0.51100000000E-03 0.  1.
        -12    1    4    4    0    0  0.31727486048E+01  0.16083550876E+02  0.22091729956E+02  0.27509843237E+02  0.00000000000E+00 0.  1.
</event>
<event>
 8    1  0.2527138E-006  0.9118800E+02  0.7816164E-02  0.1184000E+00
        -11   -1    0    0    0    0  0.00000000000E+00  0.00000000000E+00  0.45593999997E+02  0.45594000000E+02  0.51100000000E-03 0. -1.
         11   -1    0    0    0    0 -0.00000000000E+00 -0.00000000000E+00 -0.45593999997E+02  0.45594000000E+02  0.51100000000E-03 0.  1.
         23    2    1    2    0    0  0.00000000000E+00  0.22204460493E-15 -0.71054273576E-14  0.91188000000E+02  0.91188000000E+02 0.  0.
    9900012    2    3    3    0    0  0.10565862166E+02  0.10484957227E+01  0.35256837391E+02  0.54367063437E+02  0.39999952717E+02 0.  0.
        -12    1    3    3    0    0 -0.10565862166E+02 -0.10484957227E+01 -0.35256837391E+02  0.36820936563E+02  0.00000000000E+00 0.  1.
         11    1    4    4    0    0 -0.41539194989E+01 -0.19944850535E+01 -0.24797623637E+01  0.52328041692E+01  0.51100000000E-03 0.  1.
        -11    1    4    4    0    0  0.13848713556E+02  0.14298102444E+02  0.20889693733E+02  0.28854841971E+02  0.51100000000E-03 0. -1.
         12    1    4    4    0    0  0.87106810904E+00 -0.11255121667E+02  0.16846906021E+02  0.20279417297E+02  0.00000000000E+00 0. -1.
</event>
<event>
 8    1  0.2527138E-006  0.9118800E+02  0.7816164E-02  0.1184000E+00
        -11   -1    0    0    0    0  0.00000000000E+00  0.00000000000E+00  0.45593999997E+02  0.45594000000E+02  0.51100000000E-03 0.  1.
         11   -1    0    0    0    0 -0.00000000000E+00 -0.00000000000E+00 -0.45593999997E+02  0.45594000000E+02  0.51100000000E-03 0. -1.
         23    2    1    2    0    0  0.00000000000E+00  0.88817841970E-15  0.00000000000E+00  0.91188000000E+02  0.91188000000E+02 0.  0.
    9900012    2    3    3    0    0 -0.20618587120E+02  0.69338116945E+01 -0.29708187391E+02  0.54367078264E+02  0.39999986518E+02 0.  0.
        -12    1    3    3    0    0  0.20618587120E+02 -0.69338116945E+01  0.29708187391E+02  0.36820921736E+02  0.00000000000E+00 0.  1.
         11    1    4    4    0    0  0.30046596081E+01  0.26319050890E+00 -0.15092034412E+02  0.15390476002E+02  0.51100000000E-03 0. -1.
        -11    1    4    4    0    0 -0.55819762853E+01  0.95495123246E+00  0.78005898980E+01  0.96394810091E+01  0.51100000000E-03 0.  1.
        -12    1    4    4    0    0 -0.18041270443E+02  0.57156699531E+01 -0.22416742877E+02  0.29337121253E+02  0.00000000000E+00 0.  1.
</event>
<event>
 8    1  0.2527138E-006  0.9118800E+02  0.7816164E-02  0.1184000E+00
        -11   -1    0    0    0    0  0.00000000000E+00  0.00000000000E+00  0.45593999997E+02  0.45594000000E+02  0.51100000000E-03 0. -1.
         11   -1    0    0    0    0 -0.00000000000E+00 -0.00000000000E+00 -0.45593999997E+02  0.45594000000E+02  0.51100000000E-03 0.  1.
         23    2    1    2    0    0  0.00000000000E+00  0.00000000000E+00  0.00000000000E+00  0.91188000000E+02  0.91188000000E+02 0.  0.
    9900012    2    3    3    0    0  0.42673286651E+01  0.31015230144E+02  0.19381044060E+02  0.54367089315E+02  0.40000011711E+02 0.  0.
        -12    1    3    3    0    0 -0.42673286651E+01 -0.31015230144E+02 -0.19381044060E+02  0.36820910685E+02  0.00000000000E+00 0.  1.
         11    1    4    4    0    0  0.96307334615E+01 -0.21610836762E+01  0.10746880322E+01  0.99285580167E+01  0.51100000000E-03 0. -1.
        -11    1    4    4    0    0  0.78503664072E+01  0.17680559291E+02  0.13274016997E+02  0.23461243724E+02  0.51100000000E-03 0.  1.
        -12    1    4    4    0    0 -0.13213771204E+02  0.15495754529E+02  0.50323390303E+01  0.20977287574E+02  0.00000000000E+00 0.  1.
</event>
<event>
 8    1  0.2527138E-006  0.9118800E+02  0.7816164E-02  0.1184000E+00
        -11   -1    0    0    0    0  0.00000000000E+00  0.00000000000E+00  0.45593999997E+02  0.45594000000E+02  0.51100000000E-03 0.  1.
         11   -1    0    0    0    0 -0.00000000000E+00 -0.00000000000E+00 -0.45593999997E+02  0.45594000000E+02  0.51100000000E-03 0. -1.
         23    2    1    2    0    0  0.00000000000E+00  0.35527136788E-14 -0.35527136788E-14  0.91188000000E+02  0.91188000000E+02 0.  0.
    9900012    2    3    3    0    0  0.81800793929E+01  0.24941005689E+02  0.25822704774E+02  0.54367088204E+02  0.40000009178E+02 0.  0.
         12    1    3    3    0    0 -0.81800793929E+01 -0.24941005689E+02 -0.25822704774E+02  0.36820911796E+02  0.00000000000E+00 0. -1.
         11    1    4    4    0    0 -0.48560665694E+01 -0.17694062284E+01 -0.17587954950E+01  0.54594452815E+01  0.51100000000E-03 0. -1.
        -11    1    4    4    0    0  0.15772488476E+02  0.16760159163E+02  0.30475952194E+02  0.38189762899E+02  0.51100000000E-03 0.  1.
        -12    1    4    4    0    0 -0.27363425140E+01  0.99502527545E+01 -0.28944519250E+01  0.10717880023E+02  0.00000000000E+00 0.  1.
</event>
<event>
 8    1  0.2527138E-006  0.9118800E+02  0.7816164E-02  0.1184000E+00
        -11   -1    0    0    0    0  0.00000000000E+00  0.00000000000E+00  0.45593999997E+02  0.45594000000E+02  0.51100000000E-03 0.  1.
         11   -1    0    0    0    0 -0.00000000000E+00 -0.00000000000E+00 -0.45593999997E+02  0.45594000000E+02  0.51100000000E-03 0. -1.
         23    2    1    2    0    0  0.00000000000E+00  0.00000000000E+00  0.35527136788E-14  0.91188000000E+02  0.91188000000E+02 0.  0.
    9900012    2    3    3    0    0 -0.29056097329E+02  0.78168801530E+01  0.21223090588E+02  0.54367082284E+02  0.39999995684E+02 0.  0.
         12    1    3    3    0    0  0.29056097329E+02 -0.78168801530E+01 -0.21223090588E+02  0.36820917716E+02  0.00000000000E+00 0. -1.
         11    1    4    4    0    0  0.63177825139E+01 -0.67660709346E+01  0.22316805280E+01  0.95223153711E+01  0.51100000000E-03 0. -1.
        -11    1    4    4    0    0 -0.22344825754E+02  0.27034120874E+01  0.14052326989E+02  0.26534271593E+02  0.51100000000E-03 0.  1.
         12    1    4    4    0    0 -0.13029054088E+02  0.11879539000E+02  0.49390830715E+01  0.18310495320E+02  0.00000000000E+00 0. -1.
</event>
<event>
 8    1  0.2527138E-006  0.9118800E+02  0.7816164E-02  0.1184000E+00
        -11   -1    0    0    0    0  0.00000000000E+00  0.00000000000E+00  0.45593999997E+02  0.45594000000E+02  0.51100000000E-03 0. -1.
         11   -1    0    0    0    0 -0.00000000000E+00 -0.00000000000E+00 -0.45593999997E+02  0.45594000000E+02  0.51100000000E-03 0.  1.
         23    2    1    2    0    0  0.00000000000E+00 -0.22204460493E-15  0.00000000000E+00  0.91188000000E+02  0.91188000000E+02 0.  0.
    9900012    2    3    3    0    0 -0.24330063639E+02 -0.58674490012E+00  0.27631207655E+02  0.54367083353E+02  0.39999998120E+02 0.  0.
        -12    1    3    3    0    0  0.24330063639E+02  0.58674490012E+00 -0.27631207655E+02  0.36820916647E+02  0.00000000000E+00 0.  1.
         11    1    4    4    0    0 -0.62626100959E+01 -0.79753948814E+01  0.14588296583E+02  0.17766417933E+02  0.51100000000E-03 0. -1.
        -11    1    4    4    0    0 -0.22495228241E+00 -0.55040929958E+01  0.13502255635E+02  0.14582748395E+02  0.51100000000E-03 0.  1.
        -12    1    4    4    0    0 -0.17842501260E+02  0.12892742977E+02 -0.45934456354E+00  0.22017917025E+02  0.00000000000E+00 0.  1.
</event>
<event>
 8    1  0.2527138E-006  0.9118800E+02  0.7816164E-02  0.1184000E+00
        -11   -1    0    0    0    0  0.00000000000E+00  0.00000000000E+00  0.45593999997E+02  0.45594000000E+02  0.51100000000E-03 0. -1.
         11   -1    0    0    0    0 -0.00000000000E+00 -0.00000000000E+00 -0.45593999997E+02  0.45594000000E+02  0.51100000000E-03 0.  1.
         23    2    1    2    0    0  0.00000000000E+00  0.00000000000E+00  0.61062266354E-15  0.91188000000E+02  0.91188000000E+02 0.  0.
    9900012    2    3    3    0    0 -0.16250509640E+02 -0.33039639735E+02 -0.28792230097E+00  0.54367085337E+02  0.40000002642E+02 0.  0.
         12    1    3    3    0    0  0.16250509640E+02  0.33039639735E+02  0.28792230097E+00  0.36820914663E+02  0.00000000000E+00 0. -1.
         11    1    4    4    0    0 -0.22175621998E+02 -0.27403638128E+02  0.66135860311E+01  0.35867215031E+02  0.51100000000E-03 0. -1.
        -11    1    4    4    0    0 -0.23456981173E+01 -0.35856436722E+01 -0.87839290786E+01  0.97732569044E+01  0.51100000000E-03 0.  1.
         12    1    4    4    0    0  0.82708104755E+01 -0.20503579352E+01  0.18824207465E+01  0.87266134010E+01  0.00000000000E+00 0. -1.
</event>
<event>
 8    1  0.2527138E-006  0.9118800E+02  0.7816164E-02  0.1184000E+00
        -11   -1    0    0    0    0  0.00000000000E+00  0.00000000000E+00  0.45593999997E+02  0.45594000000E+02  0.51100000000E-03 0. -1.
         11   -1    0    0    0    0 -0.00000000000E+00 -0.00000000000E+00 -0.45593999997E+02  0.45594000000E+02  0.51100000000E-03 0.  1.
         23    2    1    2    0    0 -0.35527136788E-14  0.00000000000E+00  0.35527136788E-14  0.91188000000E+02  0.91188000000E+02 0.  0.
    9900012    2    3    3    0    0  0.27217223407E+02 -0.13108678097E+02 -0.21051480445E+02  0.54367088545E+02  0.40000009957E+02 0.  0.
         12    1    3    3    0    0 -0.27217223407E+02  0.13108678097E+02  0.21051480445E+02  0.36820911455E+02  0.00000000000E+00 0. -1.
         11    1    4    4    0    0  0.17455031610E+02 -0.50723160810E+01 -0.80287364336E+01  0.19871263873E+02  0.51100000000E-03 0. -1.
        -11    1    4    4    0    0  0.19884460425E+02 -0.88591891770E+01 -0.83251607730E+01  0.23306336079E+02  0.51100000000E-03 0.  1.
         12    1    4    4    0    0 -0.10122268628E+02  0.82282716140E+00 -0.46975832381E+01  0.11189488593E+02  0.00000000000E+00 0. -1.
</event>
<event>
 8    1  0.2527138E-006  0.9118800E+02  0.7816164E-02  0.1184000E+00
        -11   -1    0    0    0    0  0.00000000000E+00  0.00000000000E+00  0.45593999997E+02  0.45594000000E+02  0.51100000000E-03 0.  1.
         11   -1    0    0    0    0 -0.00000000000E+00 -0.00000000000E+00 -0.45593999997E+02  0.45594000000E+02  0.51100000000E-03 0. -1.
         23    2    1    2    0    0  0.17763568394E-14  0.00000000000E+00 -0.35527136788E-14  0.91188000000E+02  0.91188000000E+02 0.  0.
    9900012    2    3    3    0    0  0.15800374594E+02 -0.22965080963E+02 -0.24056861708E+02  0.54367090503E+02  0.40000014419E+02 0.  0.
        -12    1    3    3    0    0 -0.15800374594E+02  0.22965080963E+02  0.24056861708E+02  0.36820909497E+02  0.00000000000E+00 0.  1.
         11    1    4    4    0    0  0.23691029903E+02 -0.12859890880E+02 -0.25549100878E+01  0.27077098389E+02  0.51100000000E-03 0. -1.
        -11    1    4    4    0    0 -0.50290846989E+00  0.21385242676E+01 -0.49550327621E+01  0.54201986040E+01  0.51100000000E-03 0.  1.
         12    1    4    4    0    0 -0.73877468397E+01 -0.12243714350E+02 -0.16546918858E+02  0.21869793510E+02  0.00000000000E+00 0. -1.
</event>
<event>
 8    1  0.2527138E-006  0.9118800E+02  0.7816164E-02  0.1184000E+00
        -11   -1    0    0    0    0  0.00000000000E+00  0.00000000000E+00  0.45593999997E+02  0.45594000000E+02  0.51100000000E-03 0.  1.
         11   -1    0    0    0    0 -0.00000000000E+00 -0.00000000000E+00 -0.45593999997E+02  0.45594000000E+02  0.51100000000E-03 0. -1.
         23    2    1    2    0    0  0.88817841970E-15 -0.35527136788E-14  0.00000000000E+00  0.91188000000E+02  0.91188000000E+02 0.  0.
    9900012    2    3    3    0    0  0.53128115432E+01  0.18124658673E+02  0.31607743114E+02  0.54367100455E+02  0.40000037108E+02 0.  0.
         12    1    3    3    0    0 -0.53128115432E+01 -0.18124658673E+02 -0.31607743114E+02  0.36820899545E+02  0.00000000000E+00 0. -1.
         11    1    4    4    0    0  0.69308551301E+01 -0.10748670128E+02  0.74811229352E+01  0.14816810149E+02  0.51100000000E-03 0. -1.
        -11    1    4    4    0    0  0.44740546055E+01  0.96302759132E+01  0.11911478809E+02  0.15957528206E+02  0.51100000000E-03 0.  1.
        -12    1    4    4    0    0 -0.60920981924E+01  0.19243052888E+02  0.12215141370E+02  0.23592762100E+02  0.00000000000E+00 0.  1.
</event>
<event>
 8    1  0.2527138E-006  0.9118800E+02  0.7816164E-02  0.1184000E+00
        -11   -1    0    0    0    0  0.00000000000E+00  0.00000000000E+00  0.45593999997E+02  0.45594000000E+02  0.51100000000E-03 0.  1.
         11   -1    0    0    0    0 -0.00000000000E+00 -0.00000000000E+00 -0.45593999997E+02  0.45594000000E+02  0.51100000000E-03 0. -1.
         23    2    1    2    0    0  0.00000000000E+00 -0.44408920985E-15 -0.88817841970E-15  0.91188000000E+02  0.91188000000E+02 0.  0.
    9900012    2    3    3    0    0  0.36239730529E+02  0.29247880523E+01 -0.58235425644E+01  0.54366999172E+02  0.39999806212E+02 0.  0.
         12    1    3    3    0    0 -0.36239730529E+02 -0.29247880523E+01  0.58235425644E+01  0.36821000828E+02  0.00000000000E+00 0. -1.
         11    1    4    4    0    0  0.18356238884E+01  0.13843406401E+01 -0.87851018415E+01  0.90809651852E+01  0.51100000000E-03 0. -1.
        -11    1    4    4    0    0  0.22148355438E+01  0.11315594098E+02  0.19940521958E+00  0.11532039238E+02  0.51100000000E-03 0.  1.
         12    1    4    4    0    0  0.32189271097E+02 -0.97751466859E+01  0.27621540575E+01  0.33753994749E+02  0.00000000000E+00 0. -1.
</event>
<event>
 8    1  0.2527138E-006  0.9118800E+02  0.7816164E-02  0.1184000E+00
        -11   -1    0    0    0    0  0.00000000000E+00  0.00000000000E+00  0.45593999997E+02  0.45594000000E+02  0.51100000000E-03 0. -1.
         11   -1    0    0    0    0 -0.00000000000E+00 -0.00000000000E+00 -0.45593999997E+02  0.45594000000E+02  0.51100000000E-03 0.  1.
         23    2    1    2    0    0 -0.35527136788E-14 -0.17763568394E-14  0.35527136788E-14  0.91188000000E+02  0.91188000000E+02 0.  0.
    9900012    2    3    3    0    0  0.28078578084E+02  0.81149012037E+01 -0.22394676784E+02  0.54367085874E+02  0.40000003868E+02 0.  0.
         12    1    3    3    0    0 -0.28078578084E+02 -0.81149012037E+01  0.22394676784E+02  0.36820914126E+02  0.00000000000E+00 0. -1.
         11    1    4    4    0    0  0.11037788446E+02  0.86729370237E+01 -0.18263352737E+02  0.23034814170E+02  0.51100000000E-03 0. -1.
        -11    1    4    4    0    0  0.23759138032E+02 -0.23636537843E+01 -0.47631198042E+01  0.24346885011E+02  0.51100000000E-03 0.  1.
         12    1    4    4    0    0 -0.67183483935E+01  0.18056179642E+01  0.63179575707E+00  0.69853866928E+01  0.00000000000E+00 0. -1.
</event>
<event>
 8    1  0.2527138E-006  0.9118800E+02  0.7816164E-02  0.1184000E+00
        -11   -1    0    0    0    0  0.00000000000E+00  0.00000000000E+00  0.45593999997E+02  0.45594000000E+02  0.51100000000E-03 0.  1.
         11   -1    0    0    0    0 -0.00000000000E+00 -0.00000000000E+00 -0.45593999997E+02  0.45594000000E+02  0.51100000000E-03 0. -1.
         23    2    1    2    0    0  0.00000000000E+00  0.00000000000E+00  0.00000000000E+00  0.91188000000E+02  0.91188000000E+02 0.  0.
    9900012    2    3    3    0    0 -0.14094064339E+02  0.87582208700E+01 -0.32869907047E+02  0.54367083775E+02  0.39999999081E+02 0.  0.
        -12    1    3    3    0    0  0.14094064339E+02 -0.87582208700E+01  0.32869907047E+02  0.36820916225E+02  0.00000000000E+00 0.  1.
         11    1    4    4    0    0 -0.50799188759E+01  0.55042317103E+01 -0.19568557071E+02  0.20953056307E+02  0.51100000000E-03 0. -1.
        -11    1    4    4    0    0 -0.18840568313E+02  0.70211143284E+01 -0.81222413743E+01  0.21684876434E+02  0.51100000000E-03 0.  1.
        -12    1    4    4    0    0  0.98264228496E+01 -0.37671251687E+01 -0.51791086018E+01  0.11729151033E+02  0.00000000000E+00 0.  1.
</event>
<event>
 8    1  0.2527138E-006  0.9118800E+02  0.7816164E-02  0.1184000E+00
        -11   -1    0    0    0    0  0.00000000000E+00  0.00000000000E+00  0.45593999997E+02  0.45594000000E+02  0.51100000000E-03 0.  1.
         11   -1    0    0    0    0 -0.00000000000E+00 -0.00000000000E+00 -0.45593999997E+02  0.45594000000E+02  0.51100000000E-03 0. -1.
         23    2    1    2    0    0  0.00000000000E+00 -0.15543122345E-14  0.17763568394E-14  0.91188000000E+02  0.91188000000E+02 0.  0.
    9900012    2    3    3    0    0 -0.34979923603E+02  0.16467588514E+01 -0.11378618850E+02  0.54367084247E+02  0.40000000157E+02 0.  0.
        -12    1    3    3    0    0  0.34979923603E+02 -0.16467588514E+01  0.11378618850E+02  0.36820915753E+02  0.00000000000E+00 0.  1.
         11    1    4    4    0    0 -0.22207899868E+01  0.13543038991E+02 -0.62960738709E+01  0.15099217189E+02  0.51100000000E-03 0. -1.
        -11    1    4    4    0    0 -0.25375283780E+02 -0.11109995286E+02 -0.10967545602E+02  0.29793020642E+02  0.51100000000E-03 0.  1.
         12    1    4    4    0    0 -0.73838498360E+01 -0.78628485316E+00  0.58850006229E+01  0.94748464158E+01  0.00000000000E+00 0. -1.
</event>
<event>
 8    1  0.2527138E-006  0.9118800E+02  0.7816164E-02  0.1184000E+00
        -11   -1    0    0    0    0  0.00000000000E+00  0.00000000000E+00  0.45593999997E+02  0.45594000000E+02  0.51100000000E-03 0.  1.
         11   -1    0    0    0    0 -0.00000000000E+00 -0.00000000000E+00 -0.45593999997E+02  0.45594000000E+02  0.51100000000E-03 0. -1.
         23    2    1    2    0    0 -0.17763568394E-14  0.17763568394E-14  0.35527136788E-14  0.91188000000E+02  0.91188000000E+02 0.  0.
    9900012    2    3    3    0    0 -0.15735234023E+02  0.14397133120E+02  0.30015083695E+02  0.54367078216E+02  0.39999986409E+02 0.  0.
         12    1    3    3    0    0  0.15735234023E+02 -0.14397133120E+02 -0.30015083695E+02  0.36820921784E+02  0.00000000000E+00 0. -1.
         11    1    4    4    0    0 -0.41496034029E+01  0.10667250505E+01 -0.45928214141E+01  0.62810126204E+01  0.51100000000E-03 0. -1.
        -11    1    4    4    0    0 -0.12362869621E+02  0.19001690614E+02  0.13877554881E+02  0.26579904462E+02  0.51100000000E-03 0.  1.
        -12    1    4    4    0    0  0.77723900055E+00 -0.56712825443E+01  0.20730350227E+02  0.21506161134E+02  0.00000000000E+00 0.  1.
</event>
<event>
 8    1  0.2527138E-006  0.9118800E+02  0.7816164E-02  0.1184000E+00
        -11   -1    0    0    0    0  0.00000000000E+00  0.00000000000E+00  0.45593999997E+02  0.45594000000E+02  0.51100000000E-03 0. -1.
         11   -1    0    0    0    0 -0.00000000000E+00 -0.00000000000E+00 -0.45593999997E+02  0.45594000000E+02  0.51100000000E-03 0.  1.
         23    2    1    2    0    0 -0.35527136788E-14 -0.11102230246E-15  0.35527136788E-14  0.91188000000E+02  0.91188000000E+02 0.  0.
    9900012    2    3    3    0    0  0.21718741548E+02 -0.67301165458E+00 -0.29725815895E+02  0.54367071036E+02  0.39999970042E+02 0.  0.
         12    1    3    3    0    0 -0.21718741548E+02  0.67301165458E+00  0.29725815895E+02  0.36820928964E+02  0.00000000000E+00 0. -1.
         11    1    4    4    0    0  0.12652346174E+01 -0.54811979334E+01 -0.11142525391E+02  0.12481995905E+02  0.51100000000E-03 0. -1.
        -11    1    4    4    0    0  0.15871369331E+02  0.17257185876E+02 -0.15960433342E+02  0.28362761881E+02  0.51100000000E-03 0.  1.
        -12    1    4    4    0    0  0.45821375999E+01 -0.12448999597E+02 -0.26228571626E+01  0.13522313251E+02  0.00000000000E+00 0.  1.
</event>
<event>
 8    1  0.2527138E-006  0.9118800E+02  0.7816164E-02  0.1184000E+00
        -11   -1    0    0    0    0  0.00000000000E+00  0.00000000000E+00  0.45593999997E+02  0.45594000000E+02  0.51100000000E-03 0.  1.
         11   -1    0    0    0    0 -0.00000000000E+00 -0.00000000000E+00 -0.45593999997E+02  0.45594000000E+02  0.51100000000E-03 0. -1.
         23    2    1    2    0    0  0.88817841970E-15  0.88817841970E-15  0.00000000000E+00  0.91188000000E+02  0.91188000000E+02 0.  0.
    9900012    2    3    3    0    0 -0.60295003473E+01  0.76032950976E+01 -0.35519248184E+02  0.54367055385E+02  0.39999934361E+02 0.  0.
        -12    1    3    3    0    0  0.60295003473E+01 -0.76032950976E+01  0.35519248184E+02  0.36820944615E+02  0.00000000000E+00 0.  1.
         11    1    4    4    0    0  0.26342903406E+00  0.11072895095E+02 -0.12213008780E+02  0.16487449298E+02  0.51100000000E-03 0. -1.
        -11    1    4    4    0    0 -0.14003523032E+02  0.75965137938E+01 -0.93557702734E+01  0.18475283944E+02  0.51100000000E-03 0.  1.
        -12    1    4    4    0    0  0.77105936507E+01 -0.11066113791E+02 -0.13950469131E+02  0.19404322143E+02  0.00000000000E+00 0.  1.
</event>
<event>
 8    1  0.2527138E-006  0.9118800E+02  0.7816164E-02  0.1184000E+00
        -11   -1    0    0    0    0  0.00000000000E+00  0.00000000000E+00  0.45593999997E+02  0.45594000000E+02  0.51100000000E-03 0.  1.
         11   -1    0    0    0    0 -0.00000000000E+00 -0.00000000000E+00 -0.45593999997E+02  0.45594000000E+02  0.51100000000E-03 0. -1.
         23    2    1    2    0    0 -0.35527136788E-14 -0.88817841970E-15  0.00000000000E+00  0.91188000000E+02  0.91188000000E+02 0.  0.
    9900012    2    3    3    0    0  0.23044232463E+02 -0.70939577356E+01  0.27828367944E+02  0.54367096309E+02  0.40000027656E+02 0.  0.
         12    1    3    3    0    0 -0.23044232463E+02  0.70939577356E+01 -0.27828367944E+02  0.36820903691E+02  0.00000000000E+00 0. -1.
         11    1    4    4    0    0  0.19527540176E+01  0.33845451402E+01  0.72806009070E+01  0.82629016627E+01  0.51100000000E-03 0. -1.
        -11    1    4    4    0    0  0.16566007005E+02  0.58370487463E+01  0.23059920271E+02  0.28987301519E+02  0.51100000000E-03 0.  1.
         12    1    4    4    0    0  0.45254714398E+01 -0.16315551622E+02 -0.25121532334E+01  0.17116893128E+02  0.00000000000E+00 0. -1.
</event>
<event>
 8    1  0.2527138E-006  0.9118800E+02  0.7816164E-02  0.1184000E+00
        -11   -1    0    0    0    0  0.00000000000E+00  0.00000000000E+00  0.45593999997E+02  0.45594000000E+02  0.51100000000E-03 0. -1.
         11   -1    0    0    0    0 -0.00000000000E+00 -0.00000000000E+00 -0.45593999997E+02  0.45594000000E+02  0.51100000000E-03 0.  1.
         23    2    1    2    0    0  0.00000000000E+00  0.35527136788E-14 -0.35527136788E-14  0.91188000000E+02  0.91188000000E+02 0.  0.
    9900012    2    3    3    0    0 -0.16690314228E+02 -0.14685260930E+02  0.29352287059E+02  0.54367078865E+02  0.39999987890E+02 0.  0.
        -12    1    3    3    0    0  0.16690314228E+02  0.14685260930E+02 -0.29352287059E+02  0.36820921135E+02  0.00000000000E+00 0.  1.
         11    1    4    4    0    0  0.12255188857E+01  0.29007884295E+01  0.72099916049E+01  0.78676838559E+01  0.51100000000E-03 0.  1.
        -11    1    4    4    0    0 -0.65113277842E+01 -0.27465605509E+01  0.26379891261E+02  0.27310064950E+02  0.51100000000E-03 0. -1.
        -12    1    4    4    0    0 -0.11404505330E+02 -0.14839488809E+02 -0.42375958070E+01  0.19189330060E+02  0.00000000000E+00 0.  1.
</event>
<event>
 8    1  0.2527138E-006  0.9118800E+02  0.7816164E-02  0.1184000E+00
        -11   -1    0    0    0    0  0.00000000000E+00  0.00000000000E+00  0.45593999997E+02  0.45594000000E+02  0.51100000000E-03 0.  1.
         11   -1    0    0    0    0 -0.00000000000E+00 -0.00000000000E+00 -0.45593999997E+02  0.45594000000E+02  0.51100000000E-03 0. -1.
         23    2    1    2    0    0 -0.35527136788E-14  0.35527136788E-14  0.17763568394E-14  0.91188000000E+02  0.91188000000E+02 0.  0.
    9900012    2    3    3    0    0 -0.20568614287E+02  0.28394445314E+02  0.11245778514E+02  0.54367082674E+02  0.39999996571E+02 0.  0.
         12    1    3    3    0    0  0.20568614287E+02 -0.28394445314E+02 -0.11245778514E+02  0.36820917326E+02  0.00000000000E+00 0. -1.
         11    1    4    4    0    0 -0.54703202343E+01  0.19351557947E+01 -0.50437341043E+01  0.76882043022E+01  0.51100000000E-03 0. -1.
        -11    1    4    4    0    0 -0.17176191679E+02  0.26398411858E+02  0.23422373228E+02  0.39249271039E+02  0.51100000000E-03 0.  1.
        -12    1    4    4    0    0  0.20778976257E+01  0.60877660976E-01 -0.71328606099E+01  0.74296073324E+01  0.00000000000E+00 0.  1.
</event>
<event>
 8    1  0.2527138E-006  0.9118800E+02  0.7816164E-02  0.1184000E+00
        -11   -1    0    0    0    0  0.00000000000E+00  0.00000000000E+00  0.45593999997E+02  0.45594000000E+02  0.51100000000E-03 0. -1.
         11   -1    0    0    0    0 -0.00000000000E+00 -0.00000000000E+00 -0.45593999997E+02  0.45594000000E+02  0.51100000000E-03 0.  1.
         23    2    1    2    0    0  0.00000000000E+00  0.00000000000E+00  0.00000000000E+00  0.91188000000E+02  0.91188000000E+02 0.  0.
    9900012    2    3    3    0    0  0.61853000698E+01  0.21713873582E+02  0.29086589975E+02  0.54367082585E+02  0.39999996369E+02 0.  0.
        -12    1    3    3    0    0 -0.61853000698E+01 -0.21713873582E+02 -0.29086589975E+02  0.36820917415E+02  0.00000000000E+00 0.  1.
         11    1    4    4    0    0  0.10470440676E+02  0.84275455172E-01  0.84044634384E+01  0.13426549678E+02  0.51100000000E-03 0.  1.
        -11    1    4    4    0    0  0.75499887790E+01  0.21021139031E+02  0.83725521356E+01  0.23853516434E+02  0.51100000000E-03 0. -1.
        -12    1    4    4    0    0 -0.11835129385E+02  0.60845909571E+00  0.12309574401E+02  0.17087016474E+02  0.00000000000E+00 0.  1.
</event>
<event>
 8    1  0.2527138E-006  0.9118800E+02  0.7816164E-02  0.1184000E+00
        -11   -1    0    0    0    0  0.00000000000E+00  0.00000000000E+00  0.45593999997E+02  0.45594000000E+02  0.51100000000E-03 0.  1.
         11   -1    0    0    0    0 -0.00000000000E+00 -0.00000000000E+00 -0.45593999997E+02  0.45594000000E+02  0.51100000000E-03 0. -1.
         23    2    1    2    0    0 -0.35527136788E-14  0.00000000000E+00  0.35527136788E-14  0.91188000000E+02  0.91188000000E+02 0.  0.
    9900012    2    3    3    0    0 -0.24534220636E+02  0.13244054371E+02  0.24050907788E+02  0.54367093930E+02  0.40000022232E+02 0.  0.
         12    1    3    3    0    0  0.24534220636E+02 -0.13244054371E+02 -0.24050907788E+02  0.36820906070E+02  0.00000000000E+00 0. -1.
         11    1    4    4    0    0 -0.35990785217E+00 -0.13341152329E+01 -0.48097948899E+01  0.50043505334E+01  0.51100000000E-03 0. -1.
        -11    1    4    4    0    0 -0.25477935285E+02  0.17658048647E+02  0.13794198598E+02  0.33929511987E+02  0.51100000000E-03 0.  1.
        -12    1    4    4    0    0  0.13036225016E+01 -0.30798790434E+01  0.15066504080E+02  0.15433231410E+02  0.00000000000E+00 0.  1.
</event>
<event>
 8    1  0.2527138E-006  0.9118800E+02  0.7816164E-02  0.1184000E+00
        -11   -1    0    0    0    0  0.00000000000E+00  0.00000000000E+00  0.45593999997E+02  0.45594000000E+02  0.51100000000E-03 0.  1.
         11   -1    0    0    0    0 -0.00000000000E+00 -0.00000000000E+00 -0.45593999997E+02  0.45594000000E+02  0.51100000000E-03 0. -1.
         23    2    1    2    0    0 -0.35527136788E-14 -0.35527136788E-14  0.35527136788E-14  0.91188000000E+02  0.91188000000E+02 0.  0.
    9900012    2    3    3    0    0  0.18077985736E+02  0.24575314542E+02  0.20615987217E+02  0.54367101287E+02  0.40000039004E+02 0.  0.
         12    1    3    3    0    0 -0.18077985736E+02 -0.24575314542E+02 -0.20615987217E+02  0.36820898713E+02  0.00000000000E+00 0. -1.
         11    1    4    4    0    0  0.38606036265E+01  0.10886806222E+02  0.18227324538E+02  0.21579206894E+02  0.51100000000E-03 0. -1.
        -11    1    4    4    0    0  0.14213608260E+02  0.13694324893E+01  0.10772066641E+02  0.17886850620E+02  0.51100000000E-03 0.  1.
         12    1    4    4    0    0  0.37738495474E-02  0.12319075830E+02 -0.83834039624E+01  0.14901043773E+02  0.00000000000E+00 0. -1.
</event>
<event>
 8    1  0.2527138E-006  0.9118800E+02  0.7816164E-02  0.1184000E+00
        -11   -1    0    0    0    0  0.00000000000E+00  0.00000000000E+00  0.45593999997E+02  0.45594000000E+02  0.51100000000E-03 0. -1.
         11   -1    0    0    0    0 -0.00000000000E+00 -0.00000000000E+00 -0.45593999997E+02  0.45594000000E+02  0.51100000000E-03 0.  1.
         23    2    1    2    0    0  0.00000000000E+00  0.00000000000E+00  0.00000000000E+00  0.91188000000E+02  0.91188000000E+02 0.  0.
    9900012    2    3    3    0    0  0.32139289680E+02  0.54564792835E+01 -0.17119617770E+02  0.54366967696E+02  0.39999734457E+02 0.  0.
        -12    1    3    3    0    0 -0.32139289680E+02 -0.54564792835E+01  0.17119617770E+02  0.36821032304E+02  0.00000000000E+00 0.  1.
         11    1    4    4    0    0  0.13501484068E+02  0.28400573636E+01  0.58528730857E+01  0.14987065139E+02  0.51100000000E-03 0. -1.
        -11    1    4    4    0    0  0.18269323669E+02  0.40443863076E+01 -0.25272366854E+01  0.18881529955E+02  0.51100000000E-03 0.  1.
        -12    1    4    4    0    0  0.36848194294E+00 -0.14279643877E+01 -0.20445254170E+02  0.20498372602E+02  0.00000000000E+00 0.  1.
</event>
<event>
 8    1  0.2527138E-006  0.9118800E+02  0.7816164E-02  0.1184000E+00
        -11   -1    0    0    0    0  0.00000000000E+00  0.00000000000E+00  0.45593999997E+02  0.45594000000E+02  0.51100000000E-03 0.  1.
         11   -1    0    0    0    0 -0.00000000000E+00 -0.00000000000E+00 -0.45593999997E+02  0.45594000000E+02  0.51100000000E-03 0. -1.
         23    2    1    2    0    0  0.00000000000E+00  0.71054273576E-14 -0.88817841970E-15  0.91188000000E+02  0.91188000000E+02 0.  0.
    9900012    2    3    3    0    0 -0.11566753894E+02 -0.34175001342E+02 -0.73524966207E+01  0.54367085849E+02  0.40000003809E+02 0.  0.
         12    1    3    3    0    0  0.11566753894E+02  0.34175001342E+02  0.73524966207E+01  0.36820914151E+02  0.00000000000E+00 0. -1.
         11    1    4    4    0    0 -0.31259253199E+01 -0.32150320221E+02 -0.15587634742E+02  0.35866263488E+02  0.51100000000E-03 0. -1.
        -11    1    4    4    0    0 -0.42714334665E+01  0.59823999706E+01  0.50900378074E+01  0.89410703167E+01  0.51100000000E-03 0.  1.
        -12    1    4    4    0    0 -0.41693951078E+01 -0.80070810911E+01  0.31451003141E+01  0.95597520444E+01  0.00000000000E+00 0.  1.
</event>
<event>
 8    1  0.2527138E-006  0.9118800E+02  0.7816164E-02  0.1184000E+00
        -11   -1    0    0    0    0  0.00000000000E+00  0.00000000000E+00  0.45593999997E+02  0.45594000000E+02  0.51100000000E-03 0.  1.
         11   -1    0    0    0    0 -0.00000000000E+00 -0.00000000000E+00 -0.45593999997E+02  0.45594000000E+02  0.51100000000E-03 0. -1.
         23    2    1    2    0    0  0.00000000000E+00  0.00000000000E+00  0.26645352591E-14  0.91188000000E+02  0.91188000000E+02 0.  0.
    9900012    2    3    3    0    0  0.23956348620E+02 -0.27073180804E+02  0.69939475380E+01  0.54367094794E+02  0.40000024201E+02 0.  0.
        -12    1    3    3    0    0 -0.23956348620E+02  0.27073180804E+02 -0.69939475380E+01  0.36820905206E+02  0.00000000000E+00 0.  1.
         11    1    4    4    0    0  0.98540248801E+01  0.53684123354E+01 -0.67497856522E+01  0.13095085489E+02  0.51100000000E-03 0. -1.
        -11    1    4    4    0    0  0.13985304875E+02 -0.25878808545E+02  0.16968014204E+02  0.33959019280E+02  0.51100000000E-03 0.  1.
        -12    1    4    4    0    0  0.11701886436E+00 -0.65627845943E+01 -0.32242810139E+01  0.73129900248E+01  0.00000000000E+00 0.  1.
</event>
<event>
 8    1  0.2527138E-006  0.9118800E+02  0.7816164E-02  0.1184000E+00
        -11   -1    0    0    0    0  0.00000000000E+00  0.00000000000E+00  0.45593999997E+02  0.45594000000E+02  0.51100000000E-03 0. -1.
         11   -1    0    0    0    0 -0.00000000000E+00 -0.00000000000E+00 -0.45593999997E+02  0.45594000000E+02  0.51100000000E-03 0.  1.
         23    2    1    2    0    0  0.17763568394E-14  0.00000000000E+00 -0.35527136788E-14  0.91188000000E+02  0.91188000000E+02 0.  0.
    9900012    2    3    3    0    0  0.13106366007E+02 -0.16268671013E+02  0.30320507834E+02  0.54367086354E+02  0.40000004961E+02 0.  0.
        -12    1    3    3    0    0 -0.13106366007E+02  0.16268671013E+02 -0.30320507834E+02  0.36820913646E+02  0.00000000000E+00 0.  1.
         11    1    4    4    0    0  0.82687540681E+01 -0.64624347954E+01  0.10883530470E+02  0.15119080431E+02  0.51100000000E-03 0. -1.
        -11    1    4    4    0    0  0.12045562135E+02 -0.42589996694E+01  0.25358252996E+02  0.28394993232E+02  0.51100000000E-03 0.  1.
        -12    1    4    4    0    0 -0.72079501967E+01 -0.55472365487E+01 -0.59212756324E+01  0.10853012691E+02  0.00000000000E+00 0.  1.
</event>
<event>
 8    1  0.2527138E-006  0.9118800E+02  0.7816164E-02  0.1184000E+00
        -11   -1    0    0    0    0  0.00000000000E+00  0.00000000000E+00  0.45593999997E+02  0.45594000000E+02  0.51100000000E-03 0.  1.
         11   -1    0    0    0    0 -0.00000000000E+00 -0.00000000000E+00 -0.45593999997E+02  0.45594000000E+02  0.51100000000E-03 0. -1.
         23    2    1    2    0    0  0.00000000000E+00  0.00000000000E+00  0.00000000000E+00  0.91188000000E+02  0.91188000000E+02 0.  0.
    9900012    2    3    3    0    0 -0.33590729063E+02  0.98385113434E+01  0.11430048787E+02  0.54367090184E+02  0.40000013693E+02 0.  0.
         12    1    3    3    0    0  0.33590729063E+02 -0.98385113434E+01 -0.11430048787E+02  0.36820909816E+02  0.00000000000E+00 0. -1.
         11    1    4    4    0    0 -0.10431167022E+02  0.60835689159E+01  0.11479619248E+02  0.16661353923E+02  0.51100000000E-03 0. -1.
        -11    1    4    4    0    0  0.55657567971E+01 -0.16375566100E+01  0.54565710329E+01  0.79645092801E+01  0.51100000000E-03 0.  1.
         12    1    4    4    0    0 -0.28725318837E+02  0.53924990375E+01 -0.55061414946E+01  0.29741226981E+02  0.00000000000E+00 0. -1.
</event>
<event>
 8    1  0.2527138E-006  0.9118800E+02  0.7816164E-02  0.1184000E+00
        -11   -1    0    0    0    0  0.00000000000E+00  0.00000000000E+00  0.45593999997E+02  0.45594000000E+02  0.51100000000E-03 0.  1.
         11   -1    0    0    0    0 -0.00000000000E+00 -0.00000000000E+00 -0.45593999997E+02  0.45594000000E+02  0.51100000000E-03 0. -1.
         23    2    1    2    0    0  0.17763568394E-14  0.35527136788E-14  0.35527136788E-14  0.91188000000E+02  0.91188000000E+02 0.  0.
    9900012    2    3    3    0    0 -0.12532130853E+02  0.17835573450E+02  0.29675190789E+02  0.54367096530E+02  0.40000028159E+02 0.  0.
         12    1    3    3    0    0  0.12532130853E+02 -0.17835573450E+02 -0.29675190789E+02  0.36820903470E+02  0.00000000000E+00 0. -1.
         11    1    4    4    0    0 -0.15103575374E+02  0.21909244539E+02  0.10416356551E+02  0.28576799495E+02  0.51100000000E-03 0. -1.
        -11    1    4    4    0    0  0.75146604846E+01  0.21631810357E+01  0.14616910430E+02  0.16577199557E+02  0.51100000000E-03 0.  1.
        -12    1    4    4    0    0 -0.49432159636E+01 -0.62368521241E+01  0.46419238081E+01  0.92130974770E+01  0.00000000000E+00 0.  1.
</event>
<event>
 8    1  0.2527138E-006  0.9118800E+02  0.7816164E-02  0.1184000E+00
        -11   -1    0    0    0    0  0.00000000000E+00  0.00000000000E+00  0.45593999997E+02  0.45594000000E+02  0.51100000000E-03 0. -1.
         11   -1    0    0    0    0 -0.00000000000E+00 -0.00000000000E+00 -0.45593999997E+02  0.45594000000E+02  0.51100000000E-03 0.  1.
         23    2    1    2    0    0  0.00000000000E+00  0.00000000000E+00 -0.44408920985E-15  0.91188000000E+02  0.91188000000E+02 0.  0.
    9900012    2    3    3    0    0  0.27817520781E+02  0.23804281757E+02 -0.39140780990E+01  0.54367105120E+02  0.40000047742E+02 0.  0.
         12    1    3    3    0    0 -0.27817520781E+02 -0.23804281757E+02  0.39140780990E+01  0.36820894880E+02  0.00000000000E+00 0. -1.
         11    1    4    4    0    0  0.13073980116E+01 -0.57470431933E+01 -0.39320923404E+00  0.59069796672E+01  0.51100000000E-03 0.  1.
        -11    1    4    4    0    0  0.14980996155E+02 -0.16081073721E+01 -0.17445583036E+00  0.15068068563E+02  0.51100000000E-03 0. -1.
        -12    1    4    4    0    0  0.11529126615E+02  0.31159432323E+02 -0.33464130346E+01  0.33392056890E+02  0.00000000000E+00 0.  1.
</event>
<event>
 8    1  0.2527138E-006  0.9118800E+02  0.7816164E-02  0.1184000E+00
        -11   -1    0    0    0    0  0.00000000000E+00  0.00000000000E+00  0.45593999997E+02  0.45594000000E+02  0.51100000000E-03 0.  1.
         11   -1    0    0    0    0 -0.00000000000E+00 -0.00000000000E+00 -0.45593999997E+02  0.45594000000E+02  0.51100000000E-03 0. -1.
         23    2    1    2    0    0 -0.17763568394E-14  0.00000000000E+00  0.00000000000E+00  0.91188000000E+02  0.91188000000E+02 0.  0.
    9900012    2    3    3    0    0  0.89424633580E+01  0.29459181047E+02  0.20198195285E+02  0.54367107946E+02  0.40000054185E+02 0.  0.
        -12    1    3    3    0    0 -0.89424633580E+01 -0.29459181047E+02 -0.20198195285E+02  0.36820892054E+02  0.00000000000E+00 0.  1.
         11    1    4    4    0    0  0.60057992322E+01 -0.49350445526E+01 -0.18061916760E+00  0.77754043431E+01  0.51100000000E-03 0. -1.
        -11    1    4    4    0    0  0.80015389433E+01  0.11799965699E+01  0.58750497592E+01  0.99966608075E+01  0.51100000000E-03 0.  1.
         12    1    4    4    0    0 -0.50648748175E+01  0.33214229030E+02  0.14503764693E+02  0.36595042796E+02  0.00000000000E+00 0. -1.
</event>
<event>
 8    1  0.2527138E-006  0.9118800E+02  0.7816164E-02  0.1184000E+00
        -11   -1    0    0    0    0  0.00000000000E+00  0.00000000000E+00  0.45593999997E+02  0.45594000000E+02  0.51100000000E-03 0. -1.
         11   -1    0    0    0    0 -0.00000000000E+00 -0.00000000000E+00 -0.45593999997E+02  0.45594000000E+02  0.51100000000E-03 0.  1.
         23    2    1    2    0    0  0.00000000000E+00  0.00000000000E+00 -0.35527136788E-14  0.91188000000E+02  0.91188000000E+02 0.  0.
    9900012    2    3    3    0    0  0.11907895095E+02 -0.17925135841E+02 -0.29877618347E+02  0.54367074718E+02  0.39999978435E+02 0.  0.
         12    1    3    3    0    0 -0.11907895095E+02  0.17925135841E+02  0.29877618347E+02  0.36820925282E+02  0.00000000000E+00 0. -1.
         11    1    4    4    0    0  0.32012916313E+01  0.40931447064E+01 -0.19763023206E+01  0.55594849419E+01  0.51100000000E-03 0. -1.
        -11    1    4    4    0    0  0.74737317683E+01  0.11289196552E+01  0.46290834233E+01  0.88633819580E+01  0.51100000000E-03 0.  1.
        -12    1    4    4    0    0  0.12328716956E+01 -0.23147200203E+02 -0.32530399450E+02  0.39944207818E+02  0.00000000000E+00 0.  1.
</event>
<event>
 8    1  0.2527138E-006  0.9118800E+02  0.7816164E-02  0.1184000E+00
        -11   -1    0    0    0    0  0.00000000000E+00  0.00000000000E+00  0.45593999997E+02  0.45594000000E+02  0.51100000000E-03 0. -1.
         11   -1    0    0    0    0 -0.00000000000E+00 -0.00000000000E+00 -0.45593999997E+02  0.45594000000E+02  0.51100000000E-03 0.  1.
         23    2    1    2    0    0  0.00000000000E+00 -0.17763568394E-14 -0.44408920985E-15  0.91188000000E+02  0.91188000000E+02 0.  0.
    9900012    2    3    3    0    0 -0.34077161211E+02  0.13386234648E+02  0.39159786779E+01  0.54367094481E+02  0.40000023488E+02 0.  0.
        -12    1    3    3    0    0  0.34077161211E+02 -0.13386234648E+02 -0.39159786779E+01  0.36820905519E+02  0.00000000000E+00 0.  1.
         11    1    4    4    0    0 -0.22550118657E+02  0.17089712892E+02  0.17790353961E-01  0.28294283078E+02  0.51100000000E-03 0. -1.
        -11    1    4    4    0    0 -0.16461207390E+02  0.32242711650E+01  0.14091781485E+00  0.16774597801E+02  0.51100000000E-03 0.  1.
        -12    1    4    4    0    0  0.49341648358E+01 -0.69277494093E+01  0.37572705091E+01  0.92982136017E+01  0.00000000000E+00 0.  1.
</event>
<event>
 8    1  0.2527138E-006  0.9118800E+02  0.7816164E-02  0.1184000E+00
        -11   -1    0    0    0    0  0.00000000000E+00  0.00000000000E+00  0.45593999997E+02  0.45594000000E+02  0.51100000000E-03 0. -1.
         11   -1    0    0    0    0 -0.00000000000E+00 -0.00000000000E+00 -0.45593999997E+02  0.45594000000E+02  0.51100000000E-03 0.  1.
         23    2    1    2    0    0  0.00000000000E+00  0.88817841970E-15 -0.17763568394E-14  0.91188000000E+02  0.91188000000E+02 0.  0.
    9900012    2    3    3    0    0 -0.34956397820E+02 -0.66800035914E+01 -0.94445125090E+01  0.54367204068E+02  0.40000273312E+02 0.  0.
         12    1    3    3    0    0  0.34956397820E+02  0.66800035914E+01  0.94445125090E+01  0.36820795932E+02  0.00000000000E+00 0. -1.
         11    1    4    4    0    0 -0.17202136495E+02  0.42014672165E+01  0.93819902506E+01  0.20039649900E+02  0.51100000000E-03 0. -1.
        -11    1    4    4    0    0 -0.16512996218E+02 -0.92192065894E+01 -0.22933866953E+02  0.29725999864E+02  0.51100000000E-03 0.  1.
         12    1    4    4    0    0 -0.12412651073E+01 -0.16622642185E+01  0.41073641933E+01  0.46015543043E+01  0.00000000000E+00 0. -1.
</event>
<event>
 8    1  0.2527138E-006  0.9118800E+02  0.7816164E-02  0.1184000E+00
        -11   -1    0    0    0    0  0.00000000000E+00  0.00000000000E+00  0.45593999997E+02  0.45594000000E+02  0.51100000000E-03 0.  1.
         11   -1    0    0    0    0 -0.00000000000E+00 -0.00000000000E+00 -0.45593999997E+02  0.45594000000E+02  0.51100000000E-03 0. -1.
         23    2    1    2    0    0  0.00000000000E+00  0.35527136788E-14 -0.22204460493E-15  0.91188000000E+02  0.91188000000E+02 0.  0.
    9900012    2    3    3    0    0 -0.23099822113E+02 -0.28664054204E+02 -0.74103902506E+00  0.54367096645E+02  0.40000028421E+02 0.  0.
        -12    1    3    3    0    0  0.23099822113E+02  0.28664054204E+02  0.74103902506E+00  0.36820903355E+02  0.00000000000E+00 0.  1.
         11    1    4    4    0    0 -0.27325594609E+02 -0.14136760156E+02 -0.74192523845E+01  0.31647771085E+02  0.51100000000E-03 0. -1.
        -11    1    4    4    0    0  0.43932927116E+01  0.22385245313E+01  0.11301128409E+01  0.50585737339E+01  0.51100000000E-03 0.  1.
         12    1    4    4    0    0 -0.16752021502E+00 -0.16765818580E+02  0.55481005186E+01  0.17660751825E+02  0.00000000000E+00 0. -1.
</event>
<event>
 8    1  0.2527138E-006  0.9118800E+02  0.7816164E-02  0.1184000E+00
        -11   -1    0    0    0    0  0.00000000000E+00  0.00000000000E+00  0.45593999997E+02  0.45594000000E+02  0.51100000000E-03 0.  1.
         11   -1    0    0    0    0 -0.00000000000E+00 -0.00000000000E+00 -0.45593999997E+02  0.45594000000E+02  0.51100000000E-03 0. -1.
         23    2    1    2    0    0  0.17763568394E-14  0.00000000000E+00  0.00000000000E+00  0.91188000000E+02  0.91188000000E+02 0.  0.
    9900012    2    3    3    0    0  0.13698544407E+02  0.96681051038E+01 -0.32782023029E+02  0.54367035740E+02  0.39999889576E+02 0.  0.
        -12    1    3    3    0    0 -0.13698544407E+02 -0.96681051038E+01  0.32782023029E+02  0.36820964260E+02  0.00000000000E+00 0.  1.
         11    1    4    4    0    0  0.19846890735E+01  0.14764977283E+02 -0.29701657471E+02  0.33228481785E+02  0.51100000000E-03 0. -1.
        -11    1    4    4    0    0  0.41837909727E+01  0.44117403642E+01 -0.61279115481E+01  0.86324307207E+01  0.51100000000E-03 0.  1.
        -12    1    4    4    0    0  0.75300643611E+01 -0.95086125438E+01  0.30475459907E+01  0.12506123234E+02  0.00000000000E+00 0.  1.
</event>
<event>
 8    1  0.2527138E-006  0.9118800E+02  0.7816164E-02  0.1184000E+00
        -11   -1    0    0    0    0  0.00000000000E+00  0.00000000000E+00  0.45593999997E+02  0.45594000000E+02  0.51100000000E-03 0. -1.
         11   -1    0    0    0    0 -0.00000000000E+00 -0.00000000000E+00 -0.45593999997E+02  0.45594000000E+02  0.51100000000E-03 0.  1.
         23    2    1    2    0    0  0.17763568394E-14  0.00000000000E+00  0.00000000000E+00  0.91188000000E+02  0.91188000000E+02 0.  0.
    9900012    2    3    3    0    0 -0.11752770527E+02  0.11266332481E+02 -0.33026078523E+02  0.54367085763E+02  0.40000003614E+02 0.  0.
         12    1    3    3    0    0  0.11752770527E+02 -0.11266332481E+02  0.33026078523E+02  0.36820914237E+02  0.00000000000E+00 0. -1.
         11    1    4    4    0    0  0.12144725398E+02 -0.12761488987E+01 -0.14007440322E+02  0.18583091660E+02  0.51100000000E-03 0. -1.
        -11    1    4    4    0    0 -0.85134138246E+01 -0.29450784006E+00 -0.11657366008E+02  0.14438113877E+02  0.51100000000E-03 0.  1.
         12    1    4    4    0    0 -0.15384082101E+02  0.12836989220E+02 -0.73612721932E+01  0.21345880226E+02  0.00000000000E+00 0. -1.
</event>
<event>
 8    1  0.2527138E-006  0.9118800E+02  0.7816164E-02  0.1184000E+00
        -11   -1    0    0    0    0  0.00000000000E+00  0.00000000000E+00  0.45593999997E+02  0.45594000000E+02  0.51100000000E-03 0.  1.
         11   -1    0    0    0    0 -0.00000000000E+00 -0.00000000000E+00 -0.45593999997E+02  0.45594000000E+02  0.51100000000E-03 0. -1.
         23    2    1    2    0    0  0.00000000000E+00  0.35527136788E-14  0.88817841970E-15  0.91188000000E+02  0.91188000000E+02 0.  0.
    9900012    2    3    3    0    0 -0.24453086914E+02 -0.26895049186E+02  0.58720618272E+01  0.54367105926E+02  0.40000049579E+02 0.  0.
         12    1    3    3    0    0  0.24453086914E+02  0.26895049186E+02 -0.58720618272E+01  0.36820894074E+02  0.00000000000E+00 0. -1.
         11    1    4    4    0    0 -0.31605037953E+02 -0.12754777761E+02  0.38861627659E+00  0.34083922934E+02  0.51100000000E-03 0.  1.
        -11    1    4    4    0    0  0.80771847231E+01 -0.45970134685E+01  0.11477367054E+00  0.92944402273E+01  0.51100000000E-03 0. -1.
         12    1    4    4    0    0 -0.92523368410E+00 -0.95432579558E+01  0.53686718801E+01  0.10988742764E+02  0.00000000000E+00 0. -1.
</event>
<event>
 8    1  0.2527138E-006  0.9118800E+02  0.7816164E-02  0.1184000E+00
        -11   -1    0    0    0    0  0.00000000000E+00  0.00000000000E+00  0.45593999997E+02  0.45594000000E+02  0.51100000000E-03 0.  1.
         11   -1    0    0    0    0 -0.00000000000E+00 -0.00000000000E+00 -0.45593999997E+02  0.45594000000E+02  0.51100000000E-03 0. -1.
         23    2    1    2    0    0  0.00000000000E+00  0.88817841970E-15  0.00000000000E+00  0.91188000000E+02  0.91188000000E+02 0.  0.
    9900012    2    3    3    0    0 -0.76250072612E+01  0.77755653902E+01 -0.35173545677E+02  0.54367102831E+02  0.40000042523E+02 0.  0.
        -12    1    3    3    0    0  0.76250072612E+01 -0.77755653902E+01  0.35173545677E+02  0.36820897169E+02  0.00000000000E+00 0.  1.
         11    1    4    4    0    0  0.94581547679E+01  0.38897092827E+01 -0.10431805709E+02  0.14608528349E+02  0.51100000000E-03 0. -1.
        -11    1    4    4    0    0 -0.53487271360E+01 -0.90843855153E+01 -0.18300119079E+02  0.21119405785E+02  0.51100000000E-03 0.  1.
        -12    1    4    4    0    0 -0.11734434893E+02  0.12970241623E+02 -0.64416208894E+01  0.18639168697E+02  0.00000000000E+00 0.  1.
</event>
<event>
 8    1  0.2527138E-006  0.9118800E+02  0.7816164E-02  0.1184000E+00
        -11   -1    0    0    0    0  0.00000000000E+00  0.00000000000E+00  0.45593999997E+02  0.45594000000E+02  0.51100000000E-03 0. -1.
         11   -1    0    0    0    0 -0.00000000000E+00 -0.00000000000E+00 -0.45593999997E+02  0.45594000000E+02  0.51100000000E-03 0.  1.
         23    2    1    2    0    0 -0.35527136788E-14 -0.17763568394E-14  0.00000000000E+00  0.91188000000E+02  0.91188000000E+02 0.  0.
    9900012    2    3    3    0    0 -0.29392737001E+02  0.11945274540E+02 -0.18685744518E+02  0.54367087186E+02  0.40000006859E+02 0.  0.
         12    1    3    3    0    0  0.29392737001E+02 -0.11945274540E+02  0.18685744518E+02  0.36820912814E+02  0.00000000000E+00 0. -1.
         11    1    4    4    0    0 -0.64609812377E+01 -0.69830330042E+00  0.50866056815E+01  0.82526034482E+01  0.51100000000E-03 0. -1.
        -11    1    4    4    0    0 -0.17292301558E+02  0.21288614173E+02 -0.22946089288E+02  0.35759639267E+02  0.51100000000E-03 0.  1.
         12    1    4    4    0    0 -0.56394542051E+01 -0.86450363331E+01 -0.82626091159E+00  0.10354844471E+02  0.00000000000E+00 0. -1.
</event>
<event>
 8    1  0.2527138E-006  0.9118800E+02  0.7816164E-02  0.1184000E+00
        -11   -1    0    0    0    0  0.00000000000E+00  0.00000000000E+00  0.45593999997E+02  0.45594000000E+02  0.51100000000E-03 0.  1.
         11   -1    0    0    0    0 -0.00000000000E+00 -0.00000000000E+00 -0.45593999997E+02  0.45594000000E+02  0.51100000000E-03 0. -1.
         23    2    1    2    0    0  0.00000000000E+00  0.00000000000E+00  0.00000000000E+00  0.91188000000E+02  0.91188000000E+02 0.  0.
    9900012    2    3    3    0    0 -0.67922484730E+01 -0.36025862725E+02  0.34324115029E+01  0.54367097334E+02  0.40000029993E+02 0.  0.
         12    1    3    3    0    0  0.67922484730E+01  0.36025862725E+02 -0.34324115029E+01  0.36820902666E+02  0.00000000000E+00 0. -1.
         11    1    4    4    0    0 -0.92018299485E+01 -0.19375414902E+02 -0.16699135982E+02  0.27183478803E+02  0.51100000000E-03 0. -1.
        -11    1    4    4    0    0  0.15963633991E+01 -0.26822978655E+01  0.63391342935E+00  0.31851129396E+01  0.51100000000E-03 0.  1.
         12    1    4    4    0    0  0.81321807642E+00 -0.13968149957E+02  0.19497634055E+02  0.23998505592E+02  0.00000000000E+00 0. -1.
</event>
<event>
 8    1  0.2527138E-006  0.9118800E+02  0.7816164E-02  0.1184000E+00
        -11   -1    0    0    0    0  0.00000000000E+00  0.00000000000E+00  0.45593999997E+02  0.45594000000E+02  0.51100000000E-03 0.  1.
         11   -1    0    0    0    0 -0.00000000000E+00 -0.00000000000E+00 -0.45593999997E+02  0.45594000000E+02  0.51100000000E-03 0. -1.
         23    2    1    2    0    0  0.00000000000E+00  0.00000000000E+00  0.00000000000E+00  0.91188000000E+02  0.91188000000E+02 0.  0.
    9900012    2    3    3    0    0 -0.33213001582E+02  0.97843168109E+01  0.12527708704E+02  0.54367084545E+02  0.40000000838E+02 0.  0.
        -12    1    3    3    0    0  0.33213001582E+02 -0.97843168109E+01 -0.12527708704E+02  0.36820915455E+02  0.00000000000E+00 0.  1.
         11    1    4    4    0    0 -0.14461791801E+02  0.21054365031E+02  0.66374669933E+01  0.26391015086E+02  0.51100000000E-03 0.  1.
        -11    1    4    4    0    0 -0.18834352269E+02 -0.32635093051E+01  0.57748038071E+01  0.19968266766E+02  0.51100000000E-03 0. -1.
         12    1    4    4    0    0  0.83142487105E-01 -0.80065389145E+01  0.11543790396E+00  0.80078026931E+01  0.00000000000E+00 0. -1.
</event>
<event>
 8    1  0.2527138E-006  0.9118800E+02  0.7816164E-02  0.1184000E+00
        -11   -1    0    0    0    0  0.00000000000E+00  0.00000000000E+00  0.45593999997E+02  0.45594000000E+02  0.51100000000E-03 0. -1.
         11   -1    0    0    0    0 -0.00000000000E+00 -0.00000000000E+00 -0.45593999997E+02  0.45594000000E+02  0.51100000000E-03 0.  1.
         23    2    1    2    0    0  0.35527136788E-14  0.17763568394E-14 -0.17763568394E-14  0.91188000000E+02  0.91188000000E+02 0.  0.
    9900012    2    3    3    0    0  0.30366335301E+02  0.15682206366E+02  0.13701324479E+02  0.54367187834E+02  0.40000236303E+02 0.  0.
        -12    1    3    3    0    0 -0.30366335301E+02 -0.15682206366E+02 -0.13701324479E+02  0.36820812166E+02  0.00000000000E+00 0.  1.
         11    1    4    4    0    0  0.61318975302E+01  0.19643714451E+02  0.11996014539E+01  0.20613459890E+02  0.51100000000E-03 0. -1.
        -11    1    4    4    0    0  0.11145366102E+02 -0.11526655610E+01 -0.45340194420E+01  0.12087396577E+02  0.51100000000E-03 0.  1.
         12    1    4    4    0    0  0.13089071669E+02 -0.28088425237E+01  0.17035742467E+02  0.21666331366E+02  0.00000000000E+00 0. -1.
</event>
<event>
 8    1  0.2527138E-006  0.9118800E+02  0.7816164E-02  0.1184000E+00
        -11   -1    0    0    0    0  0.00000000000E+00  0.00000000000E+00  0.45593999997E+02  0.45594000000E+02  0.51100000000E-03 0. -1.
         11   -1    0    0    0    0 -0.00000000000E+00 -0.00000000000E+00 -0.45593999997E+02  0.45594000000E+02  0.51100000000E-03 0.  1.
         23    2    1    2    0    0  0.35527136788E-14  0.00000000000E+00  0.13322676296E-14  0.91188000000E+02  0.91188000000E+02 0.  0.
    9900012    2    3    3    0    0  0.16619345978E+02  0.32679608763E+02 -0.34090709209E+01  0.54367065001E+02  0.39999956284E+02 0.  0.
         12    1    3    3    0    0 -0.16619345978E+02 -0.32679608763E+02  0.34090709209E+01  0.36820934999E+02  0.00000000000E+00 0. -1.
         11    1    4    4    0    0  0.91777272225E+01  0.31194470507E+01  0.48038309156E+01  0.10818429581E+02  0.51100000000E-03 0. -1.
        -11    1    4    4    0    0  0.12826647353E+02  0.23516662405E+02  0.57608466538E+01  0.27399701593E+02  0.51100000000E-03 0.  1.
         12    1    4    4    0    0 -0.53850285980E+01  0.60434993077E+01 -0.13973748490E+02  0.16148933827E+02  0.00000000000E+00 0. -1.
</event>
<event>
 8    1  0.2527138E-006  0.9118800E+02  0.7816164E-02  0.1184000E+00
        -11   -1    0    0    0    0  0.00000000000E+00  0.00000000000E+00  0.45593999997E+02  0.45594000000E+02  0.51100000000E-03 0. -1.
         11   -1    0    0    0    0 -0.00000000000E+00 -0.00000000000E+00 -0.45593999997E+02  0.45594000000E+02  0.51100000000E-03 0.  1.
         23    2    1    2    0    0  0.00000000000E+00  0.00000000000E+00  0.00000000000E+00  0.91188000000E+02  0.91188000000E+02 0.  0.
    9900012    2    3    3    0    0  0.30884794344E+02  0.58372244486E+01  0.19179009216E+02  0.54367107759E+02  0.40000053757E+02 0.  0.
        -12    1    3    3    0    0 -0.30884794344E+02 -0.58372244486E+01 -0.19179009216E+02  0.36820892241E+02  0.00000000000E+00 0.  1.
         11    1    4    4    0    0 -0.17041527087E+01 -0.37759199420E+01 -0.78324670448E+00  0.42160625617E+01  0.51100000000E-03 0. -1.
        -11    1    4    4    0    0 -0.61597598633E+01  0.84520054768E+00  0.36059490106E+01  0.71874803699E+01  0.51100000000E-03 0.  1.
         12    1    4    4    0    0  0.38748706916E+02  0.87679438428E+01  0.16356306910E+02  0.42963564827E+02  0.00000000000E+00 0. -1.
</event>
<event>
 8    1  0.2527138E-006  0.9118800E+02  0.7816164E-02  0.1184000E+00
        -11   -1    0    0    0    0  0.00000000000E+00  0.00000000000E+00  0.45593999997E+02  0.45594000000E+02  0.51100000000E-03 0.  1.
         11   -1    0    0    0    0 -0.00000000000E+00 -0.00000000000E+00 -0.45593999997E+02  0.45594000000E+02  0.51100000000E-03 0. -1.
         23    2    1    2    0    0  0.00000000000E+00  0.00000000000E+00  0.17763568394E-14  0.91188000000E+02  0.91188000000E+02 0.  0.
    9900012    2    3    3    0    0 -0.93099848277E+01  0.32572524618E+02 -0.14426648026E+02  0.54367172324E+02  0.40000200946E+02 0.  0.
        -12    1    3    3    0    0  0.93099848277E+01 -0.32572524618E+02  0.14426648026E+02  0.36820827676E+02  0.00000000000E+00 0.  1.
         11    1    4    4    0    0 -0.70501822516E+01  0.11036399919E+02 -0.47165791920E+01  0.13919529895E+02  0.51100000000E-03 0. -1.
        -11    1    4    4    0    0 -0.26744604391E+00  0.21455392660E+02 -0.20379953313E+02  0.29593038014E+02  0.51100000000E-03 0.  1.
        -12    1    4    4    0    0 -0.19923565322E+01  0.80732038775E-01  0.10669884479E+02  0.10854604415E+02  0.00000000000E+00 0.  1.
</event>
<event>
 8    1  0.2527138E-006  0.9118800E+02  0.7816164E-02  0.1184000E+00
        -11   -1    0    0    0    0  0.00000000000E+00  0.00000000000E+00  0.45593999997E+02  0.45594000000E+02  0.51100000000E-03 0. -1.
         11   -1    0    0    0    0 -0.00000000000E+00 -0.00000000000E+00 -0.45593999997E+02  0.45594000000E+02  0.51100000000E-03 0.  1.
         23    2    1    2    0    0 -0.35527136788E-14 -0.35527136788E-14  0.00000000000E+00  0.91188000000E+02  0.91188000000E+02 0.  0.
    9900012    2    3    3    0    0 -0.16124704799E+02 -0.30177002967E+02  0.13605961720E+02  0.54367084650E+02  0.40000001076E+02 0.  0.
        -12    1    3    3    0    0  0.16124704799E+02  0.30177002967E+02 -0.13605961720E+02  0.36820915350E+02  0.00000000000E+00 0.  1.
         11    1    4    4    0    0 -0.10468644706E+02 -0.27282014419E+01  0.18686912231E+02  0.21592505508E+02  0.51100000000E-03 0. -1.
        -11    1    4    4    0    0  0.81109738007E+00 -0.24919054580E+02 -0.15404868977E+01  0.24979797042E+02  0.51100000000E-03 0.  1.
        -12    1    4    4    0    0 -0.64671574731E+01 -0.25297469448E+01 -0.35404636137E+01  0.77947821000E+01  0.00000000000E+00 0.  1.
</event>
<event>
 8    1  0.2527138E-006  0.9118800E+02  0.7816164E-02  0.1184000E+00
        -11   -1    0    0    0    0  0.00000000000E+00  0.00000000000E+00  0.45593999997E+02  0.45594000000E+02  0.51100000000E-03 0.  1.
         11   -1    0    0    0    0 -0.00000000000E+00 -0.00000000000E+00 -0.45593999997E+02  0.45594000000E+02  0.51100000000E-03 0. -1.
         23    2    1    2    0    0 -0.71054273576E-14 -0.35527136788E-14 -0.17763568394E-14  0.91188000000E+02  0.91188000000E+02 0.  0.
    9900012    2    3    3    0    0 -0.31284692714E+02 -0.18200730177E+02 -0.67662097382E+01  0.54367079705E+02  0.39999989802E+02 0.  0.
         12    1    3    3    0    0  0.31284692714E+02  0.18200730177E+02  0.67662097382E+01  0.36820920295E+02  0.00000000000E+00 0. -1.
         11    1    4    4    0    0  0.25049926068E+01  0.19704219964E+01  0.81249879852E-01  0.31881268181E+01  0.51100000000E-03 0. -1.
        -11    1    4    4    0    0 -0.26051385985E+01 -0.17378562503E+02 -0.90991048504E+01  0.19788756685E+02  0.51100000000E-03 0.  1.
         12    1    4    4    0    0 -0.31184546722E+02 -0.27925896708E+01  0.22516452323E+01  0.31390196202E+02  0.00000000000E+00 0. -1.
</event>
<event>
 8    1  0.2527138E-006  0.9118800E+02  0.7816164E-02  0.1184000E+00
        -11   -1    0    0    0    0  0.00000000000E+00  0.00000000000E+00  0.45593999997E+02  0.45594000000E+02  0.51100000000E-03 0.  1.
         11   -1    0    0    0    0 -0.00000000000E+00 -0.00000000000E+00 -0.45593999997E+02  0.45594000000E+02  0.51100000000E-03 0. -1.
         23    2    1    2    0    0  0.35527136788E-14 -0.17763568394E-14  0.71054273576E-14  0.91188000000E+02  0.91188000000E+02 0.  0.
    9900012    2    3    3    0    0  0.23963514215E+02 -0.10539559455E+02  0.25893155571E+02  0.54366975674E+02  0.39999752643E+02 0.  0.
         12    1    3    3    0    0 -0.23963514215E+02  0.10539559455E+02 -0.25893155571E+02  0.36821024326E+02  0.00000000000E+00 0. -1.
         11    1    4    4    0    0  0.15835684837E+02 -0.53969185900E+01 -0.60155938227E+01  0.17778723627E+02  0.51100000000E-03 0. -1.
        -11    1    4    4    0    0  0.15668277286E+01  0.53238309182E+01  0.10062983573E+02  0.11491812887E+02  0.51100000000E-03 0.  1.
        -12    1    4    4    0    0  0.65610016495E+01 -0.10466471783E+02  0.21845765821E+02  0.25096439160E+02  0.00000000000E+00 0.  1.
</event>
<event>
 8    1  0.2527138E-006  0.9118800E+02  0.7816164E-02  0.1184000E+00
        -11   -1    0    0    0    0  0.00000000000E+00  0.00000000000E+00  0.45593999997E+02  0.45594000000E+02  0.51100000000E-03 0.  1.
         11   -1    0    0    0    0 -0.00000000000E+00 -0.00000000000E+00 -0.45593999997E+02  0.45594000000E+02  0.51100000000E-03 0. -1.
         23    2    1    2    0    0  0.35527136788E-14  0.35527136788E-14  0.00000000000E+00  0.91188000000E+02  0.91188000000E+02 0.  0.
    9900012    2    3    3    0    0 -0.24028509907E+02 -0.21133552606E+02  0.18214896092E+02  0.54367098683E+02  0.40000033068E+02 0.  0.
         12    1    3    3    0    0  0.24028509907E+02  0.21133552606E+02 -0.18214896092E+02  0.36820901317E+02  0.00000000000E+00 0. -1.
         11    1    4    4    0    0 -0.24884555383E+01  0.77574381833E+01 -0.20450306365E+01  0.83995481247E+01  0.51100000000E-03 0. -1.
        -11    1    4    4    0    0 -0.14475502025E+02 -0.42427469100E+01  0.11144589174E+02  0.18754810805E+02  0.51100000000E-03 0.  1.
         12    1    4    4    0    0 -0.70645523445E+01 -0.24648243879E+02  0.91153375544E+01  0.27212739753E+02  0.00000000000E+00 0. -1.
</event>
<event>
 8    1  0.2527138E-006  0.9118800E+02  0.7816164E-02  0.1184000E+00
        -11   -1    0    0    0    0  0.00000000000E+00  0.00000000000E+00  0.45593999997E+02  0.45594000000E+02  0.51100000000E-03 0. -1.
         11   -1    0    0    0    0 -0.00000000000E+00 -0.00000000000E+00 -0.45593999997E+02  0.45594000000E+02  0.51100000000E-03 0.  1.
         23    2    1    2    0    0  0.00000000000E+00  0.17763568394E-14  0.00000000000E+00  0.91188000000E+02  0.91188000000E+02 0.  0.
    9900012    2    3    3    0    0 -0.21488991735E+02  0.13287073253E+02  0.26785372659E+02  0.54367091946E+02  0.40000017710E+02 0.  0.
        -12    1    3    3    0    0  0.21488991735E+02 -0.13287073253E+02 -0.26785372659E+02  0.36820908054E+02  0.00000000000E+00 0.  1.
         11    1    4    4    0    0 -0.15108598280E+02  0.82598342549E+01  0.73135288564E+01  0.18707814102E+02  0.51100000000E-03 0. -1.
        -11    1    4    4    0    0 -0.42530503541E+01 -0.75694002886E+01  0.21066085425E+02  0.22785175299E+02  0.51100000000E-03 0.  1.
        -12    1    4    4    0    0 -0.21273431015E+01  0.12596639286E+02 -0.15942416223E+01  0.12874102545E+02  0.00000000000E+00 0.  1.
</event>
<event>
 8    1  0.2527138E-006  0.9118800E+02  0.7816164E-02  0.1184000E+00
        -11   -1    0    0    0    0  0.00000000000E+00  0.00000000000E+00  0.45593999997E+02  0.45594000000E+02  0.51100000000E-03 0. -1.
         11   -1    0    0    0    0 -0.00000000000E+00 -0.00000000000E+00 -0.45593999997E+02  0.45594000000E+02  0.51100000000E-03 0.  1.
         23    2    1    2    0    0 -0.44408920985E-15  0.44408920985E-15  0.71054273576E-14  0.91188000000E+02  0.91188000000E+02 0.  0.
    9900012    2    3    3    0    0  0.31715161008E+01 -0.34440883920E+01 -0.36522042235E+02  0.54367084364E+02  0.40000000425E+02 0.  0.
         12    1    3    3    0    0 -0.31715161008E+01  0.34440883920E+01  0.36522042235E+02  0.36820915636E+02  0.00000000000E+00 0. -1.
         11    1    4    4    0    0 -0.51480135189E+00 -0.31074778678E+01  0.47113391967E+01  0.56672882773E+01  0.51100000000E-03 0. -1.
        -11    1    4    4    0    0  0.39513534114E+01 -0.10257894280E+02 -0.35662767986E+02  0.37318502242E+02  0.51100000000E-03 0.  1.
         12    1    4    4    0    0 -0.26503595874E+00  0.99212837562E+01 -0.55706134454E+01  0.11381293845E+02  0.00000000000E+00 0. -1.
</event>
<event>
 8    1  0.2527138E-006  0.9118800E+02  0.7816164E-02  0.1184000E+00
        -11   -1    0    0    0    0  0.00000000000E+00  0.00000000000E+00  0.45593999997E+02  0.45594000000E+02  0.51100000000E-03 0. -1.
         11   -1    0    0    0    0 -0.00000000000E+00 -0.00000000000E+00 -0.45593999997E+02  0.45594000000E+02  0.51100000000E-03 0.  1.
         23    2    1    2    0    0  0.17763568394E-14  0.00000000000E+00  0.71054273576E-14  0.91188000000E+02  0.91188000000E+02 0.  0.
    9900012    2    3    3    0    0 -0.81108667868E+01 -0.53146914409E+01  0.35521077029E+02  0.54367095361E+02  0.40000025495E+02 0.  0.
        -12    1    3    3    0    0  0.81108667868E+01  0.53146914409E+01 -0.35521077029E+02  0.36820904639E+02  0.00000000000E+00 0.  1.
         11    1    4    4    0    0 -0.12715344408E+02  0.67621117922E+00 -0.17286566879E+01  0.12850116699E+02  0.51100000000E-03 0. -1.
        -11    1    4    4    0    0  0.71130597001E+01  0.36847940417E+01  0.20525096875E+02  0.22032996333E+02  0.51100000000E-03 0.  1.
         12    1    4    4    0    0 -0.25085820794E+01 -0.96756966618E+01  0.16724636841E+02  0.19483982329E+02  0.00000000000E+00 0. -1.
</event>
<event>
 8    1  0.2527138E-006  0.9118800E+02  0.7816164E-02  0.1184000E+00
        -11   -1    0    0    0    0  0.00000000000E+00  0.00000000000E+00  0.45593999997E+02  0.45594000000E+02  0.51100000000E-03 0. -1.
         11   -1    0    0    0    0 -0.00000000000E+00 -0.00000000000E+00 -0.45593999997E+02  0.45594000000E+02  0.51100000000E-03 0.  1.
         23    2    1    2    0    0  0.00000000000E+00  0.00000000000E+00  0.17763568394E-14  0.91188000000E+02  0.91188000000E+02 0.  0.
    9900012    2    3    3    0    0  0.23294891098E+02  0.25607112167E+02 -0.12545855804E+02  0.54367154781E+02  0.40000160954E+02 0.  0.
         12    1    3    3    0    0 -0.23294891098E+02 -0.25607112167E+02  0.12545855804E+02  0.36820845219E+02  0.00000000000E+00 0. -1.
         11    1    4    4    0    0  0.18175256640E+02  0.15178991333E+02  0.85452950357E+01  0.25174665823E+02  0.51100000000E-03 0. -1.
        -11    1    4    4    0    0  0.82438663699E+01  0.83023107272E+01 -0.51040226870E+01  0.12764824479E+02  0.51100000000E-03 0.  1.
         12    1    4    4    0    0 -0.31242319118E+01  0.21258101068E+01 -0.15987128153E+02  0.16427664479E+02  0.00000000000E+00 0. -1.
</event>
<event>
 8    1  0.2527138E-006  0.9118800E+02  0.7816164E-02  0.1184000E+00
        -11   -1    0    0    0    0  0.00000000000E+00  0.00000000000E+00  0.45593999997E+02  0.45594000000E+02  0.51100000000E-03 0.  1.
         11   -1    0    0    0    0 -0.00000000000E+00 -0.00000000000E+00 -0.45593999997E+02  0.45594000000E+02  0.51100000000E-03 0. -1.
         23    2    1    2    0    0  0.00000000000E+00  0.00000000000E+00  0.00000000000E+00  0.91188000000E+02  0.91188000000E+02 0.  0.
    9900012    2    3    3    0    0 -0.18993840730E+02 -0.24000883019E+02 -0.20468834255E+02  0.54367061023E+02  0.39999947215E+02 0.  0.
        -12    1    3    3    0    0  0.18993840730E+02  0.24000883019E+02  0.20468834255E+02  0.36820938977E+02  0.00000000000E+00 0.  1.
         11    1    4    4    0    0  0.69496738002E+01 -0.12654656817E+01  0.21120397233E+01  0.73729289550E+01  0.51100000000E-03 0. -1.
        -11    1    4    4    0    0 -0.20056578675E+02 -0.25881560581E+01 -0.11235968892E+02  0.23134647115E+02  0.51100000000E-03 0.  1.
        -12    1    4    4    0    0 -0.58869358551E+01 -0.20147261280E+02 -0.11344905086E+02  0.23859484953E+02  0.00000000000E+00 0.  1.
</event>
<event>
 8    1  0.2527138E-006  0.9118800E+02  0.7816164E-02  0.1184000E+00
        -11   -1    0    0    0    0  0.00000000000E+00  0.00000000000E+00  0.45593999997E+02  0.45594000000E+02  0.51100000000E-03 0.  1.
         11   -1    0    0    0    0 -0.00000000000E+00 -0.00000000000E+00 -0.45593999997E+02  0.45594000000E+02  0.51100000000E-03 0. -1.
         23    2    1    2    0    0  0.00000000000E+00  0.00000000000E+00  0.00000000000E+00  0.91188000000E+02  0.91188000000E+02 0.  0.
    9900012    2    3    3    0    0 -0.11631275449E+02  0.34779669440E+02  0.32965832801E+01  0.54367089687E+02  0.40000012560E+02 0.  0.
         12    1    3    3    0    0  0.11631275449E+02 -0.34779669440E+02 -0.32965832801E+01  0.36820910313E+02  0.00000000000E+00 0. -1.
         11    1    4    4    0    0  0.11175323289E+01 -0.88574509207E+00 -0.14823251357E+01  0.20568692091E+01  0.51100000000E-03 0. -1.
        -11    1    4    4    0    0 -0.24136952367E+02  0.27288329907E+02 -0.22915187727E+01  0.36503376244E+02  0.51100000000E-03 0.  1.
         12    1    4    4    0    0  0.11388144590E+02  0.83770846250E+01  0.70704271884E+01  0.15806844234E+02  0.00000000000E+00 0. -1.
</event>
<event>
 8    1  0.2527138E-006  0.9118800E+02  0.7816164E-02  0.1184000E+00
        -11   -1    0    0    0    0  0.00000000000E+00  0.00000000000E+00  0.45593999997E+02  0.45594000000E+02  0.51100000000E-03 0.  1.
         11   -1    0    0    0    0 -0.00000000000E+00 -0.00000000000E+00 -0.45593999997E+02  0.45594000000E+02  0.51100000000E-03 0. -1.
         23    2    1    2    0    0 -0.88817841970E-15  0.88817841970E-15 -0.71054273576E-14  0.91188000000E+02  0.91188000000E+02 0.  0.
    9900012    2    3    3    0    0 -0.53471226749E+01  0.48532186110E+01 -0.36105875867E+02  0.54367085781E+02  0.40000003656E+02 0.  0.
        -12    1    3    3    0    0  0.53471226749E+01 -0.48532186110E+01  0.36105875867E+02  0.36820914219E+02  0.00000000000E+00 0.  1.
         11    1    4    4    0    0  0.45013124456E+01  0.64684545959E+01 -0.31318406257E+02  0.32294663481E+02  0.51100000000E-03 0. -1.
        -11    1    4    4    0    0 -0.87278078870E+01  0.70129644462E+01  0.15573096827E+01  0.11304048591E+02  0.51100000000E-03 0.  1.
         12    1    4    4    0    0 -0.11206272335E+01 -0.86282004311E+01 -0.63447792921E+01  0.10768373709E+02  0.00000000000E+00 0. -1.
</event>
<event>
 8    1  0.2527138E-006  0.9118800E+02  0.7816164E-02  0.1184000E+00
        -11   -1    0    0    0    0  0.00000000000E+00  0.00000000000E+00  0.45593999997E+02  0.45594000000E+02  0.51100000000E-03 0.  1.
         11   -1    0    0    0    0 -0.00000000000E+00 -0.00000000000E+00 -0.45593999997E+02  0.45594000000E+02  0.51100000000E-03 0. -1.
         23    2    1    2    0    0 -0.88817841970E-15  0.00000000000E+00 -0.35527136788E-14  0.91188000000E+02  0.91188000000E+02 0.  0.
    9900012    2    3    3    0    0  0.23616014044E+01 -0.19134610492E+02  0.31369806931E+02  0.54367146306E+02  0.40000141633E+02 0.  0.
         12    1    3    3    0    0 -0.23616014044E+01  0.19134610492E+02 -0.31369806931E+02  0.36820853694E+02  0.00000000000E+00 0. -1.
         11    1    4    4    0    0 -0.55738700137E+01  0.59574172057E+01  0.77709350518E+01  0.11267043913E+02  0.51100000000E-03 0. -1.
        -11    1    4    4    0    0 -0.94115586167E+00 -0.10872877842E+00  0.15284194863E+02  0.15313530265E+02  0.51100000000E-03 0.  1.
         12    1    4    4    0    0  0.88766272797E+01 -0.24983298919E+02  0.83146770163E+01  0.27786572128E+02  0.00000000000E+00 0. -1.
</event>
<event>
 8    1  0.2527138E-006  0.9118800E+02  0.7816164E-02  0.1184000E+00
        -11   -1    0    0    0    0  0.00000000000E+00  0.00000000000E+00  0.45593999997E+02  0.45594000000E+02  0.51100000000E-03 0.  1.
         11   -1    0    0    0    0 -0.00000000000E+00 -0.00000000000E+00 -0.45593999997E+02  0.45594000000E+02  0.51100000000E-03 0. -1.
         23    2    1    2    0    0  0.00000000000E+00  0.00000000000E+00  0.00000000000E+00  0.91188000000E+02  0.91188000000E+02 0.  0.
    9900012    2    3    3    0    0 -0.12334231176E+02 -0.20765030636E+02  0.27793143230E+02  0.54367101497E+02  0.40000039482E+02 0.  0.
         12    1    3    3    0    0  0.12334231176E+02  0.20765030636E+02 -0.27793143230E+02  0.36820898503E+02  0.00000000000E+00 0. -1.
         11    1    4    4    0    0 -0.16809931459E+02 -0.33540633823E+01 -0.23844093297E+01  0.17306326731E+02  0.51100000000E-03 0. -1.
        -11    1    4    4    0    0 -0.19778176769E+01 -0.12186655968E+01  0.10583604422E+02  0.10835570656E+02  0.51100000000E-03 0.  1.
         12    1    4    4    0    0  0.64535179600E+01 -0.16192301656E+02  0.19593948137E+02  0.26225204110E+02  0.00000000000E+00 0. -1.
</event>
<event>
 8    1  0.2527138E-006  0.9118800E+02  0.7816164E-02  0.1184000E+00
        -11   -1    0    0    0    0  0.00000000000E+00  0.00000000000E+00  0.45593999997E+02  0.45594000000E+02  0.51100000000E-03 0. -1.
         11   -1    0    0    0    0 -0.00000000000E+00 -0.00000000000E+00 -0.45593999997E+02  0.45594000000E+02  0.51100000000E-03 0.  1.
         23    2    1    2    0    0  0.00000000000E+00  0.88817841970E-15  0.00000000000E+00  0.91188000000E+02  0.91188000000E+02 0.  0.
    9900012    2    3    3    0    0  0.16408359586E+02  0.89525033509E+00 -0.32950649497E+02  0.54367067913E+02  0.39999962921E+02 0.  0.
         12    1    3    3    0    0 -0.16408359586E+02 -0.89525033509E+00  0.32950649497E+02  0.36820932087E+02  0.00000000000E+00 0. -1.
         11    1    4    4    0    0  0.33104995888E+01  0.60270891691E+01 -0.68356988731E+00  0.69103168836E+01  0.51100000000E-03 0. -1.
        -11    1    4    4    0    0  0.16189105567E+01  0.66674995437E+01 -0.30077282523E+02  0.30849948879E+02  0.51100000000E-03 0.  1.
         12    1    4    4    0    0  0.11478949440E+02 -0.11799338378E+02 -0.21897970867E+01  0.16606802151E+02  0.00000000000E+00 0. -1.
</event>
<event>
 8    1  0.2527138E-006  0.9118800E+02  0.7816164E-02  0.1184000E+00
        -11   -1    0    0    0    0  0.00000000000E+00  0.00000000000E+00  0.45593999997E+02  0.45594000000E+02  0.51100000000E-03 0.  1.
         11   -1    0    0    0    0 -0.00000000000E+00 -0.00000000000E+00 -0.45593999997E+02  0.45594000000E+02  0.51100000000E-03 0. -1.
         23    2    1    2    0    0 -0.73552275381E-15  0.00000000000E+00  0.35527136788E-14  0.91188000000E+02  0.91188000000E+02 0.  0.
    9900012    2    3    3    0    0 -0.83829631514E-01  0.25278127814E+02  0.26772953968E+02  0.54367057082E+02  0.39999938230E+02 0.  0.
         12    1    3    3    0    0  0.83829631514E-01 -0.25278127814E+02 -0.26772953968E+02  0.36820942918E+02  0.00000000000E+00 0. -1.
         11    1    4    4    0    0  0.16876083700E+01 -0.35231628568E+01 -0.22969643899E+01  0.45317484701E+01  0.51100000000E-03 0. -1.
        -11    1    4    4    0    0  0.12499663028E+02  0.15754908943E+02  0.92181764949E+01  0.22123144211E+02  0.51100000000E-03 0.  1.
         12    1    4    4    0    0 -0.14271101030E+02  0.13046381727E+02  0.19851741863E+02  0.27712164401E+02  0.00000000000E+00 0. -1.
</event>
<event>
 8    1  0.2527138E-006  0.9118800E+02  0.7816164E-02  0.1184000E+00
        -11   -1    0    0    0    0  0.00000000000E+00  0.00000000000E+00  0.45593999997E+02  0.45594000000E+02  0.51100000000E-03 0.  1.
         11   -1    0    0    0    0 -0.00000000000E+00 -0.00000000000E+00 -0.45593999997E+02  0.45594000000E+02  0.51100000000E-03 0. -1.
         23    2    1    2    0    0  0.00000000000E+00  0.66613381478E-15  0.00000000000E+00  0.91188000000E+02  0.91188000000E+02 0.  0.
    9900012    2    3    3    0    0  0.35667608035E+02 -0.37004804591E+00 -0.91357884249E+01  0.54367111517E+02  0.40000062326E+02 0.  0.
        -12    1    3    3    0    0 -0.35667608035E+02  0.37004804591E+00  0.91357884249E+01  0.36820888483E+02  0.00000000000E+00 0.  1.
         11    1    4    4    0    0  0.19057926751E+02 -0.13566101435E+01 -0.17728602141E+02  0.26064310796E+02  0.51100000000E-03 0. -1.
        -11    1    4    4    0    0  0.21389662787E+02  0.24776162828E+01  0.88698746717E+01  0.23287999776E+02  0.51100000000E-03 0.  1.
        -12    1    4    4    0    0 -0.47799815031E+01 -0.14910541852E+01 -0.27706095528E+00  0.50148009458E+01  0.00000000000E+00 0.  1.
</event>
<event>
 8    1  0.2527138E-006  0.9118800E+02  0.7816164E-02  0.1184000E+00
        -11   -1    0    0    0    0  0.00000000000E+00  0.00000000000E+00  0.45593999997E+02  0.45594000000E+02  0.51100000000E-03 0.  1.
         11   -1    0    0    0    0 -0.00000000000E+00 -0.00000000000E+00 -0.45593999997E+02  0.45594000000E+02  0.51100000000E-03 0. -1.
         23    2    1    2    0    0 -0.35527136788E-14  0.35527136788E-14  0.17763568394E-14  0.91188000000E+02  0.91188000000E+02 0.  0.
    9900012    2    3    3    0    0 -0.22850459119E+02  0.27062352364E+02  0.10063141687E+02  0.54367065492E+02  0.39999957403E+02 0.  0.
        -12    1    3    3    0    0  0.22850459119E+02 -0.27062352364E+02 -0.10063141687E+02  0.36820934508E+02  0.00000000000E+00 0.  1.
         11    1    4    4    0    0 -0.47530728237E+01 -0.55436921398E+01 -0.29769087858E+00  0.73084091244E+01  0.51100000000E-03 0. -1.
        -11    1    4    4    0    0 -0.19255353370E+01  0.21516939763E+01  0.12191010205E+02  0.12528296108E+02  0.51100000000E-03 0.  1.
         12    1    4    4    0    0 -0.16171850958E+02  0.30454350528E+02 -0.18301776393E+01  0.34530360260E+02  0.00000000000E+00 0. -1.
</event>
<event>
 8    1  0.2527138E-006  0.9118800E+02  0.7816164E-02  0.1184000E+00
        -11   -1    0    0    0    0  0.00000000000E+00  0.00000000000E+00  0.45593999997E+02  0.45594000000E+02  0.51100000000E-03 0. -1.
         11   -1    0    0    0    0 -0.00000000000E+00 -0.00000000000E+00 -0.45593999997E+02  0.45594000000E+02  0.51100000000E-03 0.  1.
         23    2    1    2    0    0  0.35527136788E-14  0.00000000000E+00  0.00000000000E+00  0.91188000000E+02  0.91188000000E+02 0.  0.
    9900012    2    3    3    0    0 -0.20223347490E+02  0.23791827652E+02 -0.19512683618E+02  0.54367086530E+02  0.40000005363E+02 0.  0.
         12    1    3    3    0    0  0.20223347490E+02 -0.23791827652E+02  0.19512683618E+02  0.36820913470E+02  0.00000000000E+00 0. -1.
         11    1    4    4    0    0 -0.89513976810E+01  0.22557468137E+02 -0.60260503156E+01  0.25005602809E+02  0.51100000000E-03 0. -1.
        -11    1    4    4    0    0 -0.49541607972E+01 -0.25775881242E+01  0.61959242182E+01  0.83412916818E+01  0.51100000000E-03 0.  1.
        -12    1    4    4    0    0 -0.63177890123E+01  0.38119476399E+01 -0.19682557521E+02  0.21020192039E+02  0.00000000000E+00 0.  1.
</event>
<event>
 8    1  0.2527138E-006  0.9118800E+02  0.7816164E-02  0.1184000E+00
        -11   -1    0    0    0    0  0.00000000000E+00  0.00000000000E+00  0.45593999997E+02  0.45594000000E+02  0.51100000000E-03 0.  1.
         11   -1    0    0    0    0 -0.00000000000E+00 -0.00000000000E+00 -0.45593999997E+02  0.45594000000E+02  0.51100000000E-03 0. -1.
         23    2    1    2    0    0  0.00000000000E+00 -0.53290705182E-14 -0.35527136788E-14  0.91188000000E+02  0.91188000000E+02 0.  0.
    9900012    2    3    3    0    0  0.24158035533E+02  0.15186406912E+02  0.23271020251E+02  0.54367108929E+02  0.40000056426E+02 0.  0.
         12    1    3    3    0    0 -0.24158035533E+02 -0.15186406912E+02 -0.23271020251E+02  0.36820891071E+02  0.00000000000E+00 0. -1.
         11    1    4    4    0    0  0.63315956081E+01  0.17522620854E+02  0.38418145443E+01  0.19023429864E+02  0.51100000000E-03 0. -1.
        -11    1    4    4    0    0  0.23546060440E+02 -0.82920325745E+00  0.14697099755E+02  0.27768854528E+02  0.51100000000E-03 0.  1.
        -12    1    4    4    0    0 -0.57196205151E+01 -0.15070106850E+01  0.47321059516E+01  0.75748245378E+01  0.00000000000E+00 0.  1.
</event>
<event>
 8    1  0.2527138E-006  0.9118800E+02  0.7816164E-02  0.1184000E+00
        -11   -1    0    0    0    0  0.00000000000E+00  0.00000000000E+00  0.45593999997E+02  0.45594000000E+02  0.51100000000E-03 0.  1.
         11   -1    0    0    0    0 -0.00000000000E+00 -0.00000000000E+00 -0.45593999997E+02  0.45594000000E+02  0.51100000000E-03 0. -1.
         23    2    1    2    0    0  0.00000000000E+00  0.00000000000E+00 -0.35527136788E-14  0.91188000000E+02  0.91188000000E+02 0.  0.
    9900012    2    3    3    0    0  0.90025687602E+01 -0.31557044777E+02 -0.16699882879E+02  0.54367090078E+02  0.40000013450E+02 0.  0.
         12    1    3    3    0    0 -0.90025687602E+01  0.31557044777E+02  0.16699882879E+02  0.36820909922E+02  0.00000000000E+00 0. -1.
         11    1    4    4    0    0 -0.53799322071E+01 -0.79245437184E+01 -0.38274359484E+01  0.10314617293E+02  0.51100000000E-03 0. -1.
        -11    1    4    4    0    0  0.45582313756E+00  0.40677342434E+01 -0.12385701911E+02  0.13044533288E+02  0.51100000000E-03 0.  1.
        -12    1    4    4    0    0  0.13926677830E+02 -0.27700235302E+02 -0.48674501967E+00  0.31007939497E+02  0.00000000000E+00 0.  1.
</event>
<event>
 8    1  0.2527138E-006  0.9118800E+02  0.7816164E-02  0.1184000E+00
        -11   -1    0    0    0    0  0.00000000000E+00  0.00000000000E+00  0.45593999997E+02  0.45594000000E+02  0.51100000000E-03 0. -1.
         11   -1    0    0    0    0 -0.00000000000E+00 -0.00000000000E+00 -0.45593999997E+02  0.45594000000E+02  0.51100000000E-03 0.  1.
         23    2    1    2    0    0  0.71054273576E-14  0.13322676296E-14 -0.22204460493E-15  0.91188000000E+02  0.91188000000E+02 0.  0.
    9900012    2    3    3    0    0  0.36588303278E+02  0.37268783614E+01 -0.17850235352E+01  0.54367083823E+02  0.39999999191E+02 0.  0.
         12    1    3    3    0    0 -0.36588303278E+02 -0.37268783614E+01  0.17850235352E+01  0.36820916177E+02  0.00000000000E+00 0. -1.
         11    1    4    4    0    0  0.21385400219E+02  0.14346007356E+02 -0.67362895915E+01  0.26618055288E+02  0.51100000000E-03 0. -1.
        -11    1    4    4    0    0 -0.35416973516E+01  0.32083111237E+00  0.48888175046E+01  0.60454188926E+01  0.51100000000E-03 0.  1.
        -12    1    4    4    0    0  0.18744600411E+02 -0.10939960106E+02  0.62448551768E-01  0.21703609643E+02  0.00000000000E+00 0.  1.
</event>
<event>
 8    1  0.2527138E-006  0.9118800E+02  0.7816164E-02  0.1184000E+00
        -11   -1    0    0    0    0  0.00000000000E+00  0.00000000000E+00  0.45593999997E+02  0.45594000000E+02  0.51100000000E-03 0.  1.
         11   -1    0    0    0    0 -0.00000000000E+00 -0.00000000000E+00 -0.45593999997E+02  0.45594000000E+02  0.51100000000E-03 0. -1.
         23    2    1    2    0    0  0.35527136788E-14  0.00000000000E+00  0.00000000000E+00  0.91188000000E+02  0.91188000000E+02 0.  0.
    9900012    2    3    3    0    0  0.96534851600E+01  0.35179949684E+02 -0.49960158362E+01  0.54367098195E+02  0.40000031956E+02 0.  0.
        -12    1    3    3    0    0 -0.96534851600E+01 -0.35179949684E+02  0.49960158362E+01  0.36820901805E+02  0.00000000000E+00 0.  1.
         11    1    4    4    0    0  0.14832973590E+02  0.16526627577E+01 -0.12933656291E+01  0.14980694064E+02  0.51100000000E-03 0. -1.
        -11    1    4    4    0    0 -0.12136311580E+02  0.14579579354E+02 -0.28613141046E+01  0.19184402820E+02  0.51100000000E-03 0.  1.
        -12    1    4    4    0    0  0.69568231495E+01  0.18947707572E+02 -0.84133610248E+00  0.20202001311E+02  0.00000000000E+00 0.  1.
</event>
<event>
 8    1  0.2527138E-006  0.9118800E+02  0.7816164E-02  0.1184000E+00
        -11   -1    0    0    0    0  0.00000000000E+00  0.00000000000E+00  0.45593999997E+02  0.45594000000E+02  0.51100000000E-03 0.  1.
         11   -1    0    0    0    0 -0.00000000000E+00 -0.00000000000E+00 -0.45593999997E+02  0.45594000000E+02  0.51100000000E-03 0. -1.
         23    2    1    2    0    0  0.00000000000E+00  0.00000000000E+00  0.71054273576E-14  0.91188000000E+02  0.91188000000E+02 0.  0.
    9900012    2    3    3    0    0 -0.21898214259E+02  0.17118575487E+02 -0.24149526932E+02  0.54367121881E+02  0.40000085953E+02 0.  0.
        -12    1    3    3    0    0  0.21898214259E+02 -0.17118575487E+02  0.24149526932E+02  0.36820878119E+02  0.00000000000E+00 0.  1.
         11    1    4    4    0    0 -0.45961290731E+01  0.65087314601E+01  0.46262726157E+01  0.92135978994E+01  0.51100000000E-03 0. -1.
        -11    1    4    4    0    0 -0.11404891037E+01  0.13378218136E+02 -0.17469380900E+01  0.13539912439E+02  0.51100000000E-03 0.  1.
         12    1    4    4    0    0 -0.16161596082E+02 -0.27683741100E+01 -0.27028861457E+02  0.31613611543E+02  0.00000000000E+00 0. -1.
</event>
<event>
 8    1  0.2527138E-006  0.9118800E+02  0.7816164E-02  0.1184000E+00
        -11   -1    0    0    0    0  0.00000000000E+00  0.00000000000E+00  0.45593999997E+02  0.45594000000E+02  0.51100000000E-03 0.  1.
         11   -1    0    0    0    0 -0.00000000000E+00 -0.00000000000E+00 -0.45593999997E+02  0.45594000000E+02  0.51100000000E-03 0. -1.
         23    2    1    2    0    0  0.17763568394E-14 -0.17763568394E-14  0.35527136788E-14  0.91188000000E+02  0.91188000000E+02 0.  0.
    9900012    2    3    3    0    0 -0.12825470455E+02  0.14283390171E+02 -0.31420894206E+02  0.54367074972E+02  0.39999979015E+02 0.  0.
        -12    1    3    3    0    0  0.12825470455E+02 -0.14283390171E+02  0.31420894206E+02  0.36820925028E+02  0.00000000000E+00 0.  1.
         11    1    4    4    0    0  0.59662234811E+01 -0.20108196584E+00 -0.43485131829E+01  0.73855144537E+01  0.51100000000E-03 0. -1.
        -11    1    4    4    0    0  0.53844414919E+01 -0.48614650014E+01 -0.70001747818E+01  0.10081096140E+02  0.51100000000E-03 0.  1.
        -12    1    4    4    0    0 -0.24176135428E+02  0.19345937139E+02 -0.20072206242E+02  0.36900464379E+02  0.00000000000E+00 0.  1.
</event>
<event>
 8    1  0.2527138E-006  0.9118800E+02  0.7816164E-02  0.1184000E+00
        -11   -1    0    0    0    0  0.00000000000E+00  0.00000000000E+00  0.45593999997E+02  0.45594000000E+02  0.51100000000E-03 0. -1.
         11   -1    0    0    0    0 -0.00000000000E+00 -0.00000000000E+00 -0.45593999997E+02  0.45594000000E+02  0.51100000000E-03 0.  1.
         23    2    1    2    0    0  0.00000000000E+00  0.00000000000E+00  0.00000000000E+00  0.91188000000E+02  0.91188000000E+02 0.  0.
    9900012    2    3    3    0    0 -0.14357698730E+02  0.14164614567E+02 -0.30805887876E+02  0.54367047453E+02  0.39999916278E+02 0.  0.
         12    1    3    3    0    0  0.14357698730E+02 -0.14164614567E+02  0.30805887876E+02  0.36820952547E+02  0.00000000000E+00 0. -1.
         11    1    4    4    0    0 -0.23059253128E+01 -0.14726666656E+01 -0.35058833624E+01  0.44471628110E+01  0.51100000000E-03 0. -1.
        -11    1    4    4    0    0 -0.74584198604E+01  0.69668616311E+01 -0.35621225730E+02  0.37054512688E+02  0.51100000000E-03 0.  1.
        -12    1    4    4    0    0 -0.45933535565E+01  0.86704196018E+01  0.83212212161E+01  0.12865371953E+02  0.00000000000E+00 0.  1.
</event>
<event>
 8    1  0.2527138E-006  0.9118800E+02  0.7816164E-02  0.1184000E+00
        -11   -1    0    0    0    0  0.00000000000E+00  0.00000000000E+00  0.45593999997E+02  0.45594000000E+02  0.51100000000E-03 0. -1.
         11   -1    0    0    0    0 -0.00000000000E+00 -0.00000000000E+00 -0.45593999997E+02  0.45594000000E+02  0.51100000000E-03 0.  1.
         23    2    1    2    0    0  0.00000000000E+00  0.35527136788E-14  0.00000000000E+00  0.91188000000E+02  0.91188000000E+02 0.  0.
    9900012    2    3    3    0    0 -0.23075775209E+02 -0.22612548656E+02 -0.17662613295E+02  0.54366991504E+02  0.39999788732E+02 0.  0.
         12    1    3    3    0    0  0.23075775209E+02  0.22612548656E+02  0.17662613295E+02  0.36821008496E+02  0.00000000000E+00 0. -1.
         11    1    4    4    0    0  0.24397308263E+01 -0.19658955407E+01 -0.54917965588E+01  0.63227257956E+01  0.51100000000E-03 0. -1.
        -11    1    4    4    0    0  0.40537897974E+01 -0.38058483334E+01  0.70370591888E+01  0.89687176088E+01  0.51100000000E-03 0.  1.
        -12    1    4    4    0    0 -0.29569295832E+02 -0.16840804782E+02 -0.19207875925E+02  0.39075548100E+02  0.00000000000E+00 0.  1.
</event>
<event>
 8    1  0.2527138E-006  0.9118800E+02  0.7816164E-02  0.1184000E+00
        -11   -1    0    0    0    0  0.00000000000E+00  0.00000000000E+00  0.45593999997E+02  0.45594000000E+02  0.51100000000E-03 0.  1.
         11   -1    0    0    0    0 -0.00000000000E+00 -0.00000000000E+00 -0.45593999997E+02  0.45594000000E+02  0.51100000000E-03 0. -1.
         23    2    1    2    0    0 -0.44408920985E-15  0.00000000000E+00  0.00000000000E+00  0.91188000000E+02  0.91188000000E+02 0.  0.
    9900012    2    3    3    0    0  0.27247498254E+01 -0.16232496784E+02  0.32937238599E+02  0.54367083390E+02  0.39999998204E+02 0.  0.
         12    1    3    3    0    0 -0.27247498254E+01  0.16232496784E+02 -0.32937238599E+02  0.36820916610E+02  0.00000000000E+00 0. -1.
         11    1    4    4    0    0 -0.16290304850E+02 -0.13424929587E+02  0.14859314966E+02  0.25814763374E+02  0.51100000000E-03 0. -1.
        -11    1    4    4    0    0  0.84250036205E+01 -0.29921805063E+01  0.15102814372E+02  0.17550750195E+02  0.51100000000E-03 0.  1.
        -12    1    4    4    0    0  0.10590051055E+02  0.18461330903E+00  0.29751092613E+01  0.11001569822E+02  0.00000000000E+00 0.  1.
</event>
<event>
 8    1  0.2527138E-006  0.9118800E+02  0.7816164E-02  0.1184000E+00
        -11   -1    0    0    0    0  0.00000000000E+00  0.00000000000E+00  0.45593999997E+02  0.45594000000E+02  0.51100000000E-03 0. -1.
         11   -1    0    0    0    0 -0.00000000000E+00 -0.00000000000E+00 -0.45593999997E+02  0.45594000000E+02  0.51100000000E-03 0.  1.
         23    2    1    2    0    0 -0.71054273576E-14 -0.88817841970E-15 -0.35527136788E-14  0.91188000000E+02  0.91188000000E+02 0.  0.
    9900012    2    3    3    0    0  0.35664722756E+02 -0.47189970623E+01  0.78445856195E+01  0.54367096887E+02  0.40000028974E+02 0.  0.
        -12    1    3    3    0    0 -0.35664722756E+02  0.47189970623E+01 -0.78445856195E+01  0.36820903113E+02  0.00000000000E+00 0.  1.
         11    1    4    4    0    0  0.38413845791E+01  0.60748756281E+01 -0.88020631486E+01  0.11363831454E+02  0.51100000000E-03 0. -1.
        -11    1    4    4    0    0  0.31063398254E+01 -0.72670467871E+01 -0.25231547761E+01  0.82961211661E+01  0.51100000000E-03 0.  1.
         12    1    4    4    0    0  0.28716998351E+02 -0.35268259033E+01  0.19169803544E+02  0.34707144267E+02  0.00000000000E+00 0. -1.
</event>
<event>
 8    1  0.2527138E-006  0.9118800E+02  0.7816164E-02  0.1184000E+00
        -11   -1    0    0    0    0  0.00000000000E+00  0.00000000000E+00  0.45593999997E+02  0.45594000000E+02  0.51100000000E-03 0. -1.
         11   -1    0    0    0    0 -0.00000000000E+00 -0.00000000000E+00 -0.45593999997E+02  0.45594000000E+02  0.51100000000E-03 0.  1.
         23    2    1    2    0    0 -0.35527136788E-14  0.35527136788E-14  0.00000000000E+00  0.91188000000E+02  0.91188000000E+02 0.  0.
    9900012    2    3    3    0    0  0.28335601315E+02 -0.22432839431E+02 -0.70457094275E+01  0.54367073774E+02  0.39999976282E+02 0.  0.
         12    1    3    3    0    0 -0.28335601315E+02  0.22432839431E+02  0.70457094275E+01  0.36820926226E+02  0.00000000000E+00 0. -1.
         11    1    4    4    0    0  0.25471134385E+02 -0.32178783435E+01 -0.15293471575E+01  0.25719104395E+02  0.51100000000E-03 0. -1.
        -11    1    4    4    0    0 -0.60118286443E+01  0.88400306795E-01  0.16341635710E+01  0.62306010224E+01  0.51100000000E-03 0.  1.
        -12    1    4    4    0    0  0.88762955749E+01 -0.19303361394E+02 -0.71505258410E+01  0.22417368357E+02  0.00000000000E+00 0.  1.
</event>
<event>
 8    1  0.2527138E-006  0.9118800E+02  0.7816164E-02  0.1184000E+00
        -11   -1    0    0    0    0  0.00000000000E+00  0.00000000000E+00  0.45593999997E+02  0.45594000000E+02  0.51100000000E-03 0. -1.
         11   -1    0    0    0    0 -0.00000000000E+00 -0.00000000000E+00 -0.45593999997E+02  0.45594000000E+02  0.51100000000E-03 0.  1.
         23    2    1    2    0    0  0.00000000000E+00 -0.71054273576E-14  0.35527136788E-14  0.91188000000E+02  0.91188000000E+02 0.  0.
    9900012    2    3    3    0    0  0.12627355627E+02  0.27779474787E+02 -0.20606551154E+02  0.54367091809E+02  0.40000017397E+02 0.  0.
         12    1    3    3    0    0 -0.12627355627E+02 -0.27779474787E+02  0.20606551154E+02  0.36820908191E+02  0.00000000000E+00 0. -1.
         11    1    4    4    0    0  0.59293888955E+01  0.76790788972E+01  0.84928102405E+01  0.12893941656E+02  0.51100000000E-03 0. -1.
        -11    1    4    4    0    0  0.13146380453E+02  0.91777443048E+01 -0.11292804330E+02  0.19610857692E+02  0.51100000000E-03 0.  1.
         12    1    4    4    0    0 -0.64484137210E+01  0.10922651585E+02 -0.17806557064E+02  0.21862292461E+02  0.00000000000E+00 0. -1.
</event>
<event>
 8    1  0.2527138E-006  0.9118800E+02  0.7816164E-02  0.1184000E+00
        -11   -1    0    0    0    0  0.00000000000E+00  0.00000000000E+00  0.45593999997E+02  0.45594000000E+02  0.51100000000E-03 0.  1.
         11   -1    0    0    0    0 -0.00000000000E+00 -0.00000000000E+00 -0.45593999997E+02  0.45594000000E+02  0.51100000000E-03 0. -1.
         23    2    1    2    0    0 -0.17763568394E-14 -0.17763568394E-14 -0.71054273576E-14  0.91188000000E+02  0.91188000000E+02 0.  0.
    9900012    2    3    3    0    0 -0.12119916225E+02 -0.14683663101E+02 -0.31516306537E+02  0.54367083267E+02  0.39999997923E+02 0.  0.
        -12    1    3    3    0    0  0.12119916225E+02  0.14683663101E+02  0.31516306537E+02  0.36820916733E+02  0.00000000000E+00 0.  1.
         11    1    4    4    0    0  0.27407117319E+01 -0.18006028491E+02 -0.17448021402E+02  0.25222252356E+02  0.51100000000E-03 0. -1.
        -11    1    4    4    0    0 -0.13688114449E+02 -0.50084885485E+01 -0.14708899883E+02  0.20707514837E+02  0.51100000000E-03 0.  1.
        -12    1    4    4    0    0 -0.11725135077E+01  0.83308539384E+01  0.64061474794E+00  0.84373160735E+01  0.00000000000E+00 0.  1.
</event>
<event>
 8    1  0.2527138E-006  0.9118800E+02  0.7816164E-02  0.1184000E+00
        -11   -1    0    0    0    0  0.00000000000E+00  0.00000000000E+00  0.45593999997E+02  0.45594000000E+02  0.51100000000E-03 0. -1.
         11   -1    0    0    0    0 -0.00000000000E+00 -0.00000000000E+00 -0.45593999997E+02  0.45594000000E+02  0.51100000000E-03 0.  1.
         23    2    1    2    0    0  0.00000000000E+00  0.00000000000E+00  0.00000000000E+00  0.91188000000E+02  0.91188000000E+02 0.  0.
    9900012    2    3    3    0    0 -0.16693083578E+02  0.16847278537E+02  0.28165398986E+02  0.54367088367E+02  0.40000009550E+02 0.  0.
        -12    1    3    3    0    0  0.16693083578E+02 -0.16847278537E+02 -0.28165398986E+02  0.36820911633E+02  0.00000000000E+00 0.  1.
         11    1    4    4    0    0 -0.66447510936E+01 -0.51208180430E+01  0.46609612172E+01  0.95968773179E+01  0.51100000000E-03 0. -1.
        -11    1    4    4    0    0 -0.13752396655E+02  0.44931074013E+00  0.17232633651E+02  0.22052073751E+02  0.51100000000E-03 0.  1.
         12    1    4    4    0    0  0.37040641714E+01  0.21518785840E+02  0.62718041177E+01  0.22718137298E+02  0.00000000000E+00 0. -1.
</event>
<event>
 8    1  0.2527138E-006  0.9118800E+02  0.7816164E-02  0.1184000E+00
        -11   -1    0    0    0    0  0.00000000000E+00  0.00000000000E+00  0.45593999997E+02  0.45594000000E+02  0.51100000000E-03 0. -1.
         11   -1    0    0    0    0 -0.00000000000E+00 -0.00000000000E+00 -0.45593999997E+02  0.45594000000E+02  0.51100000000E-03 0.  1.
         23    2    1    2    0    0 -0.35527136788E-14 -0.35527136788E-14  0.27755575616E-15  0.91188000000E+02  0.91188000000E+02 0.  0.
    9900012    2    3    3    0    0  0.28298082067E+02  0.23555549816E+02 -0.36583905652E+00  0.54367092705E+02  0.40000019440E+02 0.  0.
         12    1    3    3    0    0 -0.28298082067E+02 -0.23555549816E+02  0.36583905652E+00  0.36820907295E+02  0.00000000000E+00 0. -1.
         11    1    4    4    0    0 -0.46524459892E+01  0.18874265107E+01  0.20124084130E+00  0.50247518001E+01  0.51100000000E-03 0. -1.
        -11    1    4    4    0    0  0.26533104702E+02  0.29299493795E+00 -0.37515039749E+01  0.26798605813E+02  0.51100000000E-03 0.  1.
         12    1    4    4    0    0  0.64174233542E+01  0.21375128367E+02  0.31844240770E+01  0.22543735092E+02  0.00000000000E+00 0. -1.
</event>
<event>
 8    1  0.2527138E-006  0.9118800E+02  0.7816164E-02  0.1184000E+00
        -11   -1    0    0    0    0  0.00000000000E+00  0.00000000000E+00  0.45593999997E+02  0.45594000000E+02  0.51100000000E-03 0.  1.
         11   -1    0    0    0    0 -0.00000000000E+00 -0.00000000000E+00 -0.45593999997E+02  0.45594000000E+02  0.51100000000E-03 0. -1.
         23    2    1    2    0    0  0.11102230246E-14  0.88817841970E-15  0.71054273576E-14  0.91188000000E+02  0.91188000000E+02 0.  0.
    9900012    2    3    3    0    0 -0.90727431551E+00  0.56509229766E+01  0.36373395217E+02  0.54367082619E+02  0.39999996446E+02 0.  0.
         12    1    3    3    0    0  0.90727431551E+00 -0.56509229766E+01 -0.36373395217E+02  0.36820917381E+02  0.00000000000E+00 0. -1.
         11    1    4    4    0    0  0.60477262525E+01 -0.56390673471E-01  0.10480059678E+01  0.61381177492E+01  0.51100000000E-03 0. -1.
        -11    1    4    4    0    0 -0.93096259718E+01  0.17598141040E+02  0.16594694234E+02  0.25918093695E+02  0.51100000000E-03 0.  1.
        -12    1    4    4    0    0  0.23546254038E+01 -0.11890827390E+02  0.18730695015E+02  0.22310871174E+02  0.00000000000E+00 0.  1.
</event>
<event>
 8    1  0.2527138E-006  0.9118800E+02  0.7816164E-02  0.1184000E+00
        -11   -1    0    0    0    0  0.00000000000E+00  0.00000000000E+00  0.45593999997E+02  0.45594000000E+02  0.51100000000E-03 0.  1.
         11   -1    0    0    0    0 -0.00000000000E+00 -0.00000000000E+00 -0.45593999997E+02  0.45594000000E+02  0.51100000000E-03 0. -1.
         23    2    1    2    0    0 -0.35527136788E-14 -0.35527136788E-14 -0.35527136788E-14  0.91188000000E+02  0.91188000000E+02 0.  0.
    9900012    2    3    3    0    0  0.20380124133E+02  0.18404216375E+02  0.24529921585E+02  0.54367059042E+02  0.39999942698E+02 0.  0.
         12    1    3    3    0    0 -0.20380124133E+02 -0.18404216375E+02 -0.24529921585E+02  0.36820940958E+02  0.00000000000E+00 0. -1.
         11    1    4    4    0    0  0.11574515113E+01  0.16465756026E+02  0.16736758554E+02  0.23507018157E+02  0.51100000000E-03 0. -1.
        -11    1    4    4    0    0  0.20047376150E+02 -0.60365830761E+01  0.89315882416E+01  0.22762049436E+02  0.51100000000E-03 0.  1.
         12    1    4    4    0    0 -0.82470352871E+00  0.79750434252E+01 -0.11384252099E+01  0.80979914487E+01  0.00000000000E+00 0. -1.
</event>
<event>
 8    1  0.2527138E-006  0.9118800E+02  0.7816164E-02  0.1184000E+00
        -11   -1    0    0    0    0  0.00000000000E+00  0.00000000000E+00  0.45593999997E+02  0.45594000000E+02  0.51100000000E-03 0. -1.
         11   -1    0    0    0    0 -0.00000000000E+00 -0.00000000000E+00 -0.45593999997E+02  0.45594000000E+02  0.51100000000E-03 0.  1.
         23    2    1    2    0    0 -0.35527136788E-14  0.00000000000E+00  0.00000000000E+00  0.91188000000E+02  0.91188000000E+02 0.  0.
    9900012    2    3    3    0    0  0.26744284582E+02 -0.23225070387E+02 -0.10055788588E+02  0.54367088327E+02  0.40000009460E+02 0.  0.
        -12    1    3    3    0    0 -0.26744284582E+02  0.23225070387E+02  0.10055788588E+02  0.36820911673E+02  0.00000000000E+00 0.  1.
         11    1    4    4    0    0  0.18478520253E+02 -0.18177491287E+02  0.43192569987E+01  0.26277992341E+02  0.51100000000E-03 0. -1.
        -11    1    4    4    0    0  0.13808113220E+02 -0.92585797841E+01 -0.12724211049E+02  0.20935396757E+02  0.51100000000E-03 0.  1.
        -12    1    4    4    0    0 -0.55423488905E+01  0.42110006838E+01 -0.16508345384E+01  0.71536992288E+01  0.00000000000E+00 0.  1.
</event>
<event>
 8    1  0.2527138E-006  0.9118800E+02  0.7816164E-02  0.1184000E+00
        -11   -1    0    0    0    0  0.00000000000E+00  0.00000000000E+00  0.45593999997E+02  0.45594000000E+02  0.51100000000E-03 0. -1.
         11   -1    0    0    0    0 -0.00000000000E+00 -0.00000000000E+00 -0.45593999997E+02  0.45594000000E+02  0.51100000000E-03 0.  1.
         23    2    1    2    0    0  0.00000000000E+00  0.00000000000E+00 -0.88817841970E-15  0.91188000000E+02  0.91188000000E+02 0.  0.
    9900012    2    3    3    0    0  0.32013347108E+02 -0.17222922323E+02 -0.58564377283E+01  0.54367064253E+02  0.39999954578E+02 0.  0.
         12    1    3    3    0    0 -0.32013347108E+02  0.17222922323E+02  0.58564377283E+01  0.36820935747E+02  0.00000000000E+00 0. -1.
         11    1    4    4    0    0 -0.80234015501E+01 -0.77887787177E+01 -0.21395377645E+01  0.11384975558E+02  0.51100000000E-03 0. -1.
        -11    1    4    4    0    0  0.11743435500E+02  0.17007638841E+01 -0.41578747463E+01  0.12573336780E+02  0.51100000000E-03 0.  1.
        -12    1    4    4    0    0  0.28293313158E+02 -0.11134907489E+02  0.44097478246E+00  0.30408751915E+02  0.00000000000E+00 0.  1.
</event>
<event>
 8    1  0.2527138E-006  0.9118800E+02  0.7816164E-02  0.1184000E+00
        -11   -1    0    0    0    0  0.00000000000E+00  0.00000000000E+00  0.45593999997E+02  0.45594000000E+02  0.51100000000E-03 0.  1.
         11   -1    0    0    0    0 -0.00000000000E+00 -0.00000000000E+00 -0.45593999997E+02  0.45594000000E+02  0.51100000000E-03 0. -1.
         23    2    1    2    0    0  0.35527136788E-14  0.88817841970E-15  0.00000000000E+00  0.91188000000E+02  0.91188000000E+02 0.  0.
    9900012    2    3    3    0    0 -0.29019984196E+02  0.66783345215E+01  0.21656878720E+02  0.54367081617E+02  0.39999994161E+02 0.  0.
         12    1    3    3    0    0  0.29019984196E+02 -0.66783345215E+01 -0.21656878720E+02  0.36820918383E+02  0.00000000000E+00 0. -1.
         11    1    4    4    0    0 -0.54631936953E+01 -0.73604728063E+00  0.14381636094E+02  0.15401938448E+02  0.51100000000E-03 0. -1.
        -11    1    4    4    0    0 -0.90246728639E+01  0.15800059664E+02  0.11675722708E+02  0.21619646313E+02  0.51100000000E-03 0.  1.
         12    1    4    4    0    0 -0.14532117637E+02 -0.83856778623E+01 -0.44004800818E+01  0.17345496856E+02  0.00000000000E+00 0. -1.
</event>
<event>
 8    1  0.2527138E-006  0.9118800E+02  0.7816164E-02  0.1184000E+00
        -11   -1    0    0    0    0  0.00000000000E+00  0.00000000000E+00  0.45593999997E+02  0.45594000000E+02  0.51100000000E-03 0.  1.
         11   -1    0    0    0    0 -0.00000000000E+00 -0.00000000000E+00 -0.45593999997E+02  0.45594000000E+02  0.51100000000E-03 0. -1.
         23    2    1    2    0    0  0.00000000000E+00  0.00000000000E+00 -0.17763568394E-14  0.91188000000E+02  0.91188000000E+02 0.  0.
    9900012    2    3    3    0    0  0.32469214218E+02 -0.12208989445E+02 -0.12347891914E+02  0.54367085700E+02  0.40000003470E+02 0.  0.
        -12    1    3    3    0    0 -0.32469214218E+02  0.12208989445E+02  0.12347891914E+02  0.36820914300E+02  0.00000000000E+00 0.  1.
         11    1    4    4    0    0 -0.35934562925E-01  0.62682916038E+00 -0.35075399598E+01  0.35632910237E+01  0.51100000000E-03 0. -1.
        -11    1    4    4    0    0  0.13502543900E+02  0.98120893237E+01  0.59838529385E+01  0.17731392639E+02  0.51100000000E-03 0.  1.
         12    1    4    4    0    0  0.19002604880E+02 -0.22647907929E+02 -0.14824204893E+02  0.33072402037E+02  0.00000000000E+00 0. -1.
</event>
<event>
 8    1  0.2527138E-006  0.9118800E+02  0.7816164E-02  0.1184000E+00
        -11   -1    0    0    0    0  0.00000000000E+00  0.00000000000E+00  0.45593999997E+02  0.45594000000E+02  0.51100000000E-03 0. -1.
         11   -1    0    0    0    0 -0.00000000000E+00 -0.00000000000E+00 -0.45593999997E+02  0.45594000000E+02  0.51100000000E-03 0.  1.
         23    2    1    2    0    0  0.00000000000E+00  0.00000000000E+00  0.00000000000E+00  0.91188000000E+02  0.91188000000E+02 0.  0.
    9900012    2    3    3    0    0 -0.36944869753E+01  0.10757017980E+02  0.35020279467E+02  0.54367046132E+02  0.39999913266E+02 0.  0.
        -12    1    3    3    0    0  0.36944869753E+01 -0.10757017980E+02 -0.35020279467E+02  0.36820953868E+02  0.00000000000E+00 0.  1.
         11    1    4    4    0    0  0.14268644959E+00 -0.95889901585E+01  0.27053191723E+02  0.28702687581E+02  0.51100000000E-03 0. -1.
        -11    1    4    4    0    0 -0.80152916263E+01  0.79193265601E+01  0.31852009668E+01  0.11709233044E+02  0.51100000000E-03 0.  1.
        -12    1    4    4    0    0  0.41781182014E+01  0.12426681579E+02  0.47818867771E+01  0.13955125507E+02  0.00000000000E+00 0.  1.
</event>
<event>
 8    1  0.2527138E-006  0.9118800E+02  0.7816164E-02  0.1184000E+00
        -11   -1    0    0    0    0  0.00000000000E+00  0.00000000000E+00  0.45593999997E+02  0.45594000000E+02  0.51100000000E-03 0. -1.
         11   -1    0    0    0    0 -0.00000000000E+00 -0.00000000000E+00 -0.45593999997E+02  0.45594000000E+02  0.51100000000E-03 0.  1.
         23    2    1    2    0    0  0.35527136788E-14 -0.35527136788E-14  0.00000000000E+00  0.91188000000E+02  0.91188000000E+02 0.  0.
    9900012    2    3    3    0    0  0.20762663509E+02 -0.21313064860E+02 -0.21689744555E+02  0.54367082730E+02  0.39999996700E+02 0.  0.
        -12    1    3    3    0    0 -0.20762663509E+02  0.21313064860E+02  0.21689744555E+02  0.36820917270E+02  0.00000000000E+00 0.  1.
         11    1    4    4    0    0  0.83452809100E+01 -0.48924539480E+01  0.63074877105E+01  0.11548342763E+02  0.51100000000E-03 0. -1.
        -11    1    4    4    0    0 -0.51419059616E+01 -0.10520931027E+01 -0.15465243628E+02  0.16331560169E+02  0.51100000000E-03 0.  1.
         12    1    4    4    0    0  0.17559288561E+02 -0.15368517810E+02 -0.12531988637E+02  0.26487179798E+02  0.00000000000E+00 0. -1.
</event>
<event>
 8    1  0.2527138E-006  0.9118800E+02  0.7816164E-02  0.1184000E+00
        -11   -1    0    0    0    0  0.00000000000E+00  0.00000000000E+00  0.45593999997E+02  0.45594000000E+02  0.51100000000E-03 0.  1.
         11   -1    0    0    0    0 -0.00000000000E+00 -0.00000000000E+00 -0.45593999997E+02  0.45594000000E+02  0.51100000000E-03 0. -1.
         23    2    1    2    0    0 -0.17763568394E-14  0.00000000000E+00  0.88817841970E-15  0.91188000000E+02  0.91188000000E+02 0.  0.
    9900012    2    3    3    0    0  0.14599922734E+02  0.33519416551E+02 -0.43669009833E+01  0.54367097595E+02  0.40000030587E+02 0.  0.
        -12    1    3    3    0    0 -0.14599922734E+02 -0.33519416551E+02  0.43669009833E+01  0.36820902405E+02  0.00000000000E+00 0.  1.
         11    1    4    4    0    0  0.66280741290E+01  0.31660572712E+02  0.78964102187E+01  0.33296794526E+02  0.51100000000E-03 0. -1.
        -11    1    4    4    0    0 -0.28670054268E+01 -0.13730537691E+01 -0.86201569049E+01  0.91876058958E+01  0.51100000000E-03 0.  1.
         12    1    4    4    0    0  0.10838854032E+02  0.32318976074E+01 -0.36431542971E+01  0.11882697173E+02  0.00000000000E+00 0. -1.
</event>
<event>
 8    1  0.2527138E-006  0.9118800E+02  0.7816164E-02  0.1184000E+00
        -11   -1    0    0    0    0  0.00000000000E+00  0.00000000000E+00  0.45593999997E+02  0.45594000000E+02  0.51100000000E-03 0.  1.
         11   -1    0    0    0    0 -0.00000000000E+00 -0.00000000000E+00 -0.45593999997E+02  0.45594000000E+02  0.51100000000E-03 0. -1.
         23    2    1    2    0    0  0.35527136788E-14  0.00000000000E+00  0.00000000000E+00  0.91188000000E+02  0.91188000000E+02 0.  0.
    9900012    2    3    3    0    0  0.76309152336E+01 -0.32782236326E+02 -0.14928905034E+02  0.54367107950E+02  0.40000054194E+02 0.  0.
        -12    1    3    3    0    0 -0.76309152336E+01  0.32782236326E+02  0.14928905034E+02  0.36820892050E+02  0.00000000000E+00 0.  1.
         11    1    4    4    0    0 -0.74379367900E+01 -0.91304282200E+01 -0.94003579213E+01  0.15068322816E+02  0.51100000000E-03 0. -1.
        -11    1    4    4    0    0  0.20631704295E+02 -0.91058949023E+01 -0.71082160295E+01  0.23645534028E+02  0.51100000000E-03 0.  1.
        -12    1    4    4    0    0 -0.55628522710E+01 -0.14545913204E+02  0.15796689172E+01  0.15653251107E+02  0.00000000000E+00 0.  1.
</event>
<event>
 8    1  0.2527138E-006  0.9118800E+02  0.7816164E-02  0.1184000E+00
        -11   -1    0    0    0    0  0.00000000000E+00  0.00000000000E+00  0.45593999997E+02  0.45594000000E+02  0.51100000000E-03 0.  1.
         11   -1    0    0    0    0 -0.00000000000E+00 -0.00000000000E+00 -0.45593999997E+02  0.45594000000E+02  0.51100000000E-03 0. -1.
         23    2    1    2    0    0 -0.35527136788E-14 -0.35527136788E-14  0.35527136788E-14  0.91188000000E+02  0.91188000000E+02 0.  0.
    9900012    2    3    3    0    0 -0.25307704832E+02  0.20648737230E+02  0.16997929741E+02  0.54367083546E+02  0.39999998559E+02 0.  0.
         12    1    3    3    0    0  0.25307704832E+02 -0.20648737230E+02 -0.16997929741E+02  0.36820916454E+02  0.00000000000E+00 0. -1.
         11    1    4    4    0    0 -0.16214688900E+02  0.18703945628E+02  0.12304667063E+01  0.24784425891E+02  0.51100000000E-03 0.  1.
        -11    1    4    4    0    0  0.57361532180E+01  0.71526370177E+01  0.43001998773E+01  0.10126963478E+02  0.51100000000E-03 0. -1.
         12    1    4    4    0    0 -0.14829169150E+02 -0.52078454157E+01  0.11467263158E+02  0.19455694176E+02  0.00000000000E+00 0. -1.
</event>
<event>
 8    1  0.2527138E-006  0.9118800E+02  0.7816164E-02  0.1184000E+00
        -11   -1    0    0    0    0  0.00000000000E+00  0.00000000000E+00  0.45593999997E+02  0.45594000000E+02  0.51100000000E-03 0. -1.
         11   -1    0    0    0    0 -0.00000000000E+00 -0.00000000000E+00 -0.45593999997E+02  0.45594000000E+02  0.51100000000E-03 0.  1.
         23    2    1    2    0    0  0.23592239273E-14  0.17763568394E-14  0.00000000000E+00  0.91188000000E+02  0.91188000000E+02 0.  0.
    9900012    2    3    3    0    0 -0.17035427919E+00 -0.13471119364E+02  0.34267748505E+02  0.54367100159E+02  0.40000036433E+02 0.  0.
        -12    1    3    3    0    0  0.17035427919E+00  0.13471119364E+02 -0.34267748505E+02  0.36820899841E+02  0.00000000000E+00 0.  1.
         11    1    4    4    0    0  0.95464096048E+01 -0.11020242891E+00  0.92604988017E+01  0.13300485677E+02  0.51100000000E-03 0. -1.
        -11    1    4    4    0    0  0.84253842685E+01  0.31145207989E+00  0.18594875604E+01  0.86337591302E+01  0.51100000000E-03 0.  1.
         12    1    4    4    0    0 -0.18142148152E+02 -0.13672369015E+02  0.23147762143E+02  0.32432855352E+02  0.00000000000E+00 0. -1.
</event>
<event>
 8    1  0.2527138E-006  0.9118800E+02  0.7816164E-02  0.1184000E+00
        -11   -1    0    0    0    0  0.00000000000E+00  0.00000000000E+00  0.45593999997E+02  0.45594000000E+02  0.51100000000E-03 0. -1.
         11   -1    0    0    0    0 -0.00000000000E+00 -0.00000000000E+00 -0.45593999997E+02  0.45594000000E+02  0.51100000000E-03 0.  1.
         23    2    1    2    0    0 -0.35527136788E-14 -0.35527136788E-14  0.00000000000E+00  0.91188000000E+02  0.91188000000E+02 0.  0.
    9900012    2    3    3    0    0 -0.30749791356E+02 -0.16439575015E+02  0.11830920104E+02  0.54367082499E+02  0.39999996172E+02 0.  0.
        -12    1    3    3    0    0  0.30749791356E+02  0.16439575015E+02 -0.11830920104E+02  0.36820917501E+02  0.00000000000E+00 0.  1.
         11    1    4    4    0    0 -0.55015995730E+01  0.10104949138E+01  0.99174615186E+00  0.56808677615E+01  0.51100000000E-03 0. -1.
        -11    1    4    4    0    0 -0.32070491020E+01  0.26811290421E+01  0.17591334768E+02  0.18081169101E+02  0.51100000000E-03 0.  1.
         12    1    4    4    0    0 -0.22041142681E+02 -0.20131198971E+02 -0.67521608156E+01  0.30605045636E+02  0.00000000000E+00 0. -1.
</event>
<event>
 8    1  0.2527138E-006  0.9118800E+02  0.7816164E-02  0.1184000E+00
        -11   -1    0    0    0    0  0.00000000000E+00  0.00000000000E+00  0.45593999997E+02  0.45594000000E+02  0.51100000000E-03 0.  1.
         11   -1    0    0    0    0 -0.00000000000E+00 -0.00000000000E+00 -0.45593999997E+02  0.45594000000E+02  0.51100000000E-03 0. -1.
         23    2    1    2    0    0  0.00000000000E+00  0.00000000000E+00  0.44408920985E-15  0.91188000000E+02  0.91188000000E+02 0.  0.
    9900012    2    3    3    0    0  0.59840298380E+01 -0.36207834338E+02 -0.29940202474E+01  0.54367081519E+02  0.39999993940E+02 0.  0.
        -12    1    3    3    0    0 -0.59840298380E+01  0.36207834338E+02  0.29940202474E+01  0.36820918481E+02  0.00000000000E+00 0.  1.
         11    1    4    4    0    0  0.88158018590E+01 -0.19408662820E+01 -0.74526500830E+01  0.11705866814E+02  0.51100000000E-03 0.  1.
        -11    1    4    4    0    0 -0.10921867101E+02 -0.92242925601E+01 -0.42939066189E+01  0.14926901504E+02  0.51100000000E-03 0. -1.
         12    1    4    4    0    0  0.80900950798E+01 -0.25042675495E+02  0.87525364544E+01  0.27734313201E+02  0.00000000000E+00 0. -1.
</event>
<event>
 8    1  0.2527138E-006  0.9118800E+02  0.7816164E-02  0.1184000E+00
        -11   -1    0    0    0    0  0.00000000000E+00  0.00000000000E+00  0.45593999997E+02  0.45594000000E+02  0.51100000000E-03 0. -1.
         11   -1    0    0    0    0 -0.00000000000E+00 -0.00000000000E+00 -0.45593999997E+02  0.45594000000E+02  0.51100000000E-03 0.  1.
         23    2    1    2    0    0  0.00000000000E+00 -0.44408920985E-15 -0.71054273576E-14  0.91188000000E+02  0.91188000000E+02 0.  0.
    9900012    2    3    3    0    0 -0.22907727202E+01  0.34879555599E+01 -0.36583682980E+02  0.54367091075E+02  0.40000015724E+02 0.  0.
         12    1    3    3    0    0  0.22907727202E+01 -0.34879555599E+01  0.36583682980E+02  0.36820908925E+02  0.00000000000E+00 0. -1.
         11    1    4    4    0    0  0.12239997242E+02  0.86037815263E+01 -0.11208570214E+01  0.15003296630E+02  0.51100000000E-03 0. -1.
        -11    1    4    4    0    0 -0.21625116236E+01 -0.40868427469E+01 -0.11016160330E+02  0.11947155680E+02  0.51100000000E-03 0.  1.
        -12    1    4    4    0    0 -0.12368258339E+02 -0.10289832195E+01 -0.24446665629E+02  0.27416638765E+02  0.00000000000E+00 0.  1.
</event>
<event>
 8    1  0.2527138E-006  0.9118800E+02  0.7816164E-02  0.1184000E+00
        -11   -1    0    0    0    0  0.00000000000E+00  0.00000000000E+00  0.45593999997E+02  0.45594000000E+02  0.51100000000E-03 0.  1.
         11   -1    0    0    0    0 -0.00000000000E+00 -0.00000000000E+00 -0.45593999997E+02  0.45594000000E+02  0.51100000000E-03 0. -1.
         23    2    1    2    0    0  0.00000000000E+00  0.35527136788E-14 -0.35527136788E-14  0.91188000000E+02  0.91188000000E+02 0.  0.
    9900012    2    3    3    0    0  0.15531890748E+02 -0.23339464899E+02 -0.23870682177E+02  0.54367085839E+02  0.40000003788E+02 0.  0.
        -12    1    3    3    0    0 -0.15531890748E+02  0.23339464899E+02  0.23870682177E+02  0.36820914161E+02  0.00000000000E+00 0.  1.
         11    1    4    4    0    0  0.12644666970E+02  0.32681539123E+01 -0.12302481380E+01  0.13118000744E+02  0.51100000000E-03 0. -1.
        -11    1    4    4    0    0  0.43504973905E+01 -0.29528666598E+02 -0.23362116408E+02  0.37903264528E+02  0.51100000000E-03 0.  1.
         12    1    4    4    0    0 -0.14632736120E+01  0.29210477860E+01  0.72168236813E+00  0.33458205678E+01  0.00000000000E+00 0. -1.
</event>
<event>
 8    1  0.2527138E-006  0.9118800E+02  0.7816164E-02  0.1184000E+00
        -11   -1    0    0    0    0  0.00000000000E+00  0.00000000000E+00  0.45593999997E+02  0.45594000000E+02  0.51100000000E-03 0.  1.
         11   -1    0    0    0    0 -0.00000000000E+00 -0.00000000000E+00 -0.45593999997E+02  0.45594000000E+02  0.51100000000E-03 0. -1.
         23    2    1    2    0    0  0.71054273576E-14  0.88817841970E-15  0.00000000000E+00  0.91188000000E+02  0.91188000000E+02 0.  0.
    9900012    2    3    3    0    0  0.28289956840E+02  0.20935647168E+01 -0.23474977448E+02  0.54367092388E+02  0.40000018716E+02 0.  0.
        -12    1    3    3    0    0 -0.28289956840E+02 -0.20935647168E+01  0.23474977448E+02  0.36820907612E+02  0.00000000000E+00 0.  1.
         11    1    4    4    0    0  0.25506352584E+01 -0.11583001109E+00 -0.10812482261E+02  0.11109857322E+02  0.51100000000E-03 0. -1.
        -11    1    4    4    0    0  0.20375172849E+01 -0.11769835882E+02  0.19465833629E+01  0.12102466708E+02  0.51100000000E-03 0.  1.
         12    1    4    4    0    0  0.23701804297E+02  0.13979230609E+02 -0.14609078550E+02  0.31154768358E+02  0.00000000000E+00 0. -1.
</event>
<event>
 8    1  0.2527138E-006  0.9118800E+02  0.7816164E-02  0.1184000E+00
        -11   -1    0    0    0    0  0.00000000000E+00  0.00000000000E+00  0.45593999997E+02  0.45594000000E+02  0.51100000000E-03 0.  1.
         11   -1    0    0    0    0 -0.00000000000E+00 -0.00000000000E+00 -0.45593999997E+02  0.45594000000E+02  0.51100000000E-03 0. -1.
         23    2    1    2    0    0 -0.35527136788E-14  0.00000000000E+00  0.71054273576E-14  0.91188000000E+02  0.91188000000E+02 0.  0.
    9900012    2    3    3    0    0 -0.21900054268E+02 -0.51787743302E+01  0.29143566833E+02  0.54367087895E+02  0.40000008474E+02 0.  0.
         12    1    3    3    0    0  0.21900054268E+02  0.51787743302E+01 -0.29143566833E+02  0.36820912105E+02  0.00000000000E+00 0. -1.
         11    1    4    4    0    0 -0.81701305742E+01  0.55869372117E+01  0.62666229951E+01  0.11714754160E+02  0.51100000000E-03 0. -1.
        -11    1    4    4    0    0  0.20601707350E+01  0.94768077253E+01  0.10003289904E+02  0.13932695263E+02  0.51100000000E-03 0.  1.
         12    1    4    4    0    0 -0.15790094429E+02 -0.20242519267E+02  0.12873653933E+02  0.28719638472E+02  0.00000000000E+00 0. -1.
</event>
<event>
 8    1  0.2527138E-006  0.9118800E+02  0.7816164E-02  0.1184000E+00
        -11   -1    0    0    0    0  0.00000000000E+00  0.00000000000E+00  0.45593999997E+02  0.45594000000E+02  0.51100000000E-03 0. -1.
         11   -1    0    0    0    0 -0.00000000000E+00 -0.00000000000E+00 -0.45593999997E+02  0.45594000000E+02  0.51100000000E-03 0.  1.
         23    2    1    2    0    0 -0.35527136788E-14  0.35527136788E-14 -0.35527136788E-14  0.91188000000E+02  0.91188000000E+02 0.  0.
    9900012    2    3    3    0    0  0.25005770077E+02 -0.22309884596E+02  0.15256467174E+02  0.54367091830E+02  0.40000017445E+02 0.  0.
         12    1    3    3    0    0 -0.25005770077E+02  0.22309884596E+02 -0.15256467174E+02  0.36820908170E+02  0.00000000000E+00 0. -1.
         11    1    4    4    0    0  0.60816875720E+00  0.79714822875E+01  0.62109805137E+01  0.10123767989E+02  0.51100000000E-03 0. -1.
        -11    1    4    4    0    0  0.44250415482E+01 -0.59308330916E+01 -0.58231562763E+01  0.94162053473E+01  0.51100000000E-03 0.  1.
        -12    1    4    4    0    0  0.19972559772E+02 -0.24350533792E+02  0.14868642936E+02  0.34827118493E+02  0.00000000000E+00 0.  1.
</event>
<event>
 8    1  0.2527138E-006  0.9118800E+02  0.7816164E-02  0.1184000E+00
        -11   -1    0    0    0    0  0.00000000000E+00  0.00000000000E+00  0.45593999997E+02  0.45594000000E+02  0.51100000000E-03 0.  1.
         11   -1    0    0    0    0 -0.00000000000E+00 -0.00000000000E+00 -0.45593999997E+02  0.45594000000E+02  0.51100000000E-03 0. -1.
         23    2    1    2    0    0  0.00000000000E+00 -0.17763568394E-14  0.00000000000E+00  0.91188000000E+02  0.91188000000E+02 0.  0.
    9900012    2    3    3    0    0 -0.10901444948E+02  0.12651708381E+02  0.32815704747E+02  0.54367113197E+02  0.40000066155E+02 0.  0.
         12    1    3    3    0    0  0.10901444948E+02 -0.12651708381E+02 -0.32815704747E+02  0.36820886803E+02  0.00000000000E+00 0. -1.
         11    1    4    4    0    0 -0.92125422641E+01 -0.57765873193E+01  0.88004927167E+01  0.13988873019E+02  0.51100000000E-03 0. -1.
        -11    1    4    4    0    0 -0.10446319049E+02  0.38797113869E+01  0.20052829759E+02  0.22941092470E+02  0.51100000000E-03 0.  1.
        -12    1    4    4    0    0  0.87574163654E+01  0.14548584314E+02  0.39623822713E+01  0.17437147708E+02  0.00000000000E+00 0.  1.
</event>
<event>
 8    1  0.2527138E-006  0.9118800E+02  0.7816164E-02  0.1184000E+00
        -11   -1    0    0    0    0  0.00000000000E+00  0.00000000000E+00  0.45593999997E+02  0.45594000000E+02  0.51100000000E-03 0.  1.
         11   -1    0    0    0    0 -0.00000000000E+00 -0.00000000000E+00 -0.45593999997E+02  0.45594000000E+02  0.51100000000E-03 0. -1.
         23    2    1    2    0    0  0.00000000000E+00  0.00000000000E+00 -0.35527136788E-14  0.91188000000E+02  0.91188000000E+02 0.  0.
    9900012    2    3    3    0    0  0.19071803775E+02 -0.15823768943E+02 -0.27233336184E+02  0.54367082541E+02  0.39999996269E+02 0.  0.
        -12    1    3    3    0    0 -0.19071803775E+02  0.15823768943E+02  0.27233336184E+02  0.36820917459E+02  0.00000000000E+00 0.  1.
         11    1    4    4    0    0  0.13850500378E+02 -0.64987110138E+01 -0.16836740317E+02  0.22749624840E+02  0.51100000000E-03 0. -1.
        -11    1    4    4    0    0 -0.53843823821E+01 -0.15876533326E+02 -0.27381264682E+01  0.16986854356E+02  0.51100000000E-03 0.  1.
        -12    1    4    4    0    0  0.10605685779E+02  0.65514753973E+01 -0.76584693983E+01  0.14630603346E+02  0.00000000000E+00 0.  1.
</event>
<event>
 8    1  0.2527138E-006  0.9118800E+02  0.7816164E-02  0.1184000E+00
        -11   -1    0    0    0    0  0.00000000000E+00  0.00000000000E+00  0.45593999997E+02  0.45594000000E+02  0.51100000000E-03 0. -1.
         11   -1    0    0    0    0 -0.00000000000E+00 -0.00000000000E+00 -0.45593999997E+02  0.45594000000E+02  0.51100000000E-03 0.  1.
         23    2    1    2    0    0 -0.35527136788E-14  0.00000000000E+00 -0.35527136788E-14  0.91188000000E+02  0.91188000000E+02 0.  0.
    9900012    2    3    3    0    0 -0.31505076688E+02 -0.71348228075E+01 -0.17672132585E+02  0.54367084426E+02  0.40000000567E+02 0.  0.
         12    1    3    3    0    0  0.31505076688E+02  0.71348228075E+01  0.17672132585E+02  0.36820915574E+02  0.00000000000E+00 0. -1.
         11    1    4    4    0    0 -0.14402413894E+01  0.55903968287E+01  0.49510380270E+01  0.76052356813E+01  0.51100000000E-03 0. -1.
        -11    1    4    4    0    0 -0.32711023452E+02 -0.16227575590E+02 -0.20644485581E+02  0.41946871754E+02  0.51100000000E-03 0.  1.
        -12    1    4    4    0    0  0.26461881533E+01  0.35023559541E+01 -0.19786850308E+01  0.48149769909E+01  0.00000000000E+00 0.  1.
</event>
<event>
 8    1  0.2527138E-006  0.9118800E+02  0.7816164E-02  0.1184000E+00
        -11   -1    0    0    0    0  0.00000000000E+00  0.00000000000E+00  0.45593999997E+02  0.45594000000E+02  0.51100000000E-03 0. -1.
         11   -1    0    0    0    0 -0.00000000000E+00 -0.00000000000E+00 -0.45593999997E+02  0.45594000000E+02  0.51100000000E-03 0.  1.
         23    2    1    2    0    0  0.00000000000E+00  0.00000000000E+00  0.00000000000E+00  0.91188000000E+02  0.91188000000E+02 0.  0.
    9900012    2    3    3    0    0  0.83944027490E+01 -0.35809170224E+02  0.17367542760E+01  0.54367095815E+02  0.40000026529E+02 0.  0.
        -12    1    3    3    0    0 -0.83944027490E+01  0.35809170224E+02 -0.17367542760E+01  0.36820904185E+02  0.00000000000E+00 0.  1.
         11    1    4    4    0    0  0.77232876862E+01 -0.32689197366E+02  0.59791288933E+01  0.34117191849E+02  0.51100000000E-03 0. -1.
        -11    1    4    4    0    0  0.93703920898E+01  0.13709396990E+01 -0.44366456611E+01  0.10457894079E+02  0.51100000000E-03 0.  1.
         12    1    4    4    0    0 -0.86992770270E+01 -0.44909125569E+01  0.19427104368E+00  0.97920098869E+01  0.00000000000E+00 0. -1.
</event>
<event>
 8    1  0.2527138E-006  0.9118800E+02  0.7816164E-02  0.1184000E+00
        -11   -1    0    0    0    0  0.00000000000E+00  0.00000000000E+00  0.45593999997E+02  0.45594000000E+02  0.51100000000E-03 0.  1.
         11   -1    0    0    0    0 -0.00000000000E+00 -0.00000000000E+00 -0.45593999997E+02  0.45594000000E+02  0.51100000000E-03 0. -1.
         23    2    1    2    0    0  0.35527136788E-14 -0.35527136788E-14  0.66613381478E-15  0.91188000000E+02  0.91188000000E+02 0.  0.
    9900012    2    3    3    0    0 -0.21270806182E+02  0.30042072843E+02 -0.89817759447E+00  0.54367081226E+02  0.39999993272E+02 0.  0.
         12    1    3    3    0    0  0.21270806182E+02 -0.30042072843E+02  0.89817759447E+00  0.36820918774E+02  0.00000000000E+00 0. -1.
         11    1    4    4    0    0  0.13559427967E+01 -0.25008086030E+01 -0.74354910056E+01  0.79611023918E+01  0.51100000000E-03 0. -1.
        -11    1    4    4    0    0 -0.21723904509E+02  0.14912640429E+02 -0.26895354233E+01  0.26486760329E+02  0.51100000000E-03 0.  1.
        -12    1    4    4    0    0 -0.90284447031E+00  0.17630241017E+02  0.92268488344E+01  0.19919218506E+02  0.00000000000E+00 0.  1.
</event>
<event>
 8    1  0.2527138E-006  0.9118800E+02  0.7816164E-02  0.1184000E+00
        -11   -1    0    0    0    0  0.00000000000E+00  0.00000000000E+00  0.45593999997E+02  0.45594000000E+02  0.51100000000E-03 0.  1.
         11   -1    0    0    0    0 -0.00000000000E+00 -0.00000000000E+00 -0.45593999997E+02  0.45594000000E+02  0.51100000000E-03 0. -1.
         23    2    1    2    0    0  0.00000000000E+00  0.00000000000E+00  0.66613381478E-15  0.91188000000E+02  0.91188000000E+02 0.  0.
    9900012    2    3    3    0    0 -0.16683377127E+02 -0.32764894375E+02  0.19768289246E+01  0.54367065352E+02  0.39999957082E+02 0.  0.
        -12    1    3    3    0    0  0.16683377127E+02  0.32764894375E+02 -0.19768289246E+01  0.36820934648E+02  0.00000000000E+00 0.  1.
         11    1    4    4    0    0  0.10001792798E+01  0.28206874644E+01 -0.50609874765E+01  0.58796454707E+01  0.51100000000E-03 0. -1.
        -11    1    4    4    0    0 -0.12198612033E+02 -0.49741879692E+01  0.10966987921E+02  0.17141280752E+02  0.51100000000E-03 0.  1.
         12    1    4    4    0    0 -0.54849443732E+01 -0.30611393871E+02 -0.39291715197E+01  0.31346139129E+02  0.00000000000E+00 0. -1.
</event>
<event>
 8    1  0.2527138E-006  0.9118800E+02  0.7816164E-02  0.1184000E+00
        -11   -1    0    0    0    0  0.00000000000E+00  0.00000000000E+00  0.45593999997E+02  0.45594000000E+02  0.51100000000E-03 0.  1.
         11   -1    0    0    0    0 -0.00000000000E+00 -0.00000000000E+00 -0.45593999997E+02  0.45594000000E+02  0.51100000000E-03 0. -1.
         23    2    1    2    0    0  0.17763568394E-14  0.00000000000E+00  0.00000000000E+00  0.91188000000E+02  0.91188000000E+02 0.  0.
    9900012    2    3    3    0    0  0.12762838707E+02  0.23762661549E+02 -0.25064443180E+02  0.54367075954E+02  0.39999981252E+02 0.  0.
        -12    1    3    3    0    0 -0.12762838707E+02 -0.23762661549E+02  0.25064443180E+02  0.36820924046E+02  0.00000000000E+00 0.  1.
         11    1    4    4    0    0 -0.22565042271E+01 -0.10897412471E+01 -0.20117861044E+02  0.20273324358E+02  0.51100000000E-03 0. -1.
        -11    1    4    4    0    0  0.28316533805E+01  0.14656517910E+02  0.45207693059E+01  0.15597087340E+02  0.51100000000E-03 0.  1.
        -12    1    4    4    0    0  0.12187689553E+02  0.10195884886E+02 -0.94673514419E+01  0.18496664255E+02  0.00000000000E+00 0.  1.
</event>
<event>
 8    1  0.2527138E-006  0.9118800E+02  0.7816164E-02  0.1184000E+00
        -11   -1    0    0    0    0  0.00000000000E+00  0.00000000000E+00  0.45593999997E+02  0.45594000000E+02  0.51100000000E-03 0.  1.
         11   -1    0    0    0    0 -0.00000000000E+00 -0.00000000000E+00 -0.45593999997E+02  0.45594000000E+02  0.51100000000E-03 0. -1.
         23    2    1    2    0    0  0.00000000000E+00  0.00000000000E+00  0.00000000000E+00  0.91188000000E+02  0.91188000000E+02 0.  0.
    9900012    2    3    3    0    0  0.46651391020E+01  0.33500397979E+01  0.36370237672E+02  0.54367075544E+02  0.39999980318E+02 0.  0.
         12    1    3    3    0    0 -0.46651391020E+01 -0.33500397979E+01 -0.36370237672E+02  0.36820924456E+02  0.00000000000E+00 0. -1.
         11    1    4    4    0    0  0.14668642664E+02  0.14210407318E+02  0.19564564428E+02  0.28282095666E+02  0.51100000000E-03 0. -1.
        -11    1    4    4    0    0 -0.22724798875E+01 -0.74293123355E+00  0.12373811670E+02  0.12602671429E+02  0.51100000000E-03 0.  1.
         12    1    4    4    0    0 -0.77310236750E+01 -0.10117436287E+02  0.44318615743E+01  0.13482308448E+02  0.00000000000E+00 0. -1.
</event>
<event>
 8    1  0.2527138E-006  0.9118800E+02  0.7816164E-02  0.1184000E+00
        -11   -1    0    0    0    0  0.00000000000E+00  0.00000000000E+00  0.45593999997E+02  0.45594000000E+02  0.51100000000E-03 0.  1.
         11   -1    0    0    0    0 -0.00000000000E+00 -0.00000000000E+00 -0.45593999997E+02  0.45594000000E+02  0.51100000000E-03 0. -1.
         23    2    1    2    0    0  0.00000000000E+00  0.00000000000E+00  0.00000000000E+00  0.91188000000E+02  0.91188000000E+02 0.  0.
    9900012    2    3    3    0    0  0.51073275201E+01 -0.28315257933E+02  0.22976938422E+02  0.54367104771E+02  0.40000046947E+02 0.  0.
         12    1    3    3    0    0 -0.51073275201E+01  0.28315257933E+02 -0.22976938422E+02  0.36820895229E+02  0.00000000000E+00 0. -1.
         11    1    4    4    0    0  0.22745302639E+01 -0.36997181159E+01 -0.80262993864E+01  0.91259456584E+01  0.51100000000E-03 0. -1.
        -11    1    4    4    0    0  0.28475461632E+01 -0.15838588154E+02  0.32566971893E+02  0.36325983158E+02  0.51100000000E-03 0.  1.
        -12    1    4    4    0    0 -0.14748907083E-01 -0.87769516630E+01 -0.15637340841E+01  0.89151759551E+01  0.00000000000E+00 0.  1.
</event>
<event>
 8    1  0.2527138E-006  0.9118800E+02  0.7816164E-02  0.1184000E+00
        -11   -1    0    0    0    0  0.00000000000E+00  0.00000000000E+00  0.45593999997E+02  0.45594000000E+02  0.51100000000E-03 0.  1.
         11   -1    0    0    0    0 -0.00000000000E+00 -0.00000000000E+00 -0.45593999997E+02  0.45594000000E+02  0.51100000000E-03 0. -1.
         23    2    1    2    0    0  0.17763568394E-14 -0.88817841970E-15  0.00000000000E+00  0.91188000000E+02  0.91188000000E+02 0.  0.
    9900012    2    3    3    0    0 -0.81680510037E+01 -0.79907350555E+01 -0.35003019190E+02  0.54367078551E+02  0.39999987174E+02 0.  0.
        -12    1    3    3    0    0  0.81680510037E+01  0.79907350555E+01  0.35003019190E+02  0.36820921449E+02  0.00000000000E+00 0.  1.
         11    1    4    4    0    0 -0.33293603561E+01 -0.49947752826E+01 -0.17534141015E+02  0.18533173551E+02  0.51100000000E-03 0. -1.
        -11    1    4    4    0    0 -0.98735800579E+01  0.75286080480E+01  0.25385746992E+01  0.12673274402E+02  0.51100000000E-03 0.  1.
        -12    1    4    4    0    0  0.50348894103E+01 -0.10524567821E+02 -0.20007452874E+02  0.23160630598E+02  0.00000000000E+00 0.  1.
</event>
<event>
 8    1  0.2527138E-006  0.9118800E+02  0.7816164E-02  0.1184000E+00
        -11   -1    0    0    0    0  0.00000000000E+00  0.00000000000E+00  0.45593999997E+02  0.45594000000E+02  0.51100000000E-03 0. -1.
         11   -1    0    0    0    0 -0.00000000000E+00 -0.00000000000E+00 -0.45593999997E+02  0.45594000000E+02  0.51100000000E-03 0.  1.
         23    2    1    2    0    0  0.00000000000E+00 -0.88817841970E-15 -0.35527136788E-14  0.91188000000E+02  0.91188000000E+02 0.  0.
    9900012    2    3    3    0    0 -0.32007591923E+02 -0.39683587747E+01  0.17763808489E+02  0.54366990995E+02  0.39999787572E+02 0.  0.
        -12    1    3    3    0    0  0.32007591923E+02  0.39683587747E+01 -0.17763808489E+02  0.36821009005E+02  0.00000000000E+00 0.  1.
         11    1    4    4    0    0 -0.19456804104E+02  0.77267274196E+01  0.20051553523E+02  0.28988520858E+02  0.51100000000E-03 0. -1.
        -11    1    4    4    0    0 -0.79367668475E+01  0.24827325928E+01  0.39623206896E+01  0.92117433001E+01  0.51100000000E-03 0.  1.
         12    1    4    4    0    0 -0.46140209718E+01 -0.14177818787E+02 -0.62500657240E+01  0.16166726838E+02  0.00000000000E+00 0. -1.
</event>
<event>
 8    1  0.2527138E-006  0.9118800E+02  0.7816164E-02  0.1184000E+00
        -11   -1    0    0    0    0  0.00000000000E+00  0.00000000000E+00  0.45593999997E+02  0.45594000000E+02  0.51100000000E-03 0. -1.
         11   -1    0    0    0    0 -0.00000000000E+00 -0.00000000000E+00 -0.45593999997E+02  0.45594000000E+02  0.51100000000E-03 0.  1.
         23    2    1    2    0    0  0.00000000000E+00 -0.35527136788E-14  0.00000000000E+00  0.91188000000E+02  0.91188000000E+02 0.  0.
    9900012    2    3    3    0    0  0.22656837749E+02  0.20318301644E+02 -0.20727182850E+02  0.54367057761E+02  0.39999939777E+02 0.  0.
         12    1    3    3    0    0 -0.22656837749E+02 -0.20318301644E+02  0.20727182850E+02  0.36820942239E+02  0.00000000000E+00 0. -1.
         11    1    4    4    0    0 -0.42899101207E+01 -0.71479458688E+01 -0.36792968304E+00  0.83445689822E+01  0.51100000000E-03 0. -1.
        -11    1    4    4    0    0  0.22958348480E+02  0.25217353332E+02 -0.22613332898E+02  0.40918987024E+02  0.51100000000E-03 0.  1.
         12    1    4    4    0    0  0.39883993898E+01  0.22488941800E+01  0.22540797311E+01  0.51035017546E+01  0.00000000000E+00 0. -1.
</event>
<event>
 8    1  0.2527138E-006  0.9118800E+02  0.7816164E-02  0.1184000E+00
        -11   -1    0    0    0    0  0.00000000000E+00  0.00000000000E+00  0.45593999997E+02  0.45594000000E+02  0.51100000000E-03 0. -1.
         11   -1    0    0    0    0 -0.00000000000E+00 -0.00000000000E+00 -0.45593999997E+02  0.45594000000E+02  0.51100000000E-03 0.  1.
         23    2    1    2    0    0  0.00000000000E+00  0.00000000000E+00  0.00000000000E+00  0.91188000000E+02  0.91188000000E+02 0.  0.
    9900012    2    3    3    0    0  0.28035014549E+02  0.70814854902E+01 -0.22796303197E+02  0.54367069580E+02  0.39999966723E+02 0.  0.
         12    1    3    3    0    0 -0.28035014549E+02 -0.70814854902E+01  0.22796303197E+02  0.36820930420E+02  0.00000000000E+00 0. -1.
         11    1    4    4    0    0  0.99353241601E+00 -0.36232786562E+01 -0.12359118597E+02  0.12917548824E+02  0.51100000000E-03 0. -1.
        -11    1    4    4    0    0 -0.52809730410E+01 -0.16019892194E+01 -0.11313707160E+01  0.56333866969E+01  0.51100000000E-03 0.  1.
        -12    1    4    4    0    0  0.32322455174E+02  0.12306753366E+02 -0.93058138842E+01  0.35816134059E+02  0.00000000000E+00 0.  1.
</event>
<event>
 8    1  0.2527138E-006  0.9118800E+02  0.7816164E-02  0.1184000E+00
        -11   -1    0    0    0    0  0.00000000000E+00  0.00000000000E+00  0.45593999997E+02  0.45594000000E+02  0.51100000000E-03 0.  1.
         11   -1    0    0    0    0 -0.00000000000E+00 -0.00000000000E+00 -0.45593999997E+02  0.45594000000E+02  0.51100000000E-03 0. -1.
         23    2    1    2    0    0  0.88817841970E-15  0.00000000000E+00  0.88817841970E-15  0.91188000000E+02  0.91188000000E+02 0.  0.
    9900012    2    3    3    0    0 -0.61160207413E+01 -0.35841297166E+02  0.58116952982E+01  0.54367080749E+02  0.39999992183E+02 0.  0.
         12    1    3    3    0    0  0.61160207413E+01  0.35841297166E+02 -0.58116952982E+01  0.36820919251E+02  0.00000000000E+00 0. -1.
         11    1    4    4    0    0 -0.14241121690E+02 -0.83793631670E+01  0.20034827301E+01  0.16644435027E+02  0.51100000000E-03 0. -1.
        -11    1    4    4    0    0  0.51738566324E+01 -0.31827403627E+02  0.28980277221E+01  0.32375159907E+02  0.51100000000E-03 0.  1.
         12    1    4    4    0    0  0.29512443161E+01  0.43654696273E+01  0.91018484598E+00  0.53474858144E+01  0.00000000000E+00 0. -1.
</event>
