<event>
 8    1  0.1280925E-006  0.9118800E+02  0.7816164E-02  0.1184000E+00
        -11   -1    0    0    0    0  0.00000000000E+00  0.00000000000E+00  0.45593999997E+02  0.45594000000E+02  0.51100000000E-03 0. -1.
         11   -1    0    0    0    0 -0.00000000000E+00 -0.00000000000E+00 -0.45593999997E+02  0.45594000000E+02  0.51100000000E-03 0.  1.
         23    2    1    2    0    0  0.00000000000E+00  0.00000000000E+00  0.00000000000E+00  0.91188000000E+02  0.91188000000E+02 0.  0.
    9900012    2    3    3    0    0  0.27681907986E+02  0.13284313003E+02 -0.20322939170E+02  0.54367043219E+02  0.39999906627E+02 0.  0.
         12    1    3    3    0    0 -0.27681907986E+02 -0.13284313003E+02  0.20322939170E+02  0.36820956781E+02  0.00000000000E+00 0. -1.
         11    1    4    4    0    0  0.11743443742E+01  0.36079727053E+01 -0.15241802935E+02  0.15706976435E+02  0.51100000000E-03 0.  1.
        -11    1    4    4    0    0  0.23968574049E+02 -0.38988247271E+01 -0.11942092070E+01  0.24312949473E+02  0.51100000000E-03 0. -1.
        -12    1    4    4    0    0  0.25389895636E+01  0.13575165024E+02 -0.38869270282E+01  0.14347117312E+02  0.00000000000E+00 0.  1.
</event>
<event>
 8    1  0.1280925E-006  0.9118800E+02  0.7816164E-02  0.1184000E+00
        -11   -1    0    0    0    0  0.00000000000E+00  0.00000000000E+00  0.45593999997E+02  0.45594000000E+02  0.51100000000E-03 0. -1.
         11   -1    0    0    0    0 -0.00000000000E+00 -0.00000000000E+00 -0.45593999997E+02  0.45594000000E+02  0.51100000000E-03 0.  1.
         23    2    1    2    0    0  0.00000000000E+00  0.00000000000E+00  0.35527136788E-14  0.91188000000E+02  0.91188000000E+02 0.  0.
    9900012    2    3    3    0    0 -0.18997899418E+02  0.63437836882E+01 -0.30896643542E+02  0.54367267308E+02  0.40000417481E+02 0.  0.
         12    1    3    3    0    0  0.18997899418E+02 -0.63437836882E+01  0.30896643542E+02  0.36820732692E+02  0.00000000000E+00 0. -1.
         11    1    4    4    0    0 -0.15960228746E+01  0.61209422654E+01  0.54497523238E+01  0.83494325487E+01  0.51100000000E-03 0. -1.
        -11    1    4    4    0    0 -0.15779082857E+02  0.46960558760E+01 -0.37643214276E+02  0.41085812367E+02  0.51100000000E-03 0.  1.
        -12    1    4    4    0    0 -0.16227936858E+01 -0.44732144532E+01  0.12968184099E+01  0.49320223924E+01  0.00000000000E+00 0.  1.
</event>
<event>
 8    1  0.1280925E-006  0.9118800E+02  0.7816164E-02  0.1184000E+00
        -11   -1    0    0    0    0  0.00000000000E+00  0.00000000000E+00  0.45593999997E+02  0.45594000000E+02  0.51100000000E-03 0. -1.
         11   -1    0    0    0    0 -0.00000000000E+00 -0.00000000000E+00 -0.45593999997E+02  0.45594000000E+02  0.51100000000E-03 0.  1.
         23    2    1    2    0    0  0.00000000000E+00  0.71054273576E-14  0.13322676296E-14  0.91188000000E+02  0.91188000000E+02 0.  0.
    9900012    2    3    3    0    0 -0.32543388591E+01 -0.36492445625E+02 -0.36726572878E+01  0.54367112983E+02  0.40000065668E+02 0.  0.
        -12    1    3    3    0    0  0.32543388591E+01  0.36492445625E+02  0.36726572878E+01  0.36820887017E+02  0.00000000000E+00 0.  1.
         11    1    4    4    0    0  0.32198091573E+00 -0.36788221080E+01  0.12832762967E+02  0.13353546699E+02  0.51100000000E-03 0. -1.
        -11    1    4    4    0    0 -0.48783825327E+01 -0.82124726941E+01  0.25289958007E+01  0.98812521427E+01  0.51100000000E-03 0.  1.
        -12    1    4    4    0    0  0.13020627579E+01 -0.24601150823E+02 -0.19034416055E+02  0.31132314142E+02  0.00000000000E+00 0.  1.
</event>
<event>
 8    1  0.1280925E-006  0.9118800E+02  0.7816164E-02  0.1184000E+00
        -11   -1    0    0    0    0  0.00000000000E+00  0.00000000000E+00  0.45593999997E+02  0.45594000000E+02  0.51100000000E-03 0.  1.
         11   -1    0    0    0    0 -0.00000000000E+00 -0.00000000000E+00 -0.45593999997E+02  0.45594000000E+02  0.51100000000E-03 0. -1.
         23    2    1    2    0    0 -0.71054273576E-14  0.00000000000E+00 -0.59674487574E-15  0.91188000000E+02  0.91188000000E+02 0.  0.
    9900012    2    3    3    0    0  0.32194075895E+02  0.17869364194E+02 -0.71956848281E-01  0.54367110858E+02  0.40000060822E+02 0.  0.
         12    1    3    3    0    0 -0.32194075895E+02 -0.17869364194E+02  0.71956848281E-01  0.36820889142E+02  0.00000000000E+00 0. -1.
         11    1    4    4    0    0  0.32365516247E+00  0.16759823315E+02 -0.64475991793E+01  0.17960177216E+02  0.51100000000E-03 0. -1.
        -11    1    4    4    0    0  0.91736918622E+01  0.47880730630E+01 -0.41120257395E+01  0.11135125593E+02  0.51100000000E-03 0.  1.
        -12    1    4    4    0    0  0.22696728871E+02 -0.36785321840E+01  0.10487668071E+02  0.25271808048E+02  0.00000000000E+00 0.  1.
</event>
<event>
 8    1  0.1280925E-006  0.9118800E+02  0.7816164E-02  0.1184000E+00
        -11   -1    0    0    0    0  0.00000000000E+00  0.00000000000E+00  0.45593999997E+02  0.45594000000E+02  0.51100000000E-03 0. -1.
         11   -1    0    0    0    0 -0.00000000000E+00 -0.00000000000E+00 -0.45593999997E+02  0.45594000000E+02  0.51100000000E-03 0.  1.
         23    2    1    2    0    0  0.00000000000E+00  0.17763568394E-14 -0.35527136788E-14  0.91188000000E+02  0.91188000000E+02 0.  0.
    9900012    2    3    3    0    0  0.27336274822E+02 -0.91840937831E+01 -0.22894552446E+02  0.54367081605E+02  0.39999994136E+02 0.  0.
         12    1    3    3    0    0 -0.27336274822E+02  0.91840937831E+01  0.22894552446E+02  0.36820918395E+02  0.00000000000E+00 0. -1.
         11    1    4    4    0    0 -0.31229413013E+01  0.52712561334E+01 -0.10044653462E+01  0.62086918500E+01  0.51100000000E-03 0. -1.
        -11    1    4    4    0    0 -0.11932232903E+01 -0.95523985019E+01 -0.10294117465E+02  0.14094004172E+02  0.51100000000E-03 0.  1.
        -12    1    4    4    0    0  0.31652439413E+02 -0.49029514147E+01 -0.11595969634E+02  0.34064385583E+02  0.00000000000E+00 0.  1.
</event>
<event>
 8    1  0.1280925E-006  0.9118800E+02  0.7816164E-02  0.1184000E+00
        -11   -1    0    0    0    0  0.00000000000E+00  0.00000000000E+00  0.45593999997E+02  0.45594000000E+02  0.51100000000E-03 0.  1.
         11   -1    0    0    0    0 -0.00000000000E+00 -0.00000000000E+00 -0.45593999997E+02  0.45594000000E+02  0.51100000000E-03 0. -1.
         23    2    1    2    0    0  0.00000000000E+00  0.00000000000E+00  0.00000000000E+00  0.91188000000E+02  0.91188000000E+02 0.  0.
    9900012    2    3    3    0    0  0.10165892107E+02 -0.92277688273E+01 -0.34165524333E+02  0.54367080228E+02  0.39999990996E+02 0.  0.
        -12    1    3    3    0    0 -0.10165892107E+02  0.92277688273E+01  0.34165524333E+02  0.36820919772E+02  0.00000000000E+00 0.  1.
         11    1    4    4    0    0  0.42421791970E+01 -0.15466622533E+02 -0.17338869808E+02  0.23618825191E+02  0.51100000000E-03 0. -1.
        -11    1    4    4    0    0  0.11801576451E+02 -0.66247232921E-01  0.45295922343E-01  0.11801849321E+02  0.51100000000E-03 0.  1.
         12    1    4    4    0    0 -0.58778635407E+01  0.63051009387E+01 -0.16871950448E+02  0.18946405716E+02  0.00000000000E+00 0. -1.
</event>
<event>
 8    1  0.1280925E-006  0.9118800E+02  0.7816164E-02  0.1184000E+00
        -11   -1    0    0    0    0  0.00000000000E+00  0.00000000000E+00  0.45593999997E+02  0.45594000000E+02  0.51100000000E-03 0. -1.
         11   -1    0    0    0    0 -0.00000000000E+00 -0.00000000000E+00 -0.45593999997E+02  0.45594000000E+02  0.51100000000E-03 0.  1.
         23    2    1    2    0    0 -0.17763568394E-14  0.35527136788E-14  0.35527136788E-14  0.91188000000E+02  0.91188000000E+02 0.  0.
    9900012    2    3    3    0    0 -0.96512334284E+01  0.17348379985E+02  0.31010708026E+02  0.54367128106E+02  0.40000100142E+02 0.  0.
        -12    1    3    3    0    0  0.96512334284E+01 -0.17348379985E+02 -0.31010708026E+02  0.36820871894E+02  0.00000000000E+00 0.  1.
         11    1    4    4    0    0 -0.12018989585E+02 -0.15561293634E+00  0.51805871453E+01  0.13088881138E+02  0.51100000000E-03 0. -1.
        -11    1    4    4    0    0  0.59750001238E+01 -0.59532919236E+01  0.59981244640E+01  0.10349869978E+02  0.51100000000E-03 0.  1.
        -12    1    4    4    0    0 -0.36072439674E+01  0.23457284845E+02  0.19831996416E+02  0.30928376990E+02  0.00000000000E+00 0.  1.
</event>
<event>
 8    1  0.1280925E-006  0.9118800E+02  0.7816164E-02  0.1184000E+00
        -11   -1    0    0    0    0  0.00000000000E+00  0.00000000000E+00  0.45593999997E+02  0.45594000000E+02  0.51100000000E-03 0.  1.
         11   -1    0    0    0    0 -0.00000000000E+00 -0.00000000000E+00 -0.45593999997E+02  0.45594000000E+02  0.51100000000E-03 0. -1.
         23    2    1    2    0    0  0.00000000000E+00 -0.35527136788E-14  0.35527136788E-14  0.91188000000E+02  0.91188000000E+02 0.  0.
    9900012    2    3    3    0    0 -0.14297863351E+02 -0.20431572014E+02 -0.27090574298E+02  0.54367119414E+02  0.40000080327E+02 0.  0.
        -12    1    3    3    0    0  0.14297863351E+02  0.20431572014E+02  0.27090574298E+02  0.36820880586E+02  0.00000000000E+00 0.  1.
         11    1    4    4    0    0 -0.38728845180E+01 -0.26608324026E+02 -0.37464835780E+01  0.27148448969E+02  0.51100000000E-03 0. -1.
        -11    1    4    4    0    0 -0.71570031793E+00 -0.78488884781E+00 -0.78805734324E-01  0.10651234921E+01  0.51100000000E-03 0.  1.
         12    1    4    4    0    0 -0.97092785146E+01  0.69616408599E+01 -0.23265284986E+02  0.26153546953E+02  0.00000000000E+00 0. -1.
</event>
<event>
 8    1  0.1280925E-006  0.9118800E+02  0.7816164E-02  0.1184000E+00
        -11   -1    0    0    0    0  0.00000000000E+00  0.00000000000E+00  0.45593999997E+02  0.45594000000E+02  0.51100000000E-03 0.  1.
         11   -1    0    0    0    0 -0.00000000000E+00 -0.00000000000E+00 -0.45593999997E+02  0.45594000000E+02  0.51100000000E-03 0. -1.
         23    2    1    2    0    0  0.00000000000E+00 -0.35527136788E-14 -0.35527136788E-14  0.91188000000E+02  0.91188000000E+02 0.  0.
    9900012    2    3    3    0    0 -0.66812010974E+01 -0.22571717680E+02  0.28313577594E+02  0.54367087962E+02  0.40000008626E+02 0.  0.
         12    1    3    3    0    0  0.66812010974E+01  0.22571717680E+02 -0.28313577594E+02  0.36820912038E+02  0.00000000000E+00 0. -1.
         11    1    4    4    0    0 -0.44051456474E+00  0.83736134631E+01  0.63691092696E+01  0.10529815224E+02  0.51100000000E-03 0. -1.
        -11    1    4    4    0    0 -0.44207803696E+01 -0.92461514090E+01  0.19364864333E+02  0.21909645954E+02  0.51100000000E-03 0.  1.
         12    1    4    4    0    0 -0.18199061631E+01 -0.21699179734E+02  0.25796039922E+01  0.21927626783E+02  0.00000000000E+00 0. -1.
</event>
<event>
 8    1  0.1280925E-006  0.9118800E+02  0.7816164E-02  0.1184000E+00
        -11   -1    0    0    0    0  0.00000000000E+00  0.00000000000E+00  0.45593999997E+02  0.45594000000E+02  0.51100000000E-03 0.  1.
         11   -1    0    0    0    0 -0.00000000000E+00 -0.00000000000E+00 -0.45593999997E+02  0.45594000000E+02  0.51100000000E-03 0. -1.
         23    2    1    2    0    0  0.00000000000E+00  0.00000000000E+00  0.00000000000E+00  0.91188000000E+02  0.91188000000E+02 0.  0.
    9900012    2    3    3    0    0 -0.24236078167E+02 -0.24325447934E+02  0.13291493162E+02  0.54367099785E+02  0.40000035581E+02 0.  0.
         12    1    3    3    0    0  0.24236078167E+02  0.24325447934E+02 -0.13291493162E+02  0.36820900215E+02  0.00000000000E+00 0. -1.
         11    1    4    4    0    0 -0.20409878456E+01 -0.20007224359E+02  0.14336744459E+01  0.20162095145E+02  0.51100000000E-03 0. -1.
        -11    1    4    4    0    0 -0.53689959407E+01 -0.11130443274E+02  0.10113525246E+02  0.15968602883E+02  0.51100000000E-03 0.  1.
        -12    1    4    4    0    0 -0.16826094381E+02  0.68122196990E+01  0.17442934710E+01  0.18236401757E+02  0.00000000000E+00 0.  1.
</event>
<event>
 8    1  0.1280925E-006  0.9118800E+02  0.7816164E-02  0.1184000E+00
        -11   -1    0    0    0    0  0.00000000000E+00  0.00000000000E+00  0.45593999997E+02  0.45594000000E+02  0.51100000000E-03 0.  1.
         11   -1    0    0    0    0 -0.00000000000E+00 -0.00000000000E+00 -0.45593999997E+02  0.45594000000E+02  0.51100000000E-03 0. -1.
         23    2    1    2    0    0  0.00000000000E+00  0.00000000000E+00  0.00000000000E+00  0.91188000000E+02  0.91188000000E+02 0.  0.
    9900012    2    3    3    0    0  0.29309187920E+02  0.49627751524E+01 -0.21728365209E+02  0.54367088979E+02  0.40000010945E+02 0.  0.
        -12    1    3    3    0    0 -0.29309187920E+02 -0.49627751524E+01  0.21728365209E+02  0.36820911021E+02  0.00000000000E+00 0.  1.
         11    1    4    4    0    0  0.95384981670E+01 -0.12504202635E+01 -0.39260193050E+01  0.10390386228E+02  0.51100000000E-03 0. -1.
        -11    1    4    4    0    0  0.69346694363E+01  0.17694527073E+01  0.10428416420E+02  0.12648022469E+02  0.51100000000E-03 0.  1.
        -12    1    4    4    0    0  0.12836020317E+02  0.44437427087E+01 -0.28230762324E+02  0.31328680283E+02  0.00000000000E+00 0.  1.
</event>
<event>
 8    1  0.1280925E-006  0.9118800E+02  0.7816164E-02  0.1184000E+00
        -11   -1    0    0    0    0  0.00000000000E+00  0.00000000000E+00  0.45593999997E+02  0.45594000000E+02  0.51100000000E-03 0.  1.
         11   -1    0    0    0    0 -0.00000000000E+00 -0.00000000000E+00 -0.45593999997E+02  0.45594000000E+02  0.51100000000E-03 0. -1.
         23    2    1    2    0    0 -0.35527136788E-14  0.35527136788E-14  0.00000000000E+00  0.91188000000E+02  0.91188000000E+02 0.  0.
    9900012    2    3    3    0    0 -0.27316388501E+02  0.16775643118E+02 -0.18115524338E+02  0.54367088756E+02  0.40000010438E+02 0.  0.
        -12    1    3    3    0    0  0.27316388501E+02 -0.16775643118E+02  0.18115524338E+02  0.36820911244E+02  0.00000000000E+00 0.  1.
         11    1    4    4    0    0 -0.16819266188E+02  0.91092765987E+01 -0.21016374703E+02  0.28417505893E+02  0.51100000000E-03 0. -1.
        -11    1    4    4    0    0 -0.29057028352E+01  0.10315328490E+01 -0.94881283361E+01  0.99765599567E+01  0.51100000000E-03 0.  1.
        -12    1    4    4    0    0 -0.75914194783E+01  0.66348336705E+01  0.12388978701E+02  0.15973022907E+02  0.00000000000E+00 0.  1.
</event>
<event>
 8    1  0.1280925E-006  0.9118800E+02  0.7816164E-02  0.1184000E+00
        -11   -1    0    0    0    0  0.00000000000E+00  0.00000000000E+00  0.45593999997E+02  0.45594000000E+02  0.51100000000E-03 0.  1.
         11   -1    0    0    0    0 -0.00000000000E+00 -0.00000000000E+00 -0.45593999997E+02  0.45594000000E+02  0.51100000000E-03 0. -1.
         23    2    1    2    0    0  0.00000000000E+00  0.44408920985E-15  0.00000000000E+00  0.91188000000E+02  0.91188000000E+02 0.  0.
    9900012    2    3    3    0    0  0.28702914771E+02  0.36196336090E+01  0.22777618949E+02  0.54367095763E+02  0.40000026411E+02 0.  0.
         12    1    3    3    0    0 -0.28702914771E+02 -0.36196336090E+01 -0.22777618949E+02  0.36820904237E+02  0.00000000000E+00 0. -1.
         11    1    4    4    0    0 -0.22639506440E+01  0.44165436843E+01  0.81861305882E+01  0.95730906662E+01  0.51100000000E-03 0. -1.
        -11    1    4    4    0    0  0.12455796282E+01 -0.84792335157E+01  0.10913507036E+02  0.13876365004E+02  0.51100000000E-03 0.  1.
        -12    1    4    4    0    0  0.29721285787E+02  0.76823234404E+01  0.36779813248E+01  0.30917640093E+02  0.00000000000E+00 0.  1.
</event>
<event>
 8    1  0.1280925E-006  0.9118800E+02  0.7816164E-02  0.1184000E+00
        -11   -1    0    0    0    0  0.00000000000E+00  0.00000000000E+00  0.45593999997E+02  0.45594000000E+02  0.51100000000E-03 0. -1.
         11   -1    0    0    0    0 -0.00000000000E+00 -0.00000000000E+00 -0.45593999997E+02  0.45594000000E+02  0.51100000000E-03 0.  1.
         23    2    1    2    0    0 -0.17763568394E-14  0.71054273576E-14  0.00000000000E+00  0.91188000000E+02  0.91188000000E+02 0.  0.
    9900012    2    3    3    0    0  0.97385320949E+01  0.25949368191E+02  0.24239857541E+02  0.54367090037E+02  0.40000013358E+02 0.  0.
        -12    1    3    3    0    0 -0.97385320949E+01 -0.25949368191E+02 -0.24239857541E+02  0.36820909963E+02  0.00000000000E+00 0.  1.
         11    1    4    4    0    0  0.53573896240E+01 -0.41735821393E+01  0.12998723913E+02  0.14665852688E+02  0.51100000000E-03 0. -1.
        -11    1    4    4    0    0 -0.65489322579E+01  0.76602960813E+01 -0.35320052995E+01  0.10679125033E+02  0.51100000000E-03 0.  1.
         12    1    4    4    0    0  0.10930074729E+02  0.22462654249E+02  0.14773138927E+02  0.29022112316E+02  0.00000000000E+00 0. -1.
</event>
<event>
 8    1  0.1280925E-006  0.9118800E+02  0.7816164E-02  0.1184000E+00
        -11   -1    0    0    0    0  0.00000000000E+00  0.00000000000E+00  0.45593999997E+02  0.45594000000E+02  0.51100000000E-03 0.  1.
         11   -1    0    0    0    0 -0.00000000000E+00 -0.00000000000E+00 -0.45593999997E+02  0.45594000000E+02  0.51100000000E-03 0. -1.
         23    2    1    2    0    0  0.00000000000E+00  0.00000000000E+00  0.00000000000E+00  0.91188000000E+02  0.91188000000E+02 0.  0.
    9900012    2    3    3    0    0 -0.23576601155E+02  0.23883047908E+01 -0.28181909309E+02  0.54367080211E+02  0.39999990957E+02 0.  0.
         12    1    3    3    0    0  0.23576601155E+02 -0.23883047908E+01  0.28181909309E+02  0.36820919789E+02  0.00000000000E+00 0. -1.
         11    1    4    4    0    0 -0.91564870644E+01  0.39671709734E+01  0.84394083009E+01  0.13069174175E+02  0.51100000000E-03 0.  1.
        -11    1    4    4    0    0 -0.84621149617E+01 -0.52482325775E+01 -0.30205659913E+02  0.31804610135E+02  0.51100000000E-03 0. -1.
         12    1    4    4    0    0 -0.59579991291E+01  0.36693663949E+01 -0.64156576971E+01  0.94932959002E+01  0.00000000000E+00 0. -1.
</event>
<event>
 8    1  0.1280925E-006  0.9118800E+02  0.7816164E-02  0.1184000E+00
        -11   -1    0    0    0    0  0.00000000000E+00  0.00000000000E+00  0.45593999997E+02  0.45594000000E+02  0.51100000000E-03 0. -1.
         11   -1    0    0    0    0 -0.00000000000E+00 -0.00000000000E+00 -0.45593999997E+02  0.45594000000E+02  0.51100000000E-03 0.  1.
         23    2    1    2    0    0  0.00000000000E+00  0.00000000000E+00  0.00000000000E+00  0.91188000000E+02  0.91188000000E+02 0.  0.
    9900012    2    3    3    0    0 -0.14395038218E+02  0.12355725436E+02  0.31557873968E+02  0.54367075436E+02  0.39999980071E+02 0.  0.
        -12    1    3    3    0    0  0.14395038218E+02 -0.12355725436E+02 -0.31557873968E+02  0.36820924564E+02  0.00000000000E+00 0.  1.
         11    1    4    4    0    0 -0.10267216001E+02  0.19625290783E+02  0.14383692559E+02  0.26409437227E+02  0.51100000000E-03 0. -1.
        -11    1    4    4    0    0 -0.10451242670E+02 -0.13746041202E+01  0.23549089881E+01  0.10801092835E+02  0.51100000000E-03 0.  1.
        -12    1    4    4    0    0  0.63234204522E+01 -0.58949612272E+01  0.14819272421E+02  0.17156545374E+02  0.00000000000E+00 0.  1.
</event>
<event>
 8    1  0.1280925E-006  0.9118800E+02  0.7816164E-02  0.1184000E+00
        -11   -1    0    0    0    0  0.00000000000E+00  0.00000000000E+00  0.45593999997E+02  0.45594000000E+02  0.51100000000E-03 0.  1.
         11   -1    0    0    0    0 -0.00000000000E+00 -0.00000000000E+00 -0.45593999997E+02  0.45594000000E+02  0.51100000000E-03 0. -1.
         23    2    1    2    0    0  0.17763568394E-14  0.00000000000E+00 -0.71054273576E-14  0.91188000000E+02  0.91188000000E+02 0.  0.
    9900012    2    3    3    0    0  0.77563138598E+01  0.11206433407E+02 -0.34205822436E+02  0.54367043427E+02  0.39999907101E+02 0.  0.
        -12    1    3    3    0    0 -0.77563138598E+01 -0.11206433407E+02  0.34205822436E+02  0.36820956573E+02  0.00000000000E+00 0.  1.
         11    1    4    4    0    0  0.92566847874E+01  0.95564743318E+01  0.26591877285E+01  0.13567744637E+02  0.51100000000E-03 0. -1.
        -11    1    4    4    0    0 -0.18063576428E+01 -0.57799406084E+01 -0.43789294449E+01  0.74729956989E+01  0.51100000000E-03 0.  1.
        -12    1    4    4    0    0  0.30598671519E+00  0.74298996838E+01 -0.32486080720E+02  0.33326303091E+02  0.00000000000E+00 0.  1.
</event>
<event>
 8    1  0.1280925E-006  0.9118800E+02  0.7816164E-02  0.1184000E+00
        -11   -1    0    0    0    0  0.00000000000E+00  0.00000000000E+00  0.45593999997E+02  0.45594000000E+02  0.51100000000E-03 0.  1.
         11   -1    0    0    0    0 -0.00000000000E+00 -0.00000000000E+00 -0.45593999997E+02  0.45594000000E+02  0.51100000000E-03 0. -1.
         23    2    1    2    0    0  0.00000000000E+00  0.00000000000E+00 -0.35527136788E-14  0.91188000000E+02  0.91188000000E+02 0.  0.
    9900012    2    3    3    0    0  0.24781725148E+02 -0.21408296583E+02 -0.16832432632E+02  0.54367084039E+02  0.39999999683E+02 0.  0.
        -12    1    3    3    0    0 -0.24781725148E+02  0.21408296583E+02  0.16832432632E+02  0.36820915961E+02  0.00000000000E+00 0.  1.
         11    1    4    4    0    0  0.77684025063E+01 -0.17966702878E+02 -0.23542512001E+02  0.30616994649E+02  0.51100000000E-03 0. -1.
        -11    1    4    4    0    0  0.13956789984E+02 -0.86790051053E+01  0.65252410676E+01  0.17683209197E+02  0.51100000000E-03 0.  1.
         12    1    4    4    0    0  0.30565326582E+01  0.52374113999E+01  0.18483830099E+00  0.60668801917E+01  0.00000000000E+00 0. -1.
</event>
<event>
 8    1  0.1280925E-006  0.9118800E+02  0.7816164E-02  0.1184000E+00
        -11   -1    0    0    0    0  0.00000000000E+00  0.00000000000E+00  0.45593999997E+02  0.45594000000E+02  0.51100000000E-03 0.  1.
         11   -1    0    0    0    0 -0.00000000000E+00 -0.00000000000E+00 -0.45593999997E+02  0.45594000000E+02  0.51100000000E-03 0. -1.
         23    2    1    2    0    0  0.00000000000E+00 -0.17763568394E-14 -0.88817841970E-15  0.91188000000E+02  0.91188000000E+02 0.  0.
    9900012    2    3    3    0    0 -0.34679248124E+02  0.10528757273E+02 -0.65017128666E+01  0.54367119370E+02  0.40000080228E+02 0.  0.
         12    1    3    3    0    0  0.34679248124E+02 -0.10528757273E+02  0.65017128666E+01  0.36820880630E+02  0.00000000000E+00 0. -1.
         11    1    4    4    0    0 -0.17292578198E+01 -0.46700612498E+01  0.92983804931E+01  0.10547970646E+02  0.51100000000E-03 0. -1.
        -11    1    4    4    0    0 -0.21173437662E+02  0.57483984816E+01  0.33523893262E-01  0.21939910475E+02  0.51100000000E-03 0.  1.
         12    1    4    4    0    0 -0.11776552642E+02  0.94504200415E+01 -0.15833617253E+02  0.21879238250E+02  0.00000000000E+00 0. -1.
</event>
<event>
 8    1  0.1280925E-006  0.9118800E+02  0.7816164E-02  0.1184000E+00
        -11   -1    0    0    0    0  0.00000000000E+00  0.00000000000E+00  0.45593999997E+02  0.45594000000E+02  0.51100000000E-03 0.  1.
         11   -1    0    0    0    0 -0.00000000000E+00 -0.00000000000E+00 -0.45593999997E+02  0.45594000000E+02  0.51100000000E-03 0. -1.
         23    2    1    2    0    0  0.00000000000E+00  0.35527136788E-14  0.00000000000E+00  0.91188000000E+02  0.91188000000E+02 0.  0.
    9900012    2    3    3    0    0  0.50372218223E+01  0.31842991228E+02  0.17788482771E+02  0.54367084567E+02  0.40000000888E+02 0.  0.
         12    1    3    3    0    0 -0.50372218223E+01 -0.31842991228E+02 -0.17788482771E+02  0.36820915433E+02  0.00000000000E+00 0. -1.
         11    1    4    4    0    0 -0.95890716934E+01 -0.28201951828E+01 -0.36982623540E+01  0.10657435973E+02  0.51100000000E-03 0. -1.
        -11    1    4    4    0    0  0.64139712668E+01  0.99461693048E+01  0.87390281855E+01  0.14711761456E+02  0.51100000000E-03 0.  1.
         12    1    4    4    0    0  0.82123222489E+01  0.24717017106E+02  0.12747716939E+02  0.28997887138E+02  0.00000000000E+00 0. -1.
</event>
<event>
 8    1  0.1280925E-006  0.9118800E+02  0.7816164E-02  0.1184000E+00
        -11   -1    0    0    0    0  0.00000000000E+00  0.00000000000E+00  0.45593999997E+02  0.45594000000E+02  0.51100000000E-03 0. -1.
         11   -1    0    0    0    0 -0.00000000000E+00 -0.00000000000E+00 -0.45593999997E+02  0.45594000000E+02  0.51100000000E-03 0.  1.
         23    2    1    2    0    0  0.88817841970E-15  0.00000000000E+00  0.00000000000E+00  0.91188000000E+02  0.91188000000E+02 0.  0.
    9900012    2    3    3    0    0 -0.46242916924E+01  0.10173770964E+02 -0.35084052683E+02  0.54367076031E+02  0.39999981427E+02 0.  0.
         12    1    3    3    0    0  0.46242916924E+01 -0.10173770964E+02  0.35084052683E+02  0.36820923969E+02  0.00000000000E+00 0. -1.
         11    1    4    4    0    0 -0.19955092635E+01 -0.15943383816E+01 -0.66699925279E+00  0.26398599130E+01  0.51100000000E-03 0. -1.
        -11    1    4    4    0    0 -0.12455203802E+02  0.98054816379E+01 -0.37929680185E+02  0.41108882386E+02  0.51100000000E-03 0.  1.
        -12    1    4    4    0    0  0.98264213727E+01  0.19626277073E+01  0.35126267542E+01  0.10618333731E+02  0.00000000000E+00 0.  1.
</event>
<event>
 8    1  0.1280925E-006  0.9118800E+02  0.7816164E-02  0.1184000E+00
        -11   -1    0    0    0    0  0.00000000000E+00  0.00000000000E+00  0.45593999997E+02  0.45594000000E+02  0.51100000000E-03 0. -1.
         11   -1    0    0    0    0 -0.00000000000E+00 -0.00000000000E+00 -0.45593999997E+02  0.45594000000E+02  0.51100000000E-03 0.  1.
         23    2    1    2    0    0  0.35527136788E-14  0.35527136788E-14  0.00000000000E+00  0.91188000000E+02  0.91188000000E+02 0.  0.
    9900012    2    3    3    0    0  0.29220619489E+02  0.19294372269E+02  0.11386957812E+02  0.54367079143E+02  0.39999988522E+02 0.  0.
         12    1    3    3    0    0 -0.29220619489E+02 -0.19294372269E+02 -0.11386957812E+02  0.36820920857E+02  0.00000000000E+00 0. -1.
         11    1    4    4    0    0  0.19224682409E+01 -0.65823226752E+01 -0.79488728344E+01  0.10497972925E+02  0.51100000000E-03 0. -1.
        -11    1    4    4    0    0  0.99068629387E+01  0.15103538411E+02  0.45485450642E+01  0.18626649411E+02  0.51100000000E-03 0.  1.
         12    1    4    4    0    0  0.17391288309E+02  0.10773156533E+02  0.14787285582E+02  0.25242456807E+02  0.00000000000E+00 0. -1.
</event>
<event>
 8    1  0.1280925E-006  0.9118800E+02  0.7816164E-02  0.1184000E+00
        -11   -1    0    0    0    0  0.00000000000E+00  0.00000000000E+00  0.45593999997E+02  0.45594000000E+02  0.51100000000E-03 0.  1.
         11   -1    0    0    0    0 -0.00000000000E+00 -0.00000000000E+00 -0.45593999997E+02  0.45594000000E+02  0.51100000000E-03 0. -1.
         23    2    1    2    0    0 -0.17763568394E-14  0.88817841970E-15  0.71054273576E-14  0.91188000000E+02  0.91188000000E+02 0.  0.
    9900012    2    3    3    0    0  0.14387054293E+02  0.46705261003E+01 -0.33570510310E+02  0.54367077853E+02  0.39999985582E+02 0.  0.
        -12    1    3    3    0    0 -0.14387054293E+02 -0.46705261003E+01  0.33570510310E+02  0.36820922147E+02  0.00000000000E+00 0.  1.
         11    1    4    4    0    0  0.15302351470E+02 -0.46097026834E+00 -0.11433393390E+02  0.19107510009E+02  0.51100000000E-03 0. -1.
        -11    1    4    4    0    0  0.32477422340E+01 -0.55661735411E+01  0.33816955976E+01  0.72777732092E+01  0.51100000000E-03 0.  1.
         12    1    4    4    0    0 -0.41630394111E+01  0.10697669910E+02 -0.25518812518E+02  0.27981794635E+02  0.00000000000E+00 0. -1.
</event>
<event>
 8    1  0.1280925E-006  0.9118800E+02  0.7816164E-02  0.1184000E+00
        -11   -1    0    0    0    0  0.00000000000E+00  0.00000000000E+00  0.45593999997E+02  0.45594000000E+02  0.51100000000E-03 0.  1.
         11   -1    0    0    0    0 -0.00000000000E+00 -0.00000000000E+00 -0.45593999997E+02  0.45594000000E+02  0.51100000000E-03 0. -1.
         23    2    1    2    0    0 -0.17763568394E-14  0.35527136788E-14  0.35527136788E-14  0.91188000000E+02  0.91188000000E+02 0.  0.
    9900012    2    3    3    0    0  0.10162368911E+02  0.17173344628E+02 -0.30944828252E+02  0.54367083347E+02  0.39999998107E+02 0.  0.
        -12    1    3    3    0    0 -0.10162368911E+02 -0.17173344628E+02  0.30944828252E+02  0.36820916653E+02  0.00000000000E+00 0.  1.
         11    1    4    4    0    0 -0.11312331726E+02 -0.13778999391E+01 -0.20882007971E+02  0.23789193229E+02  0.51100000000E-03 0. -1.
        -11    1    4    4    0    0  0.11306592529E+02  0.13047496550E+02 -0.68847610834E+01  0.18586988359E+02  0.51100000000E-03 0.  1.
         12    1    4    4    0    0  0.10168108108E+02  0.55037480177E+01 -0.31780591976E+01  0.11990901759E+02  0.00000000000E+00 0. -1.
</event>
<event>
 8    1  0.1280925E-006  0.9118800E+02  0.7816164E-02  0.1184000E+00
        -11   -1    0    0    0    0  0.00000000000E+00  0.00000000000E+00  0.45593999997E+02  0.45594000000E+02  0.51100000000E-03 0. -1.
         11   -1    0    0    0    0 -0.00000000000E+00 -0.00000000000E+00 -0.45593999997E+02  0.45594000000E+02  0.51100000000E-03 0.  1.
         23    2    1    2    0    0 -0.35527136788E-14  0.17763568394E-14  0.00000000000E+00  0.91188000000E+02  0.91188000000E+02 0.  0.
    9900012    2    3    3    0    0  0.22929889401E+02 -0.15545410167E+02  0.24255743456E+02  0.54367072583E+02  0.39999973568E+02 0.  0.
         12    1    3    3    0    0 -0.22929889401E+02  0.15545410167E+02 -0.24255743456E+02  0.36820927417E+02  0.00000000000E+00 0. -1.
         11    1    4    4    0    0  0.11175124503E+02 -0.56073930387E+01  0.21179272201E+02  0.24594467581E+02  0.51100000000E-03 0. -1.
        -11    1    4    4    0    0  0.66496305123E+01 -0.18323413492E+02  0.40442924641E+01  0.19907821824E+02  0.51100000000E-03 0.  1.
         12    1    4    4    0    0  0.51051343857E+01  0.83853963642E+01 -0.96782120889E+00  0.98647831792E+01  0.00000000000E+00 0. -1.
</event>
<event>
 8    1  0.1280925E-006  0.9118800E+02  0.7816164E-02  0.1184000E+00
        -11   -1    0    0    0    0  0.00000000000E+00  0.00000000000E+00  0.45593999997E+02  0.45594000000E+02  0.51100000000E-03 0. -1.
         11   -1    0    0    0    0 -0.00000000000E+00 -0.00000000000E+00 -0.45593999997E+02  0.45594000000E+02  0.51100000000E-03 0.  1.
         23    2    1    2    0    0  0.00000000000E+00  0.00000000000E+00 -0.35527136788E-14  0.91188000000E+02  0.91188000000E+02 0.  0.
    9900012    2    3    3    0    0 -0.15960395666E+02  0.16492741755E+02 -0.28792972949E+02  0.54367081331E+02  0.39999993509E+02 0.  0.
        -12    1    3    3    0    0  0.15960395666E+02 -0.16492741755E+02  0.28792972949E+02  0.36820918669E+02  0.00000000000E+00 0.  1.
         11    1    4    4    0    0 -0.18842928370E+01  0.91319265327E+01 -0.30526272167E+02  0.31918582900E+02  0.51100000000E-03 0.  1.
        -11    1    4    4    0    0 -0.11560995639E+02 -0.57661528451E-01  0.65156526135E+01  0.13270782730E+02  0.51100000000E-03 0. -1.
         12    1    4    4    0    0 -0.25151071898E+01  0.74184767508E+01 -0.47823533955E+01  0.91777157004E+01  0.00000000000E+00 0. -1.
</event>
<event>
 8    1  0.1280925E-006  0.9118800E+02  0.7816164E-02  0.1184000E+00
        -11   -1    0    0    0    0  0.00000000000E+00  0.00000000000E+00  0.45593999997E+02  0.45594000000E+02  0.51100000000E-03 0.  1.
         11   -1    0    0    0    0 -0.00000000000E+00 -0.00000000000E+00 -0.45593999997E+02  0.45594000000E+02  0.51100000000E-03 0. -1.
         23    2    1    2    0    0  0.13322676296E-14  0.00000000000E+00  0.00000000000E+00  0.91188000000E+02  0.91188000000E+02 0.  0.
    9900012    2    3    3    0    0  0.11600316304E+01 -0.32790164229E+02 -0.16710449580E+02  0.54367086531E+02  0.40000005365E+02 0.  0.
        -12    1    3    3    0    0 -0.11600316304E+01  0.32790164229E+02  0.16710449580E+02  0.36820913469E+02  0.00000000000E+00 0.  1.
         11    1    4    4    0    0 -0.62440287520E+01 -0.16465735525E+02  0.10528202924E+02  0.20517100149E+02  0.51100000000E-03 0. -1.
        -11    1    4    4    0    0  0.94936068201E+01 -0.14304317189E+02 -0.22712438973E+02  0.28470984266E+02  0.51100000000E-03 0.  1.
         12    1    4    4    0    0 -0.20895464377E+01 -0.20201115150E+01 -0.45262135302E+01  0.53790021165E+01  0.00000000000E+00 0. -1.
</event>
<event>
 8    1  0.1280925E-006  0.9118800E+02  0.7816164E-02  0.1184000E+00
        -11   -1    0    0    0    0  0.00000000000E+00  0.00000000000E+00  0.45593999997E+02  0.45594000000E+02  0.51100000000E-03 0.  1.
         11   -1    0    0    0    0 -0.00000000000E+00 -0.00000000000E+00 -0.45593999997E+02  0.45594000000E+02  0.51100000000E-03 0. -1.
         23    2    1    2    0    0 -0.35527136788E-14  0.00000000000E+00  0.00000000000E+00  0.91188000000E+02  0.91188000000E+02 0.  0.
    9900012    2    3    3    0    0  0.26468936945E+02  0.80975759292E+01  0.24281776016E+02  0.54367081958E+02  0.39999994940E+02 0.  0.
         12    1    3    3    0    0 -0.26468936945E+02 -0.80975759292E+01 -0.24281776016E+02  0.36820918042E+02  0.00000000000E+00 0. -1.
         11    1    4    4    0    0  0.31952978802E+02  0.14308159747E+02  0.11636190229E+02  0.36893322065E+02  0.51100000000E-03 0. -1.
        -11    1    4    4    0    0  0.18287244520E+00 -0.62750475501E+01  0.78372514062E+01  0.10041522492E+02  0.51100000000E-03 0.  1.
         12    1    4    4    0    0 -0.56669143020E+01  0.64463732392E-01  0.48083343803E+01  0.74322374015E+01  0.00000000000E+00 0. -1.
</event>
<event>
 8    1  0.1280925E-006  0.9118800E+02  0.7816164E-02  0.1184000E+00
        -11   -1    0    0    0    0  0.00000000000E+00  0.00000000000E+00  0.45593999997E+02  0.45594000000E+02  0.51100000000E-03 0. -1.
         11   -1    0    0    0    0 -0.00000000000E+00 -0.00000000000E+00 -0.45593999997E+02  0.45594000000E+02  0.51100000000E-03 0.  1.
         23    2    1    2    0    0  0.17763568394E-14  0.00000000000E+00  0.71054273576E-14  0.91188000000E+02  0.91188000000E+02 0.  0.
    9900012    2    3    3    0    0 -0.43148464458E+01  0.24717588306E+02  0.26948145080E+02  0.54367087534E+02  0.40000007652E+02 0.  0.
        -12    1    3    3    0    0  0.43148464458E+01 -0.24717588306E+02 -0.26948145080E+02  0.36820912466E+02  0.00000000000E+00 0.  1.
         11    1    4    4    0    0 -0.22381589915E+01  0.17922087186E+01  0.21164456333E+02  0.21357799042E+02  0.51100000000E-03 0.  1.
        -11    1    4    4    0    0  0.44366098895E+01  0.15735037023E+02  0.13025246523E+02  0.20902917133E+02  0.51100000000E-03 0. -1.
        -12    1    4    4    0    0 -0.65132973438E+01  0.71903425644E+01 -0.72415577756E+01  0.12106371360E+02  0.00000000000E+00 0.  1.
</event>
<event>
 8    1  0.1280925E-006  0.9118800E+02  0.7816164E-02  0.1184000E+00
        -11   -1    0    0    0    0  0.00000000000E+00  0.00000000000E+00  0.45593999997E+02  0.45594000000E+02  0.51100000000E-03 0.  1.
         11   -1    0    0    0    0 -0.00000000000E+00 -0.00000000000E+00 -0.45593999997E+02  0.45594000000E+02  0.51100000000E-03 0. -1.
         23    2    1    2    0    0 -0.12212453271E-14 -0.35527136788E-14 -0.35527136788E-14  0.91188000000E+02  0.91188000000E+02 0.  0.
    9900012    2    3    3    0    0  0.62625566689E+00 -0.23589485005E+02 -0.28265286727E+02  0.54367048998E+02  0.39999919800E+02 0.  0.
        -12    1    3    3    0    0 -0.62625566689E+00  0.23589485005E+02  0.28265286727E+02  0.36820951002E+02  0.00000000000E+00 0.  1.
         11    1    4    4    0    0  0.16831571264E+02 -0.12370493304E+02 -0.48220057586E+01  0.21437878524E+02  0.51100000000E-03 0.  1.
        -11    1    4    4    0    0 -0.31175096607E+01 -0.93950465251E+01 -0.95293311492E+01  0.13740229915E+02  0.51100000000E-03 0. -1.
        -12    1    4    4    0    0 -0.13087805936E+02 -0.18239451760E+01 -0.13913949819E+02  0.19188940560E+02  0.00000000000E+00 0.  1.
</event>
<event>
 8    1  0.1280925E-006  0.9118800E+02  0.7816164E-02  0.1184000E+00
        -11   -1    0    0    0    0  0.00000000000E+00  0.00000000000E+00  0.45593999997E+02  0.45594000000E+02  0.51100000000E-03 0. -1.
         11   -1    0    0    0    0 -0.00000000000E+00 -0.00000000000E+00 -0.45593999997E+02  0.45594000000E+02  0.51100000000E-03 0.  1.
         23    2    1    2    0    0  0.00000000000E+00 -0.35527136788E-14  0.00000000000E+00  0.91188000000E+02  0.91188000000E+02 0.  0.
    9900012    2    3    3    0    0 -0.21675051816E+02 -0.26292243177E+02 -0.13953122676E+02  0.54367088076E+02  0.40000008887E+02 0.  0.
        -12    1    3    3    0    0  0.21675051816E+02  0.26292243177E+02  0.13953122676E+02  0.36820911924E+02  0.00000000000E+00 0.  1.
         11    1    4    4    0    0  0.57425937340E+01 -0.19806819892E+01 -0.14616504221E+01  0.62479521568E+01  0.51100000000E-03 0. -1.
        -11    1    4    4    0    0  0.46591935841E+00 -0.17122559877E+02 -0.11390987963E+01  0.17166731894E+02  0.51100000000E-03 0.  1.
         12    1    4    4    0    0 -0.27883564909E+02 -0.71890013108E+01 -0.11352373457E+02  0.30952404026E+02  0.00000000000E+00 0. -1.
</event>
<event>
 8    1  0.1280925E-006  0.9118800E+02  0.7816164E-02  0.1184000E+00
        -11   -1    0    0    0    0  0.00000000000E+00  0.00000000000E+00  0.45593999997E+02  0.45594000000E+02  0.51100000000E-03 0. -1.
         11   -1    0    0    0    0 -0.00000000000E+00 -0.00000000000E+00 -0.45593999997E+02  0.45594000000E+02  0.51100000000E-03 0.  1.
         23    2    1    2    0    0 -0.35527136788E-14 -0.17763568394E-14  0.35527136788E-14  0.91188000000E+02  0.91188000000E+02 0.  0.
    9900012    2    3    3    0    0  0.28580575297E+02  0.74301384364E+01 -0.21993746693E+02  0.54367066618E+02  0.39999959970E+02 0.  0.
         12    1    3    3    0    0 -0.28580575297E+02 -0.74301384364E+01  0.21993746693E+02  0.36820933382E+02  0.00000000000E+00 0. -1.
         11    1    4    4    0    0  0.99826183047E+01  0.45331340395E+01  0.12725033836E+01  0.11037265855E+02  0.51100000000E-03 0. -1.
        -11    1    4    4    0    0  0.20570832189E+02 -0.44621700129E+01 -0.27486142458E+02  0.34620198232E+02  0.51100000000E-03 0.  1.
        -12    1    4    4    0    0 -0.19728751971E+01  0.73591744098E+01  0.42198923806E+01  0.87096025306E+01  0.00000000000E+00 0.  1.
</event>
<event>
 8    1  0.1280925E-006  0.9118800E+02  0.7816164E-02  0.1184000E+00
        -11   -1    0    0    0    0  0.00000000000E+00  0.00000000000E+00  0.45593999997E+02  0.45594000000E+02  0.51100000000E-03 0.  1.
         11   -1    0    0    0    0 -0.00000000000E+00 -0.00000000000E+00 -0.45593999997E+02  0.45594000000E+02  0.51100000000E-03 0. -1.
         23    2    1    2    0    0 -0.35527136788E-14  0.00000000000E+00  0.35527136788E-14  0.91188000000E+02  0.91188000000E+02 0.  0.
    9900012    2    3    3    0    0  0.20887980826E+02  0.11991131107E+02  0.27851127386E+02  0.54367078435E+02  0.39999986908E+02 0.  0.
         12    1    3    3    0    0 -0.20887980826E+02 -0.11991131107E+02 -0.27851127386E+02  0.36820921565E+02  0.00000000000E+00 0. -1.
         11    1    4    4    0    0 -0.52345747822E+01 -0.51365035261E+01 -0.23287814922E+01  0.76946517221E+01  0.51100000000E-03 0. -1.
        -11    1    4    4    0    0 -0.20460200203E+01  0.40530893510E+01  0.35542499944E+01  0.57659712533E+01  0.51100000000E-03 0.  1.
        -12    1    4    4    0    0  0.28168575629E+02  0.13074545282E+02  0.26625658884E+02  0.40906455460E+02  0.00000000000E+00 0.  1.
</event>
<event>
 8    1  0.1280925E-006  0.9118800E+02  0.7816164E-02  0.1184000E+00
        -11   -1    0    0    0    0  0.00000000000E+00  0.00000000000E+00  0.45593999997E+02  0.45594000000E+02  0.51100000000E-03 0.  1.
         11   -1    0    0    0    0 -0.00000000000E+00 -0.00000000000E+00 -0.45593999997E+02  0.45594000000E+02  0.51100000000E-03 0. -1.
         23    2    1    2    0    0 -0.35527136788E-14  0.00000000000E+00  0.00000000000E+00  0.91188000000E+02  0.91188000000E+02 0.  0.
    9900012    2    3    3    0    0 -0.15528164601E+02 -0.80882174094E+01 -0.32391900685E+02  0.54367103939E+02  0.40000045051E+02 0.  0.
        -12    1    3    3    0    0  0.15528164601E+02  0.80882174094E+01  0.32391900685E+02  0.36820896061E+02  0.00000000000E+00 0.  1.
         11    1    4    4    0    0 -0.30035786150E+01 -0.92293287066E+01 -0.10552667427E+02  0.14337391079E+02  0.51100000000E-03 0.  1.
        -11    1    4    4    0    0  0.10408511498E+02 -0.28799143217E+00 -0.86438367083E+01  0.13532773699E+02  0.51100000000E-03 0. -1.
        -12    1    4    4    0    0 -0.22933097485E+02  0.14291027294E+01 -0.13195396549E+02  0.26496939162E+02  0.00000000000E+00 0.  1.
</event>
<event>
 8    1  0.1280925E-006  0.9118800E+02  0.7816164E-02  0.1184000E+00
        -11   -1    0    0    0    0  0.00000000000E+00  0.00000000000E+00  0.45593999997E+02  0.45594000000E+02  0.51100000000E-03 0. -1.
         11   -1    0    0    0    0 -0.00000000000E+00 -0.00000000000E+00 -0.45593999997E+02  0.45594000000E+02  0.51100000000E-03 0.  1.
         23    2    1    2    0    0 -0.35527136788E-14 -0.35527136788E-14 -0.35527136788E-14  0.91188000000E+02  0.91188000000E+02 0.  0.
    9900012    2    3    3    0    0  0.24165891731E+02  0.22255592052E+02  0.16627521452E+02  0.54367134036E+02  0.40000113661E+02 0.  0.
        -12    1    3    3    0    0 -0.24165891731E+02 -0.22255592052E+02 -0.16627521452E+02  0.36820865964E+02  0.00000000000E+00 0.  1.
         11    1    4    4    0    0 -0.28219250962E+00  0.98764970157E+01 -0.15255853663E-01  0.98805394041E+01  0.51100000000E-03 0. -1.
        -11    1    4    4    0    0  0.21114211359E+02  0.18605087653E+02  0.21919142867E+02  0.35670828869E+02  0.51100000000E-03 0.  1.
        -12    1    4    4    0    0  0.33338728810E+01 -0.62259926168E+01 -0.52763655610E+01  0.88157657628E+01  0.00000000000E+00 0.  1.
</event>
<event>
 8    1  0.1280925E-006  0.9118800E+02  0.7816164E-02  0.1184000E+00
        -11   -1    0    0    0    0  0.00000000000E+00  0.00000000000E+00  0.45593999997E+02  0.45594000000E+02  0.51100000000E-03 0.  1.
         11   -1    0    0    0    0 -0.00000000000E+00 -0.00000000000E+00 -0.45593999997E+02  0.45594000000E+02  0.51100000000E-03 0. -1.
         23    2    1    2    0    0  0.88817841970E-15  0.35527136788E-14  0.35527136788E-14  0.91188000000E+02  0.91188000000E+02 0.  0.
    9900012    2    3    3    0    0 -0.53319042163E+01  0.26613188848E+02 -0.24881494625E+02  0.54367084775E+02  0.40000001362E+02 0.  0.
        -12    1    3    3    0    0  0.53319042163E+01 -0.26613188848E+02  0.24881494625E+02  0.36820915225E+02  0.00000000000E+00 0.  1.
         11    1    4    4    0    0  0.47874676520E+01  0.88956621203E+01 -0.14545289075E+02  0.17709265530E+02  0.51100000000E-03 0. -1.
        -11    1    4    4    0    0  0.71205872867E+01 -0.11160419156E+01  0.30529861704E+01  0.78274540996E+01  0.51100000000E-03 0.  1.
        -12    1    4    4    0    0 -0.17239959155E+02  0.18833568643E+02 -0.13389191720E+02  0.28830365146E+02  0.00000000000E+00 0.  1.
</event>
<event>
 8    1  0.1280925E-006  0.9118800E+02  0.7816164E-02  0.1184000E+00
        -11   -1    0    0    0    0  0.00000000000E+00  0.00000000000E+00  0.45593999997E+02  0.45594000000E+02  0.51100000000E-03 0. -1.
         11   -1    0    0    0    0 -0.00000000000E+00 -0.00000000000E+00 -0.45593999997E+02  0.45594000000E+02  0.51100000000E-03 0.  1.
         23    2    1    2    0    0  0.00000000000E+00  0.17763568394E-14  0.00000000000E+00  0.91188000000E+02  0.91188000000E+02 0.  0.
    9900012    2    3    3    0    0  0.24395341898E+01 -0.14513166655E+02 -0.33751744374E+02  0.54367304980E+02  0.40000503361E+02 0.  0.
         12    1    3    3    0    0 -0.24395341898E+01  0.14513166655E+02  0.33751744374E+02  0.36820695020E+02  0.00000000000E+00 0. -1.
         11    1    4    4    0    0 -0.26173091312E+01  0.40380633393E+01  0.52556542620E+00  0.48407108877E+01  0.51100000000E-03 0. -1.
        -11    1    4    4    0    0 -0.53988835052E+01 -0.23522450524E+02 -0.22098032876E+02  0.32722724199E+02  0.51100000000E-03 0.  1.
         12    1    4    4    0    0  0.10455726826E+02  0.49712205290E+01 -0.12179276925E+02  0.16803869894E+02  0.00000000000E+00 0. -1.
</event>
<event>
 8    1  0.1280925E-006  0.9118800E+02  0.7816164E-02  0.1184000E+00
        -11   -1    0    0    0    0  0.00000000000E+00  0.00000000000E+00  0.45593999997E+02  0.45594000000E+02  0.51100000000E-03 0.  1.
         11   -1    0    0    0    0 -0.00000000000E+00 -0.00000000000E+00 -0.45593999997E+02  0.45594000000E+02  0.51100000000E-03 0. -1.
         23    2    1    2    0    0 -0.88817841970E-15  0.13322676296E-14  0.00000000000E+00  0.91188000000E+02  0.91188000000E+02 0.  0.
    9900012    2    3    3    0    0  0.40631618225E+01  0.35554774353E+01 -0.36422920344E+02  0.54367084338E+02  0.40000000365E+02 0.  0.
        -12    1    3    3    0    0 -0.40631618225E+01 -0.35554774353E+01  0.36422920344E+02  0.36820915662E+02  0.00000000000E+00 0.  1.
         11    1    4    4    0    0  0.25276260783E+01 -0.50831044590E+01 -0.13582655203E+01  0.58370994524E+01  0.51100000000E-03 0. -1.
        -11    1    4    4    0    0  0.91662251186E+01  0.89128386612E+01 -0.14566322463E+00  0.12785913888E+02  0.51100000000E-03 0.  1.
         12    1    4    4    0    0 -0.76306893744E+01 -0.27425676688E+00 -0.34918991600E+02  0.35744070997E+02  0.00000000000E+00 0. -1.
</event>
<event>
 8    1  0.1280925E-006  0.9118800E+02  0.7816164E-02  0.1184000E+00
        -11   -1    0    0    0    0  0.00000000000E+00  0.00000000000E+00  0.45593999997E+02  0.45594000000E+02  0.51100000000E-03 0.  1.
         11   -1    0    0    0    0 -0.00000000000E+00 -0.00000000000E+00 -0.45593999997E+02  0.45594000000E+02  0.51100000000E-03 0. -1.
         23    2    1    2    0    0 -0.17763568394E-14 -0.35527136788E-14  0.35527136788E-14  0.91188000000E+02  0.91188000000E+02 0.  0.
    9900012    2    3    3    0    0 -0.97621670617E+01 -0.27790758922E+02  0.22094193434E+02  0.54367087862E+02  0.40000008398E+02 0.  0.
        -12    1    3    3    0    0  0.97621670617E+01  0.27790758922E+02 -0.22094193434E+02  0.36820912138E+02  0.00000000000E+00 0.  1.
         11    1    4    4    0    0 -0.19389355651E+02 -0.72040676580E-01  0.10257862704E+02  0.21935725426E+02  0.51100000000E-03 0. -1.
        -11    1    4    4    0    0  0.39681030483E+01 -0.36981815774E+01  0.11820949722E+01  0.55515527167E+01  0.51100000000E-03 0.  1.
         12    1    4    4    0    0  0.56590855414E+01 -0.24020536668E+02  0.10654235758E+02  0.26879809719E+02  0.00000000000E+00 0. -1.
</event>
<event>
 8    1  0.1280925E-006  0.9118800E+02  0.7816164E-02  0.1184000E+00
        -11   -1    0    0    0    0  0.00000000000E+00  0.00000000000E+00  0.45593999997E+02  0.45594000000E+02  0.51100000000E-03 0. -1.
         11   -1    0    0    0    0 -0.00000000000E+00 -0.00000000000E+00 -0.45593999997E+02  0.45594000000E+02  0.51100000000E-03 0.  1.
         23    2    1    2    0    0  0.00000000000E+00 -0.17763568394E-14  0.00000000000E+00  0.91188000000E+02  0.91188000000E+02 0.  0.
    9900012    2    3    3    0    0  0.19040680771E+02  0.12744966870E+02 -0.28823558750E+02  0.54367092302E+02  0.40000018520E+02 0.  0.
         12    1    3    3    0    0 -0.19040680771E+02 -0.12744966870E+02  0.28823558750E+02  0.36820907698E+02  0.00000000000E+00 0. -1.
         11    1    4    4    0    0 -0.31723847017E+01  0.14099611297E+02 -0.95349720838E+00  0.14483515478E+02  0.51100000000E-03 0. -1.
        -11    1    4    4    0    0  0.17359908264E+02  0.66322106057E+01 -0.14501304647E+02  0.23572027261E+02  0.51100000000E-03 0.  1.
         12    1    4    4    0    0  0.48531572084E+01 -0.79868550333E+01 -0.13368756895E+02  0.16311549562E+02  0.00000000000E+00 0. -1.
</event>
<event>
 8    1  0.1280925E-006  0.9118800E+02  0.7816164E-02  0.1184000E+00
        -11   -1    0    0    0    0  0.00000000000E+00  0.00000000000E+00  0.45593999997E+02  0.45594000000E+02  0.51100000000E-03 0. -1.
         11   -1    0    0    0    0 -0.00000000000E+00 -0.00000000000E+00 -0.45593999997E+02  0.45594000000E+02  0.51100000000E-03 0.  1.
         23    2    1    2    0    0  0.00000000000E+00 -0.35527136788E-14 -0.17763568394E-14  0.91188000000E+02  0.91188000000E+02 0.  0.
    9900012    2    3    3    0    0  0.26135294710E+02 -0.25419792370E+02  0.51536682403E+01  0.54367085155E+02  0.40000002228E+02 0.  0.
        -12    1    3    3    0    0 -0.26135294710E+02  0.25419792370E+02 -0.51536682403E+01  0.36820914845E+02  0.00000000000E+00 0.  1.
         11    1    4    4    0    0  0.13483506071E+02 -0.20289458684E+02 -0.82309827064E+01  0.25714123478E+02  0.51100000000E-03 0. -1.
        -11    1    4    4    0    0  0.35372295709E+01 -0.68314142916E+01 -0.42065179964E+01  0.87678394246E+01  0.51100000000E-03 0.  1.
         12    1    4    4    0    0  0.91145590672E+01  0.17010806056E+01  0.17591168943E+02  0.19885122253E+02  0.00000000000E+00 0. -1.
</event>
<event>
 8    1  0.1280925E-006  0.9118800E+02  0.7816164E-02  0.1184000E+00
        -11   -1    0    0    0    0  0.00000000000E+00  0.00000000000E+00  0.45593999997E+02  0.45594000000E+02  0.51100000000E-03 0.  1.
         11   -1    0    0    0    0 -0.00000000000E+00 -0.00000000000E+00 -0.45593999997E+02  0.45594000000E+02  0.51100000000E-03 0. -1.
         23    2    1    2    0    0  0.00000000000E+00 -0.35527136788E-14 -0.26645352591E-14  0.91188000000E+02  0.91188000000E+02 0.  0.
    9900012    2    3    3    0    0  0.29659479942E+02 -0.21131086570E+02  0.54380265710E+01  0.54367086064E+02  0.40000004301E+02 0.  0.
         12    1    3    3    0    0 -0.29659479942E+02  0.21131086570E+02 -0.54380265710E+01  0.36820913936E+02  0.00000000000E+00 0. -1.
         11    1    4    4    0    0 -0.16906243884E+01 -0.44738219436E+01 -0.12320499491E+02  0.13216202237E+02  0.51100000000E-03 0. -1.
        -11    1    4    4    0    0  0.14481391825E+02 -0.74433842504E+01  0.14197239551E+02  0.21602691717E+02  0.51100000000E-03 0.  1.
         12    1    4    4    0    0  0.16868712505E+02 -0.92138803757E+01  0.35612865114E+01  0.19548192110E+02  0.00000000000E+00 0. -1.
</event>
<event>
 8    1  0.1280925E-006  0.9118800E+02  0.7816164E-02  0.1184000E+00
        -11   -1    0    0    0    0  0.00000000000E+00  0.00000000000E+00  0.45593999997E+02  0.45594000000E+02  0.51100000000E-03 0.  1.
         11   -1    0    0    0    0 -0.00000000000E+00 -0.00000000000E+00 -0.45593999997E+02  0.45594000000E+02  0.51100000000E-03 0. -1.
         23    2    1    2    0    0  0.35527136788E-14 -0.35527136788E-14  0.35527136788E-14  0.91188000000E+02  0.91188000000E+02 0.  0.
    9900012    2    3    3    0    0 -0.13286602000E+02  0.29499582632E+02  0.17578980698E+02  0.54367085691E+02  0.40000003450E+02 0.  0.
         12    1    3    3    0    0  0.13286602000E+02 -0.29499582632E+02 -0.17578980698E+02  0.36820914309E+02  0.00000000000E+00 0. -1.
         11    1    4    4    0    0 -0.29466525523E+01  0.42787210407E+00 -0.35027709933E+01  0.45973079834E+01  0.51100000000E-03 0. -1.
        -11    1    4    4    0    0 -0.61583597983E+00  0.28759717827E+02  0.26082803377E+02  0.38830571149E+02  0.51100000000E-03 0.  1.
        -12    1    4    4    0    0 -0.97241134675E+01  0.31199270075E+00 -0.50010516863E+01  0.10939206559E+02  0.00000000000E+00 0.  1.
</event>
<event>
 8    1  0.1280925E-006  0.9118800E+02  0.7816164E-02  0.1184000E+00
        -11   -1    0    0    0    0  0.00000000000E+00  0.00000000000E+00  0.45593999997E+02  0.45594000000E+02  0.51100000000E-03 0. -1.
         11   -1    0    0    0    0 -0.00000000000E+00 -0.00000000000E+00 -0.45593999997E+02  0.45594000000E+02  0.51100000000E-03 0.  1.
         23    2    1    2    0    0  0.35527136788E-14 -0.35527136788E-14  0.00000000000E+00  0.91188000000E+02  0.91188000000E+02 0.  0.
    9900012    2    3    3    0    0 -0.26209195196E+02  0.24287151606E+02 -0.88878050726E+01  0.54367072187E+02  0.39999972666E+02 0.  0.
        -12    1    3    3    0    0  0.26209195196E+02 -0.24287151606E+02  0.88878050726E+01  0.36820927813E+02  0.00000000000E+00 0.  1.
         11    1    4    4    0    0 -0.10093570318E+02  0.70715350015E+01  0.28085281323E+01  0.12640197766E+02  0.51100000000E-03 0. -1.
        -11    1    4    4    0    0  0.93979071194E+01  0.53439692244E+00 -0.12088473704E+01  0.94903925378E+01  0.51100000000E-03 0.  1.
        -12    1    4    4    0    0 -0.25513531998E+02  0.16681219682E+02 -0.10487485835E+02  0.32236481883E+02  0.00000000000E+00 0.  1.
</event>
<event>
 8    1  0.1280925E-006  0.9118800E+02  0.7816164E-02  0.1184000E+00
        -11   -1    0    0    0    0  0.00000000000E+00  0.00000000000E+00  0.45593999997E+02  0.45594000000E+02  0.51100000000E-03 0.  1.
         11   -1    0    0    0    0 -0.00000000000E+00 -0.00000000000E+00 -0.45593999997E+02  0.45594000000E+02  0.51100000000E-03 0. -1.
         23    2    1    2    0    0  0.00000000000E+00 -0.35527136788E-14  0.88817841970E-15  0.91188000000E+02  0.91188000000E+02 0.  0.
    9900012    2    3    3    0    0 -0.22249203202E+02 -0.29034211140E+02 -0.42130462030E+01  0.54367323499E+02  0.40000545578E+02 0.  0.
        -12    1    3    3    0    0  0.22249203202E+02  0.29034211140E+02  0.42130462030E+01  0.36820676501E+02  0.00000000000E+00 0.  1.
         11    1    4    4    0    0 -0.33768579130E+00 -0.28146889702E+01 -0.11122476790E+02  0.11478065860E+02  0.51100000000E-03 0. -1.
        -11    1    4    4    0    0 -0.97939686563E+01 -0.12625686906E+02 -0.93180772883E+01  0.18497468922E+02  0.51100000000E-03 0.  1.
        -12    1    4    4    0    0 -0.12117548755E+02 -0.13593835263E+02  0.16227507875E+02  0.24391788717E+02  0.00000000000E+00 0.  1.
</event>
<event>
 8    1  0.1280925E-006  0.9118800E+02  0.7816164E-02  0.1184000E+00
        -11   -1    0    0    0    0  0.00000000000E+00  0.00000000000E+00  0.45593999997E+02  0.45594000000E+02  0.51100000000E-03 0.  1.
         11   -1    0    0    0    0 -0.00000000000E+00 -0.00000000000E+00 -0.45593999997E+02  0.45594000000E+02  0.51100000000E-03 0. -1.
         23    2    1    2    0    0  0.00000000000E+00  0.35527136788E-14 -0.35527136788E-14  0.91188000000E+02  0.91188000000E+02 0.  0.
    9900012    2    3    3    0    0 -0.17409975685E+02  0.14624413307E+02 -0.28962021580E+02  0.54367090018E+02  0.40000013314E+02 0.  0.
        -12    1    3    3    0    0  0.17409975685E+02 -0.14624413307E+02  0.28962021580E+02  0.36820909982E+02  0.00000000000E+00 0.  1.
         11    1    4    4    0    0 -0.36267618946E+01  0.19257144089E+02 -0.13098946539E+02  0.23570604595E+02  0.51100000000E-03 0. -1.
        -11    1    4    4    0    0  0.20044459229E+01  0.25487393290E+01  0.35203414716E+01  0.47860923479E+01  0.51100000000E-03 0.  1.
         12    1    4    4    0    0 -0.15787659714E+02 -0.71814701116E+01 -0.19383416512E+02  0.26010393075E+02  0.00000000000E+00 0. -1.
</event>
<event>
 8    1  0.1280925E-006  0.9118800E+02  0.7816164E-02  0.1184000E+00
        -11   -1    0    0    0    0  0.00000000000E+00  0.00000000000E+00  0.45593999997E+02  0.45594000000E+02  0.51100000000E-03 0. -1.
         11   -1    0    0    0    0 -0.00000000000E+00 -0.00000000000E+00 -0.45593999997E+02  0.45594000000E+02  0.51100000000E-03 0.  1.
         23    2    1    2    0    0 -0.35527136788E-14 -0.35527136788E-14  0.35527136788E-14  0.91188000000E+02  0.91188000000E+02 0.  0.
    9900012    2    3    3    0    0 -0.20237361312E+02 -0.95614470599E+01  0.29237058708E+02  0.54367113744E+02  0.40000067402E+02 0.  0.
        -12    1    3    3    0    0  0.20237361312E+02  0.95614470599E+01 -0.29237058708E+02  0.36820886256E+02  0.00000000000E+00 0.  1.
         11    1    4    4    0    0 -0.26254901277E+02 -0.17894318169E+02  0.20537426588E+02  0.37832688973E+02  0.51100000000E-03 0. -1.
        -11    1    4    4    0    0  0.27996939037E+01  0.60409943122E+01 -0.34240671681E+00  0.66670188882E+01  0.51100000000E-03 0.  1.
        -12    1    4    4    0    0  0.32178460611E+01  0.22918767965E+01  0.90420388376E+01  0.98674058832E+01  0.00000000000E+00 0.  1.
</event>
<event>
 8    1  0.1280925E-006  0.9118800E+02  0.7816164E-02  0.1184000E+00
        -11   -1    0    0    0    0  0.00000000000E+00  0.00000000000E+00  0.45593999997E+02  0.45594000000E+02  0.51100000000E-03 0.  1.
         11   -1    0    0    0    0 -0.00000000000E+00 -0.00000000000E+00 -0.45593999997E+02  0.45594000000E+02  0.51100000000E-03 0. -1.
         23    2    1    2    0    0  0.88817841970E-15  0.00000000000E+00  0.35527136788E-14  0.91188000000E+02  0.91188000000E+02 0.  0.
    9900012    2    3    3    0    0 -0.75293648224E+01 -0.18087870171E+02  0.31175585204E+02  0.54367088893E+02  0.40000010750E+02 0.  0.
         12    1    3    3    0    0  0.75293648224E+01  0.18087870171E+02 -0.31175585204E+02  0.36820911107E+02  0.00000000000E+00 0. -1.
         11    1    4    4    0    0 -0.21391917170E+02 -0.42551316876E+01  0.70485557020E+01  0.22921657960E+02  0.51100000000E-03 0. -1.
        -11    1    4    4    0    0  0.12532042217E+02 -0.12067077132E+02  0.23314355794E+02  0.29089957357E+02  0.51100000000E-03 0.  1.
         12    1    4    4    0    0  0.13305101309E+01 -0.17656613510E+01  0.81267370741E+00  0.23554735765E+01  0.00000000000E+00 0. -1.
</event>
<event>
 8    1  0.1280925E-006  0.9118800E+02  0.7816164E-02  0.1184000E+00
        -11   -1    0    0    0    0  0.00000000000E+00  0.00000000000E+00  0.45593999997E+02  0.45594000000E+02  0.51100000000E-03 0. -1.
         11   -1    0    0    0    0 -0.00000000000E+00 -0.00000000000E+00 -0.45593999997E+02  0.45594000000E+02  0.51100000000E-03 0.  1.
         23    2    1    2    0    0  0.35527136788E-14  0.00000000000E+00  0.00000000000E+00  0.91188000000E+02  0.91188000000E+02 0.  0.
    9900012    2    3    3    0    0  0.28180627253E+02  0.90960206981E+01 -0.21883608061E+02  0.54367113989E+02  0.40000067960E+02 0.  0.
         12    1    3    3    0    0 -0.28180627253E+02 -0.90960206981E+01  0.21883608061E+02  0.36820886011E+02  0.00000000000E+00 0. -1.
         11    1    4    4    0    0 -0.17009152601E+00 -0.21599422646E-01  0.75023419795E+01  0.75043009735E+01  0.51100000000E-03 0. -1.
        -11    1    4    4    0    0 -0.14927407199E+01 -0.29905118642E+01 -0.11807399485E+00  0.33444547831E+01  0.51100000000E-03 0.  1.
        -12    1    4    4    0    0  0.29843459499E+02  0.12108131985E+02 -0.29267876045E+02  0.43518358232E+02  0.00000000000E+00 0.  1.
</event>
<event>
 8    1  0.1280925E-006  0.9118800E+02  0.7816164E-02  0.1184000E+00
        -11   -1    0    0    0    0  0.00000000000E+00  0.00000000000E+00  0.45593999997E+02  0.45594000000E+02  0.51100000000E-03 0.  1.
         11   -1    0    0    0    0 -0.00000000000E+00 -0.00000000000E+00 -0.45593999997E+02  0.45594000000E+02  0.51100000000E-03 0. -1.
         23    2    1    2    0    0  0.00000000000E+00 -0.88817841970E-15  0.71054273576E-14  0.91188000000E+02  0.91188000000E+02 0.  0.
    9900012    2    3    3    0    0  0.11961963822E+02  0.66875780062E+01  0.34175561654E+02  0.54367064482E+02  0.39999955099E+02 0.  0.
         12    1    3    3    0    0 -0.11961963822E+02 -0.66875780062E+01 -0.34175561654E+02  0.36820935518E+02  0.00000000000E+00 0. -1.
         11    1    4    4    0    0  0.19216217618E-02  0.63847750204E+01 -0.19293569012E+01  0.66699155967E+01  0.51100000000E-03 0. -1.
        -11    1    4    4    0    0  0.84293318965E+01  0.10252762901E+02  0.39424821797E+01  0.13846152870E+02  0.51100000000E-03 0.  1.
        -12    1    4    4    0    0  0.35307103042E+01 -0.99499599148E+01  0.32162436376E+02  0.33850996014E+02  0.00000000000E+00 0.  1.
</event>
<event>
 8    1  0.1280925E-006  0.9118800E+02  0.7816164E-02  0.1184000E+00
        -11   -1    0    0    0    0  0.00000000000E+00  0.00000000000E+00  0.45593999997E+02  0.45594000000E+02  0.51100000000E-03 0.  1.
         11   -1    0    0    0    0 -0.00000000000E+00 -0.00000000000E+00 -0.45593999997E+02  0.45594000000E+02  0.51100000000E-03 0. -1.
         23    2    1    2    0    0  0.00000000000E+00  0.00000000000E+00 -0.17763568394E-14  0.91188000000E+02  0.91188000000E+02 0.  0.
    9900012    2    3    3    0    0  0.10011803542E+02 -0.33956847341E+02 -0.10123044041E+02  0.54367085940E+02  0.40000004019E+02 0.  0.
        -12    1    3    3    0    0 -0.10011803542E+02  0.33956847341E+02  0.10123044041E+02  0.36820914060E+02  0.00000000000E+00 0.  1.
         11    1    4    4    0    0  0.12843047291E+02 -0.15137182026E+02 -0.11184700112E+01  0.19882885073E+02  0.51100000000E-03 0. -1.
        -11    1    4    4    0    0  0.12172848039E+02 -0.67088650277E+01 -0.51375814153E+01  0.14818294180E+02  0.51100000000E-03 0.  1.
        -12    1    4    4    0    0 -0.15004091787E+02 -0.12110800287E+02 -0.38669926146E+01  0.19665906688E+02  0.00000000000E+00 0.  1.
</event>
<event>
 8    1  0.1280925E-006  0.9118800E+02  0.7816164E-02  0.1184000E+00
        -11   -1    0    0    0    0  0.00000000000E+00  0.00000000000E+00  0.45593999997E+02  0.45594000000E+02  0.51100000000E-03 0.  1.
         11   -1    0    0    0    0 -0.00000000000E+00 -0.00000000000E+00 -0.45593999997E+02  0.45594000000E+02  0.51100000000E-03 0. -1.
         23    2    1    2    0    0  0.35527136788E-14  0.00000000000E+00  0.17763568394E-14  0.91188000000E+02  0.91188000000E+02 0.  0.
    9900012    2    3    3    0    0 -0.30858899427E+02  0.18138237523E+02 -0.86320289203E+01  0.54367092114E+02  0.40000018092E+02 0.  0.
        -12    1    3    3    0    0  0.30858899427E+02 -0.18138237523E+02  0.86320289203E+01  0.36820907886E+02  0.00000000000E+00 0.  1.
         11    1    4    4    0    0 -0.79427139398E+01 -0.27029833621E+01  0.35561141463E+01  0.91125612134E+01  0.51100000000E-03 0.  1.
        -11    1    4    4    0    0 -0.10625516752E+02 -0.72611986728E+01 -0.27202782562E+01  0.13153954784E+02  0.51100000000E-03 0. -1.
         12    1    4    4    0    0 -0.12290668735E+02  0.28102419558E+02 -0.94678648104E+01  0.32100576117E+02  0.00000000000E+00 0. -1.
</event>
<event>
 8    1  0.1280925E-006  0.9118800E+02  0.7816164E-02  0.1184000E+00
        -11   -1    0    0    0    0  0.00000000000E+00  0.00000000000E+00  0.45593999997E+02  0.45594000000E+02  0.51100000000E-03 0.  1.
         11   -1    0    0    0    0 -0.00000000000E+00 -0.00000000000E+00 -0.45593999997E+02  0.45594000000E+02  0.51100000000E-03 0. -1.
         23    2    1    2    0    0  0.00000000000E+00  0.88817841970E-15  0.00000000000E+00  0.91188000000E+02  0.91188000000E+02 0.  0.
    9900012    2    3    3    0    0 -0.19615203693E+02  0.61162361532E+01  0.30555131661E+02  0.54367073458E+02  0.39999975563E+02 0.  0.
         12    1    3    3    0    0  0.19615203693E+02 -0.61162361532E+01 -0.30555131661E+02  0.36820926542E+02  0.00000000000E+00 0. -1.
         11    1    4    4    0    0 -0.12366856674E+02 -0.47356167272E+01 -0.58320100893E+01  0.14469884303E+02  0.51100000000E-03 0. -1.
        -11    1    4    4    0    0 -0.34389272594E-01 -0.43051805676E+00  0.12538536394E+02  0.12545972405E+02  0.51100000000E-03 0.  1.
         12    1    4    4    0    0 -0.72139577462E+01  0.11282370937E+02  0.23848605355E+02  0.27351216750E+02  0.00000000000E+00 0. -1.
</event>
<event>
 8    1  0.1280925E-006  0.9118800E+02  0.7816164E-02  0.1184000E+00
        -11   -1    0    0    0    0  0.00000000000E+00  0.00000000000E+00  0.45593999997E+02  0.45594000000E+02  0.51100000000E-03 0.  1.
         11   -1    0    0    0    0 -0.00000000000E+00 -0.00000000000E+00 -0.45593999997E+02  0.45594000000E+02  0.51100000000E-03 0. -1.
         23    2    1    2    0    0 -0.35527136788E-14  0.44408920985E-15  0.00000000000E+00  0.91188000000E+02  0.91188000000E+02 0.  0.
    9900012    2    3    3    0    0  0.17489249051E+02  0.36093574804E+01 -0.32200581233E+02  0.54367099338E+02  0.40000034561E+02 0.  0.
        -12    1    3    3    0    0 -0.17489249051E+02 -0.36093574804E+01  0.32200581233E+02  0.36820900662E+02  0.00000000000E+00 0.  1.
         11    1    4    4    0    0  0.48286354687E+01  0.11531632553E+02 -0.16270252361E+02  0.20518659361E+02  0.51100000000E-03 0. -1.
        -11    1    4    4    0    0 -0.85909787228E+00  0.31139015532E+01  0.53974656518E+01  0.62902359066E+01  0.51100000000E-03 0.  1.
         12    1    4    4    0    0  0.13519711455E+02 -0.11036176625E+02 -0.21327794524E+02  0.27558204071E+02  0.00000000000E+00 0. -1.
</event>
<event>
 8    1  0.1280925E-006  0.9118800E+02  0.7816164E-02  0.1184000E+00
        -11   -1    0    0    0    0  0.00000000000E+00  0.00000000000E+00  0.45593999997E+02  0.45594000000E+02  0.51100000000E-03 0.  1.
         11   -1    0    0    0    0 -0.00000000000E+00 -0.00000000000E+00 -0.45593999997E+02  0.45594000000E+02  0.51100000000E-03 0. -1.
         23    2    1    2    0    0  0.00000000000E+00  0.00000000000E+00  0.00000000000E+00  0.91188000000E+02  0.91188000000E+02 0.  0.
    9900012    2    3    3    0    0 -0.25090550443E+02  0.22934676249E+02  0.14150757146E+02  0.54367095286E+02  0.40000025323E+02 0.  0.
         12    1    3    3    0    0  0.25090550443E+02 -0.22934676249E+02 -0.14150757146E+02  0.36820904714E+02  0.00000000000E+00 0. -1.
         11    1    4    4    0    0 -0.14266051208E+02  0.16398925651E+02  0.33260644620E+01  0.21988808168E+02  0.51100000000E-03 0. -1.
        -11    1    4    4    0    0 -0.20211084973E+02  0.46826852423E+01  0.56557667589E+01  0.21503562374E+02  0.51100000000E-03 0.  1.
         12    1    4    4    0    0  0.93865857384E+01  0.18530653553E+01  0.51689259254E+01  0.10874724744E+02  0.00000000000E+00 0. -1.
</event>
<event>
 8    1  0.1280925E-006  0.9118800E+02  0.7816164E-02  0.1184000E+00
        -11   -1    0    0    0    0  0.00000000000E+00  0.00000000000E+00  0.45593999997E+02  0.45594000000E+02  0.51100000000E-03 0. -1.
         11   -1    0    0    0    0 -0.00000000000E+00 -0.00000000000E+00 -0.45593999997E+02  0.45594000000E+02  0.51100000000E-03 0.  1.
         23    2    1    2    0    0  0.00000000000E+00 -0.35527136788E-14  0.00000000000E+00  0.91188000000E+02  0.91188000000E+02 0.  0.
    9900012    2    3    3    0    0 -0.26571896699E+02 -0.23309328699E+02  0.10314494989E+02  0.54367091464E+02  0.40000016610E+02 0.  0.
        -12    1    3    3    0    0  0.26571896699E+02  0.23309328699E+02 -0.10314494989E+02  0.36820908536E+02  0.00000000000E+00 0.  1.
         11    1    4    4    0    0  0.50561126868E+01  0.47166392755E+01  0.68671764300E+01  0.97452077422E+01  0.51100000000E-03 0. -1.
        -11    1    4    4    0    0 -0.21319864139E+02 -0.12435819890E+02 -0.29728136990E+01  0.24860085374E+02  0.51100000000E-03 0.  1.
         12    1    4    4    0    0 -0.10308145246E+02 -0.15590148084E+02  0.64201322576E+01  0.19761798347E+02  0.00000000000E+00 0. -1.
</event>
<event>
 8    1  0.1280925E-006  0.9118800E+02  0.7816164E-02  0.1184000E+00
        -11   -1    0    0    0    0  0.00000000000E+00  0.00000000000E+00  0.45593999997E+02  0.45594000000E+02  0.51100000000E-03 0.  1.
         11   -1    0    0    0    0 -0.00000000000E+00 -0.00000000000E+00 -0.45593999997E+02  0.45594000000E+02  0.51100000000E-03 0. -1.
         23    2    1    2    0    0  0.88817841970E-15  0.00000000000E+00  0.00000000000E+00  0.91188000000E+02  0.91188000000E+02 0.  0.
    9900012    2    3    3    0    0  0.61321602420E+01  0.58809455511E+01 -0.35827236687E+02  0.54367084769E+02  0.40000001348E+02 0.  0.
        -12    1    3    3    0    0 -0.61321602420E+01 -0.58809455511E+01  0.35827236687E+02  0.36820915231E+02  0.00000000000E+00 0.  1.
         11    1    4    4    0    0 -0.14397517143E+02  0.12788679580E+01 -0.23406195109E+02  0.27509525130E+02  0.51100000000E-03 0. -1.
        -11    1    4    4    0    0  0.78542784632E+01 -0.30419373695E+01 -0.74453668428E+01  0.11241732999E+02  0.51100000000E-03 0.  1.
        -12    1    4    4    0    0  0.12675398922E+02  0.76440149626E+01 -0.49756747355E+01  0.15615826640E+02  0.00000000000E+00 0.  1.
</event>
<event>
 8    1  0.1280925E-006  0.9118800E+02  0.7816164E-02  0.1184000E+00
        -11   -1    0    0    0    0  0.00000000000E+00  0.00000000000E+00  0.45593999997E+02  0.45594000000E+02  0.51100000000E-03 0.  1.
         11   -1    0    0    0    0 -0.00000000000E+00 -0.00000000000E+00 -0.45593999997E+02  0.45594000000E+02  0.51100000000E-03 0. -1.
         23    2    1    2    0    0  0.00000000000E+00 -0.35527136788E-14  0.35527136788E-14  0.91188000000E+02  0.91188000000E+02 0.  0.
    9900012    2    3    3    0    0 -0.24311170703E+02 -0.17505803714E+02  0.21407774926E+02  0.54367095449E+02  0.40000025696E+02 0.  0.
        -12    1    3    3    0    0  0.24311170703E+02  0.17505803714E+02 -0.21407774926E+02  0.36820904551E+02  0.00000000000E+00 0.  1.
         11    1    4    4    0    0 -0.11614620239E+02 -0.11052251927E+02 -0.43240450659E+01  0.16605693058E+02  0.51100000000E-03 0. -1.
        -11    1    4    4    0    0  0.37068875978E+01  0.10731108344E+01  0.17507943304E+02  0.17928208542E+02  0.51100000000E-03 0.  1.
        -12    1    4    4    0    0 -0.16403438062E+02 -0.75266626221E+01  0.82238766872E+01  0.19833193849E+02  0.00000000000E+00 0.  1.
</event>
<event>
 8    1  0.1280925E-006  0.9118800E+02  0.7816164E-02  0.1184000E+00
        -11   -1    0    0    0    0  0.00000000000E+00  0.00000000000E+00  0.45593999997E+02  0.45594000000E+02  0.51100000000E-03 0.  1.
         11   -1    0    0    0    0 -0.00000000000E+00 -0.00000000000E+00 -0.45593999997E+02  0.45594000000E+02  0.51100000000E-03 0. -1.
         23    2    1    2    0    0  0.35527136788E-14  0.00000000000E+00  0.00000000000E+00  0.91188000000E+02  0.91188000000E+02 0.  0.
    9900012    2    3    3    0    0 -0.21145241704E+02  0.96220910404E+01  0.28566982975E+02  0.54367103773E+02  0.40000044671E+02 0.  0.
         12    1    3    3    0    0  0.21145241704E+02 -0.96220910404E+01 -0.28566982975E+02  0.36820896227E+02  0.00000000000E+00 0. -1.
         11    1    4    4    0    0 -0.12174137236E+02 -0.80325709436E+01  0.11374626648E+02  0.18496322473E+02  0.51100000000E-03 0. -1.
        -11    1    4    4    0    0 -0.10078379448E+02  0.13393682267E+02  0.23076641318E+02  0.28521848323E+02  0.51100000000E-03 0.  1.
         12    1    4    4    0    0  0.11072749805E+01  0.42609797173E+01 -0.58842849913E+01  0.73489329765E+01  0.00000000000E+00 0. -1.
</event>
<event>
 8    1  0.1280925E-006  0.9118800E+02  0.7816164E-02  0.1184000E+00
        -11   -1    0    0    0    0  0.00000000000E+00  0.00000000000E+00  0.45593999997E+02  0.45594000000E+02  0.51100000000E-03 0.  1.
         11   -1    0    0    0    0 -0.00000000000E+00 -0.00000000000E+00 -0.45593999997E+02  0.45594000000E+02  0.51100000000E-03 0. -1.
         23    2    1    2    0    0  0.00000000000E+00 -0.13322676296E-14 -0.71054273576E-14  0.91188000000E+02  0.91188000000E+02 0.  0.
    9900012    2    3    3    0    0  0.10639146456E+02 -0.73891959786E+00  0.35242572416E+02  0.54367131596E+02  0.40000108100E+02 0.  0.
         12    1    3    3    0    0 -0.10639146456E+02  0.73891959786E+00 -0.35242572416E+02  0.36820868404E+02  0.00000000000E+00 0. -1.
         11    1    4    4    0    0  0.19280932563E+01 -0.51882424019E+01  0.23030442684E+01  0.59949492066E+01  0.51100000000E-03 0. -1.
        -11    1    4    4    0    0  0.34488842908E+01  0.18793722169E+02  0.23973476200E+02  0.30656587500E+02  0.51100000000E-03 0.  1.
        -12    1    4    4    0    0  0.52621689087E+01 -0.14344399365E+02  0.89660519484E+01  0.17715594890E+02  0.00000000000E+00 0.  1.
</event>
<event>
 8    1  0.1280925E-006  0.9118800E+02  0.7816164E-02  0.1184000E+00
        -11   -1    0    0    0    0  0.00000000000E+00  0.00000000000E+00  0.45593999997E+02  0.45594000000E+02  0.51100000000E-03 0. -1.
         11   -1    0    0    0    0 -0.00000000000E+00 -0.00000000000E+00 -0.45593999997E+02  0.45594000000E+02  0.51100000000E-03 0.  1.
         23    2    1    2    0    0  0.00000000000E+00 -0.35527136788E-14 -0.35527136788E-14  0.91188000000E+02  0.91188000000E+02 0.  0.
    9900012    2    3    3    0    0 -0.12385920982E+02 -0.24584422331E+02 -0.24453534270E+02  0.54367079340E+02  0.39999988972E+02 0.  0.
         12    1    3    3    0    0  0.12385920982E+02  0.24584422331E+02  0.24453534270E+02  0.36820920660E+02  0.00000000000E+00 0. -1.
         11    1    4    4    0    0 -0.10498326534E+02  0.42856343278E+01 -0.10943746605E+02  0.15759032700E+02  0.51100000000E-03 0. -1.
        -11    1    4    4    0    0 -0.11655942419E+01  0.60238011401E+00 -0.86257268751E+01  0.87249433307E+01  0.51100000000E-03 0.  1.
         12    1    4    4    0    0 -0.72200020592E+00 -0.29472436773E+02 -0.48840607895E+01  0.29883103310E+02  0.00000000000E+00 0. -1.
</event>
<event>
 8    1  0.1280925E-006  0.9118800E+02  0.7816164E-02  0.1184000E+00
        -11   -1    0    0    0    0  0.00000000000E+00  0.00000000000E+00  0.45593999997E+02  0.45594000000E+02  0.51100000000E-03 0. -1.
         11   -1    0    0    0    0 -0.00000000000E+00 -0.00000000000E+00 -0.45593999997E+02  0.45594000000E+02  0.51100000000E-03 0.  1.
         23    2    1    2    0    0  0.44408920985E-15  0.00000000000E+00 -0.66613381478E-15  0.91188000000E+02  0.91188000000E+02 0.  0.
    9900012    2    3    3    0    0  0.39147937813E+01 -0.36600170430E+02 -0.93793546339E+00  0.54367111787E+02  0.40000062940E+02 0.  0.
         12    1    3    3    0    0 -0.39147937813E+01  0.36600170430E+02  0.93793546339E+00  0.36820888213E+02  0.00000000000E+00 0. -1.
         11    1    4    4    0    0 -0.52436467552E+01 -0.29335263714E+02  0.12147034962E+02  0.32180801530E+02  0.51100000000E-03 0. -1.
        -11    1    4    4    0    0 -0.19491982511E+01  0.16596073760E+01  0.37262091617E+00  0.25869899638E+01  0.51100000000E-03 0.  1.
        -12    1    4    4    0    0  0.11107638788E+02 -0.89245140918E+01 -0.13457591342E+02  0.19599320293E+02  0.00000000000E+00 0.  1.
</event>
<event>
 8    1  0.1280925E-006  0.9118800E+02  0.7816164E-02  0.1184000E+00
        -11   -1    0    0    0    0  0.00000000000E+00  0.00000000000E+00  0.45593999997E+02  0.45594000000E+02  0.51100000000E-03 0.  1.
         11   -1    0    0    0    0 -0.00000000000E+00 -0.00000000000E+00 -0.45593999997E+02  0.45594000000E+02  0.51100000000E-03 0. -1.
         23    2    1    2    0    0 -0.44408920985E-15 -0.88817841970E-15  0.00000000000E+00  0.91188000000E+02  0.91188000000E+02 0.  0.
    9900012    2    3    3    0    0  0.19997130130E+01  0.53072059654E+01 -0.36381543802E+02  0.54367054646E+02  0.39999932677E+02 0.  0.
        -12    1    3    3    0    0 -0.19997130130E+01 -0.53072059654E+01  0.36381543802E+02  0.36820945354E+02  0.00000000000E+00 0.  1.
         11    1    4    4    0    0  0.69267136863E+01  0.12371365521E+02 -0.54013731489E+01  0.15172504061E+02  0.51100000000E-03 0. -1.
        -11    1    4    4    0    0 -0.33513184473E+01  0.65912957511E+01 -0.20840346190E+02  0.22113266258E+02  0.51100000000E-03 0.  1.
         12    1    4    4    0    0 -0.15756822260E+01 -0.13655455306E+02 -0.10139824464E+02  0.17081284327E+02  0.00000000000E+00 0. -1.
</event>
<event>
 8    1  0.1280925E-006  0.9118800E+02  0.7816164E-02  0.1184000E+00
        -11   -1    0    0    0    0  0.00000000000E+00  0.00000000000E+00  0.45593999997E+02  0.45594000000E+02  0.51100000000E-03 0. -1.
         11   -1    0    0    0    0 -0.00000000000E+00 -0.00000000000E+00 -0.45593999997E+02  0.45594000000E+02  0.51100000000E-03 0.  1.
         23    2    1    2    0    0 -0.35527136788E-14  0.00000000000E+00  0.00000000000E+00  0.91188000000E+02  0.91188000000E+02 0.  0.
    9900012    2    3    3    0    0 -0.30721209251E+02 -0.17580402836E+02  0.10144758928E+02  0.54367090242E+02  0.40000013824E+02 0.  0.
         12    1    3    3    0    0  0.30721209251E+02  0.17580402836E+02 -0.10144758928E+02  0.36820909758E+02  0.00000000000E+00 0. -1.
         11    1    4    4    0    0 -0.15165473215E+02  0.74655882722E+01  0.52930733968E+01  0.17712797981E+02  0.51100000000E-03 0. -1.
        -11    1    4    4    0    0 -0.19474292989E+02 -0.12420106176E+02  0.25951941028E+01  0.23243109894E+02  0.51100000000E-03 0.  1.
         12    1    4    4    0    0  0.39185569531E+01 -0.12625884932E+02  0.22564914285E+01  0.13411182366E+02  0.00000000000E+00 0. -1.
</event>
<event>
 8    1  0.1280925E-006  0.9118800E+02  0.7816164E-02  0.1184000E+00
        -11   -1    0    0    0    0  0.00000000000E+00  0.00000000000E+00  0.45593999997E+02  0.45594000000E+02  0.51100000000E-03 0. -1.
         11   -1    0    0    0    0 -0.00000000000E+00 -0.00000000000E+00 -0.45593999997E+02  0.45594000000E+02  0.51100000000E-03 0.  1.
         23    2    1    2    0    0  0.00000000000E+00 -0.35527136788E-14  0.00000000000E+00  0.91188000000E+02  0.91188000000E+02 0.  0.
    9900012    2    3    3    0    0  0.12825361217E+02  0.31350177070E+02  0.14438013469E+02  0.54367085758E+02  0.40000003604E+02 0.  0.
        -12    1    3    3    0    0 -0.12825361217E+02 -0.31350177070E+02 -0.14438013469E+02  0.36820914242E+02  0.00000000000E+00 0.  1.
         11    1    4    4    0    0  0.69853216675E+01  0.71153817680E+01  0.87862121367E+01  0.13289879626E+02  0.51100000000E-03 0. -1.
        -11    1    4    4    0    0  0.18612800986E+02  0.86216047565E+01  0.26588099382E+01  0.20684237952E+02  0.51100000000E-03 0.  1.
        -12    1    4    4    0    0 -0.12772761436E+02  0.15613190545E+02  0.29929913940E+01  0.20392968180E+02  0.00000000000E+00 0.  1.
</event>
<event>
 8    1  0.1280925E-006  0.9118800E+02  0.7816164E-02  0.1184000E+00
        -11   -1    0    0    0    0  0.00000000000E+00  0.00000000000E+00  0.45593999997E+02  0.45594000000E+02  0.51100000000E-03 0.  1.
         11   -1    0    0    0    0 -0.00000000000E+00 -0.00000000000E+00 -0.45593999997E+02  0.45594000000E+02  0.51100000000E-03 0. -1.
         23    2    1    2    0    0  0.00000000000E+00 -0.71054273576E-14  0.22204460493E-15  0.91188000000E+02  0.91188000000E+02 0.  0.
    9900012    2    3    3    0    0  0.42394945326E+01 -0.36561883590E+02  0.10175496580E+01  0.54367081314E+02  0.39999993472E+02 0.  0.
         12    1    3    3    0    0 -0.42394945326E+01  0.36561883590E+02 -0.10175496580E+01  0.36820918686E+02  0.00000000000E+00 0. -1.
         11    1    4    4    0    0 -0.16617329685E+01 -0.13388047503E+02 -0.11493770967E+02  0.17723090693E+02  0.51100000000E-03 0. -1.
        -11    1    4    4    0    0  0.12006983264E+01  0.11177283746E+01 -0.56941183262E+01  0.59257047652E+01  0.51100000000E-03 0.  1.
        -12    1    4    4    0    0  0.47005291746E+01 -0.24291564461E+02  0.18205438951E+02  0.30718285856E+02  0.00000000000E+00 0.  1.
</event>
<event>
 8    1  0.1280925E-006  0.9118800E+02  0.7816164E-02  0.1184000E+00
        -11   -1    0    0    0    0  0.00000000000E+00  0.00000000000E+00  0.45593999997E+02  0.45594000000E+02  0.51100000000E-03 0.  1.
         11   -1    0    0    0    0 -0.00000000000E+00 -0.00000000000E+00 -0.45593999997E+02  0.45594000000E+02  0.51100000000E-03 0. -1.
         23    2    1    2    0    0  0.88817841970E-15  0.00000000000E+00  0.00000000000E+00  0.91188000000E+02  0.91188000000E+02 0.  0.
    9900012    2    3    3    0    0 -0.54289536784E+01  0.27402827901E+02 -0.23987318772E+02  0.54367082346E+02  0.39999995824E+02 0.  0.
        -12    1    3    3    0    0  0.54289536784E+01 -0.27402827901E+02  0.23987318772E+02  0.36820917654E+02  0.00000000000E+00 0.  1.
         11    1    4    4    0    0 -0.22488569311E+02  0.16680726775E+02 -0.15788316658E+02  0.32144258251E+02  0.51100000000E-03 0. -1.
        -11    1    4    4    0    0  0.11306119915E+02  0.76119310953E+01 -0.32252913947E+01  0.14006153911E+02  0.51100000000E-03 0.  1.
         12    1    4    4    0    0  0.57534957169E+01  0.31101700311E+01 -0.49737107190E+01  0.82166701835E+01  0.00000000000E+00 0. -1.
</event>
<event>
 8    1  0.1280925E-006  0.9118800E+02  0.7816164E-02  0.1184000E+00
        -11   -1    0    0    0    0  0.00000000000E+00  0.00000000000E+00  0.45593999997E+02  0.45594000000E+02  0.51100000000E-03 0. -1.
         11   -1    0    0    0    0 -0.00000000000E+00 -0.00000000000E+00 -0.45593999997E+02  0.45594000000E+02  0.51100000000E-03 0.  1.
         23    2    1    2    0    0  0.88817841970E-15  0.22204460493E-15  0.00000000000E+00  0.91188000000E+02  0.91188000000E+02 0.  0.
    9900012    2    3    3    0    0 -0.71198493376E+01 -0.15046270772E+01 -0.36094652262E+02  0.54367080957E+02  0.39999992659E+02 0.  0.
         12    1    3    3    0    0  0.71198493376E+01  0.15046270772E+01  0.36094652262E+02  0.36820919043E+02  0.00000000000E+00 0. -1.
         11    1    4    4    0    0 -0.11531562290E+02 -0.11001509347E+02 -0.19411078358E+01  0.16055467501E+02  0.51100000000E-03 0. -1.
        -11    1    4    4    0    0 -0.47468738028E+01  0.32367117829E+01 -0.16397361775E+02  0.17374768703E+02  0.51100000000E-03 0.  1.
         12    1    4    4    0    0  0.91585867552E+01  0.62601704873E+01 -0.17756182651E+02  0.20936844754E+02  0.00000000000E+00 0. -1.
</event>
<event>
 8    1  0.1280925E-006  0.9118800E+02  0.7816164E-02  0.1184000E+00
        -11   -1    0    0    0    0  0.00000000000E+00  0.00000000000E+00  0.45593999997E+02  0.45594000000E+02  0.51100000000E-03 0. -1.
         11   -1    0    0    0    0 -0.00000000000E+00 -0.00000000000E+00 -0.45593999997E+02  0.45594000000E+02  0.51100000000E-03 0.  1.
         23    2    1    2    0    0  0.88817841970E-15 -0.35527136788E-14  0.35527136788E-14  0.91188000000E+02  0.91188000000E+02 0.  0.
    9900012    2    3    3    0    0 -0.69720733039E+01  0.22745895484E+02 -0.28103271277E+02  0.54367089854E+02  0.40000012939E+02 0.  0.
         12    1    3    3    0    0  0.69720733039E+01 -0.22745895484E+02  0.28103271277E+02  0.36820910146E+02  0.00000000000E+00 0. -1.
         11    1    4    4    0    0 -0.38243808911E+01 -0.38311548632E+01  0.15729035057E+01  0.56371679491E+01  0.51100000000E-03 0. -1.
        -11    1    4    4    0    0 -0.68267563272E+01  0.20473105850E+01  0.29772111884E+01  0.77239801465E+01  0.51100000000E-03 0.  1.
        -12    1    4    4    0    0  0.36790639144E+01  0.24529739763E+02 -0.32653385971E+02  0.41005941758E+02  0.00000000000E+00 0.  1.
</event>
<event>
 8    1  0.1280925E-006  0.9118800E+02  0.7816164E-02  0.1184000E+00
        -11   -1    0    0    0    0  0.00000000000E+00  0.00000000000E+00  0.45593999997E+02  0.45594000000E+02  0.51100000000E-03 0. -1.
         11   -1    0    0    0    0 -0.00000000000E+00 -0.00000000000E+00 -0.45593999997E+02  0.45594000000E+02  0.51100000000E-03 0.  1.
         23    2    1    2    0    0  0.00000000000E+00  0.00000000000E+00  0.35527136788E-14  0.91188000000E+02  0.91188000000E+02 0.  0.
    9900012    2    3    3    0    0 -0.14814012611E+02 -0.28522143643E+02 -0.17966967852E+02  0.54367087716E+02  0.40000008065E+02 0.  0.
         12    1    3    3    0    0  0.14814012611E+02  0.28522143643E+02  0.17966967852E+02  0.36820912284E+02  0.00000000000E+00 0. -1.
         11    1    4    4    0    0 -0.14249932523E+02 -0.17281704228E+02 -0.25450335930E+01  0.22543182432E+02  0.51100000000E-03 0. -1.
        -11    1    4    4    0    0 -0.12598806092E+02 -0.87714649371E+01 -0.66589720027E+01  0.16733511899E+02  0.51100000000E-03 0.  1.
         12    1    4    4    0    0  0.12034726004E+02 -0.24689744780E+01 -0.87629622568E+01  0.15090393384E+02  0.00000000000E+00 0. -1.
</event>
<event>
 8    1  0.1280925E-006  0.9118800E+02  0.7816164E-02  0.1184000E+00
        -11   -1    0    0    0    0  0.00000000000E+00  0.00000000000E+00  0.45593999997E+02  0.45594000000E+02  0.51100000000E-03 0.  1.
         11   -1    0    0    0    0 -0.00000000000E+00 -0.00000000000E+00 -0.45593999997E+02  0.45594000000E+02  0.51100000000E-03 0. -1.
         23    2    1    2    0    0  0.00000000000E+00  0.00000000000E+00  0.00000000000E+00  0.91188000000E+02  0.91188000000E+02 0.  0.
    9900012    2    3    3    0    0 -0.33083649037E+02  0.84714101408E+01  0.13765408447E+02  0.54367094347E+02  0.40000023184E+02 0.  0.
         12    1    3    3    0    0  0.33083649037E+02 -0.84714101408E+01 -0.13765408447E+02  0.36820905653E+02  0.00000000000E+00 0. -1.
         11    1    4    4    0    0 -0.71664662789E+01 -0.58502839320E+01 -0.33706404349E+01  0.98460793321E+01  0.51100000000E-03 0. -1.
        -11    1    4    4    0    0 -0.17982948483E+02 -0.57900464864E+01  0.11721953577E+02  0.22233201982E+02  0.51100000000E-03 0.  1.
         12    1    4    4    0    0 -0.79342342751E+01  0.20111740559E+02  0.54140953058E+01  0.22287813034E+02  0.00000000000E+00 0. -1.
</event>
<event>
 8    1  0.1280925E-006  0.9118800E+02  0.7816164E-02  0.1184000E+00
        -11   -1    0    0    0    0  0.00000000000E+00  0.00000000000E+00  0.45593999997E+02  0.45594000000E+02  0.51100000000E-03 0.  1.
         11   -1    0    0    0    0 -0.00000000000E+00 -0.00000000000E+00 -0.45593999997E+02  0.45594000000E+02  0.51100000000E-03 0. -1.
         23    2    1    2    0    0 -0.17763568394E-14  0.35527136788E-14  0.00000000000E+00  0.91188000000E+02  0.91188000000E+02 0.  0.
    9900012    2    3    3    0    0  0.14421152756E+02  0.20029290823E+02  0.27324673451E+02  0.54367083161E+02  0.39999997682E+02 0.  0.
        -12    1    3    3    0    0 -0.14421152756E+02 -0.20029290823E+02 -0.27324673451E+02  0.36820916839E+02  0.00000000000E+00 0.  1.
         11    1    4    4    0    0  0.15682770691E+02  0.17679368455E+01  0.20139260052E+02  0.25586416180E+02  0.51100000000E-03 0. -1.
        -11    1    4    4    0    0 -0.44113700999E+01 -0.13559167524E+01  0.76186248801E+01  0.89074205987E+01  0.51100000000E-03 0.  1.
         12    1    4    4    0    0  0.31497521644E+01  0.19617270730E+02 -0.43321148071E+00  0.19873246382E+02  0.00000000000E+00 0. -1.
</event>
<event>
 8    1  0.1280925E-006  0.9118800E+02  0.7816164E-02  0.1184000E+00
        -11   -1    0    0    0    0  0.00000000000E+00  0.00000000000E+00  0.45593999997E+02  0.45594000000E+02  0.51100000000E-03 0.  1.
         11   -1    0    0    0    0 -0.00000000000E+00 -0.00000000000E+00 -0.45593999997E+02  0.45594000000E+02  0.51100000000E-03 0. -1.
         23    2    1    2    0    0  0.00000000000E+00  0.00000000000E+00  0.00000000000E+00  0.91188000000E+02  0.91188000000E+02 0.  0.
    9900012    2    3    3    0    0  0.61635972402E+00  0.14581084502E+02 -0.33805155002E+02  0.54367130520E+02  0.40000105646E+02 0.  0.
        -12    1    3    3    0    0 -0.61635972402E+00 -0.14581084502E+02  0.33805155002E+02  0.36820869480E+02  0.00000000000E+00 0.  1.
         11    1    4    4    0    0 -0.23425976072E+01 -0.97127169654E+01  0.22852371881E+01  0.10249241126E+02  0.51100000000E-03 0. -1.
        -11    1    4    4    0    0 -0.10237196741E+01  0.14013709182E+02 -0.23524199840E+02  0.27401095332E+02  0.51100000000E-03 0.  1.
         12    1    4    4    0    0  0.39826770053E+01  0.10280092285E+02 -0.12566192350E+02  0.16716794062E+02  0.00000000000E+00 0. -1.
</event>
<event>
 8    1  0.1280925E-006  0.9118800E+02  0.7816164E-02  0.1184000E+00
        -11   -1    0    0    0    0  0.00000000000E+00  0.00000000000E+00  0.45593999997E+02  0.45594000000E+02  0.51100000000E-03 0.  1.
         11   -1    0    0    0    0 -0.00000000000E+00 -0.00000000000E+00 -0.45593999997E+02  0.45594000000E+02  0.51100000000E-03 0. -1.
         23    2    1    2    0    0  0.17763568394E-14  0.00000000000E+00  0.00000000000E+00  0.91188000000E+02  0.91188000000E+02 0.  0.
    9900012    2    3    3    0    0 -0.72519758462E+01  0.35486206507E+02  0.66269939489E+01  0.54367094869E+02  0.40000024372E+02 0.  0.
        -12    1    3    3    0    0  0.72519758462E+01 -0.35486206507E+02 -0.66269939489E+01  0.36820905131E+02  0.00000000000E+00 0.  1.
         11    1    4    4    0    0 -0.10355459845E+02  0.32482442494E+02  0.12565113110E+01  0.34116322192E+02  0.51100000000E-03 0. -1.
        -11    1    4    4    0    0  0.11129184074E+02  0.24354357897E+01  0.40858333127E+01  0.12103062412E+02  0.51100000000E-03 0.  1.
         12    1    4    4    0    0 -0.80257000752E+01  0.56832822329E+00  0.12846493253E+01  0.81477102646E+01  0.00000000000E+00 0. -1.
</event>
<event>
 8    1  0.1280925E-006  0.9118800E+02  0.7816164E-02  0.1184000E+00
        -11   -1    0    0    0    0  0.00000000000E+00  0.00000000000E+00  0.45593999997E+02  0.45594000000E+02  0.51100000000E-03 0. -1.
         11   -1    0    0    0    0 -0.00000000000E+00 -0.00000000000E+00 -0.45593999997E+02  0.45594000000E+02  0.51100000000E-03 0.  1.
         23    2    1    2    0    0 -0.35527136788E-14  0.88817841970E-15  0.00000000000E+00  0.91188000000E+02  0.91188000000E+02 0.  0.
    9900012    2    3    3    0    0  0.29073694014E+02 -0.79885874118E+01 -0.21134856092E+02  0.54367090798E+02  0.40000015092E+02 0.  0.
         12    1    3    3    0    0 -0.29073694014E+02  0.79885874118E+01  0.21134856092E+02  0.36820909202E+02  0.00000000000E+00 0. -1.
         11    1    4    4    0    0 -0.15233306349E+01  0.16531388573E+01  0.72901379548E+01  0.76288607253E+01  0.51100000000E-03 0. -1.
        -11    1    4    4    0    0  0.45483773133E+01  0.32333236676E+01 -0.12300612968E+02  0.13507301646E+02  0.51100000000E-03 0.  1.
        -12    1    4    4    0    0  0.26048647336E+02 -0.12875049937E+02 -0.16124381079E+02  0.33230928426E+02  0.00000000000E+00 0.  1.
</event>
<event>
 8    1  0.1280925E-006  0.9118800E+02  0.7816164E-02  0.1184000E+00
        -11   -1    0    0    0    0  0.00000000000E+00  0.00000000000E+00  0.45593999997E+02  0.45594000000E+02  0.51100000000E-03 0. -1.
         11   -1    0    0    0    0 -0.00000000000E+00 -0.00000000000E+00 -0.45593999997E+02  0.45594000000E+02  0.51100000000E-03 0.  1.
         23    2    1    2    0    0 -0.88817841970E-15  0.88817841970E-15  0.00000000000E+00  0.91188000000E+02  0.91188000000E+02 0.  0.
    9900012    2    3    3    0    0 -0.33572474775E+00  0.44795802661E+01  0.36545812065E+02  0.54367140016E+02  0.40000127295E+02 0.  0.
        -12    1    3    3    0    0  0.33572474775E+00 -0.44795802661E+01 -0.36545812065E+02  0.36820859984E+02  0.00000000000E+00 0.  1.
         11    1    4    4    0    0  0.77865728797E+01 -0.56900161982E+01  0.10996013519E+02  0.14625980826E+02  0.51100000000E-03 0. -1.
        -11    1    4    4    0    0  0.62861379523E+01  0.93941384811E+01  0.11074076555E+01  0.11357452185E+02  0.51100000000E-03 0.  1.
         12    1    4    4    0    0 -0.14408435580E+02  0.77545798319E+00  0.24442390890E+02  0.28383707005E+02  0.00000000000E+00 0. -1.
</event>
<event>
 8    1  0.1280925E-006  0.9118800E+02  0.7816164E-02  0.1184000E+00
        -11   -1    0    0    0    0  0.00000000000E+00  0.00000000000E+00  0.45593999997E+02  0.45594000000E+02  0.51100000000E-03 0.  1.
         11   -1    0    0    0    0 -0.00000000000E+00 -0.00000000000E+00 -0.45593999997E+02  0.45594000000E+02  0.51100000000E-03 0. -1.
         23    2    1    2    0    0  0.00000000000E+00  0.00000000000E+00  0.00000000000E+00  0.91188000000E+02  0.91188000000E+02 0.  0.
    9900012    2    3    3    0    0  0.77934956549E+01  0.31078363246E+02  0.18143692915E+02  0.54366853505E+02  0.39999474132E+02 0.  0.
         12    1    3    3    0    0 -0.77934956549E+01 -0.31078363246E+02 -0.18143692915E+02  0.36821146495E+02  0.00000000000E+00 0. -1.
         11    1    4    4    0    0 -0.51314869090E+01 -0.45849490573E+00  0.19193058986E+01  0.54978278319E+01  0.51100000000E-03 0. -1.
        -11    1    4    4    0    0  0.18746990003E+02  0.10560849209E+02 -0.33172571426E+00  0.21519554187E+02  0.51100000000E-03 0.  1.
        -12    1    4    4    0    0 -0.58220074395E+01  0.20976008943E+02  0.16556112731E+02  0.27349471486E+02  0.00000000000E+00 0.  1.
</event>
<event>
 8    1  0.1280925E-006  0.9118800E+02  0.7816164E-02  0.1184000E+00
        -11   -1    0    0    0    0  0.00000000000E+00  0.00000000000E+00  0.45593999997E+02  0.45594000000E+02  0.51100000000E-03 0. -1.
         11   -1    0    0    0    0 -0.00000000000E+00 -0.00000000000E+00 -0.45593999997E+02  0.45594000000E+02  0.51100000000E-03 0.  1.
         23    2    1    2    0    0  0.00000000000E+00  0.17763568394E-14  0.35527136788E-14  0.91188000000E+02  0.91188000000E+02 0.  0.
    9900012    2    3    3    0    0  0.14192125080E+02 -0.14902455439E+02 -0.30533271962E+02  0.54367078106E+02  0.39999986158E+02 0.  0.
         12    1    3    3    0    0 -0.14192125080E+02  0.14902455439E+02  0.30533271962E+02  0.36820921894E+02  0.00000000000E+00 0. -1.
         11    1    4    4    0    0  0.56696006703E+01  0.77245553150E+01 -0.11175174784E+01  0.96468633323E+01  0.51100000000E-03 0.  1.
        -11    1    4    4    0    0  0.11273573490E+01 -0.82442813788E+00  0.39458958954E+01  0.41857748417E+01  0.51100000000E-03 0. -1.
        -12    1    4    4    0    0  0.73951670611E+01 -0.21802582616E+02 -0.33361650379E+02  0.40534439932E+02  0.00000000000E+00 0.  1.
</event>
<event>
 8    1  0.1280925E-006  0.9118800E+02  0.7816164E-02  0.1184000E+00
        -11   -1    0    0    0    0  0.00000000000E+00  0.00000000000E+00  0.45593999997E+02  0.45594000000E+02  0.51100000000E-03 0.  1.
         11   -1    0    0    0    0 -0.00000000000E+00 -0.00000000000E+00 -0.45593999997E+02  0.45594000000E+02  0.51100000000E-03 0. -1.
         23    2    1    2    0    0  0.17763568394E-14  0.00000000000E+00  0.00000000000E+00  0.91188000000E+02  0.91188000000E+02 0.  0.
    9900012    2    3    3    0    0 -0.11767240132E+02 -0.20659376918E+02  0.28115866317E+02  0.54367085648E+02  0.40000003352E+02 0.  0.
         12    1    3    3    0    0  0.11767240132E+02  0.20659376918E+02 -0.28115866317E+02  0.36820914352E+02  0.00000000000E+00 0. -1.
         11    1    4    4    0    0 -0.60575992008E+01  0.68528756674E+01  0.18719357075E+00  0.91483033773E+01  0.51100000000E-03 0. -1.
        -11    1    4    4    0    0  0.75095207754E+01 -0.17186410607E+02  0.15721609898E+02  0.24473140989E+02  0.51100000000E-03 0.  1.
        -12    1    4    4    0    0 -0.13219161707E+02 -0.10325841979E+02  0.12207062848E+02  0.20745641281E+02  0.00000000000E+00 0.  1.
</event>
<event>
 8    1  0.1280925E-006  0.9118800E+02  0.7816164E-02  0.1184000E+00
        -11   -1    0    0    0    0  0.00000000000E+00  0.00000000000E+00  0.45593999997E+02  0.45594000000E+02  0.51100000000E-03 0. -1.
         11   -1    0    0    0    0 -0.00000000000E+00 -0.00000000000E+00 -0.45593999997E+02  0.45594000000E+02  0.51100000000E-03 0.  1.
         23    2    1    2    0    0  0.00000000000E+00 -0.35527136788E-14  0.00000000000E+00  0.91188000000E+02  0.91188000000E+02 0.  0.
    9900012    2    3    3    0    0  0.12534891351E+02 -0.22908425851E+02  0.25958787633E+02  0.54367107404E+02  0.40000052949E+02 0.  0.
        -12    1    3    3    0    0 -0.12534891351E+02  0.22908425851E+02 -0.25958787633E+02  0.36820892596E+02  0.00000000000E+00 0.  1.
         11    1    4    4    0    0  0.48496919846E+01  0.25290114010E+01 -0.76271605174E-01  0.54700300393E+01  0.51100000000E-03 0. -1.
        -11    1    4    4    0    0  0.65255554903E+01 -0.32323559950E+02  0.15950466256E+02  0.36630762704E+02  0.51100000000E-03 0.  1.
        -12    1    4    4    0    0  0.11596438757E+01  0.68861226973E+01  0.10084592983E+02  0.12266314661E+02  0.00000000000E+00 0.  1.
</event>
<event>
 8    1  0.1280925E-006  0.9118800E+02  0.7816164E-02  0.1184000E+00
        -11   -1    0    0    0    0  0.00000000000E+00  0.00000000000E+00  0.45593999997E+02  0.45594000000E+02  0.51100000000E-03 0. -1.
         11   -1    0    0    0    0 -0.00000000000E+00 -0.00000000000E+00 -0.45593999997E+02  0.45594000000E+02  0.51100000000E-03 0.  1.
         23    2    1    2    0    0  0.88817841970E-15  0.44408920985E-15  0.00000000000E+00  0.91188000000E+02  0.91188000000E+02 0.  0.
    9900012    2    3    3    0    0  0.26815976352E+01  0.33815343202E+01 -0.36567124211E+02  0.54367077778E+02  0.39999985410E+02 0.  0.
         12    1    3    3    0    0 -0.26815976352E+01 -0.33815343202E+01  0.36567124211E+02  0.36820922222E+02  0.00000000000E+00 0. -1.
         11    1    4    4    0    0 -0.15834020498E+01  0.45622495228E+01  0.10434954261E+01  0.49406645023E+01  0.51100000000E-03 0. -1.
        -11    1    4    4    0    0 -0.94892069208E+01 -0.11357104804E+02 -0.15000836866E+02  0.21072588461E+02  0.51100000000E-03 0.  1.
        -12    1    4    4    0    0  0.13754206606E+02  0.10176389601E+02 -0.22609782771E+02  0.28353824815E+02  0.00000000000E+00 0.  1.
</event>
<event>
 8    1  0.1280925E-006  0.9118800E+02  0.7816164E-02  0.1184000E+00
        -11   -1    0    0    0    0  0.00000000000E+00  0.00000000000E+00  0.45593999997E+02  0.45594000000E+02  0.51100000000E-03 0.  1.
         11   -1    0    0    0    0 -0.00000000000E+00 -0.00000000000E+00 -0.45593999997E+02  0.45594000000E+02  0.51100000000E-03 0. -1.
         23    2    1    2    0    0  0.22204460493E-15  0.00000000000E+00  0.35527136788E-14  0.91188000000E+02  0.91188000000E+02 0.  0.
    9900012    2    3    3    0    0  0.17992351495E+01 -0.26272790483E+02  0.25734758545E+02  0.54367155845E+02  0.40000163380E+02 0.  0.
         12    1    3    3    0    0 -0.17992351495E+01  0.26272790483E+02 -0.25734758545E+02  0.36820844155E+02  0.00000000000E+00 0. -1.
         11    1    4    4    0    0 -0.98674921417E+01  0.76925517744E+00 -0.43544813957E+01  0.10812985859E+02  0.51100000000E-03 0. -1.
        -11    1    4    4    0    0  0.13102068611E+01 -0.50894005420E+01  0.49454368202E+00  0.52785616990E+01  0.51100000000E-03 0.  1.
         12    1    4    4    0    0  0.10356520430E+02 -0.21952645119E+02  0.29594696259E+02  0.38275608287E+02  0.00000000000E+00 0. -1.
</event>
<event>
 8    1  0.1280925E-006  0.9118800E+02  0.7816164E-02  0.1184000E+00
        -11   -1    0    0    0    0  0.00000000000E+00  0.00000000000E+00  0.45593999997E+02  0.45594000000E+02  0.51100000000E-03 0. -1.
         11   -1    0    0    0    0 -0.00000000000E+00 -0.00000000000E+00 -0.45593999997E+02  0.45594000000E+02  0.51100000000E-03 0.  1.
         23    2    1    2    0    0  0.35527136788E-14  0.17763568394E-14 -0.71054273576E-14  0.91188000000E+02  0.91188000000E+02 0.  0.
    9900012    2    3    3    0    0  0.37668781147E+01  0.14192532918E+02 -0.33766293315E+02  0.54367083043E+02  0.39999997412E+02 0.  0.
         12    1    3    3    0    0 -0.37668781147E+01 -0.14192532918E+02  0.33766293315E+02  0.36820916957E+02  0.00000000000E+00 0. -1.
         11    1    4    4    0    0 -0.16737179790E+02  0.13736195994E+02 -0.18522902985E+02  0.28494108215E+02  0.51100000000E-03 0. -1.
        -11    1    4    4    0    0  0.18641040760E+01  0.10554864827E+01 -0.24640935620E+01  0.32650716784E+01  0.51100000000E-03 0.  1.
        -12    1    4    4    0    0  0.18639953829E+02 -0.59914955864E+00 -0.12779296768E+02  0.22607903149E+02  0.00000000000E+00 0.  1.
</event>
<event>
 8    1  0.1280925E-006  0.9118800E+02  0.7816164E-02  0.1184000E+00
        -11   -1    0    0    0    0  0.00000000000E+00  0.00000000000E+00  0.45593999997E+02  0.45594000000E+02  0.51100000000E-03 0. -1.
         11   -1    0    0    0    0 -0.00000000000E+00 -0.00000000000E+00 -0.45593999997E+02  0.45594000000E+02  0.51100000000E-03 0.  1.
         23    2    1    2    0    0 -0.17763568394E-14  0.35527136788E-14  0.71054273576E-14  0.91188000000E+02  0.91188000000E+02 0.  0.
    9900012    2    3    3    0    0  0.15224464886E+02 -0.25270878478E+02 -0.22031316318E+02  0.54367074851E+02  0.39999978738E+02 0.  0.
         12    1    3    3    0    0 -0.15224464886E+02  0.25270878478E+02  0.22031316318E+02  0.36820925149E+02  0.00000000000E+00 0. -1.
         11    1    4    4    0    0  0.10133537279E+02 -0.40340988951E+01 -0.46297987213E+01  0.11848947976E+02  0.51100000000E-03 0.  1.
        -11    1    4    4    0    0 -0.95706608546E+00 -0.28839745686E+02 -0.14950143017E+02  0.32498518169E+02  0.51100000000E-03 0. -1.
         12    1    4    4    0    0  0.60479936930E+01  0.76029661034E+01 -0.24513745804E+01  0.10019608706E+02  0.00000000000E+00 0. -1.
</event>
<event>
 8    1  0.1280925E-006  0.9118800E+02  0.7816164E-02  0.1184000E+00
        -11   -1    0    0    0    0  0.00000000000E+00  0.00000000000E+00  0.45593999997E+02  0.45594000000E+02  0.51100000000E-03 0. -1.
         11   -1    0    0    0    0 -0.00000000000E+00 -0.00000000000E+00 -0.45593999997E+02  0.45594000000E+02  0.51100000000E-03 0.  1.
         23    2    1    2    0    0  0.35527136788E-14  0.00000000000E+00  0.00000000000E+00  0.91188000000E+02  0.91188000000E+02 0.  0.
    9900012    2    3    3    0    0 -0.26390698171E+02 -0.11473018968E+02 -0.22971307755E+02  0.54367080753E+02  0.39999992193E+02 0.  0.
         12    1    3    3    0    0  0.26390698171E+02  0.11473018968E+02  0.22971307755E+02  0.36820919247E+02  0.00000000000E+00 0. -1.
         11    1    4    4    0    0 -0.11088805008E+02 -0.54734577639E+01  0.26228098616E+01  0.12641181442E+02  0.51100000000E-03 0. -1.
        -11    1    4    4    0    0 -0.18789414167E+02 -0.11345829417E+02 -0.27385495172E+02  0.35096086335E+02  0.51100000000E-03 0.  1.
        -12    1    4    4    0    0  0.34875210048E+01  0.53462682130E+01  0.17913775556E+01  0.66298129771E+01  0.00000000000E+00 0.  1.
</event>
<event>
 8    1  0.1280925E-006  0.9118800E+02  0.7816164E-02  0.1184000E+00
        -11   -1    0    0    0    0  0.00000000000E+00  0.00000000000E+00  0.45593999997E+02  0.45594000000E+02  0.51100000000E-03 0.  1.
         11   -1    0    0    0    0 -0.00000000000E+00 -0.00000000000E+00 -0.45593999997E+02  0.45594000000E+02  0.51100000000E-03 0. -1.
         23    2    1    2    0    0  0.88817841970E-15  0.00000000000E+00  0.35527136788E-14  0.91188000000E+02  0.91188000000E+02 0.  0.
    9900012    2    3    3    0    0  0.48682749345E+01 -0.32298235020E+02  0.16997221573E+02  0.54367059932E+02  0.39999944728E+02 0.  0.
         12    1    3    3    0    0 -0.48682749345E+01  0.32298235020E+02 -0.16997221573E+02  0.36820940068E+02  0.00000000000E+00 0. -1.
         11    1    4    4    0    0  0.83307603282E+01 -0.68460402074E+01 -0.25334470050E+01  0.11076470022E+02  0.51100000000E-03 0. -1.
        -11    1    4    4    0    0 -0.10864067548E+02 -0.52531172362E+01 -0.26888373711E+01  0.12363375391E+02  0.51100000000E-03 0.  1.
        -12    1    4    4    0    0  0.74015821539E+01 -0.20199077577E+02  0.22219505949E+02  0.30927214520E+02  0.00000000000E+00 0.  1.
</event>
<event>
 8    1  0.1280925E-006  0.9118800E+02  0.7816164E-02  0.1184000E+00
        -11   -1    0    0    0    0  0.00000000000E+00  0.00000000000E+00  0.45593999997E+02  0.45594000000E+02  0.51100000000E-03 0. -1.
         11   -1    0    0    0    0 -0.00000000000E+00 -0.00000000000E+00 -0.45593999997E+02  0.45594000000E+02  0.51100000000E-03 0.  1.
         23    2    1    2    0    0  0.00000000000E+00  0.00000000000E+00 -0.35527136788E-14  0.91188000000E+02  0.91188000000E+02 0.  0.
    9900012    2    3    3    0    0 -0.15053327569E+02 -0.18045456929E+02 -0.28346756450E+02  0.54367084913E+02  0.40000001675E+02 0.  0.
         12    1    3    3    0    0  0.15053327569E+02  0.18045456929E+02  0.28346756450E+02  0.36820915087E+02  0.00000000000E+00 0. -1.
         11    1    4    4    0    0 -0.10440328842E+02 -0.75620518215E+01  0.16526379782E+01  0.12996780625E+02  0.51100000000E-03 0. -1.
        -11    1    4    4    0    0 -0.12852893508E+02 -0.88186867284E+01 -0.73934527890E+01  0.17251934719E+02  0.51100000000E-03 0.  1.
        -12    1    4    4    0    0  0.82398947806E+01 -0.16647183790E+01 -0.22605941639E+02  0.24118369569E+02  0.00000000000E+00 0.  1.
</event>
<event>
 8    1  0.1280925E-006  0.9118800E+02  0.7816164E-02  0.1184000E+00
        -11   -1    0    0    0    0  0.00000000000E+00  0.00000000000E+00  0.45593999997E+02  0.45594000000E+02  0.51100000000E-03 0.  1.
         11   -1    0    0    0    0 -0.00000000000E+00 -0.00000000000E+00 -0.45593999997E+02  0.45594000000E+02  0.51100000000E-03 0. -1.
         23    2    1    2    0    0  0.00000000000E+00  0.00000000000E+00  0.35527136788E-14  0.91188000000E+02  0.91188000000E+02 0.  0.
    9900012    2    3    3    0    0  0.15956176625E+02  0.27228986730E+02 -0.18967384851E+02  0.54367095897E+02  0.40000026717E+02 0.  0.
        -12    1    3    3    0    0 -0.15956176625E+02 -0.27228986730E+02  0.18967384851E+02  0.36820904103E+02  0.00000000000E+00 0.  1.
         11    1    4    4    0    0  0.14556688354E+02  0.85794714082E+01 -0.21102080899E+01  0.17028138005E+02  0.51100000000E-03 0. -1.
        -11    1    4    4    0    0 -0.58945615201E+01 -0.50253424122E+01 -0.73272304406E+00  0.77805401608E+01  0.51100000000E-03 0.  1.
         12    1    4    4    0    0  0.72940497914E+01  0.23674857734E+02 -0.16124453718E+02  0.29558417731E+02  0.00000000000E+00 0. -1.
</event>
<event>
 8    1  0.1280925E-006  0.9118800E+02  0.7816164E-02  0.1184000E+00
        -11   -1    0    0    0    0  0.00000000000E+00  0.00000000000E+00  0.45593999997E+02  0.45594000000E+02  0.51100000000E-03 0. -1.
         11   -1    0    0    0    0 -0.00000000000E+00 -0.00000000000E+00 -0.45593999997E+02  0.45594000000E+02  0.51100000000E-03 0.  1.
         23    2    1    2    0    0  0.00000000000E+00 -0.22204460493E-15  0.35527136788E-14  0.91188000000E+02  0.91188000000E+02 0.  0.
    9900012    2    3    3    0    0 -0.21112471511E+02 -0.68972053251E+00  0.30159057017E+02  0.54367069975E+02  0.39999967622E+02 0.  0.
        -12    1    3    3    0    0  0.21112471511E+02  0.68972053251E+00 -0.30159057017E+02  0.36820930025E+02  0.00000000000E+00 0.  1.
         11    1    4    4    0    0 -0.94224639056E+01 -0.74047432032E+01 -0.62866945038E+01  0.13532759364E+02  0.51100000000E-03 0. -1.
        -11    1    4    4    0    0  0.21702300914E+01  0.11487966423E+00  0.10196866700E+02  0.10425890214E+02  0.51100000000E-03 0.  1.
         12    1    4    4    0    0 -0.13860237697E+02  0.66001430064E+01  0.26248884821E+02  0.30408420397E+02  0.00000000000E+00 0. -1.
</event>
<event>
 8    1  0.1280925E-006  0.9118800E+02  0.7816164E-02  0.1184000E+00
        -11   -1    0    0    0    0  0.00000000000E+00  0.00000000000E+00  0.45593999997E+02  0.45594000000E+02  0.51100000000E-03 0.  1.
         11   -1    0    0    0    0 -0.00000000000E+00 -0.00000000000E+00 -0.45593999997E+02  0.45594000000E+02  0.51100000000E-03 0. -1.
         23    2    1    2    0    0 -0.17763568394E-14 -0.71054273576E-14  0.00000000000E+00  0.91188000000E+02  0.91188000000E+02 0.  0.
    9900012    2    3    3    0    0 -0.14071441109E+02  0.29231289394E+02 -0.17415901407E+02  0.54366982138E+02  0.39999767380E+02 0.  0.
        -12    1    3    3    0    0  0.14071441109E+02 -0.29231289394E+02  0.17415901407E+02  0.36821017862E+02  0.00000000000E+00 0.  1.
         11    1    4    4    0    0 -0.99524179629E+01  0.25076872598E+02 -0.18899289938E+02  0.32940602955E+02  0.51100000000E-03 0. -1.
        -11    1    4    4    0    0 -0.12258060118E+02  0.43570483306E+01  0.24151996819E+01  0.13231670257E+02  0.51100000000E-03 0.  1.
        -12    1    4    4    0    0  0.81390369720E+01 -0.20263153453E+00 -0.93181115083E+00  0.81947089265E+01  0.00000000000E+00 0.  1.
</event>
<event>
 8    1  0.1280925E-006  0.9118800E+02  0.7816164E-02  0.1184000E+00
        -11   -1    0    0    0    0  0.00000000000E+00  0.00000000000E+00  0.45593999997E+02  0.45594000000E+02  0.51100000000E-03 0. -1.
         11   -1    0    0    0    0 -0.00000000000E+00 -0.00000000000E+00 -0.45593999997E+02  0.45594000000E+02  0.51100000000E-03 0.  1.
         23    2    1    2    0    0  0.71054273576E-14 -0.88817841970E-15  0.44408920985E-15  0.91188000000E+02  0.91188000000E+02 0.  0.
    9900012    2    3    3    0    0 -0.36388665154E+02  0.44639740360E+01 -0.34230478963E+01  0.54367091908E+02  0.40000017622E+02 0.  0.
         12    1    3    3    0    0  0.36388665154E+02 -0.44639740360E+01  0.34230478963E+01  0.36820908092E+02  0.00000000000E+00 0. -1.
         11    1    4    4    0    0  0.25963159361E+01  0.19126896065E+01  0.18166015657E+01  0.37012537714E+01  0.51100000000E-03 0. -1.
        -11    1    4    4    0    0 -0.76582299242E+01  0.40176884831E+01 -0.15432059852E+02  0.17690075688E+02  0.51100000000E-03 0.  1.
         12    1    4    4    0    0 -0.31326751166E+02 -0.14664040536E+01  0.10192410390E+02  0.32975762448E+02  0.00000000000E+00 0. -1.
</event>
<event>
 8    1  0.1280925E-006  0.9118800E+02  0.7816164E-02  0.1184000E+00
        -11   -1    0    0    0    0  0.00000000000E+00  0.00000000000E+00  0.45593999997E+02  0.45594000000E+02  0.51100000000E-03 0.  1.
         11   -1    0    0    0    0 -0.00000000000E+00 -0.00000000000E+00 -0.45593999997E+02  0.45594000000E+02  0.51100000000E-03 0. -1.
         23    2    1    2    0    0  0.44408920985E-15  0.17763568394E-14  0.00000000000E+00  0.91188000000E+02  0.91188000000E+02 0.  0.
    9900012    2    3    3    0    0 -0.19166622008E+01 -0.13310468368E+02 -0.34277374001E+02  0.54367074827E+02  0.39999978683E+02 0.  0.
        -12    1    3    3    0    0  0.19166622008E+01  0.13310468368E+02  0.34277374001E+02  0.36820925173E+02  0.00000000000E+00 0.  1.
         11    1    4    4    0    0  0.31721942931E+01  0.68631187498E+01 -0.12093350140E+02  0.14262339692E+02  0.51100000000E-03 0. -1.
        -11    1    4    4    0    0 -0.26362554555E+01  0.62336943813E+01 -0.59349906299E+01  0.90018277313E+01  0.51100000000E-03 0.  1.
        -12    1    4    4    0    0 -0.24526010384E+01 -0.26407281499E+02 -0.16249033231E+02  0.31102907404E+02  0.00000000000E+00 0.  1.
</event>
<event>
 8    1  0.1280925E-006  0.9118800E+02  0.7816164E-02  0.1184000E+00
        -11   -1    0    0    0    0  0.00000000000E+00  0.00000000000E+00  0.45593999997E+02  0.45594000000E+02  0.51100000000E-03 0.  1.
         11   -1    0    0    0    0 -0.00000000000E+00 -0.00000000000E+00 -0.45593999997E+02  0.45594000000E+02  0.51100000000E-03 0. -1.
         23    2    1    2    0    0  0.00000000000E+00  0.00000000000E+00 -0.35527136788E-14  0.91188000000E+02  0.91188000000E+02 0.  0.
    9900012    2    3    3    0    0  0.19256899237E+02 -0.24206797103E+02 -0.19974599154E+02  0.54367057514E+02  0.39999939214E+02 0.  0.
        -12    1    3    3    0    0 -0.19256899237E+02  0.24206797103E+02  0.19974599154E+02  0.36820942486E+02  0.00000000000E+00 0.  1.
         11    1    4    4    0    0  0.95057812622E+01 -0.29768818378E+01 -0.14179429223E+02  0.17328528969E+02  0.51100000000E-03 0. -1.
        -11    1    4    4    0    0  0.88582633151E+01  0.34347050938E+01 -0.77775240384E+01  0.12278269767E+02  0.51100000000E-03 0.  1.
        -12    1    4    4    0    0  0.89285465975E+00 -0.24664620359E+02  0.19823541078E+01  0.24760258777E+02  0.00000000000E+00 0.  1.
</event>
<event>
 8    1  0.1280925E-006  0.9118800E+02  0.7816164E-02  0.1184000E+00
        -11   -1    0    0    0    0  0.00000000000E+00  0.00000000000E+00  0.45593999997E+02  0.45594000000E+02  0.51100000000E-03 0. -1.
         11   -1    0    0    0    0 -0.00000000000E+00 -0.00000000000E+00 -0.45593999997E+02  0.45594000000E+02  0.51100000000E-03 0.  1.
         23    2    1    2    0    0 -0.17763568394E-14  0.13322676296E-14 -0.71054273576E-14  0.91188000000E+02  0.91188000000E+02 0.  0.
    9900012    2    3    3    0    0  0.12515883209E+02 -0.96468948177E+00  0.34615052971E+02  0.54367084062E+02  0.39999999737E+02 0.  0.
        -12    1    3    3    0    0 -0.12515883209E+02  0.96468948177E+00 -0.34615052971E+02  0.36820915938E+02  0.00000000000E+00 0.  1.
         11    1    4    4    0    0  0.65439655294E+01 -0.58836978892E+01  0.65288289370E+01  0.10957508533E+02  0.51100000000E-03 0. -1.
        -11    1    4    4    0    0  0.67685180440E+01 -0.12573253861E+02  0.18742213193E+02  0.23562047975E+02  0.51100000000E-03 0.  1.
         12    1    4    4    0    0 -0.79660036449E+00  0.17492262268E+02  0.93440108409E+01  0.19847527554E+02  0.00000000000E+00 0. -1.
</event>
<event>
 8    1  0.1280925E-006  0.9118800E+02  0.7816164E-02  0.1184000E+00
        -11   -1    0    0    0    0  0.00000000000E+00  0.00000000000E+00  0.45593999997E+02  0.45594000000E+02  0.51100000000E-03 0.  1.
         11   -1    0    0    0    0 -0.00000000000E+00 -0.00000000000E+00 -0.45593999997E+02  0.45594000000E+02  0.51100000000E-03 0. -1.
         23    2    1    2    0    0 -0.35527136788E-14  0.35527136788E-14 -0.88817841970E-15  0.91188000000E+02  0.91188000000E+02 0.  0.
    9900012    2    3    3    0    0  0.17390824184E+02 -0.31975896392E+02  0.55570883390E+01  0.54367082756E+02  0.39999996759E+02 0.  0.
        -12    1    3    3    0    0 -0.17390824184E+02  0.31975896392E+02 -0.55570883390E+01  0.36820917244E+02  0.00000000000E+00 0.  1.
         11    1    4    4    0    0  0.11280037452E+02  0.31026810689E+00 -0.42712584272E+01  0.12065618925E+02  0.51100000000E-03 0. -1.
        -11    1    4    4    0    0 -0.61125897718E+01 -0.43293107461E+01 -0.43434886874E+01  0.86586707694E+01  0.51100000000E-03 0.  1.
         12    1    4    4    0    0  0.12223376503E+02 -0.27956853753E+02  0.14171835454E+02  0.33642793062E+02  0.00000000000E+00 0. -1.
</event>
<event>
 8    1  0.1280925E-006  0.9118800E+02  0.7816164E-02  0.1184000E+00
        -11   -1    0    0    0    0  0.00000000000E+00  0.00000000000E+00  0.45593999997E+02  0.45594000000E+02  0.51100000000E-03 0.  1.
         11   -1    0    0    0    0 -0.00000000000E+00 -0.00000000000E+00 -0.45593999997E+02  0.45594000000E+02  0.51100000000E-03 0. -1.
         23    2    1    2    0    0  0.00000000000E+00  0.13322676296E-14  0.00000000000E+00  0.91188000000E+02  0.91188000000E+02 0.  0.
    9900012    2    3    3    0    0 -0.32786940874E+02  0.33222567135E+01  0.16424327684E+02  0.54367089889E+02  0.40000013019E+02 0.  0.
         12    1    3    3    0    0  0.32786940874E+02 -0.33222567135E+01 -0.16424327684E+02  0.36820910111E+02  0.00000000000E+00 0. -1.
         11    1    4    4    0    0  0.21443080528E+01  0.19037123429E+01  0.77601007045E-01  0.28684839005E+01  0.51100000000E-03 0. -1.
        -11    1    4    4    0    0 -0.13714045855E+02 -0.16222249421E+02  0.70507590779E+01  0.22381904160E+02  0.51100000000E-03 0.  1.
        -12    1    4    4    0    0 -0.21217203072E+02  0.17640793791E+02  0.92959675989E+01  0.29116701828E+02  0.00000000000E+00 0.  1.
</event>
<event>
 8    1  0.1280925E-006  0.9118800E+02  0.7816164E-02  0.1184000E+00
        -11   -1    0    0    0    0  0.00000000000E+00  0.00000000000E+00  0.45593999997E+02  0.45594000000E+02  0.51100000000E-03 0.  1.
         11   -1    0    0    0    0 -0.00000000000E+00 -0.00000000000E+00 -0.45593999997E+02  0.45594000000E+02  0.51100000000E-03 0. -1.
         23    2    1    2    0    0  0.00000000000E+00  0.00000000000E+00  0.44408920985E-15  0.91188000000E+02  0.91188000000E+02 0.  0.
    9900012    2    3    3    0    0 -0.34576693827E+02  0.12194620218E+02  0.33945622948E+01  0.54367087852E+02  0.40000008375E+02 0.  0.
         12    1    3    3    0    0  0.34576693827E+02 -0.12194620218E+02 -0.33945622948E+01  0.36820912148E+02  0.00000000000E+00 0. -1.
         11    1    4    4    0    0  0.42912950204E-01 -0.66007093338E+01 -0.41032516741E+01  0.77722506260E+01  0.51100000000E-03 0. -1.
        -11    1    4    4    0    0 -0.18577323389E+02  0.54826646109E+00  0.11666262979E+02  0.21943546490E+02  0.51100000000E-03 0.  1.
         12    1    4    4    0    0 -0.16042283388E+02  0.18247063091E+02 -0.41684490105E+01  0.24651290735E+02  0.00000000000E+00 0. -1.
</event>
<event>
 8    1  0.1280925E-006  0.9118800E+02  0.7816164E-02  0.1184000E+00
        -11   -1    0    0    0    0  0.00000000000E+00  0.00000000000E+00  0.45593999997E+02  0.45594000000E+02  0.51100000000E-03 0. -1.
         11   -1    0    0    0    0 -0.00000000000E+00 -0.00000000000E+00 -0.45593999997E+02  0.45594000000E+02  0.51100000000E-03 0.  1.
         23    2    1    2    0    0  0.00000000000E+00  0.00000000000E+00  0.00000000000E+00  0.91188000000E+02  0.91188000000E+02 0.  0.
    9900012    2    3    3    0    0  0.58382896503E+01 -0.11446716953E+02  0.34506015092E+02  0.54367108748E+02  0.40000056014E+02 0.  0.
        -12    1    3    3    0    0 -0.58382896503E+01  0.11446716953E+02 -0.34506015092E+02  0.36820891252E+02  0.00000000000E+00 0.  1.
         11    1    4    4    0    0 -0.15514265048E+01 -0.14000288953E+02  0.28723134540E+02  0.31991146792E+02  0.51100000000E-03 0. -1.
        -11    1    4    4    0    0 -0.12264665155E+01  0.63338649650E+01 -0.49287214811E+01  0.81187659905E+01  0.51100000000E-03 0.  1.
        -12    1    4    4    0    0  0.86161826706E+01 -0.37802929652E+01  0.10711602033E+02  0.14257195966E+02  0.00000000000E+00 0.  1.
</event>
<event>
 8    1  0.1280925E-006  0.9118800E+02  0.7816164E-02  0.1184000E+00
        -11   -1    0    0    0    0  0.00000000000E+00  0.00000000000E+00  0.45593999997E+02  0.45594000000E+02  0.51100000000E-03 0. -1.
         11   -1    0    0    0    0 -0.00000000000E+00 -0.00000000000E+00 -0.45593999997E+02  0.45594000000E+02  0.51100000000E-03 0.  1.
         23    2    1    2    0    0 -0.88817841970E-15  0.00000000000E+00  0.00000000000E+00  0.91188000000E+02  0.91188000000E+02 0.  0.
    9900012    2    3    3    0    0 -0.40065168373E+01 -0.30031490512E+02  0.20924569848E+02  0.54367079006E+02  0.39999988209E+02 0.  0.
        -12    1    3    3    0    0  0.40065168373E+01  0.30031490512E+02 -0.20924569848E+02  0.36820920994E+02  0.00000000000E+00 0.  1.
         11    1    4    4    0    0 -0.67057398212E+01 -0.26610335949E+02  0.20119045752E+02  0.34027238032E+02  0.51100000000E-03 0. -1.
        -11    1    4    4    0    0 -0.33786679500E+01  0.52735654619E+01 -0.52080213406E+01  0.81455126507E+01  0.51100000000E-03 0.  1.
         12    1    4    4    0    0  0.60778909339E+01 -0.86947200252E+01  0.60135454363E+01  0.12194328322E+02  0.00000000000E+00 0. -1.
</event>
<event>
 8    1  0.1280925E-006  0.9118800E+02  0.7816164E-02  0.1184000E+00
        -11   -1    0    0    0    0  0.00000000000E+00  0.00000000000E+00  0.45593999997E+02  0.45594000000E+02  0.51100000000E-03 0.  1.
         11   -1    0    0    0    0 -0.00000000000E+00 -0.00000000000E+00 -0.45593999997E+02  0.45594000000E+02  0.51100000000E-03 0. -1.
         23    2    1    2    0    0  0.00000000000E+00  0.00000000000E+00  0.00000000000E+00  0.91188000000E+02  0.91188000000E+02 0.  0.
    9900012    2    3    3    0    0 -0.28054688693E+02  0.10782357569E+02 -0.21270999431E+02  0.54367079191E+02  0.39999988632E+02 0.  0.
        -12    1    3    3    0    0  0.28054688693E+02 -0.10782357569E+02  0.21270999431E+02  0.36820920809E+02  0.00000000000E+00 0.  1.
         11    1    4    4    0    0  0.10622396182E+01  0.16251923133E+01 -0.66079920288E+00  0.20509166023E+01  0.51100000000E-03 0. -1.
        -11    1    4    4    0    0 -0.34813013856E+02 -0.16639735597E+01 -0.19744131263E+02  0.40056777970E+02  0.51100000000E-03 0.  1.
        -12    1    4    4    0    0  0.56960855443E+01  0.10821138815E+02 -0.86606896562E+00  0.12259384619E+02  0.00000000000E+00 0.  1.
</event>
<event>
 8    1  0.1280925E-006  0.9118800E+02  0.7816164E-02  0.1184000E+00
        -11   -1    0    0    0    0  0.00000000000E+00  0.00000000000E+00  0.45593999997E+02  0.45594000000E+02  0.51100000000E-03 0. -1.
         11   -1    0    0    0    0 -0.00000000000E+00 -0.00000000000E+00 -0.45593999997E+02  0.45594000000E+02  0.51100000000E-03 0.  1.
         23    2    1    2    0    0 -0.35527136788E-14  0.00000000000E+00  0.00000000000E+00  0.91188000000E+02  0.91188000000E+02 0.  0.
    9900012    2    3    3    0    0 -0.25072850114E+02  0.10930164330E+02 -0.24650806571E+02  0.54367101454E+02  0.40000039385E+02 0.  0.
         12    1    3    3    0    0  0.25072850114E+02 -0.10930164330E+02  0.24650806571E+02  0.36820898546E+02  0.00000000000E+00 0. -1.
         11    1    4    4    0    0 -0.20848861422E+02  0.34744084746E+01 -0.17189989047E+02  0.27244123413E+02  0.51100000000E-03 0. -1.
        -11    1    4    4    0    0 -0.57611184069E+01  0.40822662336E+00 -0.15369517943E+02  0.16418867693E+02  0.51100000000E-03 0.  1.
         12    1    4    4    0    0  0.15371297148E+01  0.70475292320E+01  0.79087004184E+01  0.10704110348E+02  0.00000000000E+00 0. -1.
</event>
<event>
 8    1  0.1280925E-006  0.9118800E+02  0.7816164E-02  0.1184000E+00
        -11   -1    0    0    0    0  0.00000000000E+00  0.00000000000E+00  0.45593999997E+02  0.45594000000E+02  0.51100000000E-03 0.  1.
         11   -1    0    0    0    0 -0.00000000000E+00 -0.00000000000E+00 -0.45593999997E+02  0.45594000000E+02  0.51100000000E-03 0. -1.
         23    2    1    2    0    0  0.00000000000E+00  0.44408920985E-15  0.00000000000E+00  0.91188000000E+02  0.91188000000E+02 0.  0.
    9900012    2    3    3    0    0  0.22670170290E+02  0.27639391283E+01 -0.28882584041E+02  0.54367086902E+02  0.40000006209E+02 0.  0.
        -12    1    3    3    0    0 -0.22670170290E+02 -0.27639391283E+01  0.28882584041E+02  0.36820913098E+02  0.00000000000E+00 0.  1.
         11    1    4    4    0    0  0.97077908163E+01  0.77295535543E+01 -0.30008774448E+02  0.32473277396E+02  0.51100000000E-03 0. -1.
        -11    1    4    4    0    0  0.80340772845E+01  0.58087224424E+01  0.15698377837E+01  0.10037531826E+02  0.51100000000E-03 0.  1.
        -12    1    4    4    0    0  0.49283021895E+01 -0.10774336868E+02 -0.44364737684E+00  0.11856277680E+02  0.00000000000E+00 0.  1.
</event>
<event>
 8    1  0.1280925E-006  0.9118800E+02  0.7816164E-02  0.1184000E+00
        -11   -1    0    0    0    0  0.00000000000E+00  0.00000000000E+00  0.45593999997E+02  0.45594000000E+02  0.51100000000E-03 0.  1.
         11   -1    0    0    0    0 -0.00000000000E+00 -0.00000000000E+00 -0.45593999997E+02  0.45594000000E+02  0.51100000000E-03 0. -1.
         23    2    1    2    0    0 -0.17763568394E-14  0.00000000000E+00 -0.35527136788E-14  0.91188000000E+02  0.91188000000E+02 0.  0.
    9900012    2    3    3    0    0 -0.11265148600E+02 -0.22789761693E+02  0.26636498903E+02  0.54367083596E+02  0.39999998674E+02 0.  0.
         12    1    3    3    0    0  0.11265148600E+02  0.22789761693E+02 -0.26636498903E+02  0.36820916404E+02  0.00000000000E+00 0. -1.
         11    1    4    4    0    0 -0.21383327975E+02 -0.96460393086E+01  0.38996028546E+01  0.23780237431E+02  0.51100000000E-03 0. -1.
        -11    1    4    4    0    0  0.36617366778E+01 -0.99882374226E+01  0.20439478631E+02  0.23042254431E+02  0.51100000000E-03 0.  1.
         12    1    4    4    0    0  0.64564426965E+01 -0.31554849614E+01  0.22974174183E+01  0.75445917337E+01  0.00000000000E+00 0. -1.
</event>
<event>
 8    1  0.1280925E-006  0.9118800E+02  0.7816164E-02  0.1184000E+00
        -11   -1    0    0    0    0  0.00000000000E+00  0.00000000000E+00  0.45593999997E+02  0.45594000000E+02  0.51100000000E-03 0. -1.
         11   -1    0    0    0    0 -0.00000000000E+00 -0.00000000000E+00 -0.45593999997E+02  0.45594000000E+02  0.51100000000E-03 0.  1.
         23    2    1    2    0    0  0.00000000000E+00  0.00000000000E+00  0.17763568394E-14  0.91188000000E+02  0.91188000000E+02 0.  0.
    9900012    2    3    3    0    0  0.10034665062E+02  0.32952592307E+02  0.13008225230E+02  0.54367058047E+02  0.39999940429E+02 0.  0.
        -12    1    3    3    0    0 -0.10034665062E+02 -0.32952592307E+02 -0.13008225230E+02  0.36820941953E+02  0.00000000000E+00 0.  1.
         11    1    4    4    0    0  0.16256670445E+02  0.20890499165E+02  0.61090570972E+01  0.27166392256E+02  0.51100000000E-03 0. -1.
        -11    1    4    4    0    0  0.44931518309E+01  0.11214795096E+02 -0.31508685253E+01  0.12485512210E+02  0.51100000000E-03 0.  1.
        -12    1    4    4    0    0 -0.10715157214E+02  0.84729804646E+00  0.10050036658E+02  0.14715153581E+02  0.00000000000E+00 0.  1.
</event>
<event>
 8    1  0.1280925E-006  0.9118800E+02  0.7816164E-02  0.1184000E+00
        -11   -1    0    0    0    0  0.00000000000E+00  0.00000000000E+00  0.45593999997E+02  0.45594000000E+02  0.51100000000E-03 0. -1.
         11   -1    0    0    0    0 -0.00000000000E+00 -0.00000000000E+00 -0.45593999997E+02  0.45594000000E+02  0.51100000000E-03 0.  1.
         23    2    1    2    0    0 -0.71054273576E-14 -0.17763568394E-14  0.35527136788E-14  0.91188000000E+02  0.91188000000E+02 0.  0.
    9900012    2    3    3    0    0  0.32186472629E+02  0.97093185840E+01 -0.15017975573E+02  0.54367089121E+02  0.40000011269E+02 0.  0.
         12    1    3    3    0    0 -0.32186472629E+02 -0.97093185840E+01  0.15017975573E+02  0.36820910879E+02  0.00000000000E+00 0. -1.
         11    1    4    4    0    0 -0.21666372448E+01  0.12111952407E+01 -0.99243742745E+01  0.10230078976E+02  0.51100000000E-03 0.  1.
        -11    1    4    4    0    0  0.49372080589E+01  0.58999874333E+01  0.86404675226E+01  0.11569077509E+02  0.51100000000E-03 0. -1.
        -12    1    4    4    0    0  0.29415901815E+02  0.25981359100E+01 -0.13734068821E+02  0.32567932636E+02  0.00000000000E+00 0.  1.
</event>
<event>
 8    1  0.1280925E-006  0.9118800E+02  0.7816164E-02  0.1184000E+00
        -11   -1    0    0    0    0  0.00000000000E+00  0.00000000000E+00  0.45593999997E+02  0.45594000000E+02  0.51100000000E-03 0. -1.
         11   -1    0    0    0    0 -0.00000000000E+00 -0.00000000000E+00 -0.45593999997E+02  0.45594000000E+02  0.51100000000E-03 0.  1.
         23    2    1    2    0    0  0.00000000000E+00 -0.17763568394E-14 -0.71054273576E-14  0.91188000000E+02  0.91188000000E+02 0.  0.
    9900012    2    3    3    0    0 -0.15824736175E+02  0.63601037796E+01  0.32632918220E+02  0.54367074610E+02  0.39999978187E+02 0.  0.
        -12    1    3    3    0    0  0.15824736175E+02 -0.63601037796E+01 -0.32632918220E+02  0.36820925390E+02  0.00000000000E+00 0.  1.
         11    1    4    4    0    0  0.50123443363E+01 -0.87217481867E+00  0.86246241002E+01  0.10013412295E+02  0.51100000000E-03 0. -1.
        -11    1    4    4    0    0  0.17291123405E+01  0.13024828891E+02  0.42607638153E+01  0.13812679164E+02  0.51100000000E-03 0.  1.
         12    1    4    4    0    0 -0.22566192852E+02 -0.57925502929E+01  0.19747530304E+02  0.30540983151E+02  0.00000000000E+00 0. -1.
</event>
<event>
 8    1  0.1280925E-006  0.9118800E+02  0.7816164E-02  0.1184000E+00
        -11   -1    0    0    0    0  0.00000000000E+00  0.00000000000E+00  0.45593999997E+02  0.45594000000E+02  0.51100000000E-03 0.  1.
         11   -1    0    0    0    0 -0.00000000000E+00 -0.00000000000E+00 -0.45593999997E+02  0.45594000000E+02  0.51100000000E-03 0. -1.
         23    2    1    2    0    0 -0.17763568394E-14  0.00000000000E+00  0.35527136788E-14  0.91188000000E+02  0.91188000000E+02 0.  0.
    9900012    2    3    3    0    0  0.12257660638E+02 -0.14774912385E+02  0.31420194818E+02  0.54367123819E+02  0.40000090371E+02 0.  0.
         12    1    3    3    0    0 -0.12257660638E+02  0.14774912385E+02 -0.31420194818E+02  0.36820876181E+02  0.00000000000E+00 0. -1.
         11    1    4    4    0    0  0.18266246972E+01  0.71504562304E+01  0.12621038967E+02  0.14620403789E+02  0.51100000000E-03 0. -1.
        -11    1    4    4    0    0  0.38419985608E+01  0.55581542716E+01  0.37329594567E+01  0.77193923605E+01  0.51100000000E-03 0.  1.
        -12    1    4    4    0    0  0.65890373800E+01 -0.27483522887E+02  0.15066196394E+02  0.32027327669E+02  0.00000000000E+00 0.  1.
</event>
<event>
 8    1  0.1280925E-006  0.9118800E+02  0.7816164E-02  0.1184000E+00
        -11   -1    0    0    0    0  0.00000000000E+00  0.00000000000E+00  0.45593999997E+02  0.45594000000E+02  0.51100000000E-03 0.  1.
         11   -1    0    0    0    0 -0.00000000000E+00 -0.00000000000E+00 -0.45593999997E+02  0.45594000000E+02  0.51100000000E-03 0. -1.
         23    2    1    2    0    0  0.00000000000E+00 -0.17763568394E-14  0.00000000000E+00  0.91188000000E+02  0.91188000000E+02 0.  0.
    9900012    2    3    3    0    0 -0.32554993774E+02  0.96105139150E+01 -0.14268406768E+02  0.54367122376E+02  0.40000087080E+02 0.  0.
        -12    1    3    3    0    0  0.32554993774E+02 -0.96105139150E+01  0.14268406768E+02  0.36820877624E+02  0.00000000000E+00 0.  1.
         11    1    4    4    0    0 -0.27187110243E+02  0.83621960050E+01 -0.15156026280E+02  0.32229961499E+02  0.51100000000E-03 0. -1.
        -11    1    4    4    0    0  0.30790010615E+01 -0.47890885828E+01 -0.70543171182E+01  0.90652637720E+01  0.51100000000E-03 0.  1.
         12    1    4    4    0    0 -0.84468845925E+01  0.60374064927E+01  0.79419366304E+01  0.13071897105E+02  0.00000000000E+00 0. -1.
</event>
<event>
 8    1  0.1280925E-006  0.9118800E+02  0.7816164E-02  0.1184000E+00
        -11   -1    0    0    0    0  0.00000000000E+00  0.00000000000E+00  0.45593999997E+02  0.45594000000E+02  0.51100000000E-03 0.  1.
         11   -1    0    0    0    0 -0.00000000000E+00 -0.00000000000E+00 -0.45593999997E+02  0.45594000000E+02  0.51100000000E-03 0. -1.
         23    2    1    2    0    0  0.00000000000E+00  0.00000000000E+00  0.71054273576E-14  0.91188000000E+02  0.91188000000E+02 0.  0.
    9900012    2    3    3    0    0 -0.80104682867E+01 -0.99474373982E+01  0.34534920301E+02  0.54367084298E+02  0.40000000273E+02 0.  0.
         12    1    3    3    0    0  0.80104682867E+01  0.99474373982E+01 -0.34534920301E+02  0.36820915702E+02  0.00000000000E+00 0. -1.
         11    1    4    4    0    0 -0.47018465121E+01 -0.95161214857E+01  0.19497737525E+00  0.10616117237E+02  0.51100000000E-03 0. -1.
        -11    1    4    4    0    0 -0.12504038019E+02 -0.72524314818E+01  0.25399160515E+02  0.29224409050E+02  0.51100000000E-03 0.  1.
        -12    1    4    4    0    0  0.91954162445E+01  0.68211155693E+01  0.89407824109E+01  0.14526558011E+02  0.00000000000E+00 0.  1.
</event>
<event>
 8    1  0.1280925E-006  0.9118800E+02  0.7816164E-02  0.1184000E+00
        -11   -1    0    0    0    0  0.00000000000E+00  0.00000000000E+00  0.45593999997E+02  0.45594000000E+02  0.51100000000E-03 0. -1.
         11   -1    0    0    0    0 -0.00000000000E+00 -0.00000000000E+00 -0.45593999997E+02  0.45594000000E+02  0.51100000000E-03 0.  1.
         23    2    1    2    0    0  0.00000000000E+00  0.00000000000E+00  0.00000000000E+00  0.91188000000E+02  0.91188000000E+02 0.  0.
    9900012    2    3    3    0    0  0.17866042013E+02 -0.31940644154E+02 -0.40470615750E+01  0.54367096784E+02  0.40000028739E+02 0.  0.
        -12    1    3    3    0    0 -0.17866042013E+02  0.31940644154E+02  0.40470615750E+01  0.36820903216E+02  0.00000000000E+00 0.  1.
         11    1    4    4    0    0  0.63535268810E+01 -0.23398843315E+02 -0.31528263359E+01  0.24450224671E+02  0.51100000000E-03 0. -1.
        -11    1    4    4    0    0  0.15418477554E+02  0.36191524416E+01 -0.48192997941E+01  0.16554557235E+02  0.51100000000E-03 0.  1.
         12    1    4    4    0    0 -0.39059624218E+01 -0.12160953281E+02  0.39250645550E+01  0.13362314878E+02  0.00000000000E+00 0. -1.
</event>
<event>
 8    1  0.1280925E-006  0.9118800E+02  0.7816164E-02  0.1184000E+00
        -11   -1    0    0    0    0  0.00000000000E+00  0.00000000000E+00  0.45593999997E+02  0.45594000000E+02  0.51100000000E-03 0. -1.
         11   -1    0    0    0    0 -0.00000000000E+00 -0.00000000000E+00 -0.45593999997E+02  0.45594000000E+02  0.51100000000E-03 0.  1.
         23    2    1    2    0    0  0.00000000000E+00  0.00000000000E+00 -0.31086244690E-14  0.91188000000E+02  0.91188000000E+02 0.  0.
    9900012    2    3    3    0    0  0.17757245213E+02 -0.32252373843E+02 -0.49334340596E+00  0.54367098819E+02  0.40000033377E+02 0.  0.
        -12    1    3    3    0    0 -0.17757245213E+02  0.32252373843E+02  0.49334340596E+00  0.36820901181E+02  0.00000000000E+00 0.  1.
         11    1    4    4    0    0  0.54838807675E+01 -0.14424639635E+02  0.90364583989E+01  0.17882973956E+02  0.51100000000E-03 0. -1.
        -11    1    4    4    0    0  0.11742044640E+02 -0.13416303256E+02 -0.18980521577E+02  0.26040987020E+02  0.51100000000E-03 0.  1.
        -12    1    4    4    0    0  0.53131980577E+00 -0.44114309529E+01  0.94507197720E+01  0.10443137843E+02  0.00000000000E+00 0.  1.
</event>
<event>
 8    1  0.1280925E-006  0.9118800E+02  0.7816164E-02  0.1184000E+00
        -11   -1    0    0    0    0  0.00000000000E+00  0.00000000000E+00  0.45593999997E+02  0.45594000000E+02  0.51100000000E-03 0.  1.
         11   -1    0    0    0    0 -0.00000000000E+00 -0.00000000000E+00 -0.45593999997E+02  0.45594000000E+02  0.51100000000E-03 0. -1.
         23    2    1    2    0    0 -0.71054273576E-14  0.17763568394E-14 -0.11102230246E-14  0.91188000000E+02  0.91188000000E+02 0.  0.
    9900012    2    3    3    0    0  0.35576425850E+02 -0.94388344182E+01  0.10030311271E+01  0.54367085524E+02  0.40000003069E+02 0.  0.
         12    1    3    3    0    0 -0.35576425850E+02  0.94388344182E+01 -0.10030311271E+01  0.36820914476E+02  0.00000000000E+00 0. -1.
         11    1    4    4    0    0  0.23916566523E+01 -0.49509211576E+01 -0.51900526499E+01  0.75609714072E+01  0.51100000000E-03 0. -1.
        -11    1    4    4    0    0  0.21231134211E+02  0.38781112623E+01 -0.11026781439E+02  0.24236144826E+02  0.51100000000E-03 0.  1.
        -12    1    4    4    0    0  0.11953634986E+02 -0.83660245230E+01  0.17219865216E+02  0.22569969291E+02  0.00000000000E+00 0.  1.
</event>
<event>
 8    1  0.1280925E-006  0.9118800E+02  0.7816164E-02  0.1184000E+00
        -11   -1    0    0    0    0  0.00000000000E+00  0.00000000000E+00  0.45593999997E+02  0.45594000000E+02  0.51100000000E-03 0.  1.
         11   -1    0    0    0    0 -0.00000000000E+00 -0.00000000000E+00 -0.45593999997E+02  0.45594000000E+02  0.51100000000E-03 0. -1.
         23    2    1    2    0    0 -0.44408920985E-15 -0.35527136788E-14  0.00000000000E+00  0.91188000000E+02  0.91188000000E+02 0.  0.
    9900012    2    3    3    0    0 -0.23116912831E+01 -0.19614656638E+02 -0.31075734380E+02  0.54367082862E+02  0.39999997000E+02 0.  0.
        -12    1    3    3    0    0  0.23116912831E+01  0.19614656638E+02  0.31075734380E+02  0.36820917138E+02  0.00000000000E+00 0.  1.
         11    1    4    4    0    0  0.69733974212E+01 -0.52092495136E+01 -0.20233807001E+02  0.22026608865E+02  0.51100000000E-03 0. -1.
        -11    1    4    4    0    0  0.87658575932E+01 -0.48901426694E+01 -0.29493304220E+01  0.10461945559E+02  0.51100000000E-03 0.  1.
         12    1    4    4    0    0 -0.18050946297E+02 -0.95152644555E+01 -0.78925969569E+01  0.21878528438E+02  0.00000000000E+00 0. -1.
</event>
<event>
 8    1  0.1280925E-006  0.9118800E+02  0.7816164E-02  0.1184000E+00
        -11   -1    0    0    0    0  0.00000000000E+00  0.00000000000E+00  0.45593999997E+02  0.45594000000E+02  0.51100000000E-03 0.  1.
         11   -1    0    0    0    0 -0.00000000000E+00 -0.00000000000E+00 -0.45593999997E+02  0.45594000000E+02  0.51100000000E-03 0. -1.
         23    2    1    2    0    0  0.35527136788E-14  0.00000000000E+00  0.00000000000E+00  0.91188000000E+02  0.91188000000E+02 0.  0.
    9900012    2    3    3    0    0 -0.21677974698E+02 -0.28461954555E+02 -0.87043458501E+01  0.54367040198E+02  0.39999899739E+02 0.  0.
         12    1    3    3    0    0  0.21677974698E+02  0.28461954555E+02  0.87043458501E+01  0.36820959802E+02  0.00000000000E+00 0. -1.
         11    1    4    4    0    0 -0.23406527189E+02 -0.13543729842E+02 -0.31181759246E+01  0.27221703739E+02  0.51100000000E-03 0. -1.
        -11    1    4    4    0    0  0.14587786234E+00 -0.11732605361E+02  0.72719760762E+01  0.13804236495E+02  0.51100000000E-03 0.  1.
        -12    1    4    4    0    0  0.15826746294E+01 -0.31856193518E+01 -0.12858146002E+02  0.13341099964E+02  0.00000000000E+00 0.  1.
</event>
<event>
 8    1  0.1280925E-006  0.9118800E+02  0.7816164E-02  0.1184000E+00
        -11   -1    0    0    0    0  0.00000000000E+00  0.00000000000E+00  0.45593999997E+02  0.45594000000E+02  0.51100000000E-03 0. -1.
         11   -1    0    0    0    0 -0.00000000000E+00 -0.00000000000E+00 -0.45593999997E+02  0.45594000000E+02  0.51100000000E-03 0.  1.
         23    2    1    2    0    0  0.17763568394E-14 -0.35527136788E-14 -0.35527136788E-14  0.91188000000E+02  0.91188000000E+02 0.  0.
    9900012    2    3    3    0    0 -0.85248926159E+01  0.18337339991E+02  0.30770893464E+02  0.54367085880E+02  0.40000003882E+02 0.  0.
        -12    1    3    3    0    0  0.85248926159E+01 -0.18337339991E+02 -0.30770893464E+02  0.36820914120E+02  0.00000000000E+00 0.  1.
         11    1    4    4    0    0  0.35969552347E+01 -0.27334090815E+00  0.25856079195E+02  0.26106505584E+02  0.51100000000E-03 0. -1.
        -11    1    4    4    0    0 -0.60529652254E+01  0.21709558106E+01  0.82107398635E+01  0.10429174776E+02  0.51100000000E-03 0.  1.
        -12    1    4    4    0    0 -0.60688826253E+01  0.16439725088E+02 -0.32959255945E+01  0.17831405520E+02  0.00000000000E+00 0.  1.
</event>
<event>
 8    1  0.1280925E-006  0.9118800E+02  0.7816164E-02  0.1184000E+00
        -11   -1    0    0    0    0  0.00000000000E+00  0.00000000000E+00  0.45593999997E+02  0.45594000000E+02  0.51100000000E-03 0.  1.
         11   -1    0    0    0    0 -0.00000000000E+00 -0.00000000000E+00 -0.45593999997E+02  0.45594000000E+02  0.51100000000E-03 0. -1.
         23    2    1    2    0    0  0.00000000000E+00  0.22204460493E-15  0.00000000000E+00  0.91188000000E+02  0.91188000000E+02 0.  0.
    9900012    2    3    3    0    0 -0.14264235362E+02 -0.16128729173E+01  0.33907371279E+02  0.54367087510E+02  0.40000007597E+02 0.  0.
         12    1    3    3    0    0  0.14264235362E+02  0.16128729173E+01 -0.33907371279E+02  0.36820912490E+02  0.00000000000E+00 0. -1.
         11    1    4    4    0    0 -0.23213924617E+02 -0.70624026325E+01  0.33115864751E+02  0.41053919734E+02  0.51100000000E-03 0. -1.
        -11    1    4    4    0    0  0.93645252182E+01  0.69940511871E+01  0.77644567327E+00  0.11713835952E+02  0.51100000000E-03 0.  1.
         12    1    4    4    0    0 -0.41483596387E+00 -0.15445214719E+01  0.15060854661E-01  0.15993318240E+01  0.00000000000E+00 0. -1.
</event>
<event>
 8    1  0.1280925E-006  0.9118800E+02  0.7816164E-02  0.1184000E+00
        -11   -1    0    0    0    0  0.00000000000E+00  0.00000000000E+00  0.45593999997E+02  0.45594000000E+02  0.51100000000E-03 0. -1.
         11   -1    0    0    0    0 -0.00000000000E+00 -0.00000000000E+00 -0.45593999997E+02  0.45594000000E+02  0.51100000000E-03 0.  1.
         23    2    1    2    0    0 -0.88817841970E-15  0.00000000000E+00  0.35527136788E-14  0.91188000000E+02  0.91188000000E+02 0.  0.
    9900012    2    3    3    0    0  0.66354230967E+01 -0.22872583627E+02  0.28081977319E+02  0.54367063407E+02  0.39999952649E+02 0.  0.
         12    1    3    3    0    0 -0.66354230967E+01  0.22872583627E+02 -0.28081977319E+02  0.36820936593E+02  0.00000000000E+00 0. -1.
         11    1    4    4    0    0  0.11061634844E+02  0.76602841233E+01  0.10521423557E+02  0.17080400235E+02  0.51100000000E-03 0. -1.
        -11    1    4    4    0    0 -0.80759093323E+01 -0.23815233088E+02  0.12206589986E+02  0.27953291004E+02  0.51100000000E-03 0.  1.
         12    1    4    4    0    0  0.36496975853E+01 -0.67176346618E+01  0.53539637754E+01  0.93333721678E+01  0.00000000000E+00 0. -1.
</event>
<event>
 8    1  0.1280925E-006  0.9118800E+02  0.7816164E-02  0.1184000E+00
        -11   -1    0    0    0    0  0.00000000000E+00  0.00000000000E+00  0.45593999997E+02  0.45594000000E+02  0.51100000000E-03 0.  1.
         11   -1    0    0    0    0 -0.00000000000E+00 -0.00000000000E+00 -0.45593999997E+02  0.45594000000E+02  0.51100000000E-03 0. -1.
         23    2    1    2    0    0 -0.13322676296E-14  0.00000000000E+00  0.00000000000E+00  0.91188000000E+02  0.91188000000E+02 0.  0.
    9900012    2    3    3    0    0  0.17487792442E+01 -0.98158860620E+01 -0.35445294404E+02  0.54367099096E+02  0.40000034008E+02 0.  0.
        -12    1    3    3    0    0 -0.17487792442E+01  0.98158860620E+01  0.35445294404E+02  0.36820900904E+02  0.00000000000E+00 0.  1.
         11    1    4    4    0    0  0.11049537277E+02 -0.34725860679E+01 -0.45603075636E+01  0.12447792309E+02  0.51100000000E-03 0. -1.
        -11    1    4    4    0    0  0.64153534620E+01  0.36862291927E+01 -0.17406290624E+02  0.18913592976E+02  0.51100000000E-03 0.  1.
        -12    1    4    4    0    0 -0.15716111495E+02 -0.10029529187E+02 -0.13478696216E+02  0.23005713810E+02  0.00000000000E+00 0.  1.
</event>
<event>
 8    1  0.1280925E-006  0.9118800E+02  0.7816164E-02  0.1184000E+00
        -11   -1    0    0    0    0  0.00000000000E+00  0.00000000000E+00  0.45593999997E+02  0.45594000000E+02  0.51100000000E-03 0.  1.
         11   -1    0    0    0    0 -0.00000000000E+00 -0.00000000000E+00 -0.45593999997E+02  0.45594000000E+02  0.51100000000E-03 0. -1.
         23    2    1    2    0    0  0.88817841970E-15  0.00000000000E+00  0.88817841970E-15  0.91188000000E+02  0.91188000000E+02 0.  0.
    9900012    2    3    3    0    0  0.74326331060E+01 -0.35490560151E+02 -0.63996983727E+01  0.54367081570E+02  0.39999994056E+02 0.  0.
        -12    1    3    3    0    0 -0.74326331060E+01  0.35490560151E+02  0.63996983727E+01  0.36820918430E+02  0.00000000000E+00 0.  1.
         11    1    4    4    0    0  0.42091614814E+01 -0.34966470980E+02  0.49530642281E+01  0.35565488590E+02  0.51100000000E-03 0.  1.
        -11    1    4    4    0    0  0.45021417223E+00 -0.63601906832E+00  0.35541116594E+01  0.36385330842E+01  0.51100000000E-03 0. -1.
         12    1    4    4    0    0  0.27732574524E+01  0.11192989668E+00 -0.14906874260E+02  0.15163059896E+02  0.00000000000E+00 0. -1.
</event>
<event>
 8    1  0.1280925E-006  0.9118800E+02  0.7816164E-02  0.1184000E+00
        -11   -1    0    0    0    0  0.00000000000E+00  0.00000000000E+00  0.45593999997E+02  0.45594000000E+02  0.51100000000E-03 0. -1.
         11   -1    0    0    0    0 -0.00000000000E+00 -0.00000000000E+00 -0.45593999997E+02  0.45594000000E+02  0.51100000000E-03 0.  1.
         23    2    1    2    0    0  0.17763568394E-14  0.00000000000E+00 -0.35527136788E-14  0.91188000000E+02  0.91188000000E+02 0.  0.
    9900012    2    3    3    0    0  0.12985541983E+02  0.29546419885E+02 -0.17724669598E+02  0.54367093697E+02  0.40000021702E+02 0.  0.
         12    1    3    3    0    0 -0.12985541983E+02 -0.29546419885E+02  0.17724669598E+02  0.36820906303E+02  0.00000000000E+00 0. -1.
         11    1    4    4    0    0 -0.11436837419E+02  0.95768522497E+01 -0.27653270686E+01  0.15171169474E+02  0.51100000000E-03 0.  1.
        -11    1    4    4    0    0  0.46554977386E+01 -0.19737114776E+01  0.16414919998E+01  0.53163608265E+01  0.51100000000E-03 0. -1.
        -12    1    4    4    0    0  0.19766881663E+02  0.21943279113E+02 -0.16600834529E+02  0.33879563397E+02  0.00000000000E+00 0.  1.
</event>
<event>
 8    1  0.1280925E-006  0.9118800E+02  0.7816164E-02  0.1184000E+00
        -11   -1    0    0    0    0  0.00000000000E+00  0.00000000000E+00  0.45593999997E+02  0.45594000000E+02  0.51100000000E-03 0.  1.
         11   -1    0    0    0    0 -0.00000000000E+00 -0.00000000000E+00 -0.45593999997E+02  0.45594000000E+02  0.51100000000E-03 0. -1.
         23    2    1    2    0    0  0.00000000000E+00  0.35527136788E-14  0.00000000000E+00  0.91188000000E+02  0.91188000000E+02 0.  0.
    9900012    2    3    3    0    0  0.25497045114E+02  0.16340880738E+02 -0.20944132144E+02  0.54367077088E+02  0.39999983836E+02 0.  0.
        -12    1    3    3    0    0 -0.25497045114E+02 -0.16340880738E+02  0.20944132144E+02  0.36820922912E+02  0.00000000000E+00 0.  1.
         11    1    4    4    0    0 -0.28077361113E+00  0.16802211912E+02  0.37757001109E+01  0.17223503434E+02  0.51100000000E-03 0. -1.
        -11    1    4    4    0    0  0.10934988328E+02  0.29466695152E+01 -0.54096437604E+01  0.12550740091E+02  0.51100000000E-03 0.  1.
         12    1    4    4    0    0  0.14842830397E+02 -0.34080006891E+01 -0.19310188495E+02  0.24592833562E+02  0.00000000000E+00 0. -1.
</event>
<event>
 8    1  0.1280925E-006  0.9118800E+02  0.7816164E-02  0.1184000E+00
        -11   -1    0    0    0    0  0.00000000000E+00  0.00000000000E+00  0.45593999997E+02  0.45594000000E+02  0.51100000000E-03 0. -1.
         11   -1    0    0    0    0 -0.00000000000E+00 -0.00000000000E+00 -0.45593999997E+02  0.45594000000E+02  0.51100000000E-03 0.  1.
         23    2    1    2    0    0 -0.17763568394E-14  0.00000000000E+00  0.35527136788E-14  0.91188000000E+02  0.91188000000E+02 0.  0.
    9900012    2    3    3    0    0 -0.82141326223E+01 -0.18939527686E+02 -0.30489378805E+02  0.54367083341E+02  0.39999998092E+02 0.  0.
         12    1    3    3    0    0  0.82141326223E+01  0.18939527686E+02  0.30489378805E+02  0.36820916659E+02  0.00000000000E+00 0. -1.
         11    1    4    4    0    0  0.12450583780E+02 -0.58171015962E+01 -0.19619400653E+02  0.23953634165E+02  0.51100000000E-03 0. -1.
        -11    1    4    4    0    0  0.89422821702E+00  0.11118336633E+01 -0.31378635210E+01  0.34470285662E+01  0.51100000000E-03 0.  1.
         12    1    4    4    0    0 -0.21558944620E+02 -0.14234259753E+02 -0.77321146306E+01  0.26966420610E+02  0.00000000000E+00 0. -1.
</event>
<event>
 8    1  0.1280925E-006  0.9118800E+02  0.7816164E-02  0.1184000E+00
        -11   -1    0    0    0    0  0.00000000000E+00  0.00000000000E+00  0.45593999997E+02  0.45594000000E+02  0.51100000000E-03 0. -1.
         11   -1    0    0    0    0 -0.00000000000E+00 -0.00000000000E+00 -0.45593999997E+02  0.45594000000E+02  0.51100000000E-03 0.  1.
         23    2    1    2    0    0  0.71054273576E-14  0.13322676296E-14  0.00000000000E+00  0.91188000000E+02  0.91188000000E+02 0.  0.
    9900012    2    3    3    0    0  0.16770088088E+02 -0.34524946931E+01  0.32597920861E+02  0.54367081780E+02  0.39999994534E+02 0.  0.
        -12    1    3    3    0    0 -0.16770088088E+02  0.34524946931E+01 -0.32597920861E+02  0.36820918220E+02  0.00000000000E+00 0.  1.
         11    1    4    4    0    0 -0.71726132223E+00 -0.10433282855E+02  0.12604791646E+02  0.16378297459E+02  0.51100000000E-03 0. -1.
        -11    1    4    4    0    0 -0.37599301760E+01 -0.25366021631E+01 -0.28626580971E+01  0.53634165515E+01  0.51100000000E-03 0.  1.
        -12    1    4    4    0    0  0.21247279587E+02  0.95173903254E+01  0.22855787312E+02  0.32625367769E+02  0.00000000000E+00 0.  1.
</event>
<event>
 8    1  0.1280925E-006  0.9118800E+02  0.7816164E-02  0.1184000E+00
        -11   -1    0    0    0    0  0.00000000000E+00  0.00000000000E+00  0.45593999997E+02  0.45594000000E+02  0.51100000000E-03 0.  1.
         11   -1    0    0    0    0 -0.00000000000E+00 -0.00000000000E+00 -0.45593999997E+02  0.45594000000E+02  0.51100000000E-03 0. -1.
         23    2    1    2    0    0  0.00000000000E+00  0.00000000000E+00  0.22204460493E-15  0.91188000000E+02  0.91188000000E+02 0.  0.
    9900012    2    3    3    0    0 -0.27904508872E+02 -0.24014918199E+02  0.63301400548E+00  0.54367100795E+02  0.40000037883E+02 0.  0.
        -12    1    3    3    0    0  0.27904508872E+02  0.24014918199E+02 -0.63301400548E+00  0.36820899205E+02  0.00000000000E+00 0.  1.
         11    1    4    4    0    0 -0.17354633572E+02 -0.26408464516E+02 -0.75694089880E+00  0.31609543880E+02  0.51100000000E-03 0. -1.
        -11    1    4    4    0    0 -0.10524225764E+01 -0.80639403874E+01  0.27037434961E+01  0.85700033258E+01  0.51100000000E-03 0.  1.
        -12    1    4    4    0    0 -0.94974527238E+01  0.10457486704E+02 -0.13137885918E+01  0.14187553590E+02  0.00000000000E+00 0.  1.
</event>
<event>
 8    1  0.1280925E-006  0.9118800E+02  0.7816164E-02  0.1184000E+00
        -11   -1    0    0    0    0  0.00000000000E+00  0.00000000000E+00  0.45593999997E+02  0.45594000000E+02  0.51100000000E-03 0.  1.
         11   -1    0    0    0    0 -0.00000000000E+00 -0.00000000000E+00 -0.45593999997E+02  0.45594000000E+02  0.51100000000E-03 0. -1.
         23    2    1    2    0    0  0.00000000000E+00 -0.22204460493E-15  0.00000000000E+00  0.91188000000E+02  0.91188000000E+02 0.  0.
    9900012    2    3    3    0    0  0.17771531231E+02  0.12696268532E+01 -0.32223291388E+02  0.54367084985E+02  0.40000001840E+02 0.  0.
        -12    1    3    3    0    0 -0.17771531231E+02 -0.12696268532E+01  0.32223291388E+02  0.36820915015E+02  0.00000000000E+00 0.  1.
         11    1    4    4    0    0  0.12045166963E+02  0.65577155976E+00 -0.61295585468E+01  0.13530985616E+02  0.51100000000E-03 0. -1.
        -11    1    4    4    0    0  0.76803567420E+01 -0.87494439222E+01  0.13999866995E+01  0.11726065480E+02  0.51100000000E-03 0.  1.
         12    1    4    4    0    0 -0.19539924736E+01  0.93632992156E+01 -0.27493719541E+02  0.29110033888E+02  0.00000000000E+00 0. -1.
</event>
<event>
 8    1  0.1280925E-006  0.9118800E+02  0.7816164E-02  0.1184000E+00
        -11   -1    0    0    0    0  0.00000000000E+00  0.00000000000E+00  0.45593999997E+02  0.45594000000E+02  0.51100000000E-03 0. -1.
         11   -1    0    0    0    0 -0.00000000000E+00 -0.00000000000E+00 -0.45593999997E+02  0.45594000000E+02  0.51100000000E-03 0.  1.
         23    2    1    2    0    0 -0.35527136788E-14  0.17763568394E-14  0.35527136788E-14  0.91188000000E+02  0.91188000000E+02 0.  0.
    9900012    2    3    3    0    0 -0.23960539996E+02  0.11317606598E+02  0.25565246209E+02  0.54367115848E+02  0.40000072198E+02 0.  0.
        -12    1    3    3    0    0  0.23960539996E+02 -0.11317606598E+02 -0.25565246209E+02  0.36820884152E+02  0.00000000000E+00 0.  1.
         11    1    4    4    0    0  0.60923807008E+00  0.14014910089E+02  0.10851761319E+02  0.17735546222E+02  0.51100000000E-03 0. -1.
        -11    1    4    4    0    0 -0.10265328915E+02 -0.79191976027E+01 -0.29641715167E+01  0.13299510572E+02  0.51100000000E-03 0.  1.
        -12    1    4    4    0    0 -0.14304449151E+02  0.52218941116E+01  0.17677656407E+02  0.23332059054E+02  0.00000000000E+00 0.  1.
</event>
<event>
 8    1  0.1280925E-006  0.9118800E+02  0.7816164E-02  0.1184000E+00
        -11   -1    0    0    0    0  0.00000000000E+00  0.00000000000E+00  0.45593999997E+02  0.45594000000E+02  0.51100000000E-03 0.  1.
         11   -1    0    0    0    0 -0.00000000000E+00 -0.00000000000E+00 -0.45593999997E+02  0.45594000000E+02  0.51100000000E-03 0. -1.
         23    2    1    2    0    0  0.00000000000E+00 -0.44408920985E-15  0.35527136788E-14  0.91188000000E+02  0.91188000000E+02 0.  0.
    9900012    2    3    3    0    0  0.25263357609E+02  0.12831250057E+01  0.26756224679E+02  0.54367092807E+02  0.40000019672E+02 0.  0.
         12    1    3    3    0    0 -0.25263357609E+02 -0.12831250057E+01 -0.26756224679E+02  0.36820907193E+02  0.00000000000E+00 0. -1.
         11    1    4    4    0    0  0.21556437038E+00 -0.13435254891E+02  0.45090432193E+01  0.14173355742E+02  0.51100000000E-03 0. -1.
        -11    1    4    4    0    0  0.19033208282E+02  0.83649087287E+01  0.23476579624E+02  0.31358962143E+02  0.51100000000E-03 0.  1.
         12    1    4    4    0    0  0.60145849562E+01  0.63534711679E+01 -0.12293981649E+01  0.88347749221E+01  0.00000000000E+00 0. -1.
</event>
<event>
 8    1  0.1280925E-006  0.9118800E+02  0.7816164E-02  0.1184000E+00
        -11   -1    0    0    0    0  0.00000000000E+00  0.00000000000E+00  0.45593999997E+02  0.45594000000E+02  0.51100000000E-03 0.  1.
         11   -1    0    0    0    0 -0.00000000000E+00 -0.00000000000E+00 -0.45593999997E+02  0.45594000000E+02  0.51100000000E-03 0. -1.
         23    2    1    2    0    0  0.00000000000E+00  0.00000000000E+00  0.00000000000E+00  0.91188000000E+02  0.91188000000E+02 0.  0.
    9900012    2    3    3    0    0  0.18516616298E+02  0.19615295875E+02 -0.25063010879E+02  0.54367089830E+02  0.40000012885E+02 0.  0.
        -12    1    3    3    0    0 -0.18516616298E+02 -0.19615295875E+02  0.25063010879E+02  0.36820910170E+02  0.00000000000E+00 0.  1.
         11    1    4    4    0    0  0.51253888402E+01  0.26805775988E+02 -0.21913153990E+02  0.35000079359E+02  0.51100000000E-03 0. -1.
        -11    1    4    4    0    0  0.33183935487E+01 -0.28322782249E+01  0.42813945481E+01  0.61125997108E+01  0.51100000000E-03 0.  1.
         12    1    4    4    0    0  0.10072833910E+02 -0.43582018881E+01 -0.74312514379E+01  0.13254410760E+02  0.00000000000E+00 0. -1.
</event>
<event>
 8    1  0.1280925E-006  0.9118800E+02  0.7816164E-02  0.1184000E+00
        -11   -1    0    0    0    0  0.00000000000E+00  0.00000000000E+00  0.45593999997E+02  0.45594000000E+02  0.51100000000E-03 0. -1.
         11   -1    0    0    0    0 -0.00000000000E+00 -0.00000000000E+00 -0.45593999997E+02  0.45594000000E+02  0.51100000000E-03 0.  1.
         23    2    1    2    0    0  0.00000000000E+00  0.00000000000E+00 -0.35527136788E-14  0.91188000000E+02  0.91188000000E+02 0.  0.
    9900012    2    3    3    0    0 -0.77208620916E+01  0.31309877191E+02  0.17772450717E+02  0.54367080326E+02  0.39999991219E+02 0.  0.
        -12    1    3    3    0    0  0.77208620916E+01 -0.31309877191E+02 -0.17772450717E+02  0.36820919674E+02  0.00000000000E+00 0.  1.
         11    1    4    4    0    0  0.17194375012E+01  0.12649986493E+02  0.14483498756E+02  0.19306743902E+02  0.51100000000E-03 0. -1.
        -11    1    4    4    0    0  0.30087428425E+01 -0.33412164493E+01  0.81595928850E+01  0.93163950734E+01  0.51100000000E-03 0.  1.
        -12    1    4    4    0    0 -0.12449042435E+02  0.22001107147E+02 -0.48706409243E+01  0.25743941351E+02  0.00000000000E+00 0.  1.
</event>
<event>
 8    1  0.1280925E-006  0.9118800E+02  0.7816164E-02  0.1184000E+00
        -11   -1    0    0    0    0  0.00000000000E+00  0.00000000000E+00  0.45593999997E+02  0.45594000000E+02  0.51100000000E-03 0. -1.
         11   -1    0    0    0    0 -0.00000000000E+00 -0.00000000000E+00 -0.45593999997E+02  0.45594000000E+02  0.51100000000E-03 0.  1.
         23    2    1    2    0    0  0.00000000000E+00  0.88817841970E-15  0.00000000000E+00  0.91188000000E+02  0.91188000000E+02 0.  0.
    9900012    2    3    3    0    0 -0.13980136331E+02  0.40616062162E+01  0.33820693504E+02  0.54367079778E+02  0.39999989971E+02 0.  0.
        -12    1    3    3    0    0  0.13980136331E+02 -0.40616062162E+01 -0.33820693504E+02  0.36820920222E+02  0.00000000000E+00 0.  1.
         11    1    4    4    0    0 -0.10246398411E+02  0.10014492915E+02  0.20044398745E+02  0.24638520046E+02  0.51100000000E-03 0. -1.
        -11    1    4    4    0    0 -0.10842899064E+02  0.14654535409E+01  0.15837061598E+02  0.19249117759E+02  0.51100000000E-03 0.  1.
        -12    1    4    4    0    0  0.71091611450E+01 -0.74183402402E+01 -0.20607668387E+01  0.10479441973E+02  0.00000000000E+00 0.  1.
</event>
<event>
 8    1  0.1280925E-006  0.9118800E+02  0.7816164E-02  0.1184000E+00
        -11   -1    0    0    0    0  0.00000000000E+00  0.00000000000E+00  0.45593999997E+02  0.45594000000E+02  0.51100000000E-03 0.  1.
         11   -1    0    0    0    0 -0.00000000000E+00 -0.00000000000E+00 -0.45593999997E+02  0.45594000000E+02  0.51100000000E-03 0. -1.
         23    2    1    2    0    0  0.35527136788E-14  0.00000000000E+00  0.00000000000E+00  0.91188000000E+02  0.91188000000E+02 0.  0.
    9900012    2    3    3    0    0  0.17976454179E+02  0.10679054915E+02 -0.30308183886E+02  0.54367066699E+02  0.39999960153E+02 0.  0.
        -12    1    3    3    0    0 -0.17976454179E+02 -0.10679054915E+02  0.30308183886E+02  0.36820933301E+02  0.00000000000E+00 0.  1.
         11    1    4    4    0    0  0.62340206526E+01  0.11793700135E+01 -0.28083648218E+02  0.28791408868E+02  0.51100000000E-03 0. -1.
        -11    1    4    4    0    0  0.16479470091E+02  0.96609960918E+01  0.20252754171E+01  0.19209620526E+02  0.51100000000E-03 0.  1.
        -12    1    4    4    0    0 -0.47370365644E+01 -0.16131119060E+00 -0.42498110846E+01  0.63660373049E+01  0.00000000000E+00 0.  1.
</event>
<event>
 8    1  0.1280925E-006  0.9118800E+02  0.7816164E-02  0.1184000E+00
        -11   -1    0    0    0    0  0.00000000000E+00  0.00000000000E+00  0.45593999997E+02  0.45594000000E+02  0.51100000000E-03 0.  1.
         11   -1    0    0    0    0 -0.00000000000E+00 -0.00000000000E+00 -0.45593999997E+02  0.45594000000E+02  0.51100000000E-03 0. -1.
         23    2    1    2    0    0  0.00000000000E+00 -0.11102230246E-14  0.00000000000E+00  0.91188000000E+02  0.91188000000E+02 0.  0.
    9900012    2    3    3    0    0 -0.36178982370E+02  0.69046966351E+00 -0.68104133967E+01  0.54367119452E+02  0.40000080414E+02 0.  0.
        -12    1    3    3    0    0  0.36178982370E+02 -0.69046966351E+00  0.68104133967E+01  0.36820880548E+02  0.00000000000E+00 0.  1.
         11    1    4    4    0    0 -0.10602810453E+02 -0.11550289236E+02 -0.58655938627E+01  0.16740190040E+02  0.51100000000E-03 0. -1.
        -11    1    4    4    0    0 -0.23563773250E+02  0.16422447825E+02 -0.74158728247E+01  0.29663839474E+02  0.51100000000E-03 0.  1.
        -12    1    4    4    0    0 -0.20123986672E+01 -0.41816889251E+01  0.64710532906E+01  0.79630899375E+01  0.00000000000E+00 0.  1.
</event>
<event>
 8    1  0.1280925E-006  0.9118800E+02  0.7816164E-02  0.1184000E+00
        -11   -1    0    0    0    0  0.00000000000E+00  0.00000000000E+00  0.45593999997E+02  0.45594000000E+02  0.51100000000E-03 0.  1.
         11   -1    0    0    0    0 -0.00000000000E+00 -0.00000000000E+00 -0.45593999997E+02  0.45594000000E+02  0.51100000000E-03 0. -1.
         23    2    1    2    0    0 -0.88817841970E-15  0.35527136788E-14  0.00000000000E+00  0.91188000000E+02  0.91188000000E+02 0.  0.
    9900012    2    3    3    0    0  0.70882017758E+01 -0.31447058616E+02 -0.17793797508E+02  0.54367091133E+02  0.40000015856E+02 0.  0.
        -12    1    3    3    0    0 -0.70882017758E+01  0.31447058616E+02  0.17793797508E+02  0.36820908867E+02  0.00000000000E+00 0.  1.
         11    1    4    4    0    0 -0.60413885307E+01 -0.12135813092E+02 -0.37577774556E+01  0.14067594906E+02  0.51100000000E-03 0. -1.
        -11    1    4    4    0    0  0.14946880836E+02 -0.23699862737E+02 -0.28711783967E+01  0.28166228113E+02  0.51100000000E-03 0.  1.
        -12    1    4    4    0    0 -0.18172905297E+01  0.43886172129E+01 -0.11164841656E+02  0.12133268113E+02  0.00000000000E+00 0.  1.
</event>
<event>
 8    1  0.1280925E-006  0.9118800E+02  0.7816164E-02  0.1184000E+00
        -11   -1    0    0    0    0  0.00000000000E+00  0.00000000000E+00  0.45593999997E+02  0.45594000000E+02  0.51100000000E-03 0.  1.
         11   -1    0    0    0    0 -0.00000000000E+00 -0.00000000000E+00 -0.45593999997E+02  0.45594000000E+02  0.51100000000E-03 0. -1.
         23    2    1    2    0    0  0.00000000000E+00 -0.71054273576E-14 -0.66613381478E-15  0.91188000000E+02  0.91188000000E+02 0.  0.
    9900012    2    3    3    0    0 -0.64865486758E+01  0.36230723410E+02  0.10198728755E+01  0.54367071532E+02  0.39999971171E+02 0.  0.
        -12    1    3    3    0    0  0.64865486758E+01 -0.36230723410E+02 -0.10198728755E+01  0.36820928468E+02  0.00000000000E+00 0.  1.
         11    1    4    4    0    0 -0.57360182107E+01  0.21217452830E+02  0.16951514059E+02  0.27756729610E+02  0.51100000000E-03 0. -1.
        -11    1    4    4    0    0 -0.46179213424E+01 -0.63416014962E+00 -0.12942516112E+01  0.48376072716E+01  0.51100000000E-03 0.  1.
         12    1    4    4    0    0  0.38673908774E+01  0.15647430730E+02 -0.14637389572E+02  0.21772734650E+02  0.00000000000E+00 0. -1.
</event>
<event>
 8    1  0.1280925E-006  0.9118800E+02  0.7816164E-02  0.1184000E+00
        -11   -1    0    0    0    0  0.00000000000E+00  0.00000000000E+00  0.45593999997E+02  0.45594000000E+02  0.51100000000E-03 0.  1.
         11   -1    0    0    0    0 -0.00000000000E+00 -0.00000000000E+00 -0.45593999997E+02  0.45594000000E+02  0.51100000000E-03 0. -1.
         23    2    1    2    0    0 -0.17763568394E-14  0.00000000000E+00  0.00000000000E+00  0.91188000000E+02  0.91188000000E+02 0.  0.
    9900012    2    3    3    0    0 -0.15566049258E+02  0.24775241363E+02  0.22353174090E+02  0.54367097431E+02  0.40000030213E+02 0.  0.
         12    1    3    3    0    0  0.15566049258E+02 -0.24775241363E+02 -0.22353174090E+02  0.36820902569E+02  0.00000000000E+00 0. -1.
         11    1    4    4    0    0 -0.25680641417E+02  0.26386120977E+02  0.19944357882E+02  0.41874815048E+02  0.51100000000E-03 0. -1.
        -11    1    4    4    0    0  0.65426036258E+01  0.91878769125E+00  0.41272702998E+01  0.77900059958E+01  0.51100000000E-03 0.  1.
         12    1    4    4    0    0  0.35719885330E+01 -0.25296673048E+01 -0.17184540912E+01  0.47022763866E+01  0.00000000000E+00 0. -1.
</event>
<event>
 8    1  0.1280925E-006  0.9118800E+02  0.7816164E-02  0.1184000E+00
        -11   -1    0    0    0    0  0.00000000000E+00  0.00000000000E+00  0.45593999997E+02  0.45594000000E+02  0.51100000000E-03 0. -1.
         11   -1    0    0    0    0 -0.00000000000E+00 -0.00000000000E+00 -0.45593999997E+02  0.45594000000E+02  0.51100000000E-03 0.  1.
         23    2    1    2    0    0  0.00000000000E+00 -0.27755575616E-15  0.00000000000E+00  0.91188000000E+02  0.91188000000E+02 0.  0.
    9900012    2    3    3    0    0  0.23479598711E+02  0.17943436035E+00 -0.28362877315E+02  0.54367128718E+02  0.40000101539E+02 0.  0.
         12    1    3    3    0    0 -0.23479598711E+02 -0.17943436035E+00  0.28362877315E+02  0.36820871282E+02  0.00000000000E+00 0. -1.
         11    1    4    4    0    0  0.15464133309E+02  0.43895246533E+01  0.40236498714E+01  0.16570971734E+02  0.51100000000E-03 0. -1.
        -11    1    4    4    0    0  0.59091088497E+00  0.63900620396E+01 -0.12827261632E+02  0.14342967258E+02  0.51100000000E-03 0.  1.
         12    1    4    4    0    0  0.74245545174E+01 -0.10600152333E+02 -0.19559265555E+02  0.23453189726E+02  0.00000000000E+00 0. -1.
</event>
<event>
 8    1  0.1280925E-006  0.9118800E+02  0.7816164E-02  0.1184000E+00
        -11   -1    0    0    0    0  0.00000000000E+00  0.00000000000E+00  0.45593999997E+02  0.45594000000E+02  0.51100000000E-03 0. -1.
         11   -1    0    0    0    0 -0.00000000000E+00 -0.00000000000E+00 -0.45593999997E+02  0.45594000000E+02  0.51100000000E-03 0.  1.
         23    2    1    2    0    0  0.00000000000E+00 -0.35527136788E-14 -0.45796699766E-15  0.91188000000E+02  0.91188000000E+02 0.  0.
    9900012    2    3    3    0    0 -0.26213202081E+02  0.25858168876E+02 -0.55360847095E-01  0.54367083040E+02  0.39999997406E+02 0.  0.
        -12    1    3    3    0    0  0.26213202081E+02 -0.25858168876E+02  0.55360847095E-01  0.36820916960E+02  0.00000000000E+00 0.  1.
         11    1    4    4    0    0 -0.14471630461E+02  0.15688283453E+01 -0.99993599333E+00  0.14590722492E+02  0.51100000000E-03 0.  1.
        -11    1    4    4    0    0 -0.88432222704E+01  0.70520516491E+01  0.13972001982E+02  0.17976397087E+02  0.51100000000E-03 0. -1.
        -12    1    4    4    0    0 -0.28983493493E+01  0.17237288882E+02 -0.13027426835E+02  0.21799963461E+02  0.00000000000E+00 0.  1.
</event>
<event>
 8    1  0.1280925E-006  0.9118800E+02  0.7816164E-02  0.1184000E+00
        -11   -1    0    0    0    0  0.00000000000E+00  0.00000000000E+00  0.45593999997E+02  0.45594000000E+02  0.51100000000E-03 0.  1.
         11   -1    0    0    0    0 -0.00000000000E+00 -0.00000000000E+00 -0.45593999997E+02  0.45594000000E+02  0.51100000000E-03 0. -1.
         23    2    1    2    0    0  0.00000000000E+00  0.00000000000E+00  0.00000000000E+00  0.91188000000E+02  0.91188000000E+02 0.  0.
    9900012    2    3    3    0    0 -0.14364146515E+02  0.17899946250E+02  0.28793118991E+02  0.54367075486E+02  0.39999980185E+02 0.  0.
         12    1    3    3    0    0  0.14364146515E+02 -0.17899946250E+02 -0.28793118991E+02  0.36820924514E+02  0.00000000000E+00 0. -1.
         11    1    4    4    0    0 -0.18379223129E+02  0.16843251674E+01  0.23039610131E+02  0.29520440874E+02  0.51100000000E-03 0. -1.
        -11    1    4    4    0    0  0.92990675521E+01  0.12093518495E+02  0.86598340130E+01  0.17541909027E+02  0.51100000000E-03 0.  1.
         12    1    4    4    0    0 -0.52839909374E+01  0.41221025878E+01 -0.29063251532E+01  0.73047255846E+01  0.00000000000E+00 0. -1.
</event>
<event>
 8    1  0.1280925E-006  0.9118800E+02  0.7816164E-02  0.1184000E+00
        -11   -1    0    0    0    0  0.00000000000E+00  0.00000000000E+00  0.45593999997E+02  0.45594000000E+02  0.51100000000E-03 0. -1.
         11   -1    0    0    0    0 -0.00000000000E+00 -0.00000000000E+00 -0.45593999997E+02  0.45594000000E+02  0.51100000000E-03 0.  1.
         23    2    1    2    0    0 -0.88817841970E-15  0.00000000000E+00  0.71054273576E-14  0.91188000000E+02  0.91188000000E+02 0.  0.
    9900012    2    3    3    0    0 -0.24073125429E+01  0.16045555355E+02  0.33053356426E+02  0.54367090569E+02  0.40000014569E+02 0.  0.
        -12    1    3    3    0    0  0.24073125429E+01 -0.16045555355E+02 -0.33053356426E+02  0.36820909431E+02  0.00000000000E+00 0.  1.
         11    1    4    4    0    0 -0.59974707808E+01  0.25099267016E+02  0.12183180120E+02  0.28537216728E+02  0.51100000000E-03 0. -1.
        -11    1    4    4    0    0  0.12970098454E+01 -0.52716387032E+01  0.10592547599E+01  0.55312231978E+01  0.51100000000E-03 0.  1.
         12    1    4    4    0    0  0.22931483925E+01 -0.37820729575E+01  0.19810921546E+02  0.20298650643E+02  0.00000000000E+00 0. -1.
</event>
<event>
 8    1  0.1280925E-006  0.9118800E+02  0.7816164E-02  0.1184000E+00
        -11   -1    0    0    0    0  0.00000000000E+00  0.00000000000E+00  0.45593999997E+02  0.45594000000E+02  0.51100000000E-03 0. -1.
         11   -1    0    0    0    0 -0.00000000000E+00 -0.00000000000E+00 -0.45593999997E+02  0.45594000000E+02  0.51100000000E-03 0.  1.
         23    2    1    2    0    0  0.13322676296E-14  0.00000000000E+00  0.71054273576E-14  0.91188000000E+02  0.91188000000E+02 0.  0.
    9900012    2    3    3    0    0  0.34078580730E+01 -0.14271196465E+02 -0.33771283341E+02  0.54367080353E+02  0.39999991280E+02 0.  0.
         12    1    3    3    0    0 -0.34078580730E+01  0.14271196465E+02  0.33771283341E+02  0.36820919647E+02  0.00000000000E+00 0. -1.
         11    1    4    4    0    0  0.12004630236E+02  0.89030687526E-02 -0.35825416298E+01  0.12527802328E+02  0.51100000000E-03 0. -1.
        -11    1    4    4    0    0 -0.14087228993E+02 -0.41833793200E+01 -0.25490516348E+02  0.29423071002E+02  0.51100000000E-03 0.  1.
        -12    1    4    4    0    0  0.54904568302E+01 -0.10096720213E+02 -0.46982253627E+01  0.12416207023E+02  0.00000000000E+00 0.  1.
</event>
<event>
 8    1  0.1280925E-006  0.9118800E+02  0.7816164E-02  0.1184000E+00
        -11   -1    0    0    0    0  0.00000000000E+00  0.00000000000E+00  0.45593999997E+02  0.45594000000E+02  0.51100000000E-03 0. -1.
         11   -1    0    0    0    0 -0.00000000000E+00 -0.00000000000E+00 -0.45593999997E+02  0.45594000000E+02  0.51100000000E-03 0.  1.
         23    2    1    2    0    0 -0.66613381478E-15 -0.35527136788E-14 -0.35527136788E-14  0.91188000000E+02  0.91188000000E+02 0.  0.
    9900012    2    3    3    0    0  0.14709154260E+01  0.26997682767E+02  0.24994830683E+02  0.54367081654E+02  0.39999994247E+02 0.  0.
        -12    1    3    3    0    0 -0.14709154260E+01 -0.26997682767E+02 -0.24994830683E+02  0.36820918346E+02  0.00000000000E+00 0.  1.
         11    1    4    4    0    0  0.77286957231E+01  0.19468700833E+02  0.26587975764E+02  0.33847946839E+02  0.51100000000E-03 0. -1.
        -11    1    4    4    0    0 -0.54822352419E+01  0.12619953900E+02 -0.46580562896E+01  0.14526376986E+02  0.51100000000E-03 0.  1.
         12    1    4    4    0    0 -0.77554505523E+00 -0.50909719655E+01  0.30649112082E+01  0.59927578293E+01  0.00000000000E+00 0. -1.
</event>
<event>
 8    1  0.1280925E-006  0.9118800E+02  0.7816164E-02  0.1184000E+00
        -11   -1    0    0    0    0  0.00000000000E+00  0.00000000000E+00  0.45593999997E+02  0.45594000000E+02  0.51100000000E-03 0.  1.
         11   -1    0    0    0    0 -0.00000000000E+00 -0.00000000000E+00 -0.45593999997E+02  0.45594000000E+02  0.51100000000E-03 0. -1.
         23    2    1    2    0    0  0.00000000000E+00  0.44408920985E-15  0.00000000000E+00  0.91188000000E+02  0.91188000000E+02 0.  0.
    9900012    2    3    3    0    0  0.26990420410E+02 -0.37161855911E+01  0.24768719672E+02  0.54367050752E+02  0.39999923800E+02 0.  0.
         12    1    3    3    0    0 -0.26990420410E+02  0.37161855911E+01 -0.24768719672E+02  0.36820949248E+02  0.00000000000E+00 0. -1.
         11    1    4    4    0    0  0.15445771800E+02  0.89818026548E+01  0.19229203012E+01  0.17970594542E+02  0.51100000000E-03 0. -1.
        -11    1    4    4    0    0 -0.56202324356E+01 -0.23192242379E+01  0.12332026865E+02  0.13749352732E+02  0.51100000000E-03 0.  1.
         12    1    4    4    0    0  0.17164881046E+02 -0.10378764008E+02  0.10513772506E+02  0.22647103479E+02  0.00000000000E+00 0. -1.
</event>
<event>
 8    1  0.1280925E-006  0.9118800E+02  0.7816164E-02  0.1184000E+00
        -11   -1    0    0    0    0  0.00000000000E+00  0.00000000000E+00  0.45593999997E+02  0.45594000000E+02  0.51100000000E-03 0. -1.
         11   -1    0    0    0    0 -0.00000000000E+00 -0.00000000000E+00 -0.45593999997E+02  0.45594000000E+02  0.51100000000E-03 0.  1.
         23    2    1    2    0    0  0.17763568394E-14  0.00000000000E+00  0.00000000000E+00  0.91188000000E+02  0.91188000000E+02 0.  0.
    9900012    2    3    3    0    0 -0.14513942161E+02  0.16073934979E+02  0.29778404008E+02  0.54367092243E+02  0.40000018387E+02 0.  0.
        -12    1    3    3    0    0  0.14513942161E+02 -0.16073934979E+02 -0.29778404008E+02  0.36820907757E+02  0.00000000000E+00 0.  1.
         11    1    4    4    0    0  0.22551883849E+01 -0.43232547138E+00  0.21468179218E+02  0.21590634524E+02  0.51100000000E-03 0. -1.
        -11    1    4    4    0    0  0.50505527095E+01  0.18084469793E+01  0.85503636150E+00  0.54322785817E+01  0.51100000000E-03 0.  1.
         12    1    4    4    0    0 -0.21819683255E+02  0.14697813471E+02  0.74551884287E+01  0.27344179137E+02  0.00000000000E+00 0. -1.
</event>
<event>
 8    1  0.1280925E-006  0.9118800E+02  0.7816164E-02  0.1184000E+00
        -11   -1    0    0    0    0  0.00000000000E+00  0.00000000000E+00  0.45593999997E+02  0.45594000000E+02  0.51100000000E-03 0.  1.
         11   -1    0    0    0    0 -0.00000000000E+00 -0.00000000000E+00 -0.45593999997E+02  0.45594000000E+02  0.51100000000E-03 0. -1.
         23    2    1    2    0    0  0.35527136788E-14  0.00000000000E+00  0.66613381478E-15  0.91188000000E+02  0.91188000000E+02 0.  0.
    9900012    2    3    3    0    0 -0.22075941485E+02 -0.29466710032E+02 -0.37728238934E+00  0.54367129090E+02  0.40000102387E+02 0.  0.
         12    1    3    3    0    0  0.22075941485E+02  0.29466710032E+02  0.37728238934E+00  0.36820870910E+02  0.00000000000E+00 0. -1.
         11    1    4    4    0    0 -0.20402975374E+02 -0.78879426953E+01 -0.45057291560E+01  0.22333889934E+02  0.51100000000E-03 0. -1.
        -11    1    4    4    0    0  0.33369927665E+01  0.40142734363E+01  0.27927806001E+01  0.59202648325E+01  0.51100000000E-03 0.  1.
         12    1    4    4    0    0 -0.50099588774E+01 -0.25593040773E+02  0.13356661665E+01  0.26112974324E+02  0.00000000000E+00 0. -1.
</event>
<event>
 8    1  0.1280925E-006  0.9118800E+02  0.7816164E-02  0.1184000E+00
        -11   -1    0    0    0    0  0.00000000000E+00  0.00000000000E+00  0.45593999997E+02  0.45594000000E+02  0.51100000000E-03 0. -1.
         11   -1    0    0    0    0 -0.00000000000E+00 -0.00000000000E+00 -0.45593999997E+02  0.45594000000E+02  0.51100000000E-03 0.  1.
         23    2    1    2    0    0 -0.71054273576E-14 -0.61062266354E-15  0.00000000000E+00  0.91188000000E+02  0.91188000000E+02 0.  0.
    9900012    2    3    3    0    0 -0.36182294045E+02 -0.89783279777E-01  0.68273961545E+01  0.54367084726E+02  0.40000001249E+02 0.  0.
         12    1    3    3    0    0  0.36182294045E+02  0.89783279777E-01 -0.68273961545E+01  0.36820915274E+02  0.00000000000E+00 0. -1.
         11    1    4    4    0    0  0.15371633980E+01 -0.51870142489E+01 -0.55097710314E+01  0.77217592043E+01  0.51100000000E-03 0. -1.
        -11    1    4    4    0    0 -0.38883722543E+01  0.95817660978E+01  0.59354815676E+01  0.11923070999E+02  0.51100000000E-03 0.  1.
        -12    1    4    4    0    0 -0.33831085189E+02 -0.44845351287E+01  0.64016856182E+01  0.34722254522E+02  0.00000000000E+00 0.  1.
</event>
<event>
 8    1  0.1280925E-006  0.9118800E+02  0.7816164E-02  0.1184000E+00
        -11   -1    0    0    0    0  0.00000000000E+00  0.00000000000E+00  0.45593999997E+02  0.45594000000E+02  0.51100000000E-03 0.  1.
         11   -1    0    0    0    0 -0.00000000000E+00 -0.00000000000E+00 -0.45593999997E+02  0.45594000000E+02  0.51100000000E-03 0. -1.
         23    2    1    2    0    0  0.00000000000E+00  0.35527136788E-14  0.35527136788E-14  0.91188000000E+02  0.91188000000E+02 0.  0.
    9900012    2    3    3    0    0  0.18973553165E+02  0.26133541501E+02  0.17686788669E+02  0.54367079255E+02  0.39999988777E+02 0.  0.
         12    1    3    3    0    0 -0.18973553165E+02 -0.26133541501E+02 -0.17686788669E+02  0.36820920745E+02  0.00000000000E+00 0. -1.
         11    1    4    4    0    0 -0.26907460245E+01 -0.14582326213E+01 -0.21666393047E+01  0.37497843517E+01  0.51100000000E-03 0. -1.
        -11    1    4    4    0    0  0.76625679170E+01  0.29974348454E+02  0.19173990691E+02  0.36398055328E+02  0.51100000000E-03 0.  1.
         12    1    4    4    0    0  0.14001731273E+02 -0.23825743320E+01  0.67943728243E+00  0.14219239576E+02  0.00000000000E+00 0. -1.
</event>
<event>
 8    1  0.1280925E-006  0.9118800E+02  0.7816164E-02  0.1184000E+00
        -11   -1    0    0    0    0  0.00000000000E+00  0.00000000000E+00  0.45593999997E+02  0.45594000000E+02  0.51100000000E-03 0.  1.
         11   -1    0    0    0    0 -0.00000000000E+00 -0.00000000000E+00 -0.45593999997E+02  0.45594000000E+02  0.51100000000E-03 0. -1.
         23    2    1    2    0    0  0.00000000000E+00 -0.35527136788E-14  0.00000000000E+00  0.91188000000E+02  0.91188000000E+02 0.  0.
    9900012    2    3    3    0    0  0.81789451763E+01  0.28165744155E+02 -0.22261505911E+02  0.54367096515E+02  0.40000028125E+02 0.  0.
        -12    1    3    3    0    0 -0.81789451763E+01 -0.28165744155E+02  0.22261505911E+02  0.36820903485E+02  0.00000000000E+00 0.  1.
         11    1    4    4    0    0 -0.45802748916E+01  0.17095563436E+01 -0.11361327035E+02  0.12368559060E+02  0.51100000000E-03 0. -1.
        -11    1    4    4    0    0  0.16241272950E+02  0.17089620179E+02 -0.18065871425E+02  0.29702016354E+02  0.51100000000E-03 0.  1.
         12    1    4    4    0    0 -0.34820528820E+01  0.93665676323E+01  0.71656925482E+01  0.12296521101E+02  0.00000000000E+00 0. -1.
</event>
<event>
 8    1  0.1280925E-006  0.9118800E+02  0.7816164E-02  0.1184000E+00
        -11   -1    0    0    0    0  0.00000000000E+00  0.00000000000E+00  0.45593999997E+02  0.45594000000E+02  0.51100000000E-03 0.  1.
         11   -1    0    0    0    0 -0.00000000000E+00 -0.00000000000E+00 -0.45593999997E+02  0.45594000000E+02  0.51100000000E-03 0. -1.
         23    2    1    2    0    0  0.00000000000E+00  0.00000000000E+00  0.00000000000E+00  0.91188000000E+02  0.91188000000E+02 0.  0.
    9900012    2    3    3    0    0  0.20755116837E+02  0.24904680472E+02 -0.17457428503E+02  0.54367084826E+02  0.40000001478E+02 0.  0.
        -12    1    3    3    0    0 -0.20755116837E+02 -0.24904680472E+02  0.17457428503E+02  0.36820915174E+02  0.00000000000E+00 0.  1.
         11    1    4    4    0    0  0.78911749341E+01  0.15695081559E+01 -0.25470657991E+01  0.84392856414E+01  0.51100000000E-03 0. -1.
        -11    1    4    4    0    0 -0.66308786741E+01 -0.55038557729E+01 -0.25198469091E+01  0.89783411088E+01  0.51100000000E-03 0.  1.
        -12    1    4    4    0    0  0.19494820577E+02  0.28839028089E+02 -0.12390515795E+02  0.36949458076E+02  0.00000000000E+00 0.  1.
</event>
<event>
 8    1  0.1280925E-006  0.9118800E+02  0.7816164E-02  0.1184000E+00
        -11   -1    0    0    0    0  0.00000000000E+00  0.00000000000E+00  0.45593999997E+02  0.45594000000E+02  0.51100000000E-03 0.  1.
         11   -1    0    0    0    0 -0.00000000000E+00 -0.00000000000E+00 -0.45593999997E+02  0.45594000000E+02  0.51100000000E-03 0. -1.
         23    2    1    2    0    0  0.35527136788E-14  0.00000000000E+00  0.00000000000E+00  0.91188000000E+02  0.91188000000E+02 0.  0.
    9900012    2    3    3    0    0  0.28756586373E+02  0.95033104155E+01 -0.20941013039E+02  0.54367079374E+02  0.39999989048E+02 0.  0.
        -12    1    3    3    0    0 -0.28756586373E+02 -0.95033104155E+01  0.20941013039E+02  0.36820920626E+02  0.00000000000E+00 0.  1.
         11    1    4    4    0    0  0.25689528649E+02  0.16351171295E+02 -0.15404556855E+02  0.34126427546E+02  0.51100000000E-03 0. -1.
        -11    1    4    4    0    0 -0.41609123708E+01 -0.29484372486E+01 -0.97551900664E+01  0.11007733984E+02  0.51100000000E-03 0.  1.
        -12    1    4    4    0    0  0.72279700942E+01 -0.38994236307E+01  0.42187338818E+01  0.92329178433E+01  0.00000000000E+00 0.  1.
</event>
<event>
 8    1  0.1280925E-006  0.9118800E+02  0.7816164E-02  0.1184000E+00
        -11   -1    0    0    0    0  0.00000000000E+00  0.00000000000E+00  0.45593999997E+02  0.45594000000E+02  0.51100000000E-03 0.  1.
         11   -1    0    0    0    0 -0.00000000000E+00 -0.00000000000E+00 -0.45593999997E+02  0.45594000000E+02  0.51100000000E-03 0. -1.
         23    2    1    2    0    0 -0.35527136788E-14  0.00000000000E+00  0.00000000000E+00  0.91188000000E+02  0.91188000000E+02 0.  0.
    9900012    2    3    3    0    0  0.13685465304E+02 -0.27567377981E+02 -0.20212059408E+02  0.54367086991E+02  0.40000006413E+02 0.  0.
        -12    1    3    3    0    0 -0.13685465304E+02  0.27567377981E+02  0.20212059408E+02  0.36820913009E+02  0.00000000000E+00 0.  1.
         11    1    4    4    0    0  0.13293510937E+02 -0.92411215006E+01 -0.81013132936E+01  0.18103785155E+02  0.51100000000E-03 0. -1.
        -11    1    4    4    0    0 -0.77871206472E+00 -0.26130777586E+02 -0.78542255867E+01  0.27296754195E+02  0.51100000000E-03 0.  1.
        -12    1    4    4    0    0  0.11706664325E+01  0.78045211059E+01 -0.42565205278E+01  0.89665476407E+01  0.00000000000E+00 0.  1.
</event>
<event>
 8    1  0.1280925E-006  0.9118800E+02  0.7816164E-02  0.1184000E+00
        -11   -1    0    0    0    0  0.00000000000E+00  0.00000000000E+00  0.45593999997E+02  0.45594000000E+02  0.51100000000E-03 0. -1.
         11   -1    0    0    0    0 -0.00000000000E+00 -0.00000000000E+00 -0.45593999997E+02  0.45594000000E+02  0.51100000000E-03 0.  1.
         23    2    1    2    0    0  0.17763568394E-14  0.00000000000E+00  0.00000000000E+00  0.91188000000E+02  0.91188000000E+02 0.  0.
    9900012    2    3    3    0    0  0.84092416728E+01  0.27472324593E+02 -0.23029055903E+02  0.54367063295E+02  0.39999952393E+02 0.  0.
         12    1    3    3    0    0 -0.84092416728E+01 -0.27472324593E+02  0.23029055903E+02  0.36820936705E+02  0.00000000000E+00 0. -1.
         11    1    4    4    0    0  0.42033251696E+00  0.25264890729E+02 -0.44459267052E+01  0.25656532258E+02  0.51100000000E-03 0. -1.
        -11    1    4    4    0    0 -0.24781226239E+01  0.64286351461E+01  0.91541538945E-01  0.68903426398E+01  0.51100000000E-03 0.  1.
        -12    1    4    4    0    0  0.10467031780E+02 -0.42212012823E+01 -0.18674670737E+02  0.21820188397E+02  0.00000000000E+00 0.  1.
</event>
<event>
 8    1  0.1280925E-006  0.9118800E+02  0.7816164E-02  0.1184000E+00
        -11   -1    0    0    0    0  0.00000000000E+00  0.00000000000E+00  0.45593999997E+02  0.45594000000E+02  0.51100000000E-03 0. -1.
         11   -1    0    0    0    0 -0.00000000000E+00 -0.00000000000E+00 -0.45593999997E+02  0.45594000000E+02  0.51100000000E-03 0.  1.
         23    2    1    2    0    0 -0.44408920985E-15  0.00000000000E+00  0.00000000000E+00  0.91188000000E+02  0.91188000000E+02 0.  0.
    9900012    2    3    3    0    0 -0.23289312641E+01  0.22322747343E+02 -0.29189970269E+02  0.54367036758E+02  0.39999891896E+02 0.  0.
         12    1    3    3    0    0  0.23289312641E+01 -0.22322747343E+02  0.29189970269E+02  0.36820963242E+02  0.00000000000E+00 0. -1.
         11    1    4    4    0    0  0.65417609430E+01  0.39930729981E+01 -0.21488952498E+02  0.22814783538E+02  0.51100000000E-03 0. -1.
        -11    1    4    4    0    0  0.39973352641E+01 -0.21807086982E+01  0.25952464914E+01  0.52411338709E+01  0.51100000000E-03 0.  1.
        -12    1    4    4    0    0 -0.12868027471E+02  0.20510383043E+02 -0.10296264263E+02  0.26311119348E+02  0.00000000000E+00 0.  1.
</event>
<event>
 8    1  0.1280925E-006  0.9118800E+02  0.7816164E-02  0.1184000E+00
        -11   -1    0    0    0    0  0.00000000000E+00  0.00000000000E+00  0.45593999997E+02  0.45594000000E+02  0.51100000000E-03 0.  1.
         11   -1    0    0    0    0 -0.00000000000E+00 -0.00000000000E+00 -0.45593999997E+02  0.45594000000E+02  0.51100000000E-03 0. -1.
         23    2    1    2    0    0  0.00000000000E+00 -0.35527136788E-14  0.00000000000E+00  0.91188000000E+02  0.91188000000E+02 0.  0.
    9900012    2    3    3    0    0  0.24392289067E+02 -0.21427120823E+02  0.17368789607E+02  0.54367080334E+02  0.39999991237E+02 0.  0.
         12    1    3    3    0    0 -0.24392289067E+02  0.21427120823E+02 -0.17368789607E+02  0.36820919666E+02  0.00000000000E+00 0. -1.
         11    1    4    4    0    0  0.79702809006E+01 -0.11377777855E+02  0.19453494117E+02  0.23904343542E+02  0.51100000000E-03 0. -1.
        -11    1    4    4    0    0  0.12109614801E+02 -0.85852139875E+01  0.97649722546E+01  0.17768043033E+02  0.51100000000E-03 0.  1.
         12    1    4    4    0    0  0.43123933654E+01 -0.14641289803E+01 -0.11849676764E+02  0.12694693759E+02  0.00000000000E+00 0. -1.
</event>
<event>
 8    1  0.1280925E-006  0.9118800E+02  0.7816164E-02  0.1184000E+00
        -11   -1    0    0    0    0  0.00000000000E+00  0.00000000000E+00  0.45593999997E+02  0.45594000000E+02  0.51100000000E-03 0.  1.
         11   -1    0    0    0    0 -0.00000000000E+00 -0.00000000000E+00 -0.45593999997E+02  0.45594000000E+02  0.51100000000E-03 0. -1.
         23    2    1    2    0    0 -0.88817841970E-15  0.00000000000E+00  0.00000000000E+00  0.91188000000E+02  0.91188000000E+02 0.  0.
    9900012    2    3    3    0    0 -0.74959330760E+01 -0.76743850712E+01  0.35223507085E+02  0.54367073202E+02  0.39999974978E+02 0.  0.
         12    1    3    3    0    0  0.74959330760E+01  0.76743850712E+01 -0.35223507085E+02  0.36820926798E+02  0.00000000000E+00 0. -1.
         11    1    4    4    0    0 -0.44827680821E+01  0.79250016241E+01  0.12310713303E+02  0.15311907873E+02  0.51100000000E-03 0. -1.
        -11    1    4    4    0    0  0.28161158361E+01  0.73906091394E+01  0.55827420011E+01  0.96808377926E+01  0.51100000000E-03 0.  1.
         12    1    4    4    0    0 -0.58292808300E+01 -0.22989995835E+02  0.17330051781E+02  0.29374327536E+02  0.00000000000E+00 0. -1.
</event>
<event>
 8    1  0.1280925E-006  0.9118800E+02  0.7816164E-02  0.1184000E+00
        -11   -1    0    0    0    0  0.00000000000E+00  0.00000000000E+00  0.45593999997E+02  0.45594000000E+02  0.51100000000E-03 0. -1.
         11   -1    0    0    0    0 -0.00000000000E+00 -0.00000000000E+00 -0.45593999997E+02  0.45594000000E+02  0.51100000000E-03 0.  1.
         23    2    1    2    0    0  0.00000000000E+00  0.33306690739E-15  0.00000000000E+00  0.91188000000E+02  0.91188000000E+02 0.  0.
    9900012    2    3    3    0    0 -0.36418791175E+02 -0.68222836283E-01  0.54265624311E+01  0.54367074090E+02  0.39999977004E+02 0.  0.
        -12    1    3    3    0    0  0.36418791175E+02  0.68222836283E-01 -0.54265624311E+01  0.36820925910E+02  0.00000000000E+00 0.  1.
         11    1    4    4    0    0 -0.12205903875E+02 -0.36967554250E+01  0.61028575818E+01  0.14138421447E+02  0.51100000000E-03 0. -1.
        -11    1    4    4    0    0 -0.72798677316E+01  0.83827369238E+00 -0.15760192836E+02  0.17380530931E+02  0.51100000000E-03 0.  1.
        -12    1    4    4    0    0 -0.16933019568E+02  0.27902588964E+01  0.15083897685E+02  0.22848121712E+02  0.00000000000E+00 0.  1.
</event>
<event>
 8    1  0.1280925E-006  0.9118800E+02  0.7816164E-02  0.1184000E+00
        -11   -1    0    0    0    0  0.00000000000E+00  0.00000000000E+00  0.45593999997E+02  0.45594000000E+02  0.51100000000E-03 0. -1.
         11   -1    0    0    0    0 -0.00000000000E+00 -0.00000000000E+00 -0.45593999997E+02  0.45594000000E+02  0.51100000000E-03 0.  1.
         23    2    1    2    0    0  0.00000000000E+00  0.72164496601E-15  0.00000000000E+00  0.91188000000E+02  0.91188000000E+02 0.  0.
    9900012    2    3    3    0    0 -0.12045809398E+02 -0.34089862746E+00 -0.34793208634E+02  0.54367012738E+02  0.39999837138E+02 0.  0.
         12    1    3    3    0    0  0.12045809398E+02  0.34089862746E+00  0.34793208634E+02  0.36820987262E+02  0.00000000000E+00 0. -1.
         11    1    4    4    0    0 -0.10220503191E+02  0.10015366924E+02 -0.96166315850E+01  0.17240819685E+02  0.51100000000E-03 0. -1.
        -11    1    4    4    0    0 -0.11532004267E+02  0.18550503907E+01 -0.11163572401E+02  0.16157155794E+02  0.51100000000E-03 0.  1.
         12    1    4    4    0    0  0.97066980596E+01 -0.12211315942E+02 -0.14013004648E+02  0.20969037258E+02  0.00000000000E+00 0. -1.
</event>
<event>
 8    1  0.1280925E-006  0.9118800E+02  0.7816164E-02  0.1184000E+00
        -11   -1    0    0    0    0  0.00000000000E+00  0.00000000000E+00  0.45593999997E+02  0.45594000000E+02  0.51100000000E-03 0.  1.
         11   -1    0    0    0    0 -0.00000000000E+00 -0.00000000000E+00 -0.45593999997E+02  0.45594000000E+02  0.51100000000E-03 0. -1.
         23    2    1    2    0    0  0.71054273576E-14  0.00000000000E+00 -0.88817841970E-15  0.91188000000E+02  0.91188000000E+02 0.  0.
    9900012    2    3    3    0    0 -0.35122245727E+02  0.10723125119E+02  0.26873661069E+01  0.54367088905E+02  0.40000010777E+02 0.  0.
        -12    1    3    3    0    0  0.35122245727E+02 -0.10723125119E+02 -0.26873661069E+01  0.36820911095E+02  0.00000000000E+00 0.  1.
         11    1    4    4    0    0 -0.15794153168E+02  0.10693460021E+02  0.64586102485E+01  0.20137502529E+02  0.51100000000E-03 0. -1.
        -11    1    4    4    0    0 -0.34911472707E+01 -0.12829300112E+02 -0.38047878083E+01  0.13829514133E+02  0.51100000000E-03 0.  1.
        -12    1    4    4    0    0 -0.15836945289E+02  0.12858965210E+02  0.33543666694E-01  0.20400072243E+02  0.00000000000E+00 0.  1.
</event>
<event>
 8    1  0.1280925E-006  0.9118800E+02  0.7816164E-02  0.1184000E+00
        -11   -1    0    0    0    0  0.00000000000E+00  0.00000000000E+00  0.45593999997E+02  0.45594000000E+02  0.51100000000E-03 0. -1.
         11   -1    0    0    0    0 -0.00000000000E+00 -0.00000000000E+00 -0.45593999997E+02  0.45594000000E+02  0.51100000000E-03 0.  1.
         23    2    1    2    0    0  0.17763568394E-14 -0.35527136788E-14  0.17763568394E-14  0.91188000000E+02  0.91188000000E+02 0.  0.
    9900012    2    3    3    0    0 -0.14009766305E+02  0.30918056477E+02  0.14268033932E+02  0.54367128738E+02  0.40000101583E+02 0.  0.
        -12    1    3    3    0    0  0.14009766305E+02 -0.30918056477E+02 -0.14268033932E+02  0.36820871262E+02  0.00000000000E+00 0.  1.
         11    1    4    4    0    0 -0.41387990795E+01  0.73866780218E+01 -0.52862956550E+01  0.99818631544E+01  0.51100000000E-03 0. -1.
        -11    1    4    4    0    0  0.10178259870E+02  0.86249630008E+01  0.12212230700E+01  0.13396952893E+02  0.51100000000E-03 0.  1.
        -12    1    4    4    0    0 -0.20049227096E+02  0.14906415454E+02  0.18333106517E+02  0.30988312691E+02  0.00000000000E+00 0.  1.
</event>
<event>
 8    1  0.1280925E-006  0.9118800E+02  0.7816164E-02  0.1184000E+00
        -11   -1    0    0    0    0  0.00000000000E+00  0.00000000000E+00  0.45593999997E+02  0.45594000000E+02  0.51100000000E-03 0.  1.
         11   -1    0    0    0    0 -0.00000000000E+00 -0.00000000000E+00 -0.45593999997E+02  0.45594000000E+02  0.51100000000E-03 0. -1.
         23    2    1    2    0    0  0.00000000000E+00  0.00000000000E+00 -0.71054273576E-14  0.91188000000E+02  0.91188000000E+02 0.  0.
    9900012    2    3    3    0    0  0.11732543960E+02 -0.24258851913E+02 -0.25092574317E+02  0.54367058000E+02  0.39999940323E+02 0.  0.
        -12    1    3    3    0    0 -0.11732543960E+02  0.24258851913E+02  0.25092574317E+02  0.36820942000E+02  0.00000000000E+00 0.  1.
         11    1    4    4    0    0  0.38597842024E+01 -0.24744681782E+02 -0.27926052719E+02  0.37510820189E+02  0.51100000000E-03 0. -1.
        -11    1    4    4    0    0  0.92732719358E+01 -0.36422017232E+01  0.58516051660E+01  0.11554241172E+02  0.51100000000E-03 0.  1.
        -12    1    4    4    0    0 -0.14005121779E+01  0.41280315924E+01 -0.30181267646E+01  0.53019966386E+01  0.00000000000E+00 0.  1.
</event>
<event>
 8    1  0.1280925E-006  0.9118800E+02  0.7816164E-02  0.1184000E+00
        -11   -1    0    0    0    0  0.00000000000E+00  0.00000000000E+00  0.45593999997E+02  0.45594000000E+02  0.51100000000E-03 0. -1.
         11   -1    0    0    0    0 -0.00000000000E+00 -0.00000000000E+00 -0.45593999997E+02  0.45594000000E+02  0.51100000000E-03 0.  1.
         23    2    1    2    0    0  0.00000000000E+00  0.00000000000E+00  0.00000000000E+00  0.91188000000E+02  0.91188000000E+02 0.  0.
    9900012    2    3    3    0    0 -0.24120003783E+02 -0.26615991948E+02 -0.80990813788E+01  0.54367072132E+02  0.39999972539E+02 0.  0.
         12    1    3    3    0    0  0.24120003783E+02  0.26615991948E+02  0.80990813788E+01  0.36820927868E+02  0.00000000000E+00 0. -1.
         11    1    4    4    0    0 -0.46512896848E+01 -0.46417585624E+01  0.15081166263E+02  0.16450592524E+02  0.51100000000E-03 0. -1.
        -11    1    4    4    0    0 -0.45383789544E+01 -0.57979420606E+01 -0.94205394426E+01  0.11956570550E+02  0.51100000000E-03 0.  1.
         12    1    4    4    0    0 -0.14930335144E+02 -0.16176291325E+02 -0.13759708199E+02  0.25959909058E+02  0.00000000000E+00 0. -1.
</event>
<event>
 8    1  0.1280925E-006  0.9118800E+02  0.7816164E-02  0.1184000E+00
        -11   -1    0    0    0    0  0.00000000000E+00  0.00000000000E+00  0.45593999997E+02  0.45594000000E+02  0.51100000000E-03 0.  1.
         11   -1    0    0    0    0 -0.00000000000E+00 -0.00000000000E+00 -0.45593999997E+02  0.45594000000E+02  0.51100000000E-03 0. -1.
         23    2    1    2    0    0  0.35527136788E-14  0.00000000000E+00  0.00000000000E+00  0.91188000000E+02  0.91188000000E+02 0.  0.
    9900012    2    3    3    0    0 -0.29439239192E+02 -0.20204628039E+02  0.89933761609E+01  0.54367128023E+02  0.40000099953E+02 0.  0.
        -12    1    3    3    0    0  0.29439239192E+02  0.20204628039E+02 -0.89933761609E+01  0.36820871977E+02  0.00000000000E+00 0.  1.
         11    1    4    4    0    0 -0.54413274311E+01  0.38095091859E+01 -0.34139154013E+00  0.66510865950E+01  0.51100000000E-03 0. -1.
        -11    1    4    4    0    0 -0.88920550218E+01 -0.25447504448E+02 -0.43232051882E+01  0.27300810034E+02  0.51100000000E-03 0.  1.
        -12    1    4    4    0    0 -0.15105856739E+02  0.14333672235E+01  0.13657972889E+02  0.20415231394E+02  0.00000000000E+00 0.  1.
</event>
<event>
 8    1  0.1280925E-006  0.9118800E+02  0.7816164E-02  0.1184000E+00
        -11   -1    0    0    0    0  0.00000000000E+00  0.00000000000E+00  0.45593999997E+02  0.45594000000E+02  0.51100000000E-03 0. -1.
         11   -1    0    0    0    0 -0.00000000000E+00 -0.00000000000E+00 -0.45593999997E+02  0.45594000000E+02  0.51100000000E-03 0.  1.
         23    2    1    2    0    0 -0.44408920985E-15 -0.17763568394E-14  0.00000000000E+00  0.91188000000E+02  0.91188000000E+02 0.  0.
    9900012    2    3    3    0    0  0.21051928623E+01  0.14203607312E+02  0.33905783984E+02  0.54367129760E+02  0.40000103914E+02 0.  0.
        -12    1    3    3    0    0 -0.21051928623E+01 -0.14203607312E+02 -0.33905783984E+02  0.36820870240E+02  0.00000000000E+00 0.  1.
         11    1    4    4    0    0 -0.27260459358E+01  0.13783127907E+02  0.20975582820E+02  0.25246406007E+02  0.51100000000E-03 0. -1.
        -11    1    4    4    0    0 -0.25649473090E+01 -0.35841996988E+01  0.18509938320E+02  0.19027434379E+02  0.51100000000E-03 0.  1.
        -12    1    4    4    0    0  0.73961861070E+01  0.40046791034E+01 -0.55797371564E+01  0.10093289374E+02  0.00000000000E+00 0.  1.
</event>
<event>
 8    1  0.1280925E-006  0.9118800E+02  0.7816164E-02  0.1184000E+00
        -11   -1    0    0    0    0  0.00000000000E+00  0.00000000000E+00  0.45593999997E+02  0.45594000000E+02  0.51100000000E-03 0.  1.
         11   -1    0    0    0    0 -0.00000000000E+00 -0.00000000000E+00 -0.45593999997E+02  0.45594000000E+02  0.51100000000E-03 0. -1.
         23    2    1    2    0    0  0.17763568394E-14  0.00000000000E+00  0.00000000000E+00  0.91188000000E+02  0.91188000000E+02 0.  0.
    9900012    2    3    3    0    0 -0.12259932915E+02  0.69265465634E+01  0.34022064611E+02  0.54367029307E+02  0.39999874911E+02 0.  0.
         12    1    3    3    0    0  0.12259932915E+02 -0.69265465634E+01 -0.34022064611E+02  0.36820970693E+02  0.00000000000E+00 0. -1.
         11    1    4    4    0    0 -0.16501621999E+02  0.11999668429E+01  0.15229454433E+02  0.22487323799E+02  0.51100000000E-03 0. -1.
        -11    1    4    4    0    0 -0.69235473415E+01  0.26453785981E+01 -0.23474278389E+01  0.77745709487E+01  0.51100000000E-03 0.  1.
        -12    1    4    4    0    0  0.11165236425E+02  0.30812011225E+01  0.21140038016E+02  0.24105134559E+02  0.00000000000E+00 0.  1.
</event>
<event>
 8    1  0.1280925E-006  0.9118800E+02  0.7816164E-02  0.1184000E+00
        -11   -1    0    0    0    0  0.00000000000E+00  0.00000000000E+00  0.45593999997E+02  0.45594000000E+02  0.51100000000E-03 0.  1.
         11   -1    0    0    0    0 -0.00000000000E+00 -0.00000000000E+00 -0.45593999997E+02  0.45594000000E+02  0.51100000000E-03 0. -1.
         23    2    1    2    0    0  0.00000000000E+00 -0.17763568394E-14  0.35527136788E-14  0.91188000000E+02  0.91188000000E+02 0.  0.
    9900012    2    3    3    0    0  0.28901529317E+02  0.65560406069E+01  0.21851762870E+02  0.54367087385E+02  0.40000007311E+02 0.  0.
         12    1    3    3    0    0 -0.28901529317E+02 -0.65560406069E+01 -0.21851762870E+02  0.36820912615E+02  0.00000000000E+00 0. -1.
         11    1    4    4    0    0  0.19650166754E+02 -0.13404275133E+01  0.20420902864E+02  0.28371448208E+02  0.51100000000E-03 0. -1.
        -11    1    4    4    0    0  0.85122061650E+01 -0.65849853324E+01  0.35694876602E+01  0.11338471151E+02  0.51100000000E-03 0.  1.
         12    1    4    4    0    0  0.73915639763E+00  0.14481453453E+02 -0.21386276549E+01  0.14657168025E+02  0.00000000000E+00 0. -1.
</event>
<event>
 8    1  0.1280925E-006  0.9118800E+02  0.7816164E-02  0.1184000E+00
        -11   -1    0    0    0    0  0.00000000000E+00  0.00000000000E+00  0.45593999997E+02  0.45594000000E+02  0.51100000000E-03 0. -1.
         11   -1    0    0    0    0 -0.00000000000E+00 -0.00000000000E+00 -0.45593999997E+02  0.45594000000E+02  0.51100000000E-03 0.  1.
         23    2    1    2    0    0 -0.35527136788E-14  0.00000000000E+00  0.88817841970E-15  0.91188000000E+02  0.91188000000E+02 0.  0.
    9900012    2    3    3    0    0 -0.18093755866E+02  0.31162640185E+02 -0.75686934923E+01  0.54367092001E+02  0.40000017836E+02 0.  0.
         12    1    3    3    0    0  0.18093755866E+02 -0.31162640185E+02  0.75686934923E+01  0.36820907999E+02  0.00000000000E+00 0. -1.
         11    1    4    4    0    0  0.51980893905E+01 -0.35327910536E+01  0.56460274591E+01  0.84485722031E+01  0.51100000000E-03 0. -1.
        -11    1    4    4    0    0 -0.64434009919E+01  0.56565541300E+01 -0.83986468854E+01  0.12002136924E+02  0.51100000000E-03 0.  1.
        -12    1    4    4    0    0 -0.16848444265E+02  0.29038877109E+02 -0.48160740659E+01  0.33916382875E+02  0.00000000000E+00 0.  1.
</event>
<event>
 8    1  0.1280925E-006  0.9118800E+02  0.7816164E-02  0.1184000E+00
        -11   -1    0    0    0    0  0.00000000000E+00  0.00000000000E+00  0.45593999997E+02  0.45594000000E+02  0.51100000000E-03 0.  1.
         11   -1    0    0    0    0 -0.00000000000E+00 -0.00000000000E+00 -0.45593999997E+02  0.45594000000E+02  0.51100000000E-03 0. -1.
         23    2    1    2    0    0  0.35527136788E-14 -0.17763568394E-14  0.00000000000E+00  0.91188000000E+02  0.91188000000E+02 0.  0.
    9900012    2    3    3    0    0 -0.31611288704E+02  0.45846845842E+01 -0.18316318609E+02  0.54367076143E+02  0.39999981684E+02 0.  0.
        -12    1    3    3    0    0  0.31611288704E+02 -0.45846845842E+01  0.18316318609E+02  0.36820923857E+02  0.00000000000E+00 0.  1.
         11    1    4    4    0    0 -0.20127646201E+02 -0.77301472123E+01  0.49251508224E+01  0.22116383710E+02  0.51100000000E-03 0. -1.
        -11    1    4    4    0    0  0.48895262014E+00 -0.26336530998E+01 -0.90454946131E+00  0.28272625106E+01  0.51100000000E-03 0.  1.
        -12    1    4    4    0    0 -0.11972595123E+02  0.14948484896E+02 -0.22336919970E+02  0.29423429923E+02  0.00000000000E+00 0.  1.
</event>
<event>
 8    1  0.1280925E-006  0.9118800E+02  0.7816164E-02  0.1184000E+00
        -11   -1    0    0    0    0  0.00000000000E+00  0.00000000000E+00  0.45593999997E+02  0.45594000000E+02  0.51100000000E-03 0.  1.
         11   -1    0    0    0    0 -0.00000000000E+00 -0.00000000000E+00 -0.45593999997E+02  0.45594000000E+02  0.51100000000E-03 0. -1.
         23    2    1    2    0    0  0.35527136788E-14  0.00000000000E+00  0.35527136788E-14  0.91188000000E+02  0.91188000000E+02 0.  0.
    9900012    2    3    3    0    0 -0.25798214648E+02 -0.10302954507E+02 -0.24167770348E+02  0.54367083740E+02  0.39999999002E+02 0.  0.
        -12    1    3    3    0    0  0.25798214648E+02  0.10302954507E+02  0.24167770348E+02  0.36820916260E+02  0.00000000000E+00 0.  1.
         11    1    4    4    0    0 -0.22266547669E+02 -0.22737209885E+01 -0.15847880315E+02  0.27424884010E+02  0.51100000000E-03 0. -1.
        -11    1    4    4    0    0 -0.20249153841E+01 -0.88958968450E+01  0.70153285799E+01  0.11508783530E+02  0.51100000000E-03 0.  1.
         12    1    4    4    0    0 -0.15067515955E+01  0.86666332654E+00 -0.15335218613E+02  0.15433416200E+02  0.00000000000E+00 0. -1.
</event>
<event>
 8    1  0.1280925E-006  0.9118800E+02  0.7816164E-02  0.1184000E+00
        -11   -1    0    0    0    0  0.00000000000E+00  0.00000000000E+00  0.45593999997E+02  0.45594000000E+02  0.51100000000E-03 0. -1.
         11   -1    0    0    0    0 -0.00000000000E+00 -0.00000000000E+00 -0.45593999997E+02  0.45594000000E+02  0.51100000000E-03 0.  1.
         23    2    1    2    0    0  0.21649348980E-14  0.00000000000E+00  0.71054273576E-14  0.91188000000E+02  0.91188000000E+02 0.  0.
    9900012    2    3    3    0    0 -0.81795371462E-01  0.10251971608E+02 -0.35364805154E+02  0.54367094852E+02  0.40000024334E+02 0.  0.
         12    1    3    3    0    0  0.81795371462E-01 -0.10251971608E+02  0.35364805154E+02  0.36820905148E+02  0.00000000000E+00 0. -1.
         11    1    4    4    0    0 -0.12839999018E+01 -0.23867117898E+01  0.18620767497E+01  0.32882182103E+01  0.51100000000E-03 0. -1.
        -11    1    4    4    0    0  0.13200012369E+02  0.19620193973E+01 -0.31183467313E+02  0.33918998815E+02  0.51100000000E-03 0.  1.
        -12    1    4    4    0    0 -0.11997807838E+02  0.10676664001E+02 -0.60434145905E+01  0.17159877827E+02  0.00000000000E+00 0.  1.
</event>
<event>
 8    1  0.1280925E-006  0.9118800E+02  0.7816164E-02  0.1184000E+00
        -11   -1    0    0    0    0  0.00000000000E+00  0.00000000000E+00  0.45593999997E+02  0.45594000000E+02  0.51100000000E-03 0.  1.
         11   -1    0    0    0    0 -0.00000000000E+00 -0.00000000000E+00 -0.45593999997E+02  0.45594000000E+02  0.51100000000E-03 0. -1.
         23    2    1    2    0    0  0.00000000000E+00  0.00000000000E+00  0.00000000000E+00  0.91188000000E+02  0.91188000000E+02 0.  0.
    9900012    2    3    3    0    0 -0.23810536007E+02  0.81220210587E+01  0.26886251978E+02  0.54367090228E+02  0.40000013793E+02 0.  0.
         12    1    3    3    0    0  0.23810536007E+02 -0.81220210587E+01 -0.26886251978E+02  0.36820909772E+02  0.00000000000E+00 0. -1.
         11    1    4    4    0    0 -0.12560778469E+02 -0.98967830426E+01  0.25630328494E+02  0.30209819749E+02  0.51100000000E-03 0. -1.
        -11    1    4    4    0    0 -0.17341538513E+01  0.11551022486E+02  0.39685134393E+01  0.12336227512E+02  0.51100000000E-03 0.  1.
         12    1    4    4    0    0 -0.95156036870E+01  0.64677816152E+01 -0.27125899551E+01  0.11821042966E+02  0.00000000000E+00 0. -1.
</event>
<event>
 8    1  0.1280925E-006  0.9118800E+02  0.7816164E-02  0.1184000E+00
        -11   -1    0    0    0    0  0.00000000000E+00  0.00000000000E+00  0.45593999997E+02  0.45594000000E+02  0.51100000000E-03 0. -1.
         11   -1    0    0    0    0 -0.00000000000E+00 -0.00000000000E+00 -0.45593999997E+02  0.45594000000E+02  0.51100000000E-03 0.  1.
         23    2    1    2    0    0 -0.44408920985E-15  0.00000000000E+00  0.35527136788E-14  0.91188000000E+02  0.91188000000E+02 0.  0.
    9900012    2    3    3    0    0 -0.33863409310E+01  0.25480944778E+02 -0.26363498103E+02  0.54367083609E+02  0.39999998703E+02 0.  0.
         12    1    3    3    0    0  0.33863409310E+01 -0.25480944778E+02  0.26363498103E+02  0.36820916391E+02  0.00000000000E+00 0. -1.
         11    1    4    4    0    0  0.23761312375E+01 -0.26926115712E+01  0.46174530377E+00  0.36206858077E+01  0.51100000000E-03 0. -1.
        -11    1    4    4    0    0 -0.58804286591E+01  0.19582537795E+02  0.21170795384E+01  0.20555710976E+02  0.51100000000E-03 0.  1.
        -12    1    4    4    0    0  0.11795649056E+00  0.85910185546E+01 -0.28942322945E+02  0.30190686825E+02  0.00000000000E+00 0.  1.
</event>
<event>
 8    1  0.1280925E-006  0.9118800E+02  0.7816164E-02  0.1184000E+00
        -11   -1    0    0    0    0  0.00000000000E+00  0.00000000000E+00  0.45593999997E+02  0.45594000000E+02  0.51100000000E-03 0. -1.
         11   -1    0    0    0    0 -0.00000000000E+00 -0.00000000000E+00 -0.45593999997E+02  0.45594000000E+02  0.51100000000E-03 0.  1.
         23    2    1    2    0    0  0.17763568394E-14  0.71054273576E-14  0.35527136788E-14  0.91188000000E+02  0.91188000000E+02 0.  0.
    9900012    2    3    3    0    0  0.10763784832E+02  0.23168274211E+02  0.26517014051E+02  0.54367081652E+02  0.39999994241E+02 0.  0.
        -12    1    3    3    0    0 -0.10763784832E+02 -0.23168274211E+02 -0.26517014051E+02  0.36820918348E+02  0.00000000000E+00 0.  1.
         11    1    4    4    0    0 -0.11686562733E+01 -0.70008578342E+01  0.10848780521E+02  0.12964328249E+02  0.51100000000E-03 0. -1.
        -11    1    4    4    0    0 -0.24311013669E+01 -0.10874478963E+01  0.45131007608E+01  0.52403125404E+01  0.51100000000E-03 0.  1.
         12    1    4    4    0    0  0.14363542472E+02  0.31256579941E+02  0.11155132769E+02  0.36162440862E+02  0.00000000000E+00 0. -1.
</event>
<event>
 8    1  0.1280925E-006  0.9118800E+02  0.7816164E-02  0.1184000E+00
        -11   -1    0    0    0    0  0.00000000000E+00  0.00000000000E+00  0.45593999997E+02  0.45594000000E+02  0.51100000000E-03 0. -1.
         11   -1    0    0    0    0 -0.00000000000E+00 -0.00000000000E+00 -0.45593999997E+02  0.45594000000E+02  0.51100000000E-03 0.  1.
         23    2    1    2    0    0  0.00000000000E+00 -0.71054273576E-14 -0.35527136788E-14  0.91188000000E+02  0.91188000000E+02 0.  0.
    9900012    2    3    3    0    0 -0.11365910898E+02 -0.28543374030E+02 -0.20294652051E+02  0.54367067999E+02  0.39999963116E+02 0.  0.
         12    1    3    3    0    0  0.11365910898E+02  0.28543374030E+02  0.20294652051E+02  0.36820932001E+02  0.00000000000E+00 0. -1.
         11    1    4    4    0    0 -0.16839885512E+02 -0.11689054899E+02 -0.12750914741E+02  0.24141283634E+02  0.51100000000E-03 0. -1.
        -11    1    4    4    0    0 -0.16039233196E+01  0.41964623394E+01 -0.66165637208E+01  0.79976110129E+01  0.51100000000E-03 0.  1.
         12    1    4    4    0    0  0.70778979340E+01 -0.21050781470E+02 -0.92717358942E+00  0.22228173351E+02  0.00000000000E+00 0. -1.
</event>
<event>
 8    1  0.1280925E-006  0.9118800E+02  0.7816164E-02  0.1184000E+00
        -11   -1    0    0    0    0  0.00000000000E+00  0.00000000000E+00  0.45593999997E+02  0.45594000000E+02  0.51100000000E-03 0.  1.
         11   -1    0    0    0    0 -0.00000000000E+00 -0.00000000000E+00 -0.45593999997E+02  0.45594000000E+02  0.51100000000E-03 0. -1.
         23    2    1    2    0    0 -0.17763568394E-14 -0.35527136788E-14  0.00000000000E+00  0.91188000000E+02  0.91188000000E+02 0.  0.
    9900012    2    3    3    0    0 -0.14134139386E+02 -0.28632447264E+02 -0.18335390105E+02  0.54367116485E+02  0.40000073651E+02 0.  0.
         12    1    3    3    0    0  0.14134139386E+02  0.28632447264E+02  0.18335390105E+02  0.36820883515E+02  0.00000000000E+00 0. -1.
         11    1    4    4    0    0 -0.15348981694E+02 -0.91735117563E+01 -0.17551268475E+02  0.25055769442E+02  0.51100000000E-03 0. -1.
        -11    1    4    4    0    0  0.84554920428E+01 -0.19229426493E+02  0.28634204387E+01  0.21200598242E+02  0.51100000000E-03 0.  1.
        -12    1    4    4    0    0 -0.72406497350E+01 -0.22950901477E+00 -0.36475420689E+01  0.81107488013E+01  0.00000000000E+00 0.  1.
</event>
<event>
 8    1  0.1280925E-006  0.9118800E+02  0.7816164E-02  0.1184000E+00
        -11   -1    0    0    0    0  0.00000000000E+00  0.00000000000E+00  0.45593999997E+02  0.45594000000E+02  0.51100000000E-03 0.  1.
         11   -1    0    0    0    0 -0.00000000000E+00 -0.00000000000E+00 -0.45593999997E+02  0.45594000000E+02  0.51100000000E-03 0. -1.
         23    2    1    2    0    0  0.00000000000E+00  0.00000000000E+00  0.00000000000E+00  0.91188000000E+02  0.91188000000E+02 0.  0.
    9900012    2    3    3    0    0 -0.49554228319E+01  0.26104880024E+02  0.25490340632E+02  0.54367103188E+02  0.40000043337E+02 0.  0.
         12    1    3    3    0    0  0.49554228319E+01 -0.26104880024E+02 -0.25490340632E+02  0.36820896812E+02  0.00000000000E+00 0. -1.
         11    1    4    4    0    0 -0.15394079428E+02  0.11917826728E+02  0.20507801031E+02  0.28276884177E+02  0.51100000000E-03 0. -1.
        -11    1    4    4    0    0  0.40804688186E+00  0.70792350256E+01  0.10455557985E+02  0.12633319589E+02  0.51100000000E-03 0.  1.
         12    1    4    4    0    0  0.10030609715E+02  0.71078182706E+01 -0.54730183841E+01  0.13456899422E+02  0.00000000000E+00 0. -1.
</event>
<event>
 8    1  0.1280925E-006  0.9118800E+02  0.7816164E-02  0.1184000E+00
        -11   -1    0    0    0    0  0.00000000000E+00  0.00000000000E+00  0.45593999997E+02  0.45594000000E+02  0.51100000000E-03 0. -1.
         11   -1    0    0    0    0 -0.00000000000E+00 -0.00000000000E+00 -0.45593999997E+02  0.45594000000E+02  0.51100000000E-03 0.  1.
         23    2    1    2    0    0 -0.17763568394E-14  0.00000000000E+00  0.88817841970E-15  0.91188000000E+02  0.91188000000E+02 0.  0.
    9900012    2    3    3    0    0  0.25247013753E+01  0.35879580743E+02  0.78780340602E+01  0.54367056883E+02  0.39999937777E+02 0.  0.
         12    1    3    3    0    0 -0.25247013753E+01 -0.35879580743E+02 -0.78780340602E+01  0.36820943117E+02  0.00000000000E+00 0. -1.
         11    1    4    4    0    0  0.97855324376E+01  0.57103902547E+01  0.16583566449E+02  0.20084319216E+02  0.51100000000E-03 0. -1.
        -11    1    4    4    0    0 -0.57763277429E+01  0.17904270129E+02 -0.10888694439E+02  0.21736893014E+02  0.51100000000E-03 0.  1.
        -12    1    4    4    0    0 -0.14845033193E+01  0.12264920360E+02  0.21831620500E+01  0.12545844654E+02  0.00000000000E+00 0.  1.
</event>
<event>
 8    1  0.1280925E-006  0.9118800E+02  0.7816164E-02  0.1184000E+00
        -11   -1    0    0    0    0  0.00000000000E+00  0.00000000000E+00  0.45593999997E+02  0.45594000000E+02  0.51100000000E-03 0.  1.
         11   -1    0    0    0    0 -0.00000000000E+00 -0.00000000000E+00 -0.45593999997E+02  0.45594000000E+02  0.51100000000E-03 0. -1.
         23    2    1    2    0    0 -0.17763568394E-14  0.00000000000E+00  0.00000000000E+00  0.91188000000E+02  0.91188000000E+02 0.  0.
    9900012    2    3    3    0    0 -0.15631519490E+02  0.22453999100E+02 -0.24642505562E+02  0.54367088040E+02  0.40000008805E+02 0.  0.
        -12    1    3    3    0    0  0.15631519490E+02 -0.22453999100E+02  0.24642505562E+02  0.36820911960E+02  0.00000000000E+00 0.  1.
         11    1    4    4    0    0 -0.17952434025E+02 -0.94765212563E+00 -0.10870193498E+02  0.21008308807E+02  0.51100000000E-03 0. -1.
        -11    1    4    4    0    0  0.30955318910E+01  0.16596513315E+02  0.11682860281E+01  0.16923104455E+02  0.51100000000E-03 0.  1.
         12    1    4    4    0    0 -0.77461735586E+00  0.68051379108E+01 -0.14940598093E+02  0.16435674778E+02  0.00000000000E+00 0. -1.
</event>
<event>
 8    1  0.1280925E-006  0.9118800E+02  0.7816164E-02  0.1184000E+00
        -11   -1    0    0    0    0  0.00000000000E+00  0.00000000000E+00  0.45593999997E+02  0.45594000000E+02  0.51100000000E-03 0. -1.
         11   -1    0    0    0    0 -0.00000000000E+00 -0.00000000000E+00 -0.45593999997E+02  0.45594000000E+02  0.51100000000E-03 0.  1.
         23    2    1    2    0    0  0.00000000000E+00  0.00000000000E+00  0.00000000000E+00  0.91188000000E+02  0.91188000000E+02 0.  0.
    9900012    2    3    3    0    0 -0.89217173097E+01 -0.19638802717E+02 -0.29841242272E+02  0.54367090828E+02  0.40000015162E+02 0.  0.
         12    1    3    3    0    0  0.89217173097E+01  0.19638802717E+02  0.29841242272E+02  0.36820909172E+02  0.00000000000E+00 0. -1.
         11    1    4    4    0    0  0.79639964671E+01  0.14419429144E+01 -0.42387823497E+01  0.91362856328E+01  0.51100000000E-03 0. -1.
        -11    1    4    4    0    0  0.34136729098E+01 -0.65208833219E+01 -0.17473419422E+02  0.18960365729E+02  0.51100000000E-03 0.  1.
        -12    1    4    4    0    0 -0.20299386687E+02 -0.14559862309E+02 -0.81290405003E+01  0.26270439467E+02  0.00000000000E+00 0.  1.
</event>
<event>
 8    1  0.1280925E-006  0.9118800E+02  0.7816164E-02  0.1184000E+00
        -11   -1    0    0    0    0  0.00000000000E+00  0.00000000000E+00  0.45593999997E+02  0.45594000000E+02  0.51100000000E-03 0.  1.
         11   -1    0    0    0    0 -0.00000000000E+00 -0.00000000000E+00 -0.45593999997E+02  0.45594000000E+02  0.51100000000E-03 0. -1.
         23    2    1    2    0    0  0.00000000000E+00  0.00000000000E+00 -0.35527136788E-14  0.91188000000E+02  0.91188000000E+02 0.  0.
    9900012    2    3    3    0    0 -0.13463982678E+02 -0.19456415880E+02  0.28212575917E+02  0.54367076759E+02  0.39999983087E+02 0.  0.
         12    1    3    3    0    0  0.13463982678E+02  0.19456415880E+02 -0.28212575917E+02  0.36820923241E+02  0.00000000000E+00 0. -1.
         11    1    4    4    0    0  0.33833302499E+01 -0.11605495723E+02  0.62137256343E+01  0.13592087444E+02  0.51100000000E-03 0. -1.
        -11    1    4    4    0    0  0.15802852249E+01  0.56305917958E+01  0.16191729212E+02  0.17215486066E+02  0.51100000000E-03 0.  1.
        -12    1    4    4    0    0 -0.18427598153E+02 -0.13481511953E+02  0.58071210708E+01  0.23559503249E+02  0.00000000000E+00 0.  1.
</event>
<event>
 8    1  0.1280925E-006  0.9118800E+02  0.7816164E-02  0.1184000E+00
        -11   -1    0    0    0    0  0.00000000000E+00  0.00000000000E+00  0.45593999997E+02  0.45594000000E+02  0.51100000000E-03 0.  1.
         11   -1    0    0    0    0 -0.00000000000E+00 -0.00000000000E+00 -0.45593999997E+02  0.45594000000E+02  0.51100000000E-03 0. -1.
         23    2    1    2    0    0  0.35527136788E-14 -0.88817841970E-15  0.00000000000E+00  0.91188000000E+02  0.91188000000E+02 0.  0.
    9900012    2    3    3    0    0  0.18666790559E+02  0.56738087214E+01  0.31227235459E+02  0.54367062891E+02  0.39999951473E+02 0.  0.
        -12    1    3    3    0    0 -0.18666790559E+02 -0.56738087214E+01 -0.31227235459E+02  0.36820937109E+02  0.00000000000E+00 0.  1.
         11    1    4    4    0    0  0.19304232256E+02  0.12637108167E+02  0.15258922971E+02  0.27661970579E+02  0.51100000000E-03 0.  1.
        -11    1    4    4    0    0  0.96206161678E+01 -0.15932174137E+01  0.61944949678E+01  0.11552764403E+02  0.51100000000E-03 0. -1.
        -12    1    4    4    0    0 -0.10258057865E+02 -0.53700820316E+01  0.97738175192E+01  0.15152327910E+02  0.00000000000E+00 0.  1.
</event>
<event>
 8    1  0.1280925E-006  0.9118800E+02  0.7816164E-02  0.1184000E+00
        -11   -1    0    0    0    0  0.00000000000E+00  0.00000000000E+00  0.45593999997E+02  0.45594000000E+02  0.51100000000E-03 0.  1.
         11   -1    0    0    0    0 -0.00000000000E+00 -0.00000000000E+00 -0.45593999997E+02  0.45594000000E+02  0.51100000000E-03 0. -1.
         23    2    1    2    0    0 -0.17763568394E-14  0.77715611724E-15  0.00000000000E+00  0.91188000000E+02  0.91188000000E+02 0.  0.
    9900012    2    3    3    0    0  0.92715141345E+01 -0.94963515006E+00 -0.35621884894E+02  0.54367062143E+02  0.39999949767E+02 0.  0.
        -12    1    3    3    0    0 -0.92715141345E+01  0.94963515006E+00  0.35621884894E+02  0.36820937857E+02  0.00000000000E+00 0.  1.
         11    1    4    4    0    0 -0.43210979935E+01 -0.65458693953E+01  0.11630063914E+01  0.79292419648E+01  0.51100000000E-03 0. -1.
        -11    1    4    4    0    0 -0.29994971700E+01 -0.59610273066E+01 -0.36119550402E+01  0.75879542234E+01  0.51100000000E-03 0.  1.
         12    1    4    4    0    0  0.16592109298E+02  0.11557261552E+02 -0.33172936246E+02  0.38849865955E+02  0.00000000000E+00 0. -1.
</event>
<event>
 8    1  0.1280925E-006  0.9118800E+02  0.7816164E-02  0.1184000E+00
        -11   -1    0    0    0    0  0.00000000000E+00  0.00000000000E+00  0.45593999997E+02  0.45594000000E+02  0.51100000000E-03 0.  1.
         11   -1    0    0    0    0 -0.00000000000E+00 -0.00000000000E+00 -0.45593999997E+02  0.45594000000E+02  0.51100000000E-03 0. -1.
         23    2    1    2    0    0  0.00000000000E+00  0.00000000000E+00 -0.35527136788E-14  0.91188000000E+02  0.91188000000E+02 0.  0.
    9900012    2    3    3    0    0  0.17276833405E+02 -0.27970740079E+02  0.16580932381E+02  0.54367101156E+02  0.40000038705E+02 0.  0.
         12    1    3    3    0    0 -0.17276833405E+02  0.27970740079E+02 -0.16580932381E+02  0.36820898844E+02  0.00000000000E+00 0. -1.
         11    1    4    4    0    0  0.53320620595E+01 -0.24718767640E+02  0.20913667775E+02  0.32815085853E+02  0.51100000000E-03 0.  1.
        -11    1    4    4    0    0 -0.41897105575E+00 -0.76820356603E+01 -0.33210546090E+01  0.83796546832E+01  0.51100000000E-03 0. -1.
        -12    1    4    4    0    0  0.12363742401E+02  0.44300632214E+01 -0.10116807850E+01  0.13172360620E+02  0.00000000000E+00 0.  1.
</event>
<event>
 8    1  0.1280925E-006  0.9118800E+02  0.7816164E-02  0.1184000E+00
        -11   -1    0    0    0    0  0.00000000000E+00  0.00000000000E+00  0.45593999997E+02  0.45594000000E+02  0.51100000000E-03 0.  1.
         11   -1    0    0    0    0 -0.00000000000E+00 -0.00000000000E+00 -0.45593999997E+02  0.45594000000E+02  0.51100000000E-03 0. -1.
         23    2    1    2    0    0  0.00000000000E+00 -0.88817841970E-15  0.71054273576E-14  0.91188000000E+02  0.91188000000E+02 0.  0.
    9900012    2    3    3    0    0 -0.15600060000E+02  0.50654580476E+01 -0.32966026841E+02  0.54367086609E+02  0.40000005543E+02 0.  0.
        -12    1    3    3    0    0  0.15600060000E+02 -0.50654580476E+01  0.32966026841E+02  0.36820913391E+02  0.00000000000E+00 0.  1.
         11    1    4    4    0    0  0.39046650996E+01  0.24010584571E+01 -0.29184977741E+02  0.29542755749E+02  0.51100000000E-03 0. -1.
        -11    1    4    4    0    0 -0.58879570840E+01  0.79651642302E+01 -0.19869459452E+01  0.10102466743E+02  0.51100000000E-03 0.  1.
        -12    1    4    4    0    0 -0.13616768016E+02 -0.53007646397E+01 -0.17941031548E+01  0.14721864118E+02  0.00000000000E+00 0.  1.
</event>
<event>
 8    1  0.1280925E-006  0.9118800E+02  0.7816164E-02  0.1184000E+00
        -11   -1    0    0    0    0  0.00000000000E+00  0.00000000000E+00  0.45593999997E+02  0.45594000000E+02  0.51100000000E-03 0. -1.
         11   -1    0    0    0    0 -0.00000000000E+00 -0.00000000000E+00 -0.45593999997E+02  0.45594000000E+02  0.51100000000E-03 0.  1.
         23    2    1    2    0    0  0.00000000000E+00 -0.44408920985E-15  0.35527136788E-14  0.91188000000E+02  0.91188000000E+02 0.  0.
    9900012    2    3    3    0    0  0.31307998253E+02  0.30247760409E+01 -0.19142699184E+02  0.54367041882E+02  0.39999903578E+02 0.  0.
         12    1    3    3    0    0 -0.31307998253E+02 -0.30247760409E+01  0.19142699184E+02  0.36820958118E+02  0.00000000000E+00 0. -1.
         11    1    4    4    0    0 -0.26455715423E+01  0.63174509104E+01 -0.12140482485E+01  0.69557996091E+01  0.51100000000E-03 0. -1.
        -11    1    4    4    0    0 -0.68499680619E+00  0.73225884802E+01 -0.52178566656E+01  0.90175135774E+01  0.51100000000E-03 0.  1.
        -12    1    4    4    0    0  0.34638566601E+02 -0.10615263350E+02 -0.12710794270E+02  0.38393728695E+02  0.00000000000E+00 0.  1.
</event>
<event>
 8    1  0.1280925E-006  0.9118800E+02  0.7816164E-02  0.1184000E+00
        -11   -1    0    0    0    0  0.00000000000E+00  0.00000000000E+00  0.45593999997E+02  0.45594000000E+02  0.51100000000E-03 0. -1.
         11   -1    0    0    0    0 -0.00000000000E+00 -0.00000000000E+00 -0.45593999997E+02  0.45594000000E+02  0.51100000000E-03 0.  1.
         23    2    1    2    0    0  0.00000000000E+00 -0.35527136788E-14 -0.33306690739E-15  0.91188000000E+02  0.91188000000E+02 0.  0.
    9900012    2    3    3    0    0 -0.26481220503E+02  0.25577418558E+02 -0.56738293872E+00  0.54367064341E+02  0.39999954778E+02 0.  0.
        -12    1    3    3    0    0  0.26481220503E+02 -0.25577418558E+02  0.56738293872E+00  0.36820935659E+02  0.00000000000E+00 0.  1.
         11    1    4    4    0    0  0.47120119571E+01  0.38572366475E+01  0.17776451461E+01  0.63436073149E+01  0.51100000000E-03 0. -1.
        -11    1    4    4    0    0 -0.30162721262E+02  0.18818039923E+02 -0.12287427687E+02  0.37615013757E+02  0.51100000000E-03 0.  1.
         12    1    4    4    0    0 -0.10305111981E+01  0.29021419871E+01  0.99423996021E+01  0.10408443269E+02  0.00000000000E+00 0. -1.
</event>
<event>
 8    1  0.1280925E-006  0.9118800E+02  0.7816164E-02  0.1184000E+00
        -11   -1    0    0    0    0  0.00000000000E+00  0.00000000000E+00  0.45593999997E+02  0.45594000000E+02  0.51100000000E-03 0. -1.
         11   -1    0    0    0    0 -0.00000000000E+00 -0.00000000000E+00 -0.45593999997E+02  0.45594000000E+02  0.51100000000E-03 0.  1.
         23    2    1    2    0    0  0.71054273576E-14  0.00000000000E+00 -0.31086244690E-14  0.91188000000E+02  0.91188000000E+02 0.  0.
    9900012    2    3    3    0    0  0.34853407931E+02 -0.11260392916E+02 -0.37714192591E+01  0.54367080725E+02  0.39999992129E+02 0.  0.
         12    1    3    3    0    0 -0.34853407931E+02  0.11260392916E+02  0.37714192591E+01  0.36820919275E+02  0.00000000000E+00 0. -1.
         11    1    4    4    0    0  0.38964790739E+02 -0.36755463402E+01  0.44469607953E+01  0.39389592772E+02  0.51100000000E-03 0. -1.
        -11    1    4    4    0    0 -0.14725224447E+01 -0.87883098005E+01 -0.37887934101E+01  0.96828542933E+01  0.51100000000E-03 0.  1.
         12    1    4    4    0    0 -0.26388603630E+01  0.12034632244E+01 -0.44295866443E+01  0.52946336593E+01  0.00000000000E+00 0. -1.
</event>
<event>
 8    1  0.1280925E-006  0.9118800E+02  0.7816164E-02  0.1184000E+00
        -11   -1    0    0    0    0  0.00000000000E+00  0.00000000000E+00  0.45593999997E+02  0.45594000000E+02  0.51100000000E-03 0.  1.
         11   -1    0    0    0    0 -0.00000000000E+00 -0.00000000000E+00 -0.45593999997E+02  0.45594000000E+02  0.51100000000E-03 0. -1.
         23    2    1    2    0    0  0.88817841970E-15 -0.17763568394E-14  0.00000000000E+00  0.91188000000E+02  0.91188000000E+02 0.  0.
    9900012    2    3    3    0    0 -0.29548979255E+01  0.55544602912E+01 -0.36279446202E+02  0.54367059387E+02  0.39999943486E+02 0.  0.
        -12    1    3    3    0    0  0.29548979255E+01 -0.55544602912E+01  0.36279446202E+02  0.36820940613E+02  0.00000000000E+00 0.  1.
         11    1    4    4    0    0  0.11486618914E+02  0.14087473984E+02 -0.15905840694E+02  0.24153573354E+02  0.51100000000E-03 0.  1.
        -11    1    4    4    0    0  0.16907048181E+00  0.30294041090E+01 -0.69330080049E+00  0.31123207330E+01  0.51100000000E-03 0. -1.
         12    1    4    4    0    0 -0.14610587321E+02 -0.11562417801E+02 -0.19680304708E+02  0.27101165301E+02  0.00000000000E+00 0. -1.
</event>
<event>
 8    1  0.1280925E-006  0.9118800E+02  0.7816164E-02  0.1184000E+00
        -11   -1    0    0    0    0  0.00000000000E+00  0.00000000000E+00  0.45593999997E+02  0.45594000000E+02  0.51100000000E-03 0. -1.
         11   -1    0    0    0    0 -0.00000000000E+00 -0.00000000000E+00 -0.45593999997E+02  0.45594000000E+02  0.51100000000E-03 0.  1.
         23    2    1    2    0    0  0.00000000000E+00  0.00000000000E+00  0.00000000000E+00  0.91188000000E+02  0.91188000000E+02 0.  0.
    9900012    2    3    3    0    0 -0.21099091553E+01 -0.18353424949E+02  0.31850921317E+02  0.54367066922E+02  0.39999960661E+02 0.  0.
        -12    1    3    3    0    0  0.21099091553E+01  0.18353424949E+02 -0.31850921317E+02  0.36820933078E+02  0.00000000000E+00 0.  1.
         11    1    4    4    0    0  0.35488532344E+00 -0.65053357537E+01  0.30330121637E+02  0.31021953769E+02  0.51100000000E-03 0. -1.
        -11    1    4    4    0    0  0.98691588113E+00 -0.15453177420E+01  0.96199157698E+01  0.97930990784E+01  0.51100000000E-03 0.  1.
        -12    1    4    4    0    0 -0.34517103599E+01 -0.10302771453E+02 -0.80991160900E+01  0.13552014074E+02  0.00000000000E+00 0.  1.
</event>
<event>
 8    1  0.1280925E-006  0.9118800E+02  0.7816164E-02  0.1184000E+00
        -11   -1    0    0    0    0  0.00000000000E+00  0.00000000000E+00  0.45593999997E+02  0.45594000000E+02  0.51100000000E-03 0.  1.
         11   -1    0    0    0    0 -0.00000000000E+00 -0.00000000000E+00 -0.45593999997E+02  0.45594000000E+02  0.51100000000E-03 0. -1.
         23    2    1    2    0    0  0.17763568394E-14  0.00000000000E+00  0.35527136788E-14  0.91188000000E+02  0.91188000000E+02 0.  0.
    9900012    2    3    3    0    0  0.75308610917E+01  0.25499260341E+02  0.25472605770E+02  0.54367084864E+02  0.40000001565E+02 0.  0.
         12    1    3    3    0    0 -0.75308610917E+01 -0.25499260341E+02 -0.25472605770E+02  0.36820915136E+02  0.00000000000E+00 0. -1.
         11    1    4    4    0    0 -0.28019966965E+01  0.17276997775E+02 -0.37763497246E+01  0.17905492317E+02  0.51100000000E-03 0. -1.
        -11    1    4    4    0    0 -0.48004994486E+01  0.32632784704E+01  0.68540208838E+01  0.89817249940E+01  0.51100000000E-03 0.  1.
        -12    1    4    4    0    0  0.15133357237E+02  0.49589840954E+01  0.22394934611E+02  0.27479867554E+02  0.00000000000E+00 0.  1.
</event>
<event>
 8    1  0.1280925E-006  0.9118800E+02  0.7816164E-02  0.1184000E+00
        -11   -1    0    0    0    0  0.00000000000E+00  0.00000000000E+00  0.45593999997E+02  0.45594000000E+02  0.51100000000E-03 0.  1.
         11   -1    0    0    0    0 -0.00000000000E+00 -0.00000000000E+00 -0.45593999997E+02  0.45594000000E+02  0.51100000000E-03 0. -1.
         23    2    1    2    0    0  0.00000000000E+00 -0.11657341759E-14 -0.35527136788E-14  0.91188000000E+02  0.91188000000E+02 0.  0.
    9900012    2    3    3    0    0  0.22208872335E+02 -0.39941853052E+00  0.29366418673E+02  0.54367080793E+02  0.39999992285E+02 0.  0.
         12    1    3    3    0    0 -0.22208872335E+02  0.39941853052E+00 -0.29366418673E+02  0.36820919207E+02  0.00000000000E+00 0. -1.
         11    1    4    4    0    0 -0.94885837526E+01  0.55487382622E+01  0.59873262742E+01  0.12516780501E+02  0.51100000000E-03 0. -1.
        -11    1    4    4    0    0  0.20147798604E+02 -0.96679174008E+01  0.17404581978E+02  0.28325287104E+02  0.51100000000E-03 0.  1.
         12    1    4    4    0    0  0.11549657484E+02  0.37197606080E+01  0.59745104205E+01  0.13525013188E+02  0.00000000000E+00 0. -1.
</event>
<event>
 8    1  0.1280925E-006  0.9118800E+02  0.7816164E-02  0.1184000E+00
        -11   -1    0    0    0    0  0.00000000000E+00  0.00000000000E+00  0.45593999997E+02  0.45594000000E+02  0.51100000000E-03 0. -1.
         11   -1    0    0    0    0 -0.00000000000E+00 -0.00000000000E+00 -0.45593999997E+02  0.45594000000E+02  0.51100000000E-03 0.  1.
         23    2    1    2    0    0  0.00000000000E+00  0.00000000000E+00  0.00000000000E+00  0.91188000000E+02  0.91188000000E+02 0.  0.
    9900012    2    3    3    0    0  0.29915426107E+02 -0.10441546316E+02 -0.18756912543E+02  0.54367076915E+02  0.39999983444E+02 0.  0.
         12    1    3    3    0    0 -0.29915426107E+02  0.10441546316E+02  0.18756912543E+02  0.36820923085E+02  0.00000000000E+00 0. -1.
         11    1    4    4    0    0 -0.64047024240E+01  0.12416127648E+01 -0.48577998228E+00  0.65420025871E+01  0.51100000000E-03 0. -1.
        -11    1    4    4    0    0  0.11963337287E+02 -0.81605619366E+01 -0.18143838347E+02  0.23214544587E+02  0.51100000000E-03 0.  1.
         12    1    4    4    0    0  0.24356791244E+02 -0.35225971446E+01 -0.12729421441E+00  0.24610529741E+02  0.00000000000E+00 0. -1.
</event>
<event>
 8    1  0.1280925E-006  0.9118800E+02  0.7816164E-02  0.1184000E+00
        -11   -1    0    0    0    0  0.00000000000E+00  0.00000000000E+00  0.45593999997E+02  0.45594000000E+02  0.51100000000E-03 0. -1.
         11   -1    0    0    0    0 -0.00000000000E+00 -0.00000000000E+00 -0.45593999997E+02  0.45594000000E+02  0.51100000000E-03 0.  1.
         23    2    1    2    0    0 -0.44408920985E-15  0.00000000000E+00  0.00000000000E+00  0.91188000000E+02  0.91188000000E+02 0.  0.
    9900012    2    3    3    0    0 -0.36413389847E+01  0.25182635067E+02  0.26614996558E+02  0.54367048080E+02  0.39999917708E+02 0.  0.
        -12    1    3    3    0    0  0.36413389847E+01 -0.25182635067E+02 -0.26614996558E+02  0.36820951920E+02  0.00000000000E+00 0.  1.
         11    1    4    4    0    0  0.69334539095E+01  0.95219396021E+01  0.16869793862E+02  0.20574986321E+02  0.51100000000E-03 0. -1.
        -11    1    4    4    0    0  0.37899039493E+01  0.53166373489E+01  0.14121269771E+02  0.15557643294E+02  0.51100000000E-03 0.  1.
        -12    1    4    4    0    0 -0.14364696844E+02  0.10344058116E+02 -0.43760670751E+01  0.18234418465E+02  0.00000000000E+00 0.  1.
</event>
<event>
 8    1  0.1280925E-006  0.9118800E+02  0.7816164E-02  0.1184000E+00
        -11   -1    0    0    0    0  0.00000000000E+00  0.00000000000E+00  0.45593999997E+02  0.45594000000E+02  0.51100000000E-03 0.  1.
         11   -1    0    0    0    0 -0.00000000000E+00 -0.00000000000E+00 -0.45593999997E+02  0.45594000000E+02  0.51100000000E-03 0. -1.
         23    2    1    2    0    0  0.00000000000E+00  0.00000000000E+00  0.00000000000E+00  0.91188000000E+02  0.91188000000E+02 0.  0.
    9900012    2    3    3    0    0  0.30177788051E+02  0.19857312186E+02  0.71251665269E+01  0.54367085604E+02  0.40000003252E+02 0.  0.
        -12    1    3    3    0    0 -0.30177788051E+02 -0.19857312186E+02 -0.71251665269E+01  0.36820914396E+02  0.00000000000E+00 0.  1.
         11    1    4    4    0    0  0.99213102202E-02  0.13753969704E+02  0.91494626617E+01  0.16519214518E+02  0.51100000000E-03 0. -1.
        -11    1    4    4    0    0  0.70476034983E+01  0.28584371575E+00 -0.10410553490E+02  0.12574976975E+02  0.51100000000E-03 0.  1.
        -12    1    4    4    0    0  0.23120263243E+02  0.58174987666E+01  0.83862573551E+01  0.25272894111E+02  0.00000000000E+00 0.  1.
</event>
<event>
 8    1  0.1280925E-006  0.9118800E+02  0.7816164E-02  0.1184000E+00
        -11   -1    0    0    0    0  0.00000000000E+00  0.00000000000E+00  0.45593999997E+02  0.45594000000E+02  0.51100000000E-03 0.  1.
         11   -1    0    0    0    0 -0.00000000000E+00 -0.00000000000E+00 -0.45593999997E+02  0.45594000000E+02  0.51100000000E-03 0. -1.
         23    2    1    2    0    0 -0.35527136788E-14  0.00000000000E+00  0.17763568394E-14  0.91188000000E+02  0.91188000000E+02 0.  0.
    9900012    2    3    3    0    0 -0.31998144560E+02  0.16252059838E+02  0.82322116537E+01  0.54367081856E+02  0.39999994707E+02 0.  0.
         12    1    3    3    0    0  0.31998144560E+02 -0.16252059838E+02 -0.82322116537E+01  0.36820918144E+02  0.00000000000E+00 0. -1.
         11    1    4    4    0    0 -0.14237102942E+02  0.13335848566E+02 -0.17839701305E+01  0.19588836282E+02  0.51100000000E-03 0. -1.
        -11    1    4    4    0    0 -0.10567694934E+02  0.78288159117E+01  0.18447313620E+02  0.22655461038E+02  0.51100000000E-03 0.  1.
         12    1    4    4    0    0 -0.71933466844E+01 -0.49126046405E+01 -0.84311318360E+01  0.12122784536E+02  0.00000000000E+00 0. -1.
</event>
<event>
 8    1  0.1280925E-006  0.9118800E+02  0.7816164E-02  0.1184000E+00
        -11   -1    0    0    0    0  0.00000000000E+00  0.00000000000E+00  0.45593999997E+02  0.45594000000E+02  0.51100000000E-03 0. -1.
         11   -1    0    0    0    0 -0.00000000000E+00 -0.00000000000E+00 -0.45593999997E+02  0.45594000000E+02  0.51100000000E-03 0.  1.
         23    2    1    2    0    0  0.00000000000E+00 -0.35527136788E-14  0.35527136788E-14  0.91188000000E+02  0.91188000000E+02 0.  0.
    9900012    2    3    3    0    0 -0.11321818219E+02  0.25965111690E+02  0.23524637950E+02  0.54367093119E+02  0.40000020383E+02 0.  0.
        -12    1    3    3    0    0  0.11321818219E+02 -0.25965111690E+02 -0.23524637950E+02  0.36820906881E+02  0.00000000000E+00 0.  1.
         11    1    4    4    0    0  0.22294301330E+01  0.16912109031E+02  0.28861391679E+01  0.17300855185E+02  0.51100000000E-03 0. -1.
        -11    1    4    4    0    0 -0.76471456702E+01  0.42082175658E+01  0.26201777385E+02  0.27617405207E+02  0.51100000000E-03 0.  1.
        -12    1    4    4    0    0 -0.59041026819E+01  0.48447850933E+01 -0.55632786029E+01  0.94488327264E+01  0.00000000000E+00 0.  1.
</event>
<event>
 8    1  0.1280925E-006  0.9118800E+02  0.7816164E-02  0.1184000E+00
        -11   -1    0    0    0    0  0.00000000000E+00  0.00000000000E+00  0.45593999997E+02  0.45594000000E+02  0.51100000000E-03 0.  1.
         11   -1    0    0    0    0 -0.00000000000E+00 -0.00000000000E+00 -0.45593999997E+02  0.45594000000E+02  0.51100000000E-03 0. -1.
         23    2    1    2    0    0  0.00000000000E+00  0.00000000000E+00 -0.44408920985E-15  0.91188000000E+02  0.91188000000E+02 0.  0.
    9900012    2    3    3    0    0 -0.31770523410E+02 -0.18479283258E+02 -0.22200731057E+01  0.54367098435E+02  0.40000032503E+02 0.  0.
        -12    1    3    3    0    0  0.31770523410E+02  0.18479283258E+02  0.22200731057E+01  0.36820901565E+02  0.00000000000E+00 0.  1.
         11    1    4    4    0    0 -0.23845884813E+02 -0.17390985751E+02  0.70859711812E+01  0.30352653850E+02  0.51100000000E-03 0. -1.
        -11    1    4    4    0    0 -0.53992142608E+01  0.96762046837E+01 -0.47458333714E+01  0.12054185429E+02  0.51100000000E-03 0.  1.
         12    1    4    4    0    0 -0.25254243363E+01 -0.10764502190E+02 -0.45602109155E+01  0.11960259156E+02  0.00000000000E+00 0. -1.
</event>
<event>
 8    1  0.1280925E-006  0.9118800E+02  0.7816164E-02  0.1184000E+00
        -11   -1    0    0    0    0  0.00000000000E+00  0.00000000000E+00  0.45593999997E+02  0.45594000000E+02  0.51100000000E-03 0.  1.
         11   -1    0    0    0    0 -0.00000000000E+00 -0.00000000000E+00 -0.45593999997E+02  0.45594000000E+02  0.51100000000E-03 0. -1.
         23    2    1    2    0    0  0.00000000000E+00  0.00000000000E+00 -0.35527136788E-14  0.91188000000E+02  0.91188000000E+02 0.  0.
    9900012    2    3    3    0    0 -0.25937210771E+02  0.55985676236E+00 -0.26129056044E+02  0.54367083228E+02  0.39999997835E+02 0.  0.
        -12    1    3    3    0    0  0.25937210771E+02 -0.55985676236E+00  0.26129056044E+02  0.36820916772E+02  0.00000000000E+00 0.  1.
         11    1    4    4    0    0 -0.11532200004E+02 -0.40483417242E+01 -0.31484299438E+02  0.33773389214E+02  0.51100000000E-03 0. -1.
        -11    1    4    4    0    0 -0.46636911121E+01  0.30149677048E+01 -0.41171695160E+01  0.69131129120E+01  0.51100000000E-03 0.  1.
         12    1    4    4    0    0 -0.97413196551E+01  0.15932307818E+01  0.94724129097E+01  0.13680581102E+02  0.00000000000E+00 0. -1.
</event>
<event>
 8    1  0.1280925E-006  0.9118800E+02  0.7816164E-02  0.1184000E+00
        -11   -1    0    0    0    0  0.00000000000E+00  0.00000000000E+00  0.45593999997E+02  0.45594000000E+02  0.51100000000E-03 0. -1.
         11   -1    0    0    0    0 -0.00000000000E+00 -0.00000000000E+00 -0.45593999997E+02  0.45594000000E+02  0.51100000000E-03 0.  1.
         23    2    1    2    0    0 -0.35527136788E-14  0.35527136788E-14  0.35527136788E-14  0.91188000000E+02  0.91188000000E+02 0.  0.
    9900012    2    3    3    0    0  0.24893446761E+02  0.17188152475E+02  0.20992009516E+02  0.54367071974E+02  0.39999972180E+02 0.  0.
        -12    1    3    3    0    0 -0.24893446761E+02 -0.17188152475E+02 -0.20992009516E+02  0.36820928026E+02  0.00000000000E+00 0.  1.
         11    1    4    4    0    0  0.28609190438E+01  0.16614623519E+02  0.13865242383E+02  0.21828319199E+02  0.51100000000E-03 0. -1.
        -11    1    4    4    0    0  0.33326389865E+01 -0.82314609097E+01 -0.31923248618E+01  0.94368622755E+01  0.51100000000E-03 0.  1.
        -12    1    4    4    0    0  0.18699888730E+02  0.88049898655E+01  0.10319091995E+02  0.23101890500E+02  0.00000000000E+00 0.  1.
</event>
<event>
 8    1  0.1280925E-006  0.9118800E+02  0.7816164E-02  0.1184000E+00
        -11   -1    0    0    0    0  0.00000000000E+00  0.00000000000E+00  0.45593999997E+02  0.45594000000E+02  0.51100000000E-03 0.  1.
         11   -1    0    0    0    0 -0.00000000000E+00 -0.00000000000E+00 -0.45593999997E+02  0.45594000000E+02  0.51100000000E-03 0. -1.
         23    2    1    2    0    0 -0.35527136788E-14  0.00000000000E+00  0.00000000000E+00  0.91188000000E+02  0.91188000000E+02 0.  0.
    9900012    2    3    3    0    0  0.15825281608E+02  0.29045186957E+02 -0.16177665141E+02  0.54367091908E+02  0.40000017622E+02 0.  0.
        -12    1    3    3    0    0 -0.15825281608E+02 -0.29045186957E+02  0.16177665141E+02  0.36820908092E+02  0.00000000000E+00 0.  1.
         11    1    4    4    0    0  0.20278087874E+02  0.24800445378E+02 -0.63095281081E+01  0.32650774631E+02  0.51100000000E-03 0. -1.
        -11    1    4    4    0    0 -0.14273412554E+01  0.18011962140E+01  0.54486657595E+01  0.59135073925E+01  0.51100000000E-03 0.  1.
         12    1    4    4    0    0 -0.30254650103E+01  0.24435453651E+01 -0.15316802792E+02  0.15802809885E+02  0.00000000000E+00 0. -1.
</event>
<event>
 8    1  0.1280925E-006  0.9118800E+02  0.7816164E-02  0.1184000E+00
        -11   -1    0    0    0    0  0.00000000000E+00  0.00000000000E+00  0.45593999997E+02  0.45594000000E+02  0.51100000000E-03 0.  1.
         11   -1    0    0    0    0 -0.00000000000E+00 -0.00000000000E+00 -0.45593999997E+02  0.45594000000E+02  0.51100000000E-03 0. -1.
         23    2    1    2    0    0  0.00000000000E+00  0.00000000000E+00  0.22204460493E-15  0.91188000000E+02  0.91188000000E+02 0.  0.
    9900012    2    3    3    0    0 -0.23215159015E+01  0.36735727365E+02  0.93727156227E+00  0.54367060589E+02  0.39999946224E+02 0.  0.
         12    1    3    3    0    0  0.23215159015E+01 -0.36735727365E+02 -0.93727156227E+00  0.36820939411E+02  0.00000000000E+00 0. -1.
         11    1    4    4    0    0  0.43732857194E+01  0.10144328134E+02  0.42750271029E+01  0.11845204864E+02  0.51100000000E-03 0. -1.
        -11    1    4    4    0    0  0.63536768106E+01  0.77380891304E+01  0.11471769110E+02  0.15226579366E+02  0.51100000000E-03 0.  1.
         12    1    4    4    0    0 -0.13048478432E+02  0.18853310101E+02 -0.14809524651E+02  0.27295276359E+02  0.00000000000E+00 0. -1.
</event>
<event>
 8    1  0.1280925E-006  0.9118800E+02  0.7816164E-02  0.1184000E+00
        -11   -1    0    0    0    0  0.00000000000E+00  0.00000000000E+00  0.45593999997E+02  0.45594000000E+02  0.51100000000E-03 0.  1.
         11   -1    0    0    0    0 -0.00000000000E+00 -0.00000000000E+00 -0.45593999997E+02  0.45594000000E+02  0.51100000000E-03 0. -1.
         23    2    1    2    0    0  0.00000000000E+00 -0.44408920985E-15  0.00000000000E+00  0.91188000000E+02  0.91188000000E+02 0.  0.
    9900012    2    3    3    0    0  0.24547339049E+01 -0.28304319730E+01  0.36629802561E+02  0.54367088830E+02  0.40000010606E+02 0.  0.
         12    1    3    3    0    0 -0.24547339049E+01  0.28304319730E+01 -0.36629802561E+02  0.36820911170E+02  0.00000000000E+00 0. -1.
         11    1    4    4    0    0  0.11885267712E+02 -0.51467642392E+01  0.29510715396E+01  0.13283734197E+02  0.51100000000E-03 0. -1.
        -11    1    4    4    0    0 -0.51479479355E+01  0.65832528590E+01  0.34016959945E+02  0.35028476278E+02  0.51100000000E-03 0.  1.
         12    1    4    4    0    0 -0.42825858716E+01 -0.42669205928E+01 -0.33822892371E+00  0.60548783554E+01  0.00000000000E+00 0. -1.
</event>
<event>
 8    1  0.1280925E-006  0.9118800E+02  0.7816164E-02  0.1184000E+00
        -11   -1    0    0    0    0  0.00000000000E+00  0.00000000000E+00  0.45593999997E+02  0.45594000000E+02  0.51100000000E-03 0.  1.
         11   -1    0    0    0    0 -0.00000000000E+00 -0.00000000000E+00 -0.45593999997E+02  0.45594000000E+02  0.51100000000E-03 0. -1.
         23    2    1    2    0    0  0.00000000000E+00  0.35527136788E-14  0.88817841970E-15  0.91188000000E+02  0.91188000000E+02 0.  0.
    9900012    2    3    3    0    0  0.26014178845E+02 -0.25816951686E+02 -0.35393913872E+01  0.54367084928E+02  0.40000001709E+02 0.  0.
        -12    1    3    3    0    0 -0.26014178845E+02  0.25816951686E+02  0.35393913872E+01  0.36820915072E+02  0.00000000000E+00 0.  1.
         11    1    4    4    0    0 -0.51978978783E+00  0.56848644780E+01 -0.45486427848E+00  0.57266715752E+01  0.51100000000E-03 0. -1.
        -11    1    4    4    0    0  0.19860944905E+02 -0.56512779129E+01  0.39670681323E+01  0.21026928078E+02  0.51100000000E-03 0.  1.
        -12    1    4    4    0    0  0.66730237287E+01 -0.25850538252E+02 -0.70515952410E+01  0.27613485275E+02  0.00000000000E+00 0.  1.
</event>
<event>
 8    1  0.1280925E-006  0.9118800E+02  0.7816164E-02  0.1184000E+00
        -11   -1    0    0    0    0  0.00000000000E+00  0.00000000000E+00  0.45593999997E+02  0.45594000000E+02  0.51100000000E-03 0. -1.
         11   -1    0    0    0    0 -0.00000000000E+00 -0.00000000000E+00 -0.45593999997E+02  0.45594000000E+02  0.51100000000E-03 0.  1.
         23    2    1    2    0    0  0.17763568394E-14  0.00000000000E+00  0.17763568394E-14  0.91188000000E+02  0.91188000000E+02 0.  0.
    9900012    2    3    3    0    0  0.14078613414E+02  0.30050038995E+02 -0.15955126724E+02  0.54367105551E+02  0.40000048725E+02 0.  0.
         12    1    3    3    0    0 -0.14078613414E+02 -0.30050038995E+02  0.15955126724E+02  0.36820894449E+02  0.00000000000E+00 0. -1.
         11    1    4    4    0    0  0.11085035025E+02  0.17807980611E+02 -0.20997108407E+02  0.29679635049E+02  0.51100000000E-03 0. -1.
        -11    1    4    4    0    0  0.47512550192E+01  0.16796703969E+02  0.77565328295E+01  0.19101504921E+02  0.51100000000E-03 0.  1.
         12    1    4    4    0    0 -0.17576766305E+01 -0.45546455846E+01 -0.27145511461E+01  0.55859655802E+01  0.00000000000E+00 0. -1.
</event>
<event>
 8    1  0.1280925E-006  0.9118800E+02  0.7816164E-02  0.1184000E+00
        -11   -1    0    0    0    0  0.00000000000E+00  0.00000000000E+00  0.45593999997E+02  0.45594000000E+02  0.51100000000E-03 0.  1.
         11   -1    0    0    0    0 -0.00000000000E+00 -0.00000000000E+00 -0.45593999997E+02  0.45594000000E+02  0.51100000000E-03 0. -1.
         23    2    1    2    0    0 -0.11102230246E-15  0.35527136788E-14 -0.35527136788E-14  0.91188000000E+02  0.91188000000E+02 0.  0.
    9900012    2    3    3    0    0  0.73189710504E+00  0.30151077484E+02 -0.21122445854E+02  0.54367070277E+02  0.39999968310E+02 0.  0.
        -12    1    3    3    0    0 -0.73189710504E+00 -0.30151077484E+02  0.21122445854E+02  0.36820929723E+02  0.00000000000E+00 0.  1.
         11    1    4    4    0    0 -0.13151959739E+01  0.81712953116E+01 -0.14411195117E+02  0.16618734984E+02  0.51100000000E-03 0. -1.
        -11    1    4    4    0    0  0.77772578395E+01  0.90669843592E+01 -0.16638109161E+02  0.20482251380E+02  0.51100000000E-03 0.  1.
        -12    1    4    4    0    0 -0.57301647605E+01  0.12912797813E+02  0.99268584233E+01  0.17266083913E+02  0.00000000000E+00 0.  1.
</event>
<event>
 8    1  0.1280925E-006  0.9118800E+02  0.7816164E-02  0.1184000E+00
        -11   -1    0    0    0    0  0.00000000000E+00  0.00000000000E+00  0.45593999997E+02  0.45594000000E+02  0.51100000000E-03 0.  1.
         11   -1    0    0    0    0 -0.00000000000E+00 -0.00000000000E+00 -0.45593999997E+02  0.45594000000E+02  0.51100000000E-03 0. -1.
         23    2    1    2    0    0 -0.17763568394E-14  0.00000000000E+00  0.00000000000E+00  0.91188000000E+02  0.91188000000E+02 0.  0.
    9900012    2    3    3    0    0 -0.15507002313E+02  0.19436400391E+02 -0.27157640953E+02  0.54367105890E+02  0.40000049498E+02 0.  0.
        -12    1    3    3    0    0  0.15507002313E+02 -0.19436400391E+02  0.27157640953E+02  0.36820894110E+02  0.00000000000E+00 0.  1.
         11    1    4    4    0    0  0.59780733270E+01 -0.38640014898E+01 -0.94534191658E+01  0.11833638595E+02  0.51100000000E-03 0. -1.
        -11    1    4    4    0    0 -0.26824901593E+01 -0.28644681111E+01  0.23575221654E+01  0.45780827904E+01  0.51100000000E-03 0.  1.
         12    1    4    4    0    0 -0.18802585481E+02  0.26164869992E+02 -0.20061743953E+02  0.37955384505E+02  0.00000000000E+00 0. -1.
</event>
<event>
 8    1  0.1280925E-006  0.9118800E+02  0.7816164E-02  0.1184000E+00
        -11   -1    0    0    0    0  0.00000000000E+00  0.00000000000E+00  0.45593999997E+02  0.45594000000E+02  0.51100000000E-03 0. -1.
         11   -1    0    0    0    0 -0.00000000000E+00 -0.00000000000E+00 -0.45593999997E+02  0.45594000000E+02  0.51100000000E-03 0.  1.
         23    2    1    2    0    0 -0.35527136788E-14 -0.88817841970E-15 -0.71054273576E-14  0.91188000000E+02  0.91188000000E+02 0.  0.
    9900012    2    3    3    0    0 -0.18745684975E+02 -0.68453092641E+01 -0.30943797531E+02  0.54367115033E+02  0.40000070341E+02 0.  0.
         12    1    3    3    0    0  0.18745684975E+02  0.68453092641E+01  0.30943797531E+02  0.36820884967E+02  0.00000000000E+00 0. -1.
         11    1    4    4    0    0 -0.16938065562E+01  0.60781173279E+01  0.15328165617E+01  0.64932286095E+01  0.51100000000E-03 0. -1.
        -11    1    4    4    0    0  0.29813451763E+01 -0.14286527686E+02 -0.17713337798E+02  0.22951157456E+02  0.51100000000E-03 0.  1.
         12    1    4    4    0    0 -0.20033223595E+02  0.13631010944E+01 -0.14763276295E+02  0.24922728967E+02  0.00000000000E+00 0. -1.
</event>
<event>
 8    1  0.1280925E-006  0.9118800E+02  0.7816164E-02  0.1184000E+00
        -11   -1    0    0    0    0  0.00000000000E+00  0.00000000000E+00  0.45593999997E+02  0.45594000000E+02  0.51100000000E-03 0. -1.
         11   -1    0    0    0    0 -0.00000000000E+00 -0.00000000000E+00 -0.45593999997E+02  0.45594000000E+02  0.51100000000E-03 0.  1.
         23    2    1    2    0    0  0.00000000000E+00  0.00000000000E+00 -0.44408920985E-14  0.91188000000E+02  0.91188000000E+02 0.  0.
    9900012    2    3    3    0    0 -0.27558005962E+02  0.24257660418E+02 -0.28110311806E+01  0.54367086407E+02  0.40000005081E+02 0.  0.
         12    1    3    3    0    0  0.27558005962E+02 -0.24257660418E+02  0.28110311806E+01  0.36820913593E+02  0.00000000000E+00 0. -1.
         11    1    4    4    0    0 -0.89250504212E+01  0.10378895553E+02  0.16727924953E+02  0.21614843775E+02  0.51100000000E-03 0. -1.
        -11    1    4    4    0    0  0.57124953154E+00  0.50774539415E+01 -0.46391629073E+01  0.69013547436E+01  0.51100000000E-03 0.  1.
         12    1    4    4    0    0 -0.19204205072E+02  0.88013109233E+01 -0.14899793226E+02  0.25850887888E+02  0.00000000000E+00 0. -1.
</event>
<event>
 8    1  0.1280925E-006  0.9118800E+02  0.7816164E-02  0.1184000E+00
        -11   -1    0    0    0    0  0.00000000000E+00  0.00000000000E+00  0.45593999997E+02  0.45594000000E+02  0.51100000000E-03 0.  1.
         11   -1    0    0    0    0 -0.00000000000E+00 -0.00000000000E+00 -0.45593999997E+02  0.45594000000E+02  0.51100000000E-03 0. -1.
         23    2    1    2    0    0  0.00000000000E+00  0.00000000000E+00  0.00000000000E+00  0.91188000000E+02  0.91188000000E+02 0.  0.
    9900012    2    3    3    0    0  0.21347085087E+02 -0.14379513036E+02 -0.26330796110E+02  0.54367092072E+02  0.40000017997E+02 0.  0.
        -12    1    3    3    0    0 -0.21347085087E+02  0.14379513036E+02  0.26330796110E+02  0.36820907928E+02  0.00000000000E+00 0.  1.
         11    1    4    4    0    0  0.73519071090E+01 -0.14620162635E+02 -0.18783185489E+02  0.24912000140E+02  0.51100000000E-03 0. -1.
        -11    1    4    4    0    0  0.10091809345E+00 -0.22030122083E+01 -0.13835186911E+02  0.14009848121E+02  0.51100000000E-03 0.  1.
        -12    1    4    4    0    0  0.13894259884E+02  0.24436618072E+01  0.62875762909E+01  0.15445243811E+02  0.00000000000E+00 0.  1.
</event>
<event>
 8    1  0.1280925E-006  0.9118800E+02  0.7816164E-02  0.1184000E+00
        -11   -1    0    0    0    0  0.00000000000E+00  0.00000000000E+00  0.45593999997E+02  0.45594000000E+02  0.51100000000E-03 0. -1.
         11   -1    0    0    0    0 -0.00000000000E+00 -0.00000000000E+00 -0.45593999997E+02  0.45594000000E+02  0.51100000000E-03 0.  1.
         23    2    1    2    0    0  0.00000000000E+00  0.00000000000E+00  0.00000000000E+00  0.91188000000E+02  0.91188000000E+02 0.  0.
    9900012    2    3    3    0    0  0.21634503089E+02  0.13954144078E+02 -0.26325086399E+02  0.54367081560E+02  0.39999994032E+02 0.  0.
        -12    1    3    3    0    0 -0.21634503089E+02 -0.13954144078E+02  0.26325086399E+02  0.36820918440E+02  0.00000000000E+00 0.  1.
         11    1    4    4    0    0  0.18604842462E+02  0.20853946704E+02 -0.39822870386E+01  0.28229166946E+02  0.51100000000E-03 0. -1.
        -11    1    4    4    0    0  0.47214409289E+01 -0.78279084803E+01 -0.96242667779E+01  0.13273833918E+02  0.51100000000E-03 0.  1.
         12    1    4    4    0    0 -0.16917803019E+01  0.92810585455E+00 -0.12718532583E+02  0.12864080695E+02  0.00000000000E+00 0. -1.
</event>
<event>
 8    1  0.1280925E-006  0.9118800E+02  0.7816164E-02  0.1184000E+00
        -11   -1    0    0    0    0  0.00000000000E+00  0.00000000000E+00  0.45593999997E+02  0.45594000000E+02  0.51100000000E-03 0. -1.
         11   -1    0    0    0    0 -0.00000000000E+00 -0.00000000000E+00 -0.45593999997E+02  0.45594000000E+02  0.51100000000E-03 0.  1.
         23    2    1    2    0    0  0.00000000000E+00  0.00000000000E+00  0.00000000000E+00  0.91188000000E+02  0.91188000000E+02 0.  0.
    9900012    2    3    3    0    0  0.31266261302E+02  0.13146398829E+02 -0.14330844100E+02  0.54367082160E+02  0.39999995399E+02 0.  0.
         12    1    3    3    0    0 -0.31266261302E+02 -0.13146398829E+02  0.14330844100E+02  0.36820917840E+02  0.00000000000E+00 0. -1.
         11    1    4    4    0    0  0.67457853218E+01  0.78132262589E+01 -0.61903746674E+01  0.12036314343E+02  0.51100000000E-03 0. -1.
        -11    1    4    4    0    0  0.22339819129E+02  0.69672774120E+01 -0.19616583945E+02  0.30535566790E+02  0.51100000000E-03 0.  1.
         12    1    4    4    0    0  0.21806568516E+01 -0.16341048418E+01  0.11476114513E+02  0.11795201026E+02  0.00000000000E+00 0. -1.
</event>
<event>
 8    1  0.1280925E-006  0.9118800E+02  0.7816164E-02  0.1184000E+00
        -11   -1    0    0    0    0  0.00000000000E+00  0.00000000000E+00  0.45593999997E+02  0.45594000000E+02  0.51100000000E-03 0. -1.
         11   -1    0    0    0    0 -0.00000000000E+00 -0.00000000000E+00 -0.45593999997E+02  0.45594000000E+02  0.51100000000E-03 0.  1.
         23    2    1    2    0    0  0.00000000000E+00  0.00000000000E+00  0.00000000000E+00  0.91188000000E+02  0.91188000000E+02 0.  0.
    9900012    2    3    3    0    0 -0.32265445803E+02  0.17335626601E+02  0.37678947116E+01  0.54367082398E+02  0.39999995943E+02 0.  0.
        -12    1    3    3    0    0  0.32265445803E+02 -0.17335626601E+02 -0.37678947116E+01  0.36820917602E+02  0.00000000000E+00 0.  1.
         11    1    4    4    0    0  0.54361578352E+01  0.10261626790E+02  0.10062356953E+01  0.11656127441E+02  0.51100000000E-03 0. -1.
        -11    1    4    4    0    0 -0.87209216613E+01 -0.55446283048E+01  0.39915235051E+01  0.11078340932E+02  0.51100000000E-03 0.  1.
         12    1    4    4    0    0 -0.28980681977E+02  0.12618628115E+02 -0.12298644888E+01  0.31632614024E+02  0.00000000000E+00 0. -1.
</event>
<event>
 8    1  0.1280925E-006  0.9118800E+02  0.7816164E-02  0.1184000E+00
        -11   -1    0    0    0    0  0.00000000000E+00  0.00000000000E+00  0.45593999997E+02  0.45594000000E+02  0.51100000000E-03 0.  1.
         11   -1    0    0    0    0 -0.00000000000E+00 -0.00000000000E+00 -0.45593999997E+02  0.45594000000E+02  0.51100000000E-03 0. -1.
         23    2    1    2    0    0  0.00000000000E+00  0.00000000000E+00  0.00000000000E+00  0.91188000000E+02  0.91188000000E+02 0.  0.
    9900012    2    3    3    0    0  0.52435762155E+01 -0.18997211896E+02 -0.31102928777E+02  0.54367063973E+02  0.39999953940E+02 0.  0.
        -12    1    3    3    0    0 -0.52435762155E+01  0.18997211896E+02  0.31102928777E+02  0.36820936027E+02  0.00000000000E+00 0.  1.
         11    1    4    4    0    0 -0.76388241481E+01  0.17243557876E+01  0.28907084904E+01  0.83475285615E+01  0.51100000000E-03 0. -1.
        -11    1    4    4    0    0 -0.24311066864E+00 -0.82671180042E+01 -0.92227131140E+00  0.83219545496E+01  0.51100000000E-03 0.  1.
         12    1    4    4    0    0  0.13125511032E+02 -0.12454449680E+02 -0.33071365956E+02  0.37697580862E+02  0.00000000000E+00 0. -1.
</event>
<event>
 8    1  0.1280925E-006  0.9118800E+02  0.7816164E-02  0.1184000E+00
        -11   -1    0    0    0    0  0.00000000000E+00  0.00000000000E+00  0.45593999997E+02  0.45594000000E+02  0.51100000000E-03 0.  1.
         11   -1    0    0    0    0 -0.00000000000E+00 -0.00000000000E+00 -0.45593999997E+02  0.45594000000E+02  0.51100000000E-03 0. -1.
         23    2    1    2    0    0 -0.17763568394E-14  0.00000000000E+00  0.00000000000E+00  0.91188000000E+02  0.91188000000E+02 0.  0.
    9900012    2    3    3    0    0  0.11845536118E+02 -0.93994403802E+01 -0.33572519716E+02  0.54367078156E+02  0.39999986272E+02 0.  0.
        -12    1    3    3    0    0 -0.11845536118E+02  0.93994403802E+01  0.33572519716E+02  0.36820921844E+02  0.00000000000E+00 0.  1.
         11    1    4    4    0    0  0.18593954812E+02 -0.13012463518E+02 -0.31814052093E+02  0.39079320275E+02  0.51100000000E-03 0. -1.
        -11    1    4    4    0    0 -0.28095059482E+01 -0.41319957586E+01 -0.39001647446E+01  0.63386116712E+01  0.51100000000E-03 0.  1.
         12    1    4    4    0    0 -0.39389127458E+01  0.77450188962E+01  0.21416971216E+01  0.89491462097E+01  0.00000000000E+00 0. -1.
</event>
<event>
 8    1  0.1280925E-006  0.9118800E+02  0.7816164E-02  0.1184000E+00
        -11   -1    0    0    0    0  0.00000000000E+00  0.00000000000E+00  0.45593999997E+02  0.45594000000E+02  0.51100000000E-03 0.  1.
         11   -1    0    0    0    0 -0.00000000000E+00 -0.00000000000E+00 -0.45593999997E+02  0.45594000000E+02  0.51100000000E-03 0. -1.
         23    2    1    2    0    0  0.00000000000E+00  0.00000000000E+00  0.35527136788E-14  0.91188000000E+02  0.91188000000E+02 0.  0.
    9900012    2    3    3    0    0 -0.12644751594E+02 -0.24012770042E+02  0.24885292055E+02  0.54367073496E+02  0.39999975648E+02 0.  0.
        -12    1    3    3    0    0  0.12644751594E+02  0.24012770042E+02 -0.24885292055E+02  0.36820926504E+02  0.00000000000E+00 0.  1.
         11    1    4    4    0    0  0.18061077375E+01 -0.12423569214E+02  0.49332115576E+01  0.13488649810E+02  0.51100000000E-03 0. -1.
        -11    1    4    4    0    0  0.26280537303E+01  0.14886275537E+01  0.19114037291E+02  0.19351204103E+02  0.51100000000E-03 0.  1.
         12    1    4    4    0    0 -0.17078913061E+02 -0.13077828382E+02  0.83804320641E+00  0.21527219583E+02  0.00000000000E+00 0. -1.
</event>
<event>
 8    1  0.1280925E-006  0.9118800E+02  0.7816164E-02  0.1184000E+00
        -11   -1    0    0    0    0  0.00000000000E+00  0.00000000000E+00  0.45593999997E+02  0.45594000000E+02  0.51100000000E-03 0.  1.
         11   -1    0    0    0    0 -0.00000000000E+00 -0.00000000000E+00 -0.45593999997E+02  0.45594000000E+02  0.51100000000E-03 0. -1.
         23    2    1    2    0    0  0.35527136788E-14  0.88817841970E-15  0.35527136788E-14  0.91188000000E+02  0.91188000000E+02 0.  0.
    9900012    2    3    3    0    0 -0.28493866049E+02  0.72717953718E+01 -0.22158500114E+02  0.54367101890E+02  0.40000040379E+02 0.  0.
        -12    1    3    3    0    0  0.28493866049E+02 -0.72717953718E+01  0.22158500114E+02  0.36820898110E+02  0.00000000000E+00 0.  1.
         11    1    4    4    0    0  0.23864061868E+00  0.19048922902E+01 -0.23176058242E+01  0.30094619120E+01  0.51100000000E-03 0. -1.
        -11    1    4    4    0    0  0.66968641299E+01  0.39127692365E+01  0.39031620744E+01  0.86828812448E+01  0.51100000000E-03 0.  1.
         12    1    4    4    0    0 -0.35429370797E+02  0.14541338452E+01 -0.23744056364E+02  0.42674758733E+02  0.00000000000E+00 0. -1.
</event>
<event>
 8    1  0.1280925E-006  0.9118800E+02  0.7816164E-02  0.1184000E+00
        -11   -1    0    0    0    0  0.00000000000E+00  0.00000000000E+00  0.45593999997E+02  0.45594000000E+02  0.51100000000E-03 0.  1.
         11   -1    0    0    0    0 -0.00000000000E+00 -0.00000000000E+00 -0.45593999997E+02  0.45594000000E+02  0.51100000000E-03 0. -1.
         23    2    1    2    0    0  0.00000000000E+00 -0.88817841970E-15  0.35527136788E-14  0.91188000000E+02  0.91188000000E+02 0.  0.
    9900012    2    3    3    0    0 -0.21358361397E+02 -0.54835969473E+01  0.29487810162E+02  0.54367076801E+02  0.39999983184E+02 0.  0.
         12    1    3    3    0    0  0.21358361397E+02  0.54835969473E+01 -0.29487810162E+02  0.36820923199E+02  0.00000000000E+00 0. -1.
         11    1    4    4    0    0  0.79587581911E+00 -0.84758854640E+01  0.26293059501E+01  0.89099552613E+01  0.51100000000E-03 0. -1.
        -11    1    4    4    0    0 -0.20510138174E+02 -0.10527589702E+02  0.16817405356E+02  0.28536310834E+02  0.51100000000E-03 0.  1.
        -12    1    4    4    0    0 -0.16440990418E+01  0.13519878219E+02  0.10041098856E+02  0.16920810706E+02  0.00000000000E+00 0.  1.
</event>
<event>
 8    1  0.1280925E-006  0.9118800E+02  0.7816164E-02  0.1184000E+00
        -11   -1    0    0    0    0  0.00000000000E+00  0.00000000000E+00  0.45593999997E+02  0.45594000000E+02  0.51100000000E-03 0. -1.
         11   -1    0    0    0    0 -0.00000000000E+00 -0.00000000000E+00 -0.45593999997E+02  0.45594000000E+02  0.51100000000E-03 0.  1.
         23    2    1    2    0    0  0.00000000000E+00  0.00000000000E+00 -0.71054273576E-14  0.91188000000E+02  0.91188000000E+02 0.  0.
    9900012    2    3    3    0    0 -0.15231013498E+02  0.20395189753E+02  0.26605117675E+02  0.54367084425E+02  0.40000000564E+02 0.  0.
        -12    1    3    3    0    0  0.15231013498E+02 -0.20395189753E+02 -0.26605117675E+02  0.36820915575E+02  0.00000000000E+00 0.  1.
         11    1    4    4    0    0 -0.89225884805E+01  0.16566012529E+02 -0.63658547835E+01  0.19863772645E+02  0.51100000000E-03 0. -1.
        -11    1    4    4    0    0 -0.26195833454E+01  0.53620200100E+01  0.16230949985E+02  0.17293270748E+02  0.51100000000E-03 0.  1.
         12    1    4    4    0    0 -0.36888416724E+01 -0.15328427863E+01  0.16740022474E+02  0.17210041032E+02  0.00000000000E+00 0. -1.
</event>
<event>
 8    1  0.1280925E-006  0.9118800E+02  0.7816164E-02  0.1184000E+00
        -11   -1    0    0    0    0  0.00000000000E+00  0.00000000000E+00  0.45593999997E+02  0.45594000000E+02  0.51100000000E-03 0. -1.
         11   -1    0    0    0    0 -0.00000000000E+00 -0.00000000000E+00 -0.45593999997E+02  0.45594000000E+02  0.51100000000E-03 0.  1.
         23    2    1    2    0    0  0.00000000000E+00  0.17763568394E-14  0.00000000000E+00  0.91188000000E+02  0.91188000000E+02 0.  0.
    9900012    2    3    3    0    0 -0.29573713264E+02 -0.96438742653E+01  0.19702054511E+02  0.54367085033E+02  0.40000001949E+02 0.  0.
        -12    1    3    3    0    0  0.29573713264E+02  0.96438742653E+01 -0.19702054511E+02  0.36820914967E+02  0.00000000000E+00 0.  1.
         11    1    4    4    0    0 -0.13502924502E+02  0.69800804186E+00 -0.56387002345E+01  0.14649611801E+02  0.51100000000E-03 0. -1.
        -11    1    4    4    0    0 -0.11094026288E+02 -0.61051593054E+01  0.29408653454E+02  0.32019045702E+02  0.51100000000E-03 0.  1.
        -12    1    4    4    0    0 -0.49767624740E+01 -0.42367230017E+01 -0.40678987086E+01  0.76984275291E+01  0.00000000000E+00 0.  1.
</event>
<event>
 8    1  0.1280925E-006  0.9118800E+02  0.7816164E-02  0.1184000E+00
        -11   -1    0    0    0    0  0.00000000000E+00  0.00000000000E+00  0.45593999997E+02  0.45594000000E+02  0.51100000000E-03 0.  1.
         11   -1    0    0    0    0 -0.00000000000E+00 -0.00000000000E+00 -0.45593999997E+02  0.45594000000E+02  0.51100000000E-03 0. -1.
         23    2    1    2    0    0 -0.44408920985E-15  0.00000000000E+00  0.00000000000E+00  0.91188000000E+02  0.91188000000E+02 0.  0.
    9900012    2    3    3    0    0 -0.15061854151E+01 -0.20612571704E+02 -0.30473496320E+02  0.54367072734E+02  0.39999973911E+02 0.  0.
        -12    1    3    3    0    0  0.15061854151E+01  0.20612571704E+02  0.30473496320E+02  0.36820927266E+02  0.00000000000E+00 0.  1.
         11    1    4    4    0    0 -0.63415553286E+01 -0.14387468182E+02 -0.10664434710E+02  0.18998545539E+02  0.51100000000E-03 0. -1.
        -11    1    4    4    0    0 -0.76335433715E+01 -0.72141114439E+01  0.15497098861E+01  0.10616778670E+02  0.51100000000E-03 0.  1.
         12    1    4    4    0    0  0.12468913285E+02  0.98900792155E+00 -0.21358771497E+02  0.24751748525E+02  0.00000000000E+00 0. -1.
</event>
<event>
 8    1  0.1280925E-006  0.9118800E+02  0.7816164E-02  0.1184000E+00
        -11   -1    0    0    0    0  0.00000000000E+00  0.00000000000E+00  0.45593999997E+02  0.45594000000E+02  0.51100000000E-03 0. -1.
         11   -1    0    0    0    0 -0.00000000000E+00 -0.00000000000E+00 -0.45593999997E+02  0.45594000000E+02  0.51100000000E-03 0.  1.
         23    2    1    2    0    0 -0.35527136788E-14  0.00000000000E+00  0.00000000000E+00  0.91188000000E+02  0.91188000000E+02 0.  0.
    9900012    2    3    3    0    0 -0.30228528460E+02 -0.23447382976E+01  0.20892989926E+02  0.54367098889E+02  0.40000033538E+02 0.  0.
         12    1    3    3    0    0  0.30228528460E+02  0.23447382976E+01 -0.20892989926E+02  0.36820901111E+02  0.00000000000E+00 0. -1.
         11    1    4    4    0    0  0.28777104895E+01 -0.38314703435E+01 -0.20258669295E+01  0.52024532417E+01  0.51100000000E-03 0. -1.
        -11    1    4    4    0    0  0.35959841818E+01 -0.15051936601E+01  0.89821257232E+01  0.97915929735E+01  0.51100000000E-03 0.  1.
        -12    1    4    4    0    0 -0.36702223132E+02  0.29919257060E+01  0.13936731132E+02  0.39373052674E+02  0.00000000000E+00 0.  1.
</event>
<event>
 8    1  0.1280925E-006  0.9118800E+02  0.7816164E-02  0.1184000E+00
        -11   -1    0    0    0    0  0.00000000000E+00  0.00000000000E+00  0.45593999997E+02  0.45594000000E+02  0.51100000000E-03 0. -1.
         11   -1    0    0    0    0 -0.00000000000E+00 -0.00000000000E+00 -0.45593999997E+02  0.45594000000E+02  0.51100000000E-03 0.  1.
         23    2    1    2    0    0  0.00000000000E+00  0.00000000000E+00  0.88817841970E-15  0.91188000000E+02  0.91188000000E+02 0.  0.
    9900012    2    3    3    0    0 -0.19142519056E+02 -0.30748445153E+02  0.66239580147E+01  0.54367085632E+02  0.40000003314E+02 0.  0.
        -12    1    3    3    0    0  0.19142519056E+02  0.30748445153E+02 -0.66239580147E+01  0.36820914368E+02  0.00000000000E+00 0.  1.
         11    1    4    4    0    0 -0.18649616638E+01 -0.68540926278E+01  0.14444517616E+02  0.16096607009E+02  0.51100000000E-03 0. -1.
        -11    1    4    4    0    0 -0.18779861824E+02 -0.14326220170E+02  0.29288979668E+01  0.23801307486E+02  0.51100000000E-03 0.  1.
         12    1    4    4    0    0  0.15023044318E+01 -0.95681323547E+01 -0.10749457568E+02  0.14469171137E+02  0.00000000000E+00 0. -1.
</event>
<event>
 8    1  0.1280925E-006  0.9118800E+02  0.7816164E-02  0.1184000E+00
        -11   -1    0    0    0    0  0.00000000000E+00  0.00000000000E+00  0.45593999997E+02  0.45594000000E+02  0.51100000000E-03 0. -1.
         11   -1    0    0    0    0 -0.00000000000E+00 -0.00000000000E+00 -0.45593999997E+02  0.45594000000E+02  0.51100000000E-03 0.  1.
         23    2    1    2    0    0  0.00000000000E+00  0.35527136788E-14  0.00000000000E+00  0.91188000000E+02  0.91188000000E+02 0.  0.
    9900012    2    3    3    0    0 -0.14694683892E+02  0.14652562876E+02  0.30416303373E+02  0.54367043407E+02  0.39999907055E+02 0.  0.
        -12    1    3    3    0    0  0.14694683892E+02 -0.14652562876E+02 -0.30416303373E+02  0.36820956593E+02  0.00000000000E+00 0.  1.
         11    1    4    4    0    0 -0.15721910700E+02  0.16483132452E+02  0.22749679898E+02  0.32193478645E+02  0.51100000000E-03 0. -1.
        -11    1    4    4    0    0  0.30317533175E+01 -0.36378743946E+01  0.14272487795E+02  0.15037605076E+02  0.51100000000E-03 0.  1.
         12    1    4    4    0    0 -0.20045265092E+01  0.18073048187E+01 -0.66058643204E+01  0.71359596870E+01  0.00000000000E+00 0. -1.
</event>
<event>
 8    1  0.1280925E-006  0.9118800E+02  0.7816164E-02  0.1184000E+00
        -11   -1    0    0    0    0  0.00000000000E+00  0.00000000000E+00  0.45593999997E+02  0.45594000000E+02  0.51100000000E-03 0.  1.
         11   -1    0    0    0    0 -0.00000000000E+00 -0.00000000000E+00 -0.45593999997E+02  0.45594000000E+02  0.51100000000E-03 0. -1.
         23    2    1    2    0    0  0.00000000000E+00  0.88817841970E-15 -0.35527136788E-14  0.91188000000E+02  0.91188000000E+02 0.  0.
    9900012    2    3    3    0    0 -0.22412235807E+02  0.69059386632E+01 -0.28386214622E+02  0.54367116208E+02  0.40000073019E+02 0.  0.
        -12    1    3    3    0    0  0.22412235807E+02 -0.69059386632E+01  0.28386214622E+02  0.36820883792E+02  0.00000000000E+00 0.  1.
         11    1    4    4    0    0 -0.15059118941E+02  0.10017796216E+02  0.15738628160E+01  0.18155174158E+02  0.51100000000E-03 0. -1.
        -11    1    4    4    0    0  0.48284463046E+01  0.18830849148E+00 -0.18647211924E+02  0.19263121933E+02  0.51100000000E-03 0.  1.
        -12    1    4    4    0    0 -0.12181563171E+02 -0.33001660443E+01 -0.11312865514E+02  0.16948820116E+02  0.00000000000E+00 0.  1.
</event>
<event>
 8    1  0.1280925E-006  0.9118800E+02  0.7816164E-02  0.1184000E+00
        -11   -1    0    0    0    0  0.00000000000E+00  0.00000000000E+00  0.45593999997E+02  0.45594000000E+02  0.51100000000E-03 0. -1.
         11   -1    0    0    0    0 -0.00000000000E+00 -0.00000000000E+00 -0.45593999997E+02  0.45594000000E+02  0.51100000000E-03 0.  1.
         23    2    1    2    0    0  0.00000000000E+00  0.00000000000E+00  0.00000000000E+00  0.91188000000E+02  0.91188000000E+02 0.  0.
    9900012    2    3    3    0    0  0.22290095263E+02  0.27655844945E+02 -0.96998294165E+01  0.54367071208E+02  0.39999970432E+02 0.  0.
        -12    1    3    3    0    0 -0.22290095263E+02 -0.27655844945E+02  0.96998294165E+01  0.36820928792E+02  0.00000000000E+00 0.  1.
         11    1    4    4    0    0 -0.61303412392E+01  0.44111798186E+01  0.29693215974E+01  0.81151994499E+01  0.51100000000E-03 0. -1.
        -11    1    4    4    0    0  0.86505770762E+01  0.64958375175E+01 -0.16832166271E+02  0.20008753345E+02  0.51100000000E-03 0.  1.
         12    1    4    4    0    0  0.19769859426E+02  0.16748827608E+02  0.41630152569E+01  0.26243118412E+02  0.00000000000E+00 0. -1.
</event>
<event>
 8    1  0.1280925E-006  0.9118800E+02  0.7816164E-02  0.1184000E+00
        -11   -1    0    0    0    0  0.00000000000E+00  0.00000000000E+00  0.45593999997E+02  0.45594000000E+02  0.51100000000E-03 0.  1.
         11   -1    0    0    0    0 -0.00000000000E+00 -0.00000000000E+00 -0.45593999997E+02  0.45594000000E+02  0.51100000000E-03 0. -1.
         23    2    1    2    0    0 -0.26645352591E-14 -0.35527136788E-14  0.00000000000E+00  0.91188000000E+02  0.91188000000E+02 0.  0.
    9900012    2    3    3    0    0  0.35953037945E+01 -0.25964122325E+02  0.25859594902E+02  0.54367075161E+02  0.39999979445E+02 0.  0.
         12    1    3    3    0    0 -0.35953037945E+01  0.25964122325E+02 -0.25859594902E+02  0.36820924839E+02  0.00000000000E+00 0. -1.
         11    1    4    4    0    0 -0.80635145113E+01 -0.11237890966E+02  0.25763727818E+01  0.14069404984E+02  0.51100000000E-03 0. -1.
        -11    1    4    4    0    0  0.19137177833E+02 -0.15275219659E+02  0.21510675511E+02  0.32592530927E+02  0.51100000000E-03 0.  1.
        -12    1    4    4    0    0 -0.74783595275E+01  0.54898829952E+00  0.17725466095E+01  0.77051392498E+01  0.00000000000E+00 0.  1.
</event>
<event>
 8    1  0.1280925E-006  0.9118800E+02  0.7816164E-02  0.1184000E+00
        -11   -1    0    0    0    0  0.00000000000E+00  0.00000000000E+00  0.45593999997E+02  0.45594000000E+02  0.51100000000E-03 0.  1.
         11   -1    0    0    0    0 -0.00000000000E+00 -0.00000000000E+00 -0.45593999997E+02  0.45594000000E+02  0.51100000000E-03 0. -1.
         23    2    1    2    0    0  0.00000000000E+00  0.00000000000E+00  0.35527136788E-14  0.91188000000E+02  0.91188000000E+02 0.  0.
    9900012    2    3    3    0    0 -0.26981212959E+02  0.18494927068E+02 -0.16903190779E+02  0.54367271619E+02  0.40000427307E+02 0.  0.
        -12    1    3    3    0    0  0.26981212959E+02 -0.18494927068E+02  0.16903190779E+02  0.36820728381E+02  0.00000000000E+00 0.  1.
         11    1    4    4    0    0 -0.28596471815E+02  0.12673728985E+02 -0.12847381642E+02  0.33814742672E+02  0.51100000000E-03 0. -1.
        -11    1    4    4    0    0 -0.63080146000E+01  0.14724574236E+01  0.46731369317E+01  0.79873267181E+01  0.51100000000E-03 0.  1.
        -12    1    4    4    0    0  0.79232734555E+01  0.43487406593E+01 -0.87289460689E+01  0.12565202229E+02  0.00000000000E+00 0.  1.
</event>
<event>
 8    1  0.1280925E-006  0.9118800E+02  0.7816164E-02  0.1184000E+00
        -11   -1    0    0    0    0  0.00000000000E+00  0.00000000000E+00  0.45593999997E+02  0.45594000000E+02  0.51100000000E-03 0. -1.
         11   -1    0    0    0    0 -0.00000000000E+00 -0.00000000000E+00 -0.45593999997E+02  0.45594000000E+02  0.51100000000E-03 0.  1.
         23    2    1    2    0    0 -0.35527136788E-14  0.00000000000E+00  0.00000000000E+00  0.91188000000E+02  0.91188000000E+02 0.  0.
    9900012    2    3    3    0    0  0.25598714773E+02 -0.87300726572E+01 -0.24985420350E+02  0.54367087508E+02  0.40000007592E+02 0.  0.
         12    1    3    3    0    0 -0.25598714773E+02  0.87300726572E+01  0.24985420350E+02  0.36820912492E+02  0.00000000000E+00 0. -1.
         11    1    4    4    0    0  0.26883248995E+00  0.61593564830E+00 -0.24711208391E+02  0.24720345225E+02  0.51100000000E-03 0. -1.
        -11    1    4    4    0    0  0.65103906716E+01  0.24007342839E+00 -0.47435061516E+01  0.80587637277E+01  0.51100000000E-03 0.  1.
         12    1    4    4    0    0  0.18819491612E+02 -0.95860817339E+01  0.44692941921E+01  0.21587978556E+02  0.00000000000E+00 0. -1.
</event>
<event>
 8    1  0.1280925E-006  0.9118800E+02  0.7816164E-02  0.1184000E+00
        -11   -1    0    0    0    0  0.00000000000E+00  0.00000000000E+00  0.45593999997E+02  0.45594000000E+02  0.51100000000E-03 0.  1.
         11   -1    0    0    0    0 -0.00000000000E+00 -0.00000000000E+00 -0.45593999997E+02  0.45594000000E+02  0.51100000000E-03 0. -1.
         23    2    1    2    0    0  0.35527136788E-14 -0.27755575616E-16  0.35527136788E-14  0.91188000000E+02  0.91188000000E+02 0.  0.
    9900012    2    3    3    0    0  0.18744838293E+02  0.21052279387E+00  0.31691751116E+02  0.54367076990E+02  0.39999983615E+02 0.  0.
         12    1    3    3    0    0 -0.18744838293E+02 -0.21052279387E+00 -0.31691751116E+02  0.36820923010E+02  0.00000000000E+00 0. -1.
         11    1    4    4    0    0 -0.55844356841E+01 -0.70061847698E+00 -0.35606359570E+01  0.66599487115E+01  0.51100000000E-03 0. -1.
        -11    1    4    4    0    0  0.21328708176E+01  0.15304319019E+01  0.21346206613E+02  0.21507019708E+02  0.51100000000E-03 0.  1.
         12    1    4    4    0    0  0.22196403160E+02 -0.61929063102E+00  0.13906180461E+02  0.26200108570E+02  0.00000000000E+00 0. -1.
</event>
<event>
 8    1  0.1280925E-006  0.9118800E+02  0.7816164E-02  0.1184000E+00
        -11   -1    0    0    0    0  0.00000000000E+00  0.00000000000E+00  0.45593999997E+02  0.45594000000E+02  0.51100000000E-03 0. -1.
         11   -1    0    0    0    0 -0.00000000000E+00 -0.00000000000E+00 -0.45593999997E+02  0.45594000000E+02  0.51100000000E-03 0.  1.
         23    2    1    2    0    0  0.00000000000E+00  0.00000000000E+00  0.00000000000E+00  0.91188000000E+02  0.91188000000E+02 0.  0.
    9900012    2    3    3    0    0  0.84325783135E+01 -0.23380776468E+02  0.27166323640E+02  0.54367106131E+02  0.40000050046E+02 0.  0.
        -12    1    3    3    0    0 -0.84325783135E+01  0.23380776468E+02 -0.27166323640E+02  0.36820893869E+02  0.00000000000E+00 0.  1.
         11    1    4    4    0    0  0.55470262455E+01 -0.11296744819E+02  0.25879765344E+02  0.28777564146E+02  0.51100000000E-03 0. -1.
        -11    1    4    4    0    0  0.22537363929E+01 -0.17761714798E+02 -0.33710832431E+01  0.18218727803E+02  0.51100000000E-03 0.  1.
        -12    1    4    4    0    0  0.63181567515E+00  0.56776831489E+01  0.46576415390E+01  0.73708141811E+01  0.00000000000E+00 0.  1.
</event>
<event>
 8    1  0.1280925E-006  0.9118800E+02  0.7816164E-02  0.1184000E+00
        -11   -1    0    0    0    0  0.00000000000E+00  0.00000000000E+00  0.45593999997E+02  0.45594000000E+02  0.51100000000E-03 0.  1.
         11   -1    0    0    0    0 -0.00000000000E+00 -0.00000000000E+00 -0.45593999997E+02  0.45594000000E+02  0.51100000000E-03 0. -1.
         23    2    1    2    0    0  0.00000000000E+00  0.88817841970E-15  0.00000000000E+00  0.91188000000E+02  0.91188000000E+02 0.  0.
    9900012    2    3    3    0    0 -0.16185027565E+02  0.66211924996E+01  0.32403454962E+02  0.54367092884E+02  0.40000019848E+02 0.  0.
         12    1    3    3    0    0  0.16185027565E+02 -0.66211924996E+01 -0.32403454962E+02  0.36820907116E+02  0.00000000000E+00 0. -1.
         11    1    4    4    0    0 -0.16264646954E+01  0.12137708803E+02  0.10251429646E+02  0.15970634691E+02  0.51100000000E-03 0. -1.
        -11    1    4    4    0    0 -0.17067225319E+02  0.29382393668E+01  0.23790588908E+02  0.29426443066E+02  0.51100000000E-03 0.  1.
         12    1    4    4    0    0  0.25086624497E+01 -0.84547556704E+01 -0.16385635919E+01  0.89700151269E+01  0.00000000000E+00 0. -1.
</event>
<event>
 8    1  0.1280925E-006  0.9118800E+02  0.7816164E-02  0.1184000E+00
        -11   -1    0    0    0    0  0.00000000000E+00  0.00000000000E+00  0.45593999997E+02  0.45594000000E+02  0.51100000000E-03 0.  1.
         11   -1    0    0    0    0 -0.00000000000E+00 -0.00000000000E+00 -0.45593999997E+02  0.45594000000E+02  0.51100000000E-03 0. -1.
         23    2    1    2    0    0  0.88817841970E-15  0.00000000000E+00  0.35527136788E-14  0.91188000000E+02  0.91188000000E+02 0.  0.
    9900012    2    3    3    0    0  0.51549037052E+01  0.28476642789E+02  0.22765928637E+02  0.54367085788E+02  0.40000003670E+02 0.  0.
         12    1    3    3    0    0 -0.51549037052E+01 -0.28476642789E+02 -0.22765928637E+02  0.36820914212E+02  0.00000000000E+00 0. -1.
         11    1    4    4    0    0 -0.61549473741E+01  0.25415122665E+02  0.51448954459E+01  0.26651112297E+02  0.51100000000E-03 0. -1.
        -11    1    4    4    0    0 -0.30404436221E+01  0.58652389064E+01  0.39412149241E+01  0.76927563452E+01  0.51100000000E-03 0.  1.
         12    1    4    4    0    0  0.14350294701E+02 -0.28037187830E+01  0.13679818267E+02  0.20023217145E+02  0.00000000000E+00 0. -1.
</event>
<event>
 8    1  0.1280925E-006  0.9118800E+02  0.7816164E-02  0.1184000E+00
        -11   -1    0    0    0    0  0.00000000000E+00  0.00000000000E+00  0.45593999997E+02  0.45594000000E+02  0.51100000000E-03 0.  1.
         11   -1    0    0    0    0 -0.00000000000E+00 -0.00000000000E+00 -0.45593999997E+02  0.45594000000E+02  0.51100000000E-03 0. -1.
         23    2    1    2    0    0  0.17763568394E-14  0.00000000000E+00  0.00000000000E+00  0.91188000000E+02  0.91188000000E+02 0.  0.
    9900012    2    3    3    0    0 -0.80486551859E+01  0.31609096152E+02 -0.17084055809E+02  0.54367071540E+02  0.39999971189E+02 0.  0.
        -12    1    3    3    0    0  0.80486551859E+01 -0.31609096152E+02  0.17084055809E+02  0.36820928460E+02  0.00000000000E+00 0.  1.
         11    1    4    4    0    0 -0.10721500870E+02  0.28247151075E+02 -0.15946846066E+02  0.34163635996E+02  0.51100000000E-03 0. -1.
        -11    1    4    4    0    0  0.38900975257E+01 -0.79114749367E+01 -0.94467553698E-01  0.88166444191E+01  0.51100000000E-03 0.  1.
        -12    1    4    4    0    0 -0.12172518416E+01  0.11273420014E+02 -0.10427421895E+01  0.11386791125E+02  0.00000000000E+00 0.  1.
</event>
<event>
 8    1  0.1280925E-006  0.9118800E+02  0.7816164E-02  0.1184000E+00
        -11   -1    0    0    0    0  0.00000000000E+00  0.00000000000E+00  0.45593999997E+02  0.45594000000E+02  0.51100000000E-03 0.  1.
         11   -1    0    0    0    0 -0.00000000000E+00 -0.00000000000E+00 -0.45593999997E+02  0.45594000000E+02  0.51100000000E-03 0. -1.
         23    2    1    2    0    0  0.00000000000E+00 -0.99920072216E-15  0.00000000000E+00  0.91188000000E+02  0.91188000000E+02 0.  0.
    9900012    2    3    3    0    0  0.34431312742E+02 -0.57636255059E+00 -0.13035810516E+02  0.54367084113E+02  0.39999999852E+02 0.  0.
        -12    1    3    3    0    0 -0.34431312742E+02  0.57636255059E+00  0.13035810516E+02  0.36820915887E+02  0.00000000000E+00 0.  1.
         11    1    4    4    0    0  0.10345759637E+02  0.12517332167E+02 -0.32458063778E+01  0.16560604045E+02  0.51100000000E-03 0. -1.
        -11    1    4    4    0    0  0.16345764450E+02  0.28383891551E+01 -0.11232575504E+02  0.20035249466E+02  0.51100000000E-03 0.  1.
        -12    1    4    4    0    0  0.77397886551E+01 -0.15932083873E+02  0.14425713660E+01  0.17771230602E+02  0.00000000000E+00 0.  1.
</event>
<event>
 8    1  0.1280925E-006  0.9118800E+02  0.7816164E-02  0.1184000E+00
        -11   -1    0    0    0    0  0.00000000000E+00  0.00000000000E+00  0.45593999997E+02  0.45594000000E+02  0.51100000000E-03 0. -1.
         11   -1    0    0    0    0 -0.00000000000E+00 -0.00000000000E+00 -0.45593999997E+02  0.45594000000E+02  0.51100000000E-03 0.  1.
         23    2    1    2    0    0  0.00000000000E+00  0.00000000000E+00  0.35527136788E-14  0.91188000000E+02  0.91188000000E+02 0.  0.
    9900012    2    3    3    0    0  0.25376309391E+02 -0.14658952800E+02  0.22292113820E+02  0.54367077767E+02  0.39999985387E+02 0.  0.
        -12    1    3    3    0    0 -0.25376309391E+02  0.14658952800E+02 -0.22292113820E+02  0.36820922233E+02  0.00000000000E+00 0.  1.
         11    1    4    4    0    0  0.24011536059E+01 -0.30593974478E+01  0.71374351695E+01  0.81282490391E+01  0.51100000000E-03 0. -1.
        -11    1    4    4    0    0  0.12105345441E+01  0.74093464900E+01  0.15628192287E+02  0.17337941161E+02  0.51100000000E-03 0.  1.
         12    1    4    4    0    0  0.21764621241E+02 -0.19008901843E+02 -0.47351363635E+00  0.28900887567E+02  0.00000000000E+00 0. -1.
</event>
<event>
 8    1  0.1280925E-006  0.9118800E+02  0.7816164E-02  0.1184000E+00
        -11   -1    0    0    0    0  0.00000000000E+00  0.00000000000E+00  0.45593999997E+02  0.45594000000E+02  0.51100000000E-03 0.  1.
         11   -1    0    0    0    0 -0.00000000000E+00 -0.00000000000E+00 -0.45593999997E+02  0.45594000000E+02  0.51100000000E-03 0. -1.
         23    2    1    2    0    0  0.71054273576E-14  0.00000000000E+00  0.00000000000E+00  0.91188000000E+02  0.91188000000E+02 0.  0.
    9900012    2    3    3    0    0 -0.17661304408E+02 -0.30970933164E+02  0.92010642120E+01  0.54367082615E+02  0.39999996436E+02 0.  0.
        -12    1    3    3    0    0  0.17661304408E+02  0.30970933164E+02 -0.92010642120E+01  0.36820917385E+02  0.00000000000E+00 0.  1.
         11    1    4    4    0    0 -0.23757502065E+02 -0.28201868246E+02  0.62842084701E-01  0.36875035272E+02  0.51100000000E-03 0. -1.
        -11    1    4    4    0    0  0.15555960456E+01 -0.30995529753E+01 -0.29638651748E+01  0.45619737767E+01  0.51100000000E-03 0.  1.
        -12    1    4    4    0    0  0.45406016115E+01  0.33048805665E+00  0.12102087302E+02  0.12930073566E+02  0.00000000000E+00 0.  1.
</event>
<event>
 8    1  0.1280925E-006  0.9118800E+02  0.7816164E-02  0.1184000E+00
        -11   -1    0    0    0    0  0.00000000000E+00  0.00000000000E+00  0.45593999997E+02  0.45594000000E+02  0.51100000000E-03 0.  1.
         11   -1    0    0    0    0 -0.00000000000E+00 -0.00000000000E+00 -0.45593999997E+02  0.45594000000E+02  0.51100000000E-03 0. -1.
         23    2    1    2    0    0 -0.22204460493E-15 -0.88817841970E-15  0.71054273576E-14  0.91188000000E+02  0.91188000000E+02 0.  0.
    9900012    2    3    3    0    0 -0.10802901005E+01 -0.77461210796E+01 -0.35980720160E+02  0.54367059739E+02  0.39999944286E+02 0.  0.
        -12    1    3    3    0    0  0.10802901005E+01  0.77461210796E+01  0.35980720160E+02  0.36820940261E+02  0.00000000000E+00 0.  1.
         11    1    4    4    0    0 -0.65292768960E+01  0.67621221596E+01 -0.31805818688E+02  0.33165763304E+02  0.51100000000E-03 0. -1.
        -11    1    4    4    0    0 -0.30473572410E+01 -0.10389087858E+02  0.12169550739E+00  0.10827480904E+02  0.51100000000E-03 0.  1.
        -12    1    4    4    0    0  0.84963440364E+01 -0.41191553811E+01 -0.42965969796E+01  0.10373815530E+02  0.00000000000E+00 0.  1.
</event>
<event>
 8    1  0.1280925E-006  0.9118800E+02  0.7816164E-02  0.1184000E+00
        -11   -1    0    0    0    0  0.00000000000E+00  0.00000000000E+00  0.45593999997E+02  0.45594000000E+02  0.51100000000E-03 0.  1.
         11   -1    0    0    0    0 -0.00000000000E+00 -0.00000000000E+00 -0.45593999997E+02  0.45594000000E+02  0.51100000000E-03 0. -1.
         23    2    1    2    0    0  0.00000000000E+00  0.11102230246E-14  0.88817841970E-15  0.91188000000E+02  0.91188000000E+02 0.  0.
    9900012    2    3    3    0    0  0.36221378405E+02 -0.12980301642E+01 -0.64890193245E+01  0.54367075138E+02  0.39999979392E+02 0.  0.
        -12    1    3    3    0    0 -0.36221378405E+02  0.12980301642E+01  0.64890193245E+01  0.36820924862E+02  0.00000000000E+00 0.  1.
         11    1    4    4    0    0  0.25815827837E+02 -0.10733583532E+01 -0.11814493813E+02  0.28411112780E+02  0.51100000000E-03 0. -1.
        -11    1    4    4    0    0  0.22425038493E+01  0.10665131253E+02 -0.10078197361E+01  0.10944841207E+02  0.51100000000E-03 0.  1.
         12    1    4    4    0    0  0.81630467189E+01 -0.10889803064E+02  0.63332942242E+01  0.15011121152E+02  0.00000000000E+00 0. -1.
</event>
<event>
 8    1  0.1280925E-006  0.9118800E+02  0.7816164E-02  0.1184000E+00
        -11   -1    0    0    0    0  0.00000000000E+00  0.00000000000E+00  0.45593999997E+02  0.45594000000E+02  0.51100000000E-03 0. -1.
         11   -1    0    0    0    0 -0.00000000000E+00 -0.00000000000E+00 -0.45593999997E+02  0.45594000000E+02  0.51100000000E-03 0.  1.
         23    2    1    2    0    0  0.35527136788E-14 -0.17763568394E-14  0.35527136788E-14  0.91188000000E+02  0.91188000000E+02 0.  0.
    9900012    2    3    3    0    0  0.24546141097E+02 -0.11531801402E+02  0.24905634138E+02  0.54366999224E+02  0.39999806330E+02 0.  0.
        -12    1    3    3    0    0 -0.24546141097E+02  0.11531801402E+02 -0.24905634138E+02  0.36821000776E+02  0.00000000000E+00 0.  1.
         11    1    4    4    0    0  0.66895476539E+00 -0.45426755019E+01 -0.21207464660E+01  0.50577630459E+01  0.51100000000E-03 0. -1.
        -11    1    4    4    0    0 -0.61240797970E+01 -0.71757029315E+01  0.81262163192E+00  0.94686546087E+01  0.51100000000E-03 0.  1.
         12    1    4    4    0    0  0.30001266129E+02  0.18657703131E+00  0.26213758972E+02  0.39840581569E+02  0.00000000000E+00 0. -1.
</event>
<event>
 8    1  0.1280925E-006  0.9118800E+02  0.7816164E-02  0.1184000E+00
        -11   -1    0    0    0    0  0.00000000000E+00  0.00000000000E+00  0.45593999997E+02  0.45594000000E+02  0.51100000000E-03 0.  1.
         11   -1    0    0    0    0 -0.00000000000E+00 -0.00000000000E+00 -0.45593999997E+02  0.45594000000E+02  0.51100000000E-03 0. -1.
         23    2    1    2    0    0  0.35527136788E-14  0.35527136788E-14 -0.35527136788E-14  0.91188000000E+02  0.91188000000E+02 0.  0.
    9900012    2    3    3    0    0  0.24958258770E+02  0.19687579024E+02 -0.18581279750E+02  0.54367090101E+02  0.40000013503E+02 0.  0.
         12    1    3    3    0    0 -0.24958258770E+02 -0.19687579024E+02  0.18581279750E+02  0.36820909899E+02  0.00000000000E+00 0. -1.
         11    1    4    4    0    0 -0.20859460627E+01  0.10139690324E+02 -0.18564293539E+01  0.10517167920E+02  0.51100000000E-03 0. -1.
        -11    1    4    4    0    0 -0.42532485269E+01  0.81656407567E+01 -0.38570557446E+01  0.99822187552E+01  0.51100000000E-03 0.  1.
        -12    1    4    4    0    0  0.31297453359E+02  0.13822479437E+01 -0.12867794652E+02  0.33867703426E+02  0.00000000000E+00 0.  1.
</event>
<event>
 8    1  0.1280925E-006  0.9118800E+02  0.7816164E-02  0.1184000E+00
        -11   -1    0    0    0    0  0.00000000000E+00  0.00000000000E+00  0.45593999997E+02  0.45594000000E+02  0.51100000000E-03 0.  1.
         11   -1    0    0    0    0 -0.00000000000E+00 -0.00000000000E+00 -0.45593999997E+02  0.45594000000E+02  0.51100000000E-03 0. -1.
         23    2    1    2    0    0  0.00000000000E+00  0.00000000000E+00  0.00000000000E+00  0.91188000000E+02  0.91188000000E+02 0.  0.
    9900012    2    3    3    0    0 -0.31428008972E+02  0.18014484801E+02  0.65985391584E+01  0.54367053114E+02  0.39999929183E+02 0.  0.
         12    1    3    3    0    0  0.31428008972E+02 -0.18014484801E+02 -0.65985391584E+01  0.36820946886E+02  0.00000000000E+00 0. -1.
         11    1    4    4    0    0 -0.12011109364E+01  0.15118020174E+02 -0.27601083674E+01  0.15414778620E+02  0.51100000000E-03 0. -1.
        -11    1    4    4    0    0 -0.27621775911E+02  0.85948392407E+00 -0.14260885251E+01  0.27671916194E+02  0.51100000000E-03 0.  1.
        -12    1    4    4    0    0 -0.26051221246E+01  0.20369807027E+01  0.10784736051E+02  0.11280358299E+02  0.00000000000E+00 0.  1.
</event>
<event>
 8    1  0.1280925E-006  0.9118800E+02  0.7816164E-02  0.1184000E+00
        -11   -1    0    0    0    0  0.00000000000E+00  0.00000000000E+00  0.45593999997E+02  0.45594000000E+02  0.51100000000E-03 0.  1.
         11   -1    0    0    0    0 -0.00000000000E+00 -0.00000000000E+00 -0.45593999997E+02  0.45594000000E+02  0.51100000000E-03 0. -1.
         23    2    1    2    0    0  0.00000000000E+00  0.00000000000E+00  0.35527136788E-14  0.91188000000E+02  0.91188000000E+02 0.  0.
    9900012    2    3    3    0    0 -0.28105676001E+02  0.15669562942E+02 -0.17897356777E+02  0.54367087384E+02  0.40000007310E+02 0.  0.
        -12    1    3    3    0    0  0.28105676001E+02 -0.15669562942E+02  0.17897356777E+02  0.36820912616E+02  0.00000000000E+00 0.  1.
         11    1    4    4    0    0 -0.13661025708E+01  0.17822307322E+02  0.44050264589E+01  0.18409376222E+02  0.51100000000E-03 0. -1.
        -11    1    4    4    0    0 -0.16839868085E+02 -0.51726978143E+01 -0.16257171963E+02  0.23971516437E+02  0.51100000000E-03 0.  1.
         12    1    4    4    0    0 -0.98997053444E+01  0.30199534347E+01 -0.60452112736E+01  0.11986194725E+02  0.00000000000E+00 0. -1.
</event>
<event>
 8    1  0.1280925E-006  0.9118800E+02  0.7816164E-02  0.1184000E+00
        -11   -1    0    0    0    0  0.00000000000E+00  0.00000000000E+00  0.45593999997E+02  0.45594000000E+02  0.51100000000E-03 0. -1.
         11   -1    0    0    0    0 -0.00000000000E+00 -0.00000000000E+00 -0.45593999997E+02  0.45594000000E+02  0.51100000000E-03 0.  1.
         23    2    1    2    0    0  0.44408920985E-15  0.17763568394E-14  0.00000000000E+00  0.91188000000E+02  0.91188000000E+02 0.  0.
    9900012    2    3    3    0    0 -0.33818721390E+01 -0.10042193143E+02 -0.35263294736E+02  0.54367045939E+02  0.39999912827E+02 0.  0.
         12    1    3    3    0    0  0.33818721390E+01  0.10042193143E+02  0.35263294736E+02  0.36820954061E+02  0.00000000000E+00 0. -1.
         11    1    4    4    0    0  0.91687969373E+01 -0.12453113944E+02 -0.18302897895E+02  0.23961280345E+02  0.51100000000E-03 0. -1.
        -11    1    4    4    0    0  0.30206986855E+01  0.14667950823E+01 -0.14164669714E+02  0.14557265428E+02  0.51100000000E-03 0.  1.
        -12    1    4    4    0    0 -0.15571367762E+02  0.94412571854E+00 -0.27957271275E+01  0.15848500166E+02  0.00000000000E+00 0.  1.
</event>
<event>
 8    1  0.1280925E-006  0.9118800E+02  0.7816164E-02  0.1184000E+00
        -11   -1    0    0    0    0  0.00000000000E+00  0.00000000000E+00  0.45593999997E+02  0.45594000000E+02  0.51100000000E-03 0.  1.
         11   -1    0    0    0    0 -0.00000000000E+00 -0.00000000000E+00 -0.45593999997E+02  0.45594000000E+02  0.51100000000E-03 0. -1.
         23    2    1    2    0    0  0.00000000000E+00 -0.17763568394E-14  0.00000000000E+00  0.91188000000E+02  0.91188000000E+02 0.  0.
    9900012    2    3    3    0    0  0.16319822537E+02  0.15820205824E+02  0.28968322211E+02  0.54367092737E+02  0.40000019512E+02 0.  0.
        -12    1    3    3    0    0 -0.16319822537E+02 -0.15820205824E+02 -0.28968322211E+02  0.36820907263E+02  0.00000000000E+00 0.  1.
         11    1    4    4    0    0  0.64956120303E+01  0.13369396760E+02 -0.14132307759E+01  0.14930872943E+02  0.51100000000E-03 0. -1.
        -11    1    4    4    0    0  0.17639430632E+01 -0.35253180434E+01 -0.27579281609E+01  0.48109801953E+01  0.51100000000E-03 0.  1.
        -12    1    4    4    0    0  0.80602674429E+01  0.59761271078E+01  0.33139481148E+02  0.34625239598E+02  0.00000000000E+00 0.  1.
</event>
<event>
 8    1  0.1280925E-006  0.9118800E+02  0.7816164E-02  0.1184000E+00
        -11   -1    0    0    0    0  0.00000000000E+00  0.00000000000E+00  0.45593999997E+02  0.45594000000E+02  0.51100000000E-03 0.  1.
         11   -1    0    0    0    0 -0.00000000000E+00 -0.00000000000E+00 -0.45593999997E+02  0.45594000000E+02  0.51100000000E-03 0. -1.
         23    2    1    2    0    0 -0.88817841970E-15  0.35527136788E-14  0.00000000000E+00  0.91188000000E+02  0.91188000000E+02 0.  0.
    9900012    2    3    3    0    0 -0.54187720110E+01 -0.22664862407E+02 -0.28508236071E+02  0.54367101017E+02  0.40000038388E+02 0.  0.
        -12    1    3    3    0    0  0.54187720110E+01  0.22664862407E+02  0.28508236071E+02  0.36820898983E+02  0.00000000000E+00 0.  1.
         11    1    4    4    0    0  0.85149057730E+01 -0.12752942441E+02 -0.19025053336E+02  0.24435503185E+02  0.51100000000E-03 0. -1.
        -11    1    4    4    0    0 -0.81668404118E+00 -0.80593632794E+01 -0.13797382269E+02  0.15999627090E+02  0.51100000000E-03 0.  1.
        -12    1    4    4    0    0 -0.13116993743E+02 -0.18525566871E+01  0.43141995335E+01  0.13931970741E+02  0.00000000000E+00 0.  1.
</event>
<event>
 8    1  0.1280925E-006  0.9118800E+02  0.7816164E-02  0.1184000E+00
        -11   -1    0    0    0    0  0.00000000000E+00  0.00000000000E+00  0.45593999997E+02  0.45594000000E+02  0.51100000000E-03 0. -1.
         11   -1    0    0    0    0 -0.00000000000E+00 -0.00000000000E+00 -0.45593999997E+02  0.45594000000E+02  0.51100000000E-03 0.  1.
         23    2    1    2    0    0  0.35527136788E-14 -0.17763568394E-14 -0.35527136788E-14  0.91188000000E+02  0.91188000000E+02 0.  0.
    9900012    2    3    3    0    0  0.21928947446E+02 -0.10075458538E+02  0.27809837813E+02  0.54367072798E+02  0.39999974057E+02 0.  0.
        -12    1    3    3    0    0 -0.21928947446E+02  0.10075458538E+02 -0.27809837813E+02  0.36820927202E+02  0.00000000000E+00 0.  1.
         11    1    4    4    0    0 -0.29980136286E+01  0.31696472010E+01  0.40962683900E+01  0.59844936361E+01  0.51100000000E-03 0. -1.
        -11    1    4    4    0    0  0.12311554526E+02 -0.22977508977E+02  0.12578896685E+02  0.28944238385E+02  0.51100000000E-03 0.  1.
         12    1    4    4    0    0  0.12615406549E+02  0.97324032379E+01  0.11134672738E+02  0.19438340777E+02  0.00000000000E+00 0. -1.
</event>
<event>
 8    1  0.1280925E-006  0.9118800E+02  0.7816164E-02  0.1184000E+00
        -11   -1    0    0    0    0  0.00000000000E+00  0.00000000000E+00  0.45593999997E+02  0.45594000000E+02  0.51100000000E-03 0.  1.
         11   -1    0    0    0    0 -0.00000000000E+00 -0.00000000000E+00 -0.45593999997E+02  0.45594000000E+02  0.51100000000E-03 0. -1.
         23    2    1    2    0    0  0.13322676296E-14  0.00000000000E+00  0.00000000000E+00  0.91188000000E+02  0.91188000000E+02 0.  0.
    9900012    2    3    3    0    0 -0.24855112437E+01  0.17364017183E+02  0.32374308167E+02  0.54367045529E+02  0.39999911893E+02 0.  0.
         12    1    3    3    0    0  0.24855112437E+01 -0.17364017183E+02 -0.32374308167E+02  0.36820954471E+02  0.00000000000E+00 0. -1.
         11    1    4    4    0    0 -0.94340716002E+01  0.58224339412E+01  0.13995860262E+02  0.17854594610E+02  0.51100000000E-03 0. -1.
        -11    1    4    4    0    0 -0.22492016492E+00  0.20257549834E+02  0.12029807227E+02  0.23561306766E+02  0.51100000000E-03 0.  1.
        -12    1    4    4    0    0  0.71734805214E+01 -0.87159665917E+01  0.63486406774E+01  0.12951144153E+02  0.00000000000E+00 0.  1.
</event>
<event>
 8    1  0.1280925E-006  0.9118800E+02  0.7816164E-02  0.1184000E+00
        -11   -1    0    0    0    0  0.00000000000E+00  0.00000000000E+00  0.45593999997E+02  0.45594000000E+02  0.51100000000E-03 0. -1.
         11   -1    0    0    0    0 -0.00000000000E+00 -0.00000000000E+00 -0.45593999997E+02  0.45594000000E+02  0.51100000000E-03 0.  1.
         23    2    1    2    0    0  0.44408920985E-15  0.00000000000E+00  0.00000000000E+00  0.91188000000E+02  0.91188000000E+02 0.  0.
    9900012    2    3    3    0    0  0.31822279825E+01 -0.15929497211E+02  0.33043986478E+02  0.54367075261E+02  0.39999979672E+02 0.  0.
        -12    1    3    3    0    0 -0.31822279825E+01  0.15929497211E+02 -0.33043986478E+02  0.36820924739E+02  0.00000000000E+00 0.  1.
         11    1    4    4    0    0  0.20368421101E+01 -0.10741173542E+01  0.15926482366E+02  0.16092087953E+02  0.51100000000E-03 0. -1.
        -11    1    4    4    0    0  0.21537722435E+01 -0.60002933784E+01  0.25351767475E+02  0.26141047604E+02  0.51100000000E-03 0.  1.
        -12    1    4    4    0    0 -0.10083863711E+01 -0.88550864781E+01 -0.82342633628E+01  0.12133939704E+02  0.00000000000E+00 0.  1.
</event>
<event>
 8    1  0.1280925E-006  0.9118800E+02  0.7816164E-02  0.1184000E+00
        -11   -1    0    0    0    0  0.00000000000E+00  0.00000000000E+00  0.45593999997E+02  0.45594000000E+02  0.51100000000E-03 0.  1.
         11   -1    0    0    0    0 -0.00000000000E+00 -0.00000000000E+00 -0.45593999997E+02  0.45594000000E+02  0.51100000000E-03 0. -1.
         23    2    1    2    0    0  0.00000000000E+00 -0.17763568394E-14  0.00000000000E+00  0.91188000000E+02  0.91188000000E+02 0.  0.
    9900012    2    3    3    0    0  0.15015756054E+02  0.82785668566E+01 -0.32584842076E+02  0.54367088385E+02  0.40000009591E+02 0.  0.
        -12    1    3    3    0    0 -0.15015756054E+02 -0.82785668566E+01  0.32584842076E+02  0.36820911615E+02  0.00000000000E+00 0.  1.
         11    1    4    4    0    0 -0.87327563026E+01  0.14322052680E+02 -0.13202928550E+02  0.21347120372E+02  0.51100000000E-03 0. -1.
        -11    1    4    4    0    0  0.14939413015E+02 -0.13631531294E+01 -0.17173969290E+02  0.22803277596E+02  0.51100000000E-03 0.  1.
        -12    1    4    4    0    0  0.88090993412E+01 -0.46803326938E+01 -0.22079442360E+01  0.10216690417E+02  0.00000000000E+00 0.  1.
</event>
<event>
 8    1  0.1280925E-006  0.9118800E+02  0.7816164E-02  0.1184000E+00
        -11   -1    0    0    0    0  0.00000000000E+00  0.00000000000E+00  0.45593999997E+02  0.45594000000E+02  0.51100000000E-03 0. -1.
         11   -1    0    0    0    0 -0.00000000000E+00 -0.00000000000E+00 -0.45593999997E+02  0.45594000000E+02  0.51100000000E-03 0.  1.
         23    2    1    2    0    0  0.35527136788E-14 -0.88817841970E-15 -0.35527136788E-14  0.91188000000E+02  0.91188000000E+02 0.  0.
    9900012    2    3    3    0    0 -0.26915911808E+02  0.59376396168E+01  0.24414305381E+02  0.54367079589E+02  0.39999989538E+02 0.  0.
        -12    1    3    3    0    0  0.26915911808E+02 -0.59376396168E+01 -0.24414305381E+02  0.36820920411E+02  0.00000000000E+00 0.  1.
         11    1    4    4    0    0  0.64501833521E+01 -0.44265716646E+01 -0.89807146003E+00  0.78743847116E+01  0.51100000000E-03 0. -1.
        -11    1    4    4    0    0  0.22524243707E+00 -0.23556626070E+01  0.42211336407E+01  0.48391993085E+01  0.51100000000E-03 0.  1.
        -12    1    4    4    0    0 -0.33591337598E+02  0.12719873888E+02  0.21091243201E+02  0.41653495569E+02  0.00000000000E+00 0.  1.
</event>
<event>
 8    1  0.1280925E-006  0.9118800E+02  0.7816164E-02  0.1184000E+00
        -11   -1    0    0    0    0  0.00000000000E+00  0.00000000000E+00  0.45593999997E+02  0.45594000000E+02  0.51100000000E-03 0. -1.
         11   -1    0    0    0    0 -0.00000000000E+00 -0.00000000000E+00 -0.45593999997E+02  0.45594000000E+02  0.51100000000E-03 0.  1.
         23    2    1    2    0    0  0.00000000000E+00  0.00000000000E+00 -0.13322676296E-14  0.91188000000E+02  0.91188000000E+02 0.  0.
    9900012    2    3    3    0    0 -0.31586575986E+02  0.18752912877E+02  0.25287618397E+01  0.54367107013E+02  0.40000052058E+02 0.  0.
        -12    1    3    3    0    0  0.31586575986E+02 -0.18752912877E+02 -0.25287618397E+01  0.36820892987E+02  0.00000000000E+00 0.  1.
         11    1    4    4    0    0 -0.13584702042E+02 -0.10161941798E+02  0.61166062867E+00  0.16975962996E+02  0.51100000000E-03 0. -1.
        -11    1    4    4    0    0 -0.14962710689E+02  0.22213990618E+02  0.78822076410E+01  0.27919048835E+02  0.51100000000E-03 0.  1.
        -12    1    4    4    0    0 -0.30391632558E+01  0.67008640574E+01 -0.59651064299E+01  0.94720951817E+01  0.00000000000E+00 0.  1.
</event>
<event>
 8    1  0.1280925E-006  0.9118800E+02  0.7816164E-02  0.1184000E+00
        -11   -1    0    0    0    0  0.00000000000E+00  0.00000000000E+00  0.45593999997E+02  0.45594000000E+02  0.51100000000E-03 0.  1.
         11   -1    0    0    0    0 -0.00000000000E+00 -0.00000000000E+00 -0.45593999997E+02  0.45594000000E+02  0.51100000000E-03 0. -1.
         23    2    1    2    0    0  0.00000000000E+00  0.44408920985E-15  0.00000000000E+00  0.91188000000E+02  0.91188000000E+02 0.  0.
    9900012    2    3    3    0    0  0.29953209678E+02  0.31691514062E+01  0.21178815840E+02  0.54367074821E+02  0.39999978670E+02 0.  0.
         12    1    3    3    0    0 -0.29953209678E+02 -0.31691514062E+01 -0.21178815840E+02  0.36820925179E+02  0.00000000000E+00 0. -1.
         11    1    4    4    0    0  0.28435494771E+02  0.77939216350E+00  0.14789480630E+02  0.32061090945E+02  0.51100000000E-03 0. -1.
        -11    1    4    4    0    0 -0.10864408597E+01  0.11156223056E+02  0.68725571645E+01  0.13148144693E+02  0.51100000000E-03 0.  1.
         12    1    4    4    0    0  0.26041557658E+01 -0.87664638136E+01 -0.48322195386E+00  0.91578391831E+01  0.00000000000E+00 0. -1.
</event>
<event>
 8    1  0.1280925E-006  0.9118800E+02  0.7816164E-02  0.1184000E+00
        -11   -1    0    0    0    0  0.00000000000E+00  0.00000000000E+00  0.45593999997E+02  0.45594000000E+02  0.51100000000E-03 0.  1.
         11   -1    0    0    0    0 -0.00000000000E+00 -0.00000000000E+00 -0.45593999997E+02  0.45594000000E+02  0.51100000000E-03 0. -1.
         23    2    1    2    0    0  0.35527136788E-14  0.17763568394E-14  0.00000000000E+00  0.91188000000E+02  0.91188000000E+02 0.  0.
    9900012    2    3    3    0    0  0.16432731816E+02 -0.10358150568E+02  0.31280272677E+02  0.54367062792E+02  0.39999951247E+02 0.  0.
         12    1    3    3    0    0 -0.16432731816E+02  0.10358150568E+02 -0.31280272677E+02  0.36820937208E+02  0.00000000000E+00 0. -1.
         11    1    4    4    0    0 -0.80088972349E+01  0.69259392175E+01  0.17834561446E+02  0.20740844997E+02  0.51100000000E-03 0. -1.
        -11    1    4    4    0    0  0.19332485906E+02 -0.97310079887E+01  0.85010148585E+01  0.23253059619E+02  0.51100000000E-03 0.  1.
         12    1    4    4    0    0  0.51091431454E+01 -0.75530817973E+01  0.49446963725E+01  0.10373158175E+02  0.00000000000E+00 0. -1.
</event>
<event>
 8    1  0.1280925E-006  0.9118800E+02  0.7816164E-02  0.1184000E+00
        -11   -1    0    0    0    0  0.00000000000E+00  0.00000000000E+00  0.45593999997E+02  0.45594000000E+02  0.51100000000E-03 0.  1.
         11   -1    0    0    0    0 -0.00000000000E+00 -0.00000000000E+00 -0.45593999997E+02  0.45594000000E+02  0.51100000000E-03 0. -1.
         23    2    1    2    0    0  0.00000000000E+00  0.00000000000E+00 -0.35527136788E-14  0.91188000000E+02  0.91188000000E+02 0.  0.
    9900012    2    3    3    0    0  0.19994005334E+02 -0.36547801722E+01  0.30702808749E+02  0.54367080233E+02  0.39999991007E+02 0.  0.
         12    1    3    3    0    0 -0.19994005334E+02  0.36547801722E+01 -0.30702808749E+02  0.36820919767E+02  0.00000000000E+00 0. -1.
         11    1    4    4    0    0  0.14393272663E+02  0.60339052225E+01  0.22681871243E+02  0.27532555158E+02  0.51100000000E-03 0. -1.
        -11    1    4    4    0    0  0.12213271518E+02 -0.13312853679E+02  0.55665782820E+01  0.18904572682E+02  0.51100000000E-03 0.  1.
         12    1    4    4    0    0 -0.66125388472E+01  0.36241682844E+01  0.24543592243E+01  0.79299523934E+01  0.00000000000E+00 0. -1.
</event>
<event>
 8    1  0.1280925E-006  0.9118800E+02  0.7816164E-02  0.1184000E+00
        -11   -1    0    0    0    0  0.00000000000E+00  0.00000000000E+00  0.45593999997E+02  0.45594000000E+02  0.51100000000E-03 0.  1.
         11   -1    0    0    0    0 -0.00000000000E+00 -0.00000000000E+00 -0.45593999997E+02  0.45594000000E+02  0.51100000000E-03 0. -1.
         23    2    1    2    0    0  0.00000000000E+00  0.88817841970E-15 -0.88817841970E-15  0.91188000000E+02  0.91188000000E+02 0.  0.
    9900012    2    3    3    0    0  0.36110506523E+02  0.67928961281E+01  0.23807749919E+01  0.54367079197E+02  0.39999988646E+02 0.  0.
         12    1    3    3    0    0 -0.36110506523E+02 -0.67928961281E+01 -0.23807749919E+01  0.36820920803E+02  0.00000000000E+00 0. -1.
         11    1    4    4    0    0  0.35796953294E+01  0.63238802689E+00  0.14972170821E+02  0.15407142260E+02  0.51100000000E-03 0. -1.
        -11    1    4    4    0    0  0.11303089815E+02 -0.54246352050E+01 -0.59719414087E+01  0.13887065598E+02  0.51100000000E-03 0.  1.
         12    1    4    4    0    0  0.21227721379E+02  0.11585143306E+02 -0.66194544204E+01  0.25072871339E+02  0.00000000000E+00 0. -1.
</event>
<event>
 8    1  0.1280925E-006  0.9118800E+02  0.7816164E-02  0.1184000E+00
        -11   -1    0    0    0    0  0.00000000000E+00  0.00000000000E+00  0.45593999997E+02  0.45594000000E+02  0.51100000000E-03 0.  1.
         11   -1    0    0    0    0 -0.00000000000E+00 -0.00000000000E+00 -0.45593999997E+02  0.45594000000E+02  0.51100000000E-03 0. -1.
         23    2    1    2    0    0  0.00000000000E+00  0.44408920985E-15  0.00000000000E+00  0.91188000000E+02  0.91188000000E+02 0.  0.
    9900012    2    3    3    0    0 -0.36740834971E+02 -0.21600371971E+01  0.11124393541E+01  0.54366915871E+02  0.39999616310E+02 0.  0.
        -12    1    3    3    0    0  0.36740834971E+02  0.21600371971E+01 -0.11124393541E+01  0.36821084129E+02  0.00000000000E+00 0.  1.
         11    1    4    4    0    0 -0.17694323164E+02 -0.85882661226E+01 -0.16177694331E+02  0.25466942913E+02  0.51100000000E-03 0.  1.
        -11    1    4    4    0    0 -0.68191181943E+01  0.41351421829E+01  0.48305657110E+00  0.79895630502E+01  0.51100000000E-03 0. -1.
        -12    1    4    4    0    0 -0.12227393613E+02  0.22930867426E+01  0.16807077114E+02  0.20910409908E+02  0.00000000000E+00 0.  1.
</event>
<event>
 8    1  0.1280925E-006  0.9118800E+02  0.7816164E-02  0.1184000E+00
        -11   -1    0    0    0    0  0.00000000000E+00  0.00000000000E+00  0.45593999997E+02  0.45594000000E+02  0.51100000000E-03 0. -1.
         11   -1    0    0    0    0 -0.00000000000E+00 -0.00000000000E+00 -0.45593999997E+02  0.45594000000E+02  0.51100000000E-03 0.  1.
         23    2    1    2    0    0 -0.71054273576E-14 -0.99920072216E-15  0.17763568394E-14  0.91188000000E+02  0.91188000000E+02 0.  0.
    9900012    2    3    3    0    0 -0.34628375937E+02  0.25943803437E+00 -0.12513539304E+02  0.54367076681E+02  0.39999982909E+02 0.  0.
         12    1    3    3    0    0  0.34628375937E+02 -0.25943803437E+00  0.12513539304E+02  0.36820923319E+02  0.00000000000E+00 0. -1.
         11    1    4    4    0    0 -0.92205157861E+00  0.76957383485E+01 -0.59453428816E+01  0.97684016135E+01  0.51100000000E-03 0.  1.
        -11    1    4    4    0    0 -0.33874947728E+02 -0.76801339376E+01 -0.13789171089E+02  0.37371617311E+02  0.51100000000E-03 0. -1.
         12    1    4    4    0    0  0.16862336880E+00  0.24383362347E+00  0.72209746667E+01  0.72270577564E+01  0.00000000000E+00 0. -1.
</event>
<event>
 8    1  0.1280925E-006  0.9118800E+02  0.7816164E-02  0.1184000E+00
        -11   -1    0    0    0    0  0.00000000000E+00  0.00000000000E+00  0.45593999997E+02  0.45594000000E+02  0.51100000000E-03 0.  1.
         11   -1    0    0    0    0 -0.00000000000E+00 -0.00000000000E+00 -0.45593999997E+02  0.45594000000E+02  0.51100000000E-03 0. -1.
         23    2    1    2    0    0 -0.44408920985E-15  0.00000000000E+00  0.35527136788E-14  0.91188000000E+02  0.91188000000E+02 0.  0.
    9900012    2    3    3    0    0 -0.26866224878E+01  0.24643592634E+02 -0.27225993951E+02  0.54367090927E+02  0.40000015387E+02 0.  0.
        -12    1    3    3    0    0  0.26866224878E+01 -0.24643592634E+02  0.27225993951E+02  0.36820909073E+02  0.00000000000E+00 0.  1.
         11    1    4    4    0    0 -0.12280488696E+02  0.10736613755E+02 -0.30279476482E+02  0.34393778127E+02  0.51100000000E-03 0. -1.
        -11    1    4    4    0    0  0.16578785463E+01 -0.14143634805E+01  0.15068943337E+01  0.26494746882E+01  0.51100000000E-03 0.  1.
         12    1    4    4    0    0  0.79359876619E+01  0.15321342360E+02  0.15465881971E+01  0.17323838112E+02  0.00000000000E+00 0. -1.
</event>
<event>
 8    1  0.1280925E-006  0.9118800E+02  0.7816164E-02  0.1184000E+00
        -11   -1    0    0    0    0  0.00000000000E+00  0.00000000000E+00  0.45593999997E+02  0.45594000000E+02  0.51100000000E-03 0.  1.
         11   -1    0    0    0    0 -0.00000000000E+00 -0.00000000000E+00 -0.45593999997E+02  0.45594000000E+02  0.51100000000E-03 0. -1.
         23    2    1    2    0    0  0.53290705182E-14  0.00000000000E+00 -0.35527136788E-14  0.91188000000E+02  0.91188000000E+02 0.  0.
    9900012    2    3    3    0    0 -0.14445798521E+02 -0.31074781818E+02  0.13470596547E+02  0.54367080250E+02  0.39999991045E+02 0.  0.
         12    1    3    3    0    0  0.14445798521E+02  0.31074781818E+02 -0.13470596547E+02  0.36820919750E+02  0.00000000000E+00 0. -1.
         11    1    4    4    0    0  0.91541892336E+01 -0.10330032436E+02  0.17413446852E+01  0.13911902538E+02  0.51100000000E-03 0. -1.
        -11    1    4    4    0    0 -0.19107051783E+01 -0.67923567123E+01  0.12830016612E+02  0.14642275455E+02  0.51100000000E-03 0.  1.
         12    1    4    4    0    0 -0.21689282576E+02 -0.13952392670E+02 -0.11007647502E+01  0.25812902257E+02  0.00000000000E+00 0. -1.
</event>
<event>
 8    1  0.1280925E-006  0.9118800E+02  0.7816164E-02  0.1184000E+00
        -11   -1    0    0    0    0  0.00000000000E+00  0.00000000000E+00  0.45593999997E+02  0.45594000000E+02  0.51100000000E-03 0.  1.
         11   -1    0    0    0    0 -0.00000000000E+00 -0.00000000000E+00 -0.45593999997E+02  0.45594000000E+02  0.51100000000E-03 0. -1.
         23    2    1    2    0    0 -0.71054273576E-14 -0.88817841970E-15  0.00000000000E+00  0.91188000000E+02  0.91188000000E+02 0.  0.
    9900012    2    3    3    0    0 -0.35999100365E+02  0.52705217465E+01 -0.56627580339E+01  0.54367075852E+02  0.39999981020E+02 0.  0.
         12    1    3    3    0    0  0.35999100365E+02 -0.52705217465E+01  0.56627580339E+01  0.36820924148E+02  0.00000000000E+00 0. -1.
         11    1    4    4    0    0  0.63519379301E+01 -0.47690349058E+00 -0.30378318926E+01  0.70571223084E+01  0.51100000000E-03 0. -1.
        -11    1    4    4    0    0 -0.33847312564E+02  0.21603502455E+01  0.62712720182E+01  0.34491108042E+02  0.51100000000E-03 0.  1.
         12    1    4    4    0    0 -0.85037257308E+01  0.35870749916E+01 -0.88961981595E+01  0.12818845502E+02  0.00000000000E+00 0. -1.
</event>
<event>
 8    1  0.1280925E-006  0.9118800E+02  0.7816164E-02  0.1184000E+00
        -11   -1    0    0    0    0  0.00000000000E+00  0.00000000000E+00  0.45593999997E+02  0.45594000000E+02  0.51100000000E-03 0.  1.
         11   -1    0    0    0    0 -0.00000000000E+00 -0.00000000000E+00 -0.45593999997E+02  0.45594000000E+02  0.51100000000E-03 0. -1.
         23    2    1    2    0    0 -0.44408920985E-15 -0.26645352591E-14  0.00000000000E+00  0.91188000000E+02  0.91188000000E+02 0.  0.
    9900012    2    3    3    0    0 -0.36783948025E+01 -0.65757392224E+01  0.36041901266E+02  0.54366951922E+02  0.39999698496E+02 0.  0.
         12    1    3    3    0    0  0.36783948025E+01  0.65757392224E+01 -0.36041901266E+02  0.36821048078E+02  0.00000000000E+00 0. -1.
         11    1    4    4    0    0  0.53637645979E+00  0.96110179638E+01  0.39136451773E+01  0.10391149351E+02  0.51100000000E-03 0. -1.
        -11    1    4    4    0    0 -0.29395743867E+01  0.59981382763E+01  0.13165507149E+02  0.14763107366E+02  0.51100000000E-03 0.  1.
        -12    1    4    4    0    0 -0.12751968756E+01 -0.22184895463E+02  0.18962748940E+02  0.29212695204E+02  0.00000000000E+00 0.  1.
</event>
<event>
 8    1  0.1280925E-006  0.9118800E+02  0.7816164E-02  0.1184000E+00
        -11   -1    0    0    0    0  0.00000000000E+00  0.00000000000E+00  0.45593999997E+02  0.45594000000E+02  0.51100000000E-03 0.  1.
         11   -1    0    0    0    0 -0.00000000000E+00 -0.00000000000E+00 -0.45593999997E+02  0.45594000000E+02  0.51100000000E-03 0. -1.
         23    2    1    2    0    0  0.88817841970E-15 -0.17763568394E-14  0.00000000000E+00  0.91188000000E+02  0.91188000000E+02 0.  0.
    9900012    2    3    3    0    0  0.65051298146E+01 -0.55049748685E+01  0.35821194334E+02  0.54367089831E+02  0.40000012887E+02 0.  0.
         12    1    3    3    0    0 -0.65051298146E+01  0.55049748685E+01 -0.35821194334E+02  0.36820910169E+02  0.00000000000E+00 0. -1.
         11    1    4    4    0    0  0.79855414511E+01 -0.90848415840E+01  0.20703958987E+02  0.23978263842E+02  0.51100000000E-03 0. -1.
        -11    1    4    4    0    0 -0.38912028644E+01  0.73978600852E+01  0.21214364476E+02  0.22801733573E+02  0.51100000000E-03 0.  1.
         12    1    4    4    0    0  0.24107912279E+01 -0.38179933697E+01 -0.60971291289E+01  0.75870924161E+01  0.00000000000E+00 0. -1.
</event>
<event>
 8    1  0.1280925E-006  0.9118800E+02  0.7816164E-02  0.1184000E+00
        -11   -1    0    0    0    0  0.00000000000E+00  0.00000000000E+00  0.45593999997E+02  0.45594000000E+02  0.51100000000E-03 0.  1.
         11   -1    0    0    0    0 -0.00000000000E+00 -0.00000000000E+00 -0.45593999997E+02  0.45594000000E+02  0.51100000000E-03 0. -1.
         23    2    1    2    0    0  0.88817841970E-15  0.22204460493E-15  0.00000000000E+00  0.91188000000E+02  0.91188000000E+02 0.  0.
    9900012    2    3    3    0    0  0.44492276817E+01 -0.12407741488E+01  0.36530062333E+02  0.54367073864E+02  0.39999976487E+02 0.  0.
         12    1    3    3    0    0 -0.44492276817E+01  0.12407741488E+01 -0.36530062333E+02  0.36820926136E+02  0.00000000000E+00 0. -1.
         11    1    4    4    0    0  0.30053989467E+01 -0.18136226315E+02  0.13426867449E+02  0.22764795135E+02  0.51100000000E-03 0. -1.
        -11    1    4    4    0    0 -0.15996505892E+01  0.15749202348E+02  0.23490982786E+02  0.28327063546E+02  0.51100000000E-03 0.  1.
         12    1    4    4    0    0  0.30434793242E+01  0.11462498180E+01 -0.38778790179E+00  0.32752151836E+01  0.00000000000E+00 0. -1.
</event>
<event>
 8    1  0.1280925E-006  0.9118800E+02  0.7816164E-02  0.1184000E+00
        -11   -1    0    0    0    0  0.00000000000E+00  0.00000000000E+00  0.45593999997E+02  0.45594000000E+02  0.51100000000E-03 0.  1.
         11   -1    0    0    0    0 -0.00000000000E+00 -0.00000000000E+00 -0.45593999997E+02  0.45594000000E+02  0.51100000000E-03 0. -1.
         23    2    1    2    0    0  0.00000000000E+00  0.00000000000E+00 -0.35527136788E-14  0.91188000000E+02  0.91188000000E+02 0.  0.
    9900012    2    3    3    0    0 -0.19508476351E+02 -0.25150746017E+02  0.18510493221E+02  0.54367095149E+02  0.40000025012E+02 0.  0.
         12    1    3    3    0    0  0.19508476351E+02  0.25150746017E+02 -0.18510493221E+02  0.36820904851E+02  0.00000000000E+00 0. -1.
         11    1    4    4    0    0  0.58502417521E+01 -0.69758633999E+01 -0.30128142113E+01  0.95898408988E+01  0.51100000000E-03 0. -1.
        -11    1    4    4    0    0 -0.17613051022E+02 -0.19381046443E+02  0.52434589249E+01  0.26708395483E+02  0.51100000000E-03 0.  1.
         12    1    4    4    0    0 -0.77456670818E+01  0.12061638266E+01  0.16279848507E+02  0.18068858767E+02  0.00000000000E+00 0. -1.
</event>
<event>
 8    1  0.1280925E-006  0.9118800E+02  0.7816164E-02  0.1184000E+00
        -11   -1    0    0    0    0  0.00000000000E+00  0.00000000000E+00  0.45593999997E+02  0.45594000000E+02  0.51100000000E-03 0.  1.
         11   -1    0    0    0    0 -0.00000000000E+00 -0.00000000000E+00 -0.45593999997E+02  0.45594000000E+02  0.51100000000E-03 0. -1.
         23    2    1    2    0    0 -0.35527136788E-14  0.17763568394E-14  0.00000000000E+00  0.91188000000E+02  0.91188000000E+02 0.  0.
    9900012    2    3    3    0    0  0.19687636394E+02  0.13394163278E+02 -0.28085060006E+02  0.54367119616E+02  0.40000080788E+02 0.  0.
        -12    1    3    3    0    0 -0.19687636394E+02 -0.13394163278E+02  0.28085060006E+02  0.36820880384E+02  0.00000000000E+00 0.  1.
         11    1    4    4    0    0  0.44003642639E+01 -0.12112150212E+01 -0.20639031143E+02  0.21137640698E+02  0.51100000000E-03 0. -1.
        -11    1    4    4    0    0  0.11691382373E+02 -0.27698720902E+01  0.33327251960E+01  0.12468667558E+02  0.51100000000E-03 0.  1.
         12    1    4    4    0    0  0.35958897569E+01  0.17375250390E+02 -0.10778754059E+02  0.20760811359E+02  0.00000000000E+00 0. -1.
</event>
<event>
 8    1  0.1280925E-006  0.9118800E+02  0.7816164E-02  0.1184000E+00
        -11   -1    0    0    0    0  0.00000000000E+00  0.00000000000E+00  0.45593999997E+02  0.45594000000E+02  0.51100000000E-03 0. -1.
         11   -1    0    0    0    0 -0.00000000000E+00 -0.00000000000E+00 -0.45593999997E+02  0.45594000000E+02  0.51100000000E-03 0.  1.
         23    2    1    2    0    0  0.00000000000E+00  0.88817841970E-15 -0.35527136788E-14  0.91188000000E+02  0.91188000000E+02 0.  0.
    9900012    2    3    3    0    0 -0.23402831938E+02 -0.70414948508E+01  0.27540968239E+02  0.54367080348E+02  0.39999991270E+02 0.  0.
        -12    1    3    3    0    0  0.23402831938E+02  0.70414948508E+01 -0.27540968239E+02  0.36820919652E+02  0.00000000000E+00 0.  1.
         11    1    4    4    0    0 -0.18900556000E+02 -0.87362927840E+01  0.32683657385E+02  0.38752745568E+02  0.51100000000E-03 0. -1.
        -11    1    4    4    0    0 -0.11126182817E+01 -0.60210223344E+01 -0.34170999849E+01  0.70119328262E+01  0.51100000000E-03 0.  1.
        -12    1    4    4    0    0 -0.33896576561E+01  0.77158202676E+01 -0.17255891613E+01  0.86024019541E+01  0.00000000000E+00 0.  1.
</event>
<event>
 8    1  0.1280925E-006  0.9118800E+02  0.7816164E-02  0.1184000E+00
        -11   -1    0    0    0    0  0.00000000000E+00  0.00000000000E+00  0.45593999997E+02  0.45594000000E+02  0.51100000000E-03 0. -1.
         11   -1    0    0    0    0 -0.00000000000E+00 -0.00000000000E+00 -0.45593999997E+02  0.45594000000E+02  0.51100000000E-03 0.  1.
         23    2    1    2    0    0  0.00000000000E+00 -0.71054273576E-14 -0.44408920985E-15  0.91188000000E+02  0.91188000000E+02 0.  0.
    9900012    2    3    3    0    0 -0.13386289231E+02 -0.34142489357E+02 -0.32981054603E+01  0.54367084497E+02  0.40000000728E+02 0.  0.
        -12    1    3    3    0    0  0.13386289231E+02  0.34142489357E+02  0.32981054603E+01  0.36820915503E+02  0.00000000000E+00 0.  1.
         11    1    4    4    0    0 -0.12474832006E+02 -0.13506780220E+02  0.76587454224E+01  0.19917603450E+02  0.51100000000E-03 0.  1.
        -11    1    4    4    0    0 -0.43469061472E+01 -0.19078165600E+02  0.31748644564E+01  0.19823010878E+02  0.51100000000E-03 0. -1.
        -12    1    4    4    0    0  0.34354489227E+01 -0.15575435367E+01 -0.14131715339E+02  0.14626470169E+02  0.00000000000E+00 0.  1.
</event>
<event>
 8    1  0.1280925E-006  0.9118800E+02  0.7816164E-02  0.1184000E+00
        -11   -1    0    0    0    0  0.00000000000E+00  0.00000000000E+00  0.45593999997E+02  0.45594000000E+02  0.51100000000E-03 0.  1.
         11   -1    0    0    0    0 -0.00000000000E+00 -0.00000000000E+00 -0.45593999997E+02  0.45594000000E+02  0.51100000000E-03 0. -1.
         23    2    1    2    0    0  0.11102230246E-15  0.00000000000E+00  0.00000000000E+00  0.91188000000E+02  0.91188000000E+02 0.  0.
    9900012    2    3    3    0    0  0.58243112953E+00  0.35986962276E+02 -0.77703992967E+01  0.54367084950E+02  0.40000001761E+02 0.  0.
        -12    1    3    3    0    0 -0.58243112953E+00 -0.35986962276E+02  0.77703992967E+01  0.36820915050E+02  0.00000000000E+00 0.  1.
         11    1    4    4    0    0 -0.10652125343E+02  0.14805553839E+02 -0.19784364320E+02  0.26908981226E+02  0.51100000000E-03 0. -1.
        -11    1    4    4    0    0  0.70061968894E+01  0.15124984632E+02  0.53405704235E+01  0.17503532434E+02  0.51100000000E-03 0.  1.
         12    1    4    4    0    0  0.42283595834E+01  0.60564238051E+01  0.66733945999E+01  0.99545712896E+01  0.00000000000E+00 0. -1.
</event>
<event>
 8    1  0.1280925E-006  0.9118800E+02  0.7816164E-02  0.1184000E+00
        -11   -1    0    0    0    0  0.00000000000E+00  0.00000000000E+00  0.45593999997E+02  0.45594000000E+02  0.51100000000E-03 0.  1.
         11   -1    0    0    0    0 -0.00000000000E+00 -0.00000000000E+00 -0.45593999997E+02  0.45594000000E+02  0.51100000000E-03 0. -1.
         23    2    1    2    0    0  0.00000000000E+00 -0.17763568394E-14  0.35527136788E-14  0.91188000000E+02  0.91188000000E+02 0.  0.
    9900012    2    3    3    0    0 -0.22592364496E+02  0.76575117902E+01 -0.28048497578E+02  0.54367209178E+02  0.40000284963E+02 0.  0.
        -12    1    3    3    0    0  0.22592364496E+02 -0.76575117902E+01  0.28048497578E+02  0.36820790822E+02  0.00000000000E+00 0.  1.
         11    1    4    4    0    0 -0.11736258832E+02  0.13045105614E+02 -0.79624934141E+01  0.19269557688E+02  0.51100000000E-03 0. -1.
        -11    1    4    4    0    0 -0.24778717216E+01 -0.12478255745E+02 -0.60366247174E+00  0.12736213069E+02  0.51100000000E-03 0.  1.
         12    1    4    4    0    0 -0.83782339422E+01  0.70906619209E+01 -0.19482341692E+02  0.22361438421E+02  0.00000000000E+00 0. -1.
</event>
<event>
 8    1  0.1280925E-006  0.9118800E+02  0.7816164E-02  0.1184000E+00
        -11   -1    0    0    0    0  0.00000000000E+00  0.00000000000E+00  0.45593999997E+02  0.45594000000E+02  0.51100000000E-03 0. -1.
         11   -1    0    0    0    0 -0.00000000000E+00 -0.00000000000E+00 -0.45593999997E+02  0.45594000000E+02  0.51100000000E-03 0.  1.
         23    2    1    2    0    0 -0.44408920985E-15 -0.71054273576E-14  0.88817841970E-15  0.91188000000E+02  0.91188000000E+02 0.  0.
    9900012    2    3    3    0    0 -0.33111166722E+01 -0.36588742871E+02  0.24656409295E+01  0.54367095833E+02  0.40000026569E+02 0.  0.
        -12    1    3    3    0    0  0.33111166722E+01  0.36588742871E+02 -0.24656409295E+01  0.36820904167E+02  0.00000000000E+00 0.  1.
         11    1    4    4    0    0 -0.14706504117E+02 -0.13221940599E+02  0.12953633594E+02  0.23641015208E+02  0.51100000000E-03 0. -1.
        -11    1    4    4    0    0  0.49819017936E+01 -0.41191419363E+00 -0.24993353938E+01  0.55888904494E+01  0.51100000000E-03 0.  1.
         12    1    4    4    0    0  0.64134856509E+01 -0.22954888079E+02 -0.79886572705E+01  0.25137190175E+02  0.00000000000E+00 0. -1.
</event>
<event>
 8    1  0.1280925E-006  0.9118800E+02  0.7816164E-02  0.1184000E+00
        -11   -1    0    0    0    0  0.00000000000E+00  0.00000000000E+00  0.45593999997E+02  0.45594000000E+02  0.51100000000E-03 0. -1.
         11   -1    0    0    0    0 -0.00000000000E+00 -0.00000000000E+00 -0.45593999997E+02  0.45594000000E+02  0.51100000000E-03 0.  1.
         23    2    1    2    0    0  0.71054273576E-14  0.00000000000E+00 -0.17763568394E-14  0.91188000000E+02  0.91188000000E+02 0.  0.
    9900012    2    3    3    0    0  0.32593054253E+02 -0.16609416385E+02 -0.41952500394E+01  0.54367081745E+02  0.39999994455E+02 0.  0.
        -12    1    3    3    0    0 -0.32593054253E+02  0.16609416385E+02  0.41952500394E+01  0.36820918255E+02  0.00000000000E+00 0.  1.
         11    1    4    4    0    0  0.66111306483E+01 -0.96614271467E+01 -0.41573422749E+01  0.12423112251E+02  0.51100000000E-03 0. -1.
        -11    1    4    4    0    0  0.85876850517E+01  0.10482372310E+02 -0.83939642804E+01  0.15940109799E+02  0.51100000000E-03 0.  1.
         12    1    4    4    0    0  0.17394238553E+02 -0.17430361548E+02  0.83560565158E+01  0.26003859695E+02  0.00000000000E+00 0. -1.
</event>
<event>
 8    1  0.1280925E-006  0.9118800E+02  0.7816164E-02  0.1184000E+00
        -11   -1    0    0    0    0  0.00000000000E+00  0.00000000000E+00  0.45593999997E+02  0.45594000000E+02  0.51100000000E-03 0.  1.
         11   -1    0    0    0    0 -0.00000000000E+00 -0.00000000000E+00 -0.45593999997E+02  0.45594000000E+02  0.51100000000E-03 0. -1.
         23    2    1    2    0    0 -0.88817841970E-15  0.00000000000E+00  0.00000000000E+00  0.91188000000E+02  0.91188000000E+02 0.  0.
    9900012    2    3    3    0    0 -0.43428333989E+01  0.29784642564E+02  0.21208362331E+02  0.54367085192E+02  0.40000002312E+02 0.  0.
        -12    1    3    3    0    0  0.43428333989E+01 -0.29784642564E+02 -0.21208362331E+02  0.36820914808E+02  0.00000000000E+00 0.  1.
         11    1    4    4    0    0 -0.10305715708E+02  0.16698825843E+02  0.83689305825E+01  0.21333015730E+02  0.51100000000E-03 0. -1.
        -11    1    4    4    0    0  0.13366859533E+02  0.15210485028E+02  0.14805225931E+02  0.25084387648E+02  0.51100000000E-03 0.  1.
        -12    1    4    4    0    0 -0.74039772245E+01 -0.21246683078E+01 -0.19657941829E+01  0.79496818130E+01  0.00000000000E+00 0.  1.
</event>
<event>
 8    1  0.1280925E-006  0.9118800E+02  0.7816164E-02  0.1184000E+00
        -11   -1    0    0    0    0  0.00000000000E+00  0.00000000000E+00  0.45593999997E+02  0.45594000000E+02  0.51100000000E-03 0.  1.
         11   -1    0    0    0    0 -0.00000000000E+00 -0.00000000000E+00 -0.45593999997E+02  0.45594000000E+02  0.51100000000E-03 0. -1.
         23    2    1    2    0    0  0.35527136788E-14  0.00000000000E+00 -0.35527136788E-14  0.91188000000E+02  0.91188000000E+02 0.  0.
    9900012    2    3    3    0    0  0.18399483961E+02  0.48043040706E+01 -0.31530256261E+02  0.54367090077E+02  0.40000013450E+02 0.  0.
        -12    1    3    3    0    0 -0.18399483961E+02 -0.48043040706E+01  0.31530256261E+02  0.36820909923E+02  0.00000000000E+00 0.  1.
         11    1    4    4    0    0 -0.51342338902E+01  0.89934983433E+01 -0.77213260377E+01  0.12917517027E+02  0.51100000000E-03 0. -1.
        -11    1    4    4    0    0  0.24908918387E+02 -0.92542767057E+01 -0.13327231695E+02  0.29727276321E+02  0.51100000000E-03 0.  1.
        -12    1    4    4    0    0 -0.13752005364E+01  0.50650824330E+01 -0.10481698529E+02  0.11722296730E+02  0.00000000000E+00 0.  1.
</event>
<event>
 8    1  0.1280925E-006  0.9118800E+02  0.7816164E-02  0.1184000E+00
        -11   -1    0    0    0    0  0.00000000000E+00  0.00000000000E+00  0.45593999997E+02  0.45594000000E+02  0.51100000000E-03 0.  1.
         11   -1    0    0    0    0 -0.00000000000E+00 -0.00000000000E+00 -0.45593999997E+02  0.45594000000E+02  0.51100000000E-03 0. -1.
         23    2    1    2    0    0  0.35527136788E-14  0.00000000000E+00  0.00000000000E+00  0.91188000000E+02  0.91188000000E+02 0.  0.
    9900012    2    3    3    0    0 -0.24496016081E+02 -0.20927061584E+02 -0.17826489295E+02  0.54367076180E+02  0.39999981766E+02 0.  0.
         12    1    3    3    0    0  0.24496016081E+02  0.20927061584E+02  0.17826489295E+02  0.36820923820E+02  0.00000000000E+00 0. -1.
         11    1    4    4    0    0  0.21269518270E+01 -0.98058662759E+01  0.82254405345E+01  0.12974467609E+02  0.51100000000E-03 0. -1.
        -11    1    4    4    0    0 -0.27551245778E+02 -0.89057187064E+01 -0.26111676238E+02  0.38989775657E+02  0.51100000000E-03 0.  1.
        -12    1    4    4    0    0  0.92827786963E+00 -0.22154766015E+01  0.59746407724E-01  0.24028329131E+01  0.00000000000E+00 0.  1.
</event>
<event>
 8    1  0.1280925E-006  0.9118800E+02  0.7816164E-02  0.1184000E+00
        -11   -1    0    0    0    0  0.00000000000E+00  0.00000000000E+00  0.45593999997E+02  0.45594000000E+02  0.51100000000E-03 0.  1.
         11   -1    0    0    0    0 -0.00000000000E+00 -0.00000000000E+00 -0.45593999997E+02  0.45594000000E+02  0.51100000000E-03 0. -1.
         23    2    1    2    0    0  0.00000000000E+00 -0.17763568394E-14 -0.35527136788E-14  0.91188000000E+02  0.91188000000E+02 0.  0.
    9900012    2    3    3    0    0  0.14028693408E+02  0.12352685209E+02 -0.31723615575E+02  0.54367070411E+02  0.39999968616E+02 0.  0.
        -12    1    3    3    0    0 -0.14028693408E+02 -0.12352685209E+02  0.31723615575E+02  0.36820929589E+02  0.00000000000E+00 0.  1.
         11    1    4    4    0    0  0.91719648790E+00 -0.52547180570E+01 -0.38331067448E+01  0.65685629200E+01  0.51100000000E-03 0. -1.
        -11    1    4    4    0    0  0.10278262139E+02  0.26202084316E+02 -0.26471164271E+02  0.38638250908E+02  0.51100000000E-03 0.  1.
        -12    1    4    4    0    0  0.28332347816E+01 -0.85946810504E+01 -0.14193445591E+01  0.91602565828E+01  0.00000000000E+00 0.  1.
</event>
<event>
 8    1  0.1280925E-006  0.9118800E+02  0.7816164E-02  0.1184000E+00
        -11   -1    0    0    0    0  0.00000000000E+00  0.00000000000E+00  0.45593999997E+02  0.45594000000E+02  0.51100000000E-03 0.  1.
         11   -1    0    0    0    0 -0.00000000000E+00 -0.00000000000E+00 -0.45593999997E+02  0.45594000000E+02  0.51100000000E-03 0. -1.
         23    2    1    2    0    0  0.00000000000E+00  0.35527136788E-14  0.35527136788E-14  0.91188000000E+02  0.91188000000E+02 0.  0.
    9900012    2    3    3    0    0  0.20818809972E+02 -0.23049920158E+02  0.19774736182E+02  0.54367328374E+02  0.40000556690E+02 0.  0.
         12    1    3    3    0    0 -0.20818809972E+02  0.23049920158E+02 -0.19774736182E+02  0.36820671626E+02  0.00000000000E+00 0. -1.
         11    1    4    4    0    0  0.86309036308E+00 -0.43056953960E+01 -0.36614176314E+01  0.57175096983E+01  0.51100000000E-03 0. -1.
        -11    1    4    4    0    0  0.10152309464E+02 -0.27589502981E+02  0.15313407589E+02  0.33147405848E+02  0.51100000000E-03 0.  1.
         12    1    4    4    0    0  0.98034101455E+01  0.88452782195E+01  0.81227462247E+01  0.15502412828E+02  0.00000000000E+00 0. -1.
</event>
<event>
 8    1  0.1280925E-006  0.9118800E+02  0.7816164E-02  0.1184000E+00
        -11   -1    0    0    0    0  0.00000000000E+00  0.00000000000E+00  0.45593999997E+02  0.45594000000E+02  0.51100000000E-03 0. -1.
         11   -1    0    0    0    0 -0.00000000000E+00 -0.00000000000E+00 -0.45593999997E+02  0.45594000000E+02  0.51100000000E-03 0.  1.
         23    2    1    2    0    0  0.00000000000E+00  0.00000000000E+00  0.00000000000E+00  0.91188000000E+02  0.91188000000E+02 0.  0.
    9900012    2    3    3    0    0  0.25917458124E+02 -0.25879345165E+02 -0.37846493919E+01  0.54367099511E+02  0.40000034956E+02 0.  0.
        -12    1    3    3    0    0 -0.25917458124E+02  0.25879345165E+02  0.37846493919E+01  0.36820900489E+02  0.00000000000E+00 0.  1.
         11    1    4    4    0    0 -0.37872135806E+01  0.63765987444E+00  0.14791928345E+01  0.41155325929E+01  0.51100000000E-03 0. -1.
        -11    1    4    4    0    0 -0.18481331957E+00 -0.41045974030E+00 -0.10244884736E+02  0.10254769460E+02  0.51100000000E-03 0.  1.
         12    1    4    4    0    0  0.29889485024E+02 -0.26106545299E+02  0.49810425095E+01  0.39996797459E+02  0.00000000000E+00 0. -1.
</event>
<event>
 8    1  0.1280925E-006  0.9118800E+02  0.7816164E-02  0.1184000E+00
        -11   -1    0    0    0    0  0.00000000000E+00  0.00000000000E+00  0.45593999997E+02  0.45594000000E+02  0.51100000000E-03 0. -1.
         11   -1    0    0    0    0 -0.00000000000E+00 -0.00000000000E+00 -0.45593999997E+02  0.45594000000E+02  0.51100000000E-03 0.  1.
         23    2    1    2    0    0 -0.17763568394E-14  0.35527136788E-14 -0.17763568394E-14  0.91188000000E+02  0.91188000000E+02 0.  0.
    9900012    2    3    3    0    0 -0.15036485963E+02  0.29782060316E+02 -0.15579113335E+02  0.54367139077E+02  0.40000125153E+02 0.  0.
         12    1    3    3    0    0  0.15036485963E+02 -0.29782060316E+02  0.15579113335E+02  0.36820860923E+02  0.00000000000E+00 0. -1.
         11    1    4    4    0    0  0.59218774237E+01  0.13486043187E+02  0.12381903825E+01  0.14780903516E+02  0.51100000000E-03 0. -1.
        -11    1    4    4    0    0 -0.25011070613E+02  0.13503975627E+02 -0.80660584578E+01  0.29546104824E+02  0.51100000000E-03 0.  1.
         12    1    4    4    0    0  0.40527072259E+01  0.27920415022E+01 -0.87512452602E+01  0.10040130737E+02  0.00000000000E+00 0. -1.
</event>
<event>
 8    1  0.1280925E-006  0.9118800E+02  0.7816164E-02  0.1184000E+00
        -11   -1    0    0    0    0  0.00000000000E+00  0.00000000000E+00  0.45593999997E+02  0.45594000000E+02  0.51100000000E-03 0.  1.
         11   -1    0    0    0    0 -0.00000000000E+00 -0.00000000000E+00 -0.45593999997E+02  0.45594000000E+02  0.51100000000E-03 0. -1.
         23    2    1    2    0    0 -0.88817841970E-15  0.35527136788E-14 -0.71054273576E-14  0.91188000000E+02  0.91188000000E+02 0.  0.
    9900012    2    3    3    0    0 -0.23746133791E+01  0.26260669163E+02 -0.25700664259E+02  0.54367004944E+02  0.39999819370E+02 0.  0.
        -12    1    3    3    0    0  0.23746133791E+01 -0.26260669163E+02  0.25700664259E+02  0.36820995056E+02  0.00000000000E+00 0.  1.
         11    1    4    4    0    0 -0.15616069351E+02  0.27018281854E+01 -0.94546598633E+01  0.18454053509E+02  0.51100000000E-03 0. -1.
        -11    1    4    4    0    0 -0.19151911683E+01  0.10562431631E+01 -0.68664783541E+01  0.72063952208E+01  0.51100000000E-03 0.  1.
        -12    1    4    4    0    0  0.15156647140E+02  0.22502597814E+02 -0.93795260417E+01  0.28706556214E+02  0.00000000000E+00 0.  1.
</event>
<event>
 8    1  0.1280925E-006  0.9118800E+02  0.7816164E-02  0.1184000E+00
        -11   -1    0    0    0    0  0.00000000000E+00  0.00000000000E+00  0.45593999997E+02  0.45594000000E+02  0.51100000000E-03 0. -1.
         11   -1    0    0    0    0 -0.00000000000E+00 -0.00000000000E+00 -0.45593999997E+02  0.45594000000E+02  0.51100000000E-03 0.  1.
         23    2    1    2    0    0  0.00000000000E+00  0.00000000000E+00  0.88817841970E-15  0.91188000000E+02  0.91188000000E+02 0.  0.
    9900012    2    3    3    0    0  0.14122284055E+02 -0.33507834483E+02  0.57937740594E+01  0.54367058995E+02  0.39999942590E+02 0.  0.
         12    1    3    3    0    0 -0.14122284055E+02  0.33507834483E+02 -0.57937740594E+01  0.36820941005E+02  0.00000000000E+00 0. -1.
         11    1    4    4    0    0 -0.11563109514E+02 -0.99862003792E+01  0.96491838357E+01  0.18070319549E+02  0.51100000000E-03 0. -1.
        -11    1    4    4    0    0  0.24968925596E+01 -0.72127849493E+00  0.19670266130E+01  0.32594338587E+01  0.51100000000E-03 0.  1.
        -12    1    4    4    0    0  0.23188501009E+02 -0.22800355609E+02 -0.58224363894E+01  0.33037305587E+02  0.00000000000E+00 0.  1.
</event>
<event>
 8    1  0.1280925E-006  0.9118800E+02  0.7816164E-02  0.1184000E+00
        -11   -1    0    0    0    0  0.00000000000E+00  0.00000000000E+00  0.45593999997E+02  0.45594000000E+02  0.51100000000E-03 0.  1.
         11   -1    0    0    0    0 -0.00000000000E+00 -0.00000000000E+00 -0.45593999997E+02  0.45594000000E+02  0.51100000000E-03 0. -1.
         23    2    1    2    0    0  0.00000000000E+00  0.00000000000E+00  0.00000000000E+00  0.91188000000E+02  0.91188000000E+02 0.  0.
    9900012    2    3    3    0    0 -0.15014641518E+02  0.38026382386E+01 -0.33404716378E+02  0.54367155445E+02  0.40000162467E+02 0.  0.
        -12    1    3    3    0    0  0.15014641518E+02 -0.38026382386E+01  0.33404716378E+02  0.36820844555E+02  0.00000000000E+00 0.  1.
         11    1    4    4    0    0  0.91620124983E+01 -0.88600927734E+00 -0.10220505704E+02  0.13754498266E+02  0.51100000000E-03 0. -1.
        -11    1    4    4    0    0 -0.26719361850E+02  0.15973019530E+00 -0.14259643725E+02  0.30286750417E+02  0.51100000000E-03 0.  1.
        -12    1    4    4    0    0  0.25427078334E+01  0.45289173206E+01 -0.89245669494E+01  0.10325906762E+02  0.00000000000E+00 0.  1.
</event>
<event>
 8    1  0.1280925E-006  0.9118800E+02  0.7816164E-02  0.1184000E+00
        -11   -1    0    0    0    0  0.00000000000E+00  0.00000000000E+00  0.45593999997E+02  0.45594000000E+02  0.51100000000E-03 0. -1.
         11   -1    0    0    0    0 -0.00000000000E+00 -0.00000000000E+00 -0.45593999997E+02  0.45594000000E+02  0.51100000000E-03 0.  1.
         23    2    1    2    0    0 -0.71054273576E-14 -0.17763568394E-14 -0.71054273576E-14  0.91188000000E+02  0.91188000000E+02 0.  0.
    9900012    2    3    3    0    0  0.23032915918E+02  0.68330108127E+01  0.27902937505E+02  0.54367093251E+02  0.40000020684E+02 0.  0.
        -12    1    3    3    0    0 -0.23032915918E+02 -0.68330108127E+01 -0.27902937505E+02  0.36820906749E+02  0.00000000000E+00 0.  1.
         11    1    4    4    0    0 -0.10957284258E+01  0.30184153359E+01 -0.18819239900E+01  0.37219739505E+01  0.51100000000E-03 0.  1.
        -11    1    4    4    0    0  0.67381266167E+01 -0.11334846212E+02  0.27198278905E+00  0.13189202548E+02  0.51100000000E-03 0. -1.
         12    1    4    4    0    0  0.17390517727E+02  0.15149441689E+02  0.29512878706E+02  0.37455916753E+02  0.00000000000E+00 0. -1.
</event>
<event>
 8    1  0.1280925E-006  0.9118800E+02  0.7816164E-02  0.1184000E+00
        -11   -1    0    0    0    0  0.00000000000E+00  0.00000000000E+00  0.45593999997E+02  0.45594000000E+02  0.51100000000E-03 0.  1.
         11   -1    0    0    0    0 -0.00000000000E+00 -0.00000000000E+00 -0.45593999997E+02  0.45594000000E+02  0.51100000000E-03 0. -1.
         23    2    1    2    0    0  0.17763568394E-14  0.35527136788E-14  0.35527136788E-14  0.91188000000E+02  0.91188000000E+02 0.  0.
    9900012    2    3    3    0    0 -0.61818310500E+01 -0.22224004469E+02 -0.28699447779E+02  0.54367085935E+02  0.40000004006E+02 0.  0.
        -12    1    3    3    0    0  0.61818310500E+01  0.22224004469E+02  0.28699447779E+02  0.36820914065E+02  0.00000000000E+00 0.  1.
         11    1    4    4    0    0 -0.50197123930E+01  0.24302759500E+01 -0.73772270029E+01  0.92480934368E+01  0.51100000000E-03 0. -1.
        -11    1    4    4    0    0  0.18201587899E+00 -0.34544334065E+01 -0.23510992457E+02  0.23764111734E+02  0.51100000000E-03 0.  1.
        -12    1    4    4    0    0 -0.13441345360E+01 -0.21199847012E+02  0.21887716804E+01  0.21354880764E+02  0.00000000000E+00 0.  1.
</event>
<event>
 8    1  0.1280925E-006  0.9118800E+02  0.7816164E-02  0.1184000E+00
        -11   -1    0    0    0    0  0.00000000000E+00  0.00000000000E+00  0.45593999997E+02  0.45594000000E+02  0.51100000000E-03 0. -1.
         11   -1    0    0    0    0 -0.00000000000E+00 -0.00000000000E+00 -0.45593999997E+02  0.45594000000E+02  0.51100000000E-03 0.  1.
         23    2    1    2    0    0  0.00000000000E+00  0.00000000000E+00  0.00000000000E+00  0.91188000000E+02  0.91188000000E+02 0.  0.
    9900012    2    3    3    0    0 -0.13736874250E+02 -0.14434222624E+02 -0.30963390563E+02  0.54367081325E+02  0.39999993497E+02 0.  0.
        -12    1    3    3    0    0  0.13736874250E+02  0.14434222624E+02  0.30963390563E+02  0.36820918675E+02  0.00000000000E+00 0.  1.
         11    1    4    4    0    0 -0.13846142673E+02 -0.15003805532E+02 -0.96527549109E+00  0.20439217313E+02  0.51100000000E-03 0. -1.
        -11    1    4    4    0    0  0.93428666136E+00  0.55150595189E+01 -0.27962629977E+02  0.28516617060E+02  0.51100000000E-03 0.  1.
        -12    1    4    4    0    0 -0.82501823836E+00 -0.49454766114E+01 -0.20354850948E+01  0.54112469523E+01  0.00000000000E+00 0.  1.
</event>
<event>
 8    1  0.1280925E-006  0.9118800E+02  0.7816164E-02  0.1184000E+00
        -11   -1    0    0    0    0  0.00000000000E+00  0.00000000000E+00  0.45593999997E+02  0.45594000000E+02  0.51100000000E-03 0. -1.
         11   -1    0    0    0    0 -0.00000000000E+00 -0.00000000000E+00 -0.45593999997E+02  0.45594000000E+02  0.51100000000E-03 0.  1.
         23    2    1    2    0    0  0.71054273576E-14  0.00000000000E+00  0.00000000000E+00  0.91188000000E+02  0.91188000000E+02 0.  0.
    9900012    2    3    3    0    0 -0.19153595367E+02  0.30083601515E+02  0.91598479245E+01  0.54366999068E+02  0.39999805975E+02 0.  0.
         12    1    3    3    0    0  0.19153595367E+02 -0.30083601515E+02 -0.91598479245E+01  0.36821000932E+02  0.00000000000E+00 0. -1.
         11    1    4    4    0    0  0.46153333918E+01  0.33907208910E+01  0.51674124195E+01  0.77136529513E+01  0.51100000000E-03 0. -1.
        -11    1    4    4    0    0  0.71466942271E+00  0.38999510172E+01  0.11676420450E+02  0.12331227234E+02  0.51100000000E-03 0.  1.
        -12    1    4    4    0    0 -0.24483598182E+02  0.22792929607E+02 -0.76839849446E+01  0.34322118883E+02  0.00000000000E+00 0.  1.
</event>
<event>
 8    1  0.1280925E-006  0.9118800E+02  0.7816164E-02  0.1184000E+00
        -11   -1    0    0    0    0  0.00000000000E+00  0.00000000000E+00  0.45593999997E+02  0.45594000000E+02  0.51100000000E-03 0.  1.
         11   -1    0    0    0    0 -0.00000000000E+00 -0.00000000000E+00 -0.45593999997E+02  0.45594000000E+02  0.51100000000E-03 0. -1.
         23    2    1    2    0    0  0.17763568394E-14 -0.35527136788E-14 -0.35527136788E-14  0.91188000000E+02  0.91188000000E+02 0.  0.
    9900012    2    3    3    0    0 -0.91269589461E+01 -0.21593983008E+02  0.28393290326E+02  0.54367076366E+02  0.39999982191E+02 0.  0.
         12    1    3    3    0    0  0.91269589461E+01  0.21593983008E+02 -0.28393290326E+02  0.36820923634E+02  0.00000000000E+00 0. -1.
         11    1    4    4    0    0 -0.16980526514E+02  0.34852884551E+01  0.13026024542E+02  0.21683238502E+02  0.51100000000E-03 0. -1.
        -11    1    4    4    0    0  0.11318193373E+01 -0.20343936571E+02  0.12832893612E+02  0.24079865634E+02  0.51100000000E-03 0.  1.
         12    1    4    4    0    0  0.67217482311E+01 -0.47353348917E+01  0.25343721717E+01  0.86039722294E+01  0.00000000000E+00 0. -1.
</event>
<event>
 8    1  0.1280925E-006  0.9118800E+02  0.7816164E-02  0.1184000E+00
        -11   -1    0    0    0    0  0.00000000000E+00  0.00000000000E+00  0.45593999997E+02  0.45594000000E+02  0.51100000000E-03 0. -1.
         11   -1    0    0    0    0 -0.00000000000E+00 -0.00000000000E+00 -0.45593999997E+02  0.45594000000E+02  0.51100000000E-03 0.  1.
         23    2    1    2    0    0 -0.71054273576E-14  0.35527136788E-14 -0.88817841970E-15  0.91188000000E+02  0.91188000000E+02 0.  0.
    9900012    2    3    3    0    0 -0.31700186039E+02  0.17352348018E+02 -0.70548750158E+01  0.54367122252E+02  0.40000086798E+02 0.  0.
         12    1    3    3    0    0  0.31700186039E+02 -0.17352348018E+02  0.70548750158E+01  0.36820877748E+02  0.00000000000E+00 0. -1.
         11    1    4    4    0    0 -0.84622280860E+01 -0.52252556319E+01  0.79353384631E+01  0.12723293496E+02  0.51100000000E-03 0. -1.
        -11    1    4    4    0    0 -0.41518124904E+01 -0.38403667514E+01  0.25889408705E+00  0.56615360239E+01  0.51100000000E-03 0.  1.
        -12    1    4    4    0    0 -0.19086145463E+02  0.26417970401E+02 -0.15249107566E+02  0.35982292732E+02  0.00000000000E+00 0.  1.
</event>
<event>
 8    1  0.1280925E-006  0.9118800E+02  0.7816164E-02  0.1184000E+00
        -11   -1    0    0    0    0  0.00000000000E+00  0.00000000000E+00  0.45593999997E+02  0.45594000000E+02  0.51100000000E-03 0.  1.
         11   -1    0    0    0    0 -0.00000000000E+00 -0.00000000000E+00 -0.45593999997E+02  0.45594000000E+02  0.51100000000E-03 0. -1.
         23    2    1    2    0    0  0.88817841970E-15 -0.71054273576E-14  0.00000000000E+00  0.91188000000E+02  0.91188000000E+02 0.  0.
    9900012    2    3    3    0    0  0.22998724111E+01  0.36404431682E+02  0.50204082544E+01  0.54367128769E+02  0.40000101654E+02 0.  0.
         12    1    3    3    0    0 -0.22998724111E+01 -0.36404431682E+02 -0.50204082544E+01  0.36820871231E+02  0.00000000000E+00 0. -1.
         11    1    4    4    0    0  0.49700226354E+01  0.27903955533E+01 -0.11017842830E+02  0.12404849585E+02  0.51100000000E-03 0. -1.
        -11    1    4    4    0    0 -0.10802992044E+02  0.21362845577E+02  0.82394237484E+01  0.25317265101E+02  0.51100000000E-03 0.  1.
         12    1    4    4    0    0  0.81328418195E+01  0.12251190551E+02  0.77988273361E+01  0.16645014082E+02  0.00000000000E+00 0. -1.
</event>
<event>
 8    1  0.1280925E-006  0.9118800E+02  0.7816164E-02  0.1184000E+00
        -11   -1    0    0    0    0  0.00000000000E+00  0.00000000000E+00  0.45593999997E+02  0.45594000000E+02  0.51100000000E-03 0.  1.
         11   -1    0    0    0    0 -0.00000000000E+00 -0.00000000000E+00 -0.45593999997E+02  0.45594000000E+02  0.51100000000E-03 0. -1.
         23    2    1    2    0    0 -0.44408920985E-15  0.26645352591E-14  0.00000000000E+00  0.91188000000E+02  0.91188000000E+02 0.  0.
    9900012    2    3    3    0    0 -0.26905674807E+01  0.54890145167E+01 -0.36309921007E+02  0.54367098365E+02  0.40000032342E+02 0.  0.
        -12    1    3    3    0    0  0.26905674807E+01 -0.54890145167E+01  0.36309921007E+02  0.36820901635E+02  0.00000000000E+00 0.  1.
         11    1    4    4    0    0 -0.81977636620E+01  0.23186793048E+01 -0.82124084148E+01  0.11833142229E+02  0.51100000000E-03 0. -1.
        -11    1    4    4    0    0  0.61287130509E+01 -0.12263208992E+02 -0.22012404156E+02  0.25932476847E+02  0.51100000000E-03 0.  1.
        -12    1    4    4    0    0 -0.62151686961E+00  0.15433544203E+02 -0.60851084355E+01  0.16601479289E+02  0.00000000000E+00 0.  1.
</event>
<event>
 8    1  0.1280925E-006  0.9118800E+02  0.7816164E-02  0.1184000E+00
        -11   -1    0    0    0    0  0.00000000000E+00  0.00000000000E+00  0.45593999997E+02  0.45594000000E+02  0.51100000000E-03 0. -1.
         11   -1    0    0    0    0 -0.00000000000E+00 -0.00000000000E+00 -0.45593999997E+02  0.45594000000E+02  0.51100000000E-03 0.  1.
         23    2    1    2    0    0  0.71054273576E-14  0.17763568394E-14  0.35527136788E-14  0.91188000000E+02  0.91188000000E+02 0.  0.
    9900012    2    3    3    0    0  0.32078715396E+02  0.13341025183E+02  0.12196460087E+02  0.54367074250E+02  0.39999977368E+02 0.  0.
         12    1    3    3    0    0 -0.32078715396E+02 -0.13341025183E+02 -0.12196460087E+02  0.36820925750E+02  0.00000000000E+00 0. -1.
         11    1    4    4    0    0  0.12674433719E+01 -0.38082996872E+01  0.15230561392E+02  0.15750541571E+02  0.51100000000E-03 0. -1.
        -11    1    4    4    0    0  0.14749014196E+00 -0.21234396749E+01 -0.97309946555E+00  0.23404427414E+01  0.51100000000E-03 0.  1.
        -12    1    4    4    0    0  0.30663781883E+02  0.19272764545E+02 -0.20610018398E+01  0.36276089937E+02  0.00000000000E+00 0.  1.
</event>
<event>
 8    1  0.1280925E-006  0.9118800E+02  0.7816164E-02  0.1184000E+00
        -11   -1    0    0    0    0  0.00000000000E+00  0.00000000000E+00  0.45593999997E+02  0.45594000000E+02  0.51100000000E-03 0.  1.
         11   -1    0    0    0    0 -0.00000000000E+00 -0.00000000000E+00 -0.45593999997E+02  0.45594000000E+02  0.51100000000E-03 0. -1.
         23    2    1    2    0    0 -0.35527136788E-14  0.35527136788E-14 -0.35527136788E-14  0.91188000000E+02  0.91188000000E+02 0.  0.
    9900012    2    3    3    0    0  0.29187219326E+02 -0.91562258468E+01  0.20495029622E+02  0.54367129791E+02  0.40000103985E+02 0.  0.
         12    1    3    3    0    0 -0.29187219326E+02  0.91562258468E+01 -0.20495029622E+02  0.36820870209E+02  0.00000000000E+00 0. -1.
         11    1    4    4    0    0  0.27096553458E+01 -0.18977764029E+02  0.14380815091E+02  0.23964674055E+02  0.51100000000E-03 0. -1.
        -11    1    4    4    0    0  0.39610319543E+01  0.45594080253E+01  0.38640337313E+01  0.71699883279E+01  0.51100000000E-03 0.  1.
        -12    1    4    4    0    0  0.22516532026E+02  0.52621301569E+01  0.22501807995E+01  0.23232467408E+02  0.00000000000E+00 0.  1.
</event>
<event>
 8    1  0.1280925E-006  0.9118800E+02  0.7816164E-02  0.1184000E+00
        -11   -1    0    0    0    0  0.00000000000E+00  0.00000000000E+00  0.45593999997E+02  0.45594000000E+02  0.51100000000E-03 0. -1.
         11   -1    0    0    0    0 -0.00000000000E+00 -0.00000000000E+00 -0.45593999997E+02  0.45594000000E+02  0.51100000000E-03 0.  1.
         23    2    1    2    0    0  0.71054273576E-14 -0.17763568394E-14  0.00000000000E+00  0.91188000000E+02  0.91188000000E+02 0.  0.
    9900012    2    3    3    0    0 -0.33785244024E+02  0.10116907029E+02  0.10582290728E+02  0.54367090198E+02  0.40000013725E+02 0.  0.
        -12    1    3    3    0    0  0.33785244024E+02 -0.10116907029E+02 -0.10582290728E+02  0.36820909802E+02  0.00000000000E+00 0.  1.
         11    1    4    4    0    0 -0.32641300091E+02  0.75055828502E+01  0.17021417694E+02  0.37570159783E+02  0.51100000000E-03 0. -1.
        -11    1    4    4    0    0 -0.29224414829E+00 -0.46698875061E+01  0.24445100207E+01  0.52790989254E+01  0.51100000000E-03 0.  1.
        -12    1    4    4    0    0 -0.85169978471E+00  0.72812116847E+01 -0.88836369869E+01  0.11517831490E+02  0.00000000000E+00 0.  1.
</event>
<event>
 8    1  0.1280925E-006  0.9118800E+02  0.7816164E-02  0.1184000E+00
        -11   -1    0    0    0    0  0.00000000000E+00  0.00000000000E+00  0.45593999997E+02  0.45594000000E+02  0.51100000000E-03 0.  1.
         11   -1    0    0    0    0 -0.00000000000E+00 -0.00000000000E+00 -0.45593999997E+02  0.45594000000E+02  0.51100000000E-03 0. -1.
         23    2    1    2    0    0 -0.88817841970E-15  0.00000000000E+00  0.88817841970E-15  0.91188000000E+02  0.91188000000E+02 0.  0.
    9900012    2    3    3    0    0  0.51537743888E+01 -0.36395394697E+02  0.21431302949E+01  0.54367093532E+02  0.40000021326E+02 0.  0.
        -12    1    3    3    0    0 -0.51537743888E+01  0.36395394697E+02 -0.21431302949E+01  0.36820906468E+02  0.00000000000E+00 0.  1.
         11    1    4    4    0    0 -0.78385876742E+00 -0.48348235390E+01 -0.12913356933E+02  0.13811036919E+02  0.51100000000E-03 0. -1.
        -11    1    4    4    0    0  0.11275880564E+02 -0.26359723440E+02  0.16330674407E+02  0.32995021278E+02  0.51100000000E-03 0.  1.
         12    1    4    4    0    0 -0.53382474079E+01 -0.52008477184E+01 -0.12741871783E+01  0.75610353354E+01  0.00000000000E+00 0. -1.
</event>
<event>
 8    1  0.1280925E-006  0.9118800E+02  0.7816164E-02  0.1184000E+00
        -11   -1    0    0    0    0  0.00000000000E+00  0.00000000000E+00  0.45593999997E+02  0.45594000000E+02  0.51100000000E-03 0. -1.
         11   -1    0    0    0    0 -0.00000000000E+00 -0.00000000000E+00 -0.45593999997E+02  0.45594000000E+02  0.51100000000E-03 0.  1.
         23    2    1    2    0    0  0.00000000000E+00  0.00000000000E+00 -0.17763568394E-14  0.91188000000E+02  0.91188000000E+02 0.  0.
    9900012    2    3    3    0    0 -0.34550802082E+02  0.61237419571E+01 -0.11158912525E+02  0.54367089245E+02  0.40000011552E+02 0.  0.
         12    1    3    3    0    0  0.34550802082E+02 -0.61237419571E+01  0.11158912525E+02  0.36820910755E+02  0.00000000000E+00 0. -1.
         11    1    4    4    0    0 -0.27274503762E+02  0.61668745745E+00 -0.54568299284E+01  0.27821859248E+02  0.51100000000E-03 0. -1.
        -11    1    4    4    0    0 -0.13401915157E+02  0.84088572709E+00 -0.10865763536E+02  0.17273773073E+02  0.51100000000E-03 0.  1.
         12    1    4    4    0    0  0.61256168370E+01  0.46661687725E+01  0.51636809396E+01  0.92714569240E+01  0.00000000000E+00 0. -1.
</event>
<event>
 8    1  0.1280925E-006  0.9118800E+02  0.7816164E-02  0.1184000E+00
        -11   -1    0    0    0    0  0.00000000000E+00  0.00000000000E+00  0.45593999997E+02  0.45594000000E+02  0.51100000000E-03 0. -1.
         11   -1    0    0    0    0 -0.00000000000E+00 -0.00000000000E+00 -0.45593999997E+02  0.45594000000E+02  0.51100000000E-03 0.  1.
         23    2    1    2    0    0  0.00000000000E+00 -0.88817841970E-15  0.17763568394E-14  0.91188000000E+02  0.91188000000E+02 0.  0.
    9900012    2    3    3    0    0 -0.34368507369E+02  0.68238309715E+01  0.11314796112E+02  0.54367033433E+02  0.39999884316E+02 0.  0.
         12    1    3    3    0    0  0.34368507369E+02 -0.68238309715E+01 -0.11314796112E+02  0.36820966567E+02  0.00000000000E+00 0. -1.
         11    1    4    4    0    0 -0.20312524285E+02  0.20986022919E+00  0.14079239178E+02  0.24715737097E+02  0.51100000000E-03 0. -1.
        -11    1    4    4    0    0 -0.13277678484E+02 -0.24512648972E+01 -0.10971847748E+02  0.17397898976E+02  0.51100000000E-03 0.  1.
        -12    1    4    4    0    0 -0.77830460011E+00  0.90652356395E+01  0.82074046816E+01  0.12253397360E+02  0.00000000000E+00 0.  1.
</event>
<event>
 8    1  0.1280925E-006  0.9118800E+02  0.7816164E-02  0.1184000E+00
        -11   -1    0    0    0    0  0.00000000000E+00  0.00000000000E+00  0.45593999997E+02  0.45594000000E+02  0.51100000000E-03 0.  1.
         11   -1    0    0    0    0 -0.00000000000E+00 -0.00000000000E+00 -0.45593999997E+02  0.45594000000E+02  0.51100000000E-03 0. -1.
         23    2    1    2    0    0 -0.44408920985E-15 -0.71054273576E-14 -0.35527136788E-14  0.91188000000E+02  0.91188000000E+02 0.  0.
    9900012    2    3    3    0    0 -0.75352707988E+00  0.19319794460E+02  0.31336204884E+02  0.54367082065E+02  0.39999995184E+02 0.  0.
         12    1    3    3    0    0  0.75352707988E+00 -0.19319794460E+02 -0.31336204884E+02  0.36820917935E+02  0.00000000000E+00 0. -1.
         11    1    4    4    0    0 -0.65979932050E+01 -0.35252579665E+01 -0.23799450354E+01  0.78501653929E+01  0.51100000000E-03 0. -1.
        -11    1    4    4    0    0  0.84674702801E+01 -0.50510219378E+00  0.76388635089E+01  0.11415139821E+02  0.51100000000E-03 0.  1.
         12    1    4    4    0    0 -0.26230041549E+01  0.23350154620E+02  0.26077286410E+02  0.35101776851E+02  0.00000000000E+00 0. -1.
</event>
<event>
 8    1  0.1280925E-006  0.9118800E+02  0.7816164E-02  0.1184000E+00
        -11   -1    0    0    0    0  0.00000000000E+00  0.00000000000E+00  0.45593999997E+02  0.45594000000E+02  0.51100000000E-03 0.  1.
         11   -1    0    0    0    0 -0.00000000000E+00 -0.00000000000E+00 -0.45593999997E+02  0.45594000000E+02  0.51100000000E-03 0. -1.
         23    2    1    2    0    0 -0.16653345369E-15  0.00000000000E+00  0.00000000000E+00  0.91188000000E+02  0.91188000000E+02 0.  0.
    9900012    2    3    3    0    0  0.23058025045E+00 -0.35006417480E+02 -0.11413990016E+02  0.54367060304E+02  0.39999945575E+02 0.  0.
        -12    1    3    3    0    0 -0.23058025045E+00  0.35006417480E+02  0.11413990016E+02  0.36820939696E+02  0.00000000000E+00 0.  1.
         11    1    4    4    0    0 -0.10223169304E+01 -0.87685652793E+01 -0.13468240340E+02  0.16103613479E+02  0.51100000000E-03 0. -1.
        -11    1    4    4    0    0  0.14784155401E+01  0.57834760409E+01  0.18190779220E+01  0.62404609102E+01  0.51100000000E-03 0.  1.
         12    1    4    4    0    0 -0.22551835931E+00 -0.32021328241E+02  0.23517240154E+00  0.32022985915E+02  0.00000000000E+00 0. -1.
</event>
<event>
 8    1  0.1280925E-006  0.9118800E+02  0.7816164E-02  0.1184000E+00
        -11   -1    0    0    0    0  0.00000000000E+00  0.00000000000E+00  0.45593999997E+02  0.45594000000E+02  0.51100000000E-03 0.  1.
         11   -1    0    0    0    0 -0.00000000000E+00 -0.00000000000E+00 -0.45593999997E+02  0.45594000000E+02  0.51100000000E-03 0. -1.
         23    2    1    2    0    0 -0.66613381478E-15 -0.17763568394E-14 -0.71054273576E-14  0.91188000000E+02  0.91188000000E+02 0.  0.
    9900012    2    3    3    0    0 -0.89536996943E+00  0.15616024854E+02 -0.33333435683E+02  0.54367084014E+02  0.39999999628E+02 0.  0.
        -12    1    3    3    0    0  0.89536996943E+00 -0.15616024854E+02  0.33333435683E+02  0.36820915986E+02  0.00000000000E+00 0.  1.
         11    1    4    4    0    0 -0.47341832410E+01 -0.55583859068E+01 -0.45544463369E+01  0.86052964240E+01  0.51100000000E-03 0. -1.
        -11    1    4    4    0    0 -0.29375206401E+01 -0.18552098062E+01  0.38935352952E+01  0.52182802045E+01  0.51100000000E-03 0.  1.
         12    1    4    4    0    0  0.67763339117E+01  0.23029620567E+02 -0.32672524641E+02  0.40543507386E+02  0.00000000000E+00 0. -1.
</event>
<event>
 8    1  0.1280925E-006  0.9118800E+02  0.7816164E-02  0.1184000E+00
        -11   -1    0    0    0    0  0.00000000000E+00  0.00000000000E+00  0.45593999997E+02  0.45594000000E+02  0.51100000000E-03 0.  1.
         11   -1    0    0    0    0 -0.00000000000E+00 -0.00000000000E+00 -0.45593999997E+02  0.45594000000E+02  0.51100000000E-03 0. -1.
         23    2    1    2    0    0 -0.22204460493E-15 -0.53290705182E-14 -0.71054273576E-14  0.91188000000E+02  0.91188000000E+02 0.  0.
    9900012    2    3    3    0    0  0.18380475565E+01  0.14332478599E+02  0.33867099461E+02  0.54367098497E+02  0.40000032643E+02 0.  0.
         12    1    3    3    0    0 -0.18380475565E+01 -0.14332478599E+02 -0.33867099461E+02  0.36820901503E+02  0.00000000000E+00 0. -1.
         11    1    4    4    0    0  0.10227487084E+02  0.17872541827E+01  0.51633523097E+01  0.11595515379E+02  0.51100000000E-03 0. -1.
        -11    1    4    4    0    0 -0.97837608829E+01 -0.41815230440E+01  0.14143299574E+01  0.10733472945E+02  0.51100000000E-03 0.  1.
        -12    1    4    4    0    0  0.13943213551E+01  0.16726747460E+02  0.27289417194E+02  0.32038110172E+02  0.00000000000E+00 0.  1.
</event>
<event>
 8    1  0.1280925E-006  0.9118800E+02  0.7816164E-02  0.1184000E+00
        -11   -1    0    0    0    0  0.00000000000E+00  0.00000000000E+00  0.45593999997E+02  0.45594000000E+02  0.51100000000E-03 0.  1.
         11   -1    0    0    0    0 -0.00000000000E+00 -0.00000000000E+00 -0.45593999997E+02  0.45594000000E+02  0.51100000000E-03 0. -1.
         23    2    1    2    0    0  0.35527136788E-14  0.35527136788E-14  0.35527136788E-14  0.91188000000E+02  0.91188000000E+02 0.  0.
    9900012    2    3    3    0    0 -0.21402314162E+02 -0.28501662034E+02 -0.92399131614E+01  0.54367084946E+02  0.40000001751E+02 0.  0.
        -12    1    3    3    0    0  0.21402314162E+02  0.28501662034E+02  0.92399131614E+01  0.36820915054E+02  0.00000000000E+00 0.  1.
         11    1    4    4    0    0 -0.13322826114E+02 -0.18656910142E+02  0.75866665718E+01  0.24148198725E+02  0.51100000000E-03 0. -1.
        -11    1    4    4    0    0 -0.41283957793E+01 -0.13693860169E+02 -0.20531351236E+01  0.14449249881E+02  0.51100000000E-03 0.  1.
        -12    1    4    4    0    0 -0.39510922687E+01  0.38491082770E+01 -0.14773444610E+02  0.15769636339E+02  0.00000000000E+00 0.  1.
</event>
<event>
 8    1  0.1280925E-006  0.9118800E+02  0.7816164E-02  0.1184000E+00
        -11   -1    0    0    0    0  0.00000000000E+00  0.00000000000E+00  0.45593999997E+02  0.45594000000E+02  0.51100000000E-03 0. -1.
         11   -1    0    0    0    0 -0.00000000000E+00 -0.00000000000E+00 -0.45593999997E+02  0.45594000000E+02  0.51100000000E-03 0.  1.
         23    2    1    2    0    0  0.17763568394E-14  0.88817841970E-15  0.00000000000E+00  0.91188000000E+02  0.91188000000E+02 0.  0.
    9900012    2    3    3    0    0 -0.10755257139E+02  0.10111024491E+01  0.35200621949E+02  0.54367059356E+02  0.39999943414E+02 0.  0.
        -12    1    3    3    0    0  0.10755257139E+02 -0.10111024491E+01 -0.35200621949E+02  0.36820940644E+02  0.00000000000E+00 0.  1.
         11    1    4    4    0    0  0.76908466426E+01  0.44001855731E+01  0.75201032773E+00  0.88924841834E+01  0.51100000000E-03 0. -1.
        -11    1    4    4    0    0 -0.89373988246E+01 -0.81506856799E+01  0.32668214209E+01  0.12529281594E+02  0.51100000000E-03 0.  1.
         12    1    4    4    0    0 -0.95087049565E+01  0.47616025559E+01  0.31181790201E+02  0.32945293579E+02  0.00000000000E+00 0. -1.
</event>
<event>
 8    1  0.1280925E-006  0.9118800E+02  0.7816164E-02  0.1184000E+00
        -11   -1    0    0    0    0  0.00000000000E+00  0.00000000000E+00  0.45593999997E+02  0.45594000000E+02  0.51100000000E-03 0.  1.
         11   -1    0    0    0    0 -0.00000000000E+00 -0.00000000000E+00 -0.45593999997E+02  0.45594000000E+02  0.51100000000E-03 0. -1.
         23    2    1    2    0    0  0.88817841970E-15  0.00000000000E+00  0.00000000000E+00  0.91188000000E+02  0.91188000000E+02 0.  0.
    9900012    2    3    3    0    0 -0.39356257607E+01 -0.63351129710E+01 -0.36057699269E+02  0.54367075472E+02  0.39999980154E+02 0.  0.
        -12    1    3    3    0    0  0.39356257607E+01  0.63351129710E+01  0.36057699269E+02  0.36820924528E+02  0.00000000000E+00 0.  1.
         11    1    4    4    0    0 -0.58855982832E+01 -0.68279087742E+01 -0.75258040011E+01  0.11743012029E+02  0.51100000000E-03 0. -1.
        -11    1    4    4    0    0 -0.10252158422E+02 -0.38454999422E+01  0.36734466333E+00  0.10955800495E+02  0.51100000000E-03 0.  1.
        -12    1    4    4    0    0  0.12202130945E+02  0.43382957453E+01 -0.28899239932E+02  0.31668262949E+02  0.00000000000E+00 0.  1.
</event>
<event>
 8    1  0.1280925E-006  0.9118800E+02  0.7816164E-02  0.1184000E+00
        -11   -1    0    0    0    0  0.00000000000E+00  0.00000000000E+00  0.45593999997E+02  0.45594000000E+02  0.51100000000E-03 0.  1.
         11   -1    0    0    0    0 -0.00000000000E+00 -0.00000000000E+00 -0.45593999997E+02  0.45594000000E+02  0.51100000000E-03 0. -1.
         23    2    1    2    0    0  0.00000000000E+00 -0.94368957093E-15 -0.48572257327E-15  0.91188000000E+02  0.91188000000E+02 0.  0.
    9900012    2    3    3    0    0  0.36818975914E+02 -0.36339939432E+00  0.12202894705E+00  0.54367028563E+02  0.39999873215E+02 0.  0.
        -12    1    3    3    0    0 -0.36818975914E+02  0.36339939432E+00 -0.12202894705E+00  0.36820971437E+02  0.00000000000E+00 0.  1.
         11    1    4    4    0    0  0.13167610358E+02  0.38942333154E+01 -0.24446789368E+00  0.13733564011E+02  0.51100000000E-03 0. -1.
        -11    1    4    4    0    0  0.15997186609E+02 -0.10262213887E+02 -0.13772192863E+02  0.23471180409E+02  0.51100000000E-03 0.  1.
        -12    1    4    4    0    0  0.76541789477E+01  0.60045811773E+01  0.14138689703E+02  0.17162284143E+02  0.00000000000E+00 0.  1.
</event>
<event>
 8    1  0.1280925E-006  0.9118800E+02  0.7816164E-02  0.1184000E+00
        -11   -1    0    0    0    0  0.00000000000E+00  0.00000000000E+00  0.45593999997E+02  0.45594000000E+02  0.51100000000E-03 0.  1.
         11   -1    0    0    0    0 -0.00000000000E+00 -0.00000000000E+00 -0.45593999997E+02  0.45594000000E+02  0.51100000000E-03 0. -1.
         23    2    1    2    0    0  0.88817841970E-15  0.00000000000E+00 -0.35527136788E-14  0.91188000000E+02  0.91188000000E+02 0.  0.
    9900012    2    3    3    0    0 -0.66466590955E+01  0.22252206394E+02 -0.28573444281E+02  0.54367075451E+02  0.39999980106E+02 0.  0.
        -12    1    3    3    0    0  0.66466590955E+01 -0.22252206394E+02  0.28573444281E+02  0.36820924549E+02  0.00000000000E+00 0.  1.
         11    1    4    4    0    0 -0.26041460699E+01  0.16379010614E+02 -0.13425219637E+02  0.21337527692E+02  0.51100000000E-03 0. -1.
        -11    1    4    4    0    0 -0.87466786941E+01  0.44598952940E+01 -0.22292990429E+02  0.24359238017E+02  0.51100000000E-03 0.  1.
        -12    1    4    4    0    0  0.47041656686E+01  0.14133004863E+01  0.71447657852E+01  0.86703097423E+01  0.00000000000E+00 0.  1.
</event>
<event>
 8    1  0.1280925E-006  0.9118800E+02  0.7816164E-02  0.1184000E+00
        -11   -1    0    0    0    0  0.00000000000E+00  0.00000000000E+00  0.45593999997E+02  0.45594000000E+02  0.51100000000E-03 0. -1.
         11   -1    0    0    0    0 -0.00000000000E+00 -0.00000000000E+00 -0.45593999997E+02  0.45594000000E+02  0.51100000000E-03 0.  1.
         23    2    1    2    0    0  0.00000000000E+00  0.00000000000E+00  0.00000000000E+00  0.91188000000E+02  0.91188000000E+02 0.  0.
    9900012    2    3    3    0    0  0.17213066870E+02  0.15861057864E+02 -0.28423906852E+02  0.54367064266E+02  0.39999954606E+02 0.  0.
         12    1    3    3    0    0 -0.17213066870E+02 -0.15861057864E+02  0.28423906852E+02  0.36820935734E+02  0.00000000000E+00 0. -1.
         11    1    4    4    0    0  0.30808658623E+01  0.16900988877E+01 -0.86154997087E+01  0.93045689961E+01  0.51100000000E-03 0. -1.
        -11    1    4    4    0    0  0.90285555450E+01  0.53290849911E-01 -0.26961825155E+02  0.28433390074E+02  0.51100000000E-03 0.  1.
         12    1    4    4    0    0  0.51036454623E+01  0.14117668127E+02  0.71534180120E+01  0.16629105195E+02  0.00000000000E+00 0. -1.
</event>
<event>
 8    1  0.1280925E-006  0.9118800E+02  0.7816164E-02  0.1184000E+00
        -11   -1    0    0    0    0  0.00000000000E+00  0.00000000000E+00  0.45593999997E+02  0.45594000000E+02  0.51100000000E-03 0. -1.
         11   -1    0    0    0    0 -0.00000000000E+00 -0.00000000000E+00 -0.45593999997E+02  0.45594000000E+02  0.51100000000E-03 0.  1.
         23    2    1    2    0    0  0.00000000000E+00  0.00000000000E+00 -0.17763568394E-14  0.91188000000E+02  0.91188000000E+02 0.  0.
    9900012    2    3    3    0    0  0.46404599117E+01  0.33811625618E+02 -0.13820916200E+02  0.54367114354E+02  0.40000068793E+02 0.  0.
         12    1    3    3    0    0 -0.46404599117E+01 -0.33811625618E+02  0.13820916200E+02  0.36820885646E+02  0.00000000000E+00 0. -1.
         11    1    4    4    0    0  0.39839788398E+01  0.11926975416E+02 -0.10480571513E+02  0.16369704012E+02  0.51100000000E-03 0. -1.
        -11    1    4    4    0    0  0.15500016418E+02  0.12951347092E+02 -0.42814189976E+01  0.20647480460E+02  0.51100000000E-03 0.  1.
         12    1    4    4    0    0 -0.14843535346E+02  0.89333031112E+01  0.94107431017E+00  0.17349929882E+02  0.00000000000E+00 0. -1.
</event>
<event>
 8    1  0.1280925E-006  0.9118800E+02  0.7816164E-02  0.1184000E+00
        -11   -1    0    0    0    0  0.00000000000E+00  0.00000000000E+00  0.45593999997E+02  0.45594000000E+02  0.51100000000E-03 0.  1.
         11   -1    0    0    0    0 -0.00000000000E+00 -0.00000000000E+00 -0.45593999997E+02  0.45594000000E+02  0.51100000000E-03 0. -1.
         23    2    1    2    0    0  0.17763568394E-14  0.71054273576E-14  0.00000000000E+00  0.91188000000E+02  0.91188000000E+02 0.  0.
    9900012    2    3    3    0    0  0.15597059398E+02  0.32930043521E+02 -0.53031727235E+01  0.54367086525E+02  0.40000005352E+02 0.  0.
        -12    1    3    3    0    0 -0.15597059398E+02 -0.32930043521E+02  0.53031727235E+01  0.36820913475E+02  0.00000000000E+00 0.  1.
         11    1    4    4    0    0  0.16481665957E+02  0.22440872474E+02  0.75956202709E+01  0.28860552969E+02  0.51100000000E-03 0. -1.
        -11    1    4    4    0    0  0.65678766252E+01  0.18007081929E+01  0.16374465002E+01  0.70043404159E+01  0.51100000000E-03 0.  1.
        -12    1    4    4    0    0 -0.74524831837E+01  0.86884628542E+01 -0.14536239495E+02  0.18502193141E+02  0.00000000000E+00 0.  1.
</event>
<event>
 8    1  0.1280925E-006  0.9118800E+02  0.7816164E-02  0.1184000E+00
        -11   -1    0    0    0    0  0.00000000000E+00  0.00000000000E+00  0.45593999997E+02  0.45594000000E+02  0.51100000000E-03 0.  1.
         11   -1    0    0    0    0 -0.00000000000E+00 -0.00000000000E+00 -0.45593999997E+02  0.45594000000E+02  0.51100000000E-03 0. -1.
         23    2    1    2    0    0  0.00000000000E+00  0.35527136788E-14 -0.71054273576E-14  0.91188000000E+02  0.91188000000E+02 0.  0.
    9900012    2    3    3    0    0  0.13562368279E+02  0.19954798586E+02 -0.27814513349E+02  0.54367095981E+02  0.40000026908E+02 0.  0.
        -12    1    3    3    0    0 -0.13562368279E+02 -0.19954798586E+02  0.27814513349E+02  0.36820904019E+02  0.00000000000E+00 0.  1.
         11    1    4    4    0    0 -0.40242899853E+01  0.31631675940E+01  0.31778304665E+01  0.60248772475E+01  0.51100000000E-03 0. -1.
        -11    1    4    4    0    0 -0.71044200755E+01  0.57730046772E+01 -0.12866122186E+02  0.15790423300E+02  0.51100000000E-03 0.  1.
         12    1    4    4    0    0  0.24691078339E+02  0.11018626315E+02 -0.18126221629E+02  0.32551795434E+02  0.00000000000E+00 0. -1.
</event>
<event>
 8    1  0.1280925E-006  0.9118800E+02  0.7816164E-02  0.1184000E+00
        -11   -1    0    0    0    0  0.00000000000E+00  0.00000000000E+00  0.45593999997E+02  0.45594000000E+02  0.51100000000E-03 0. -1.
         11   -1    0    0    0    0 -0.00000000000E+00 -0.00000000000E+00 -0.45593999997E+02  0.45594000000E+02  0.51100000000E-03 0.  1.
         23    2    1    2    0    0 -0.35527136788E-14  0.00000000000E+00  0.00000000000E+00  0.91188000000E+02  0.91188000000E+02 0.  0.
    9900012    2    3    3    0    0 -0.16095292406E+02  0.18023450410E+02  0.27782689201E+02  0.54367068160E+02  0.39999963485E+02 0.  0.
        -12    1    3    3    0    0  0.16095292406E+02 -0.18023450410E+02 -0.27782689201E+02  0.36820931840E+02  0.00000000000E+00 0.  1.
         11    1    4    4    0    0  0.13029936425E+01 -0.93092036064E+01  0.90031552027E+01  0.13015985098E+02  0.51100000000E-03 0. -1.
        -11    1    4    4    0    0 -0.13748138370E+01  0.11458304019E+02  0.14264406015E+02  0.18348191281E+02  0.51100000000E-03 0.  1.
        -12    1    4    4    0    0 -0.16023472211E+02  0.15874349997E+02  0.45151279835E+01  0.23002891780E+02  0.00000000000E+00 0.  1.
</event>
<event>
 8    1  0.1280925E-006  0.9118800E+02  0.7816164E-02  0.1184000E+00
        -11   -1    0    0    0    0  0.00000000000E+00  0.00000000000E+00  0.45593999997E+02  0.45594000000E+02  0.51100000000E-03 0. -1.
         11   -1    0    0    0    0 -0.00000000000E+00 -0.00000000000E+00 -0.45593999997E+02  0.45594000000E+02  0.51100000000E-03 0.  1.
         23    2    1    2    0    0  0.35527136788E-14  0.00000000000E+00  0.00000000000E+00  0.91188000000E+02  0.91188000000E+02 0.  0.
    9900012    2    3    3    0    0 -0.14084969777E+02  0.22041910887E+02  0.25914236635E+02  0.54367083803E+02  0.39999999146E+02 0.  0.
        -12    1    3    3    0    0  0.14084969777E+02 -0.22041910887E+02 -0.25914236635E+02  0.36820916197E+02  0.00000000000E+00 0.  1.
         11    1    4    4    0    0 -0.16120313854E+02  0.47709991817E+01  0.74016290008E+00  0.16827798232E+02  0.51100000000E-03 0. -1.
        -11    1    4    4    0    0  0.60006702175E+01  0.22240107186E+01  0.20220799777E+02  0.21209314242E+02  0.51100000000E-03 0.  1.
        -12    1    4    4    0    0 -0.39653261399E+01  0.15046900987E+02  0.49532739581E+01  0.16329971329E+02  0.00000000000E+00 0.  1.
</event>
<event>
 8    1  0.1280925E-006  0.9118800E+02  0.7816164E-02  0.1184000E+00
        -11   -1    0    0    0    0  0.00000000000E+00  0.00000000000E+00  0.45593999997E+02  0.45594000000E+02  0.51100000000E-03 0.  1.
         11   -1    0    0    0    0 -0.00000000000E+00 -0.00000000000E+00 -0.45593999997E+02  0.45594000000E+02  0.51100000000E-03 0. -1.
         23    2    1    2    0    0  0.00000000000E+00  0.35527136788E-14  0.00000000000E+00  0.91188000000E+02  0.91188000000E+02 0.  0.
    9900012    2    3    3    0    0 -0.59582880748E+01 -0.31639544048E+02  0.17866659582E+02  0.54367089243E+02  0.40000011548E+02 0.  0.
         12    1    3    3    0    0  0.59582880748E+01  0.31639544048E+02 -0.17866659582E+02  0.36820910757E+02  0.00000000000E+00 0. -1.
         11    1    4    4    0    0 -0.19398420922E+02 -0.19574612146E+02  0.72242579089E+01  0.28489543301E+02  0.51100000000E-03 0. -1.
        -11    1    4    4    0    0 -0.18016949061E+01 -0.70570622779E+01  0.51490201954E+01  0.89196772230E+01  0.51100000000E-03 0.  1.
        -12    1    4    4    0    0  0.15241827753E+02 -0.50078696244E+01  0.54933814772E+01  0.16957868719E+02  0.00000000000E+00 0.  1.
</event>
<event>
 8    1  0.1280925E-006  0.9118800E+02  0.7816164E-02  0.1184000E+00
        -11   -1    0    0    0    0  0.00000000000E+00  0.00000000000E+00  0.45593999997E+02  0.45594000000E+02  0.51100000000E-03 0.  1.
         11   -1    0    0    0    0 -0.00000000000E+00 -0.00000000000E+00 -0.45593999997E+02  0.45594000000E+02  0.51100000000E-03 0. -1.
         23    2    1    2    0    0  0.00000000000E+00  0.00000000000E+00  0.53290705182E-14  0.91188000000E+02  0.91188000000E+02 0.  0.
    9900012    2    3    3    0    0  0.33384221120E+02  0.25848279625E+01 -0.15316480999E+02  0.54367052897E+02  0.39999928689E+02 0.  0.
        -12    1    3    3    0    0 -0.33384221120E+02 -0.25848279625E+01  0.15316480999E+02  0.36820947103E+02  0.00000000000E+00 0.  1.
         11    1    4    4    0    0 -0.72221748228E+00  0.14715417136E+01  0.67622245196E+01  0.69580682536E+01  0.51100000000E-03 0. -1.
        -11    1    4    4    0    0 -0.11435454244E+01 -0.57423863896E+01 -0.16006447072E+01  0.60699885770E+01  0.51100000000E-03 0.  1.
         12    1    4    4    0    0  0.35249984026E+02  0.68556726386E+01 -0.20478060812E+02  0.41338996066E+02  0.00000000000E+00 0. -1.
</event>
<event>
 8    1  0.1280925E-006  0.9118800E+02  0.7816164E-02  0.1184000E+00
        -11   -1    0    0    0    0  0.00000000000E+00  0.00000000000E+00  0.45593999997E+02  0.45594000000E+02  0.51100000000E-03 0. -1.
         11   -1    0    0    0    0 -0.00000000000E+00 -0.00000000000E+00 -0.45593999997E+02  0.45594000000E+02  0.51100000000E-03 0.  1.
         23    2    1    2    0    0  0.35527136788E-14  0.00000000000E+00  0.00000000000E+00  0.91188000000E+02  0.91188000000E+02 0.  0.
    9900012    2    3    3    0    0 -0.27151006737E+02 -0.23533980466E+02  0.80470062261E+01  0.54367085935E+02  0.40000004005E+02 0.  0.
        -12    1    3    3    0    0  0.27151006737E+02  0.23533980466E+02 -0.80470062261E+01  0.36820914065E+02  0.00000000000E+00 0.  1.
         11    1    4    4    0    0 -0.19523117489E+02 -0.14033184910E+02  0.54352532702E+01  0.24650038004E+02  0.51100000000E-03 0. -1.
        -11    1    4    4    0    0 -0.63853667647E+01 -0.31650224178E+01  0.14517987955E+02  0.16172886265E+02  0.51100000000E-03 0.  1.
        -12    1    4    4    0    0 -0.12425224834E+01 -0.63357731381E+01 -0.11906234999E+02  0.13544161666E+02  0.00000000000E+00 0.  1.
</event>
<event>
 8    1  0.1280925E-006  0.9118800E+02  0.7816164E-02  0.1184000E+00
        -11   -1    0    0    0    0  0.00000000000E+00  0.00000000000E+00  0.45593999997E+02  0.45594000000E+02  0.51100000000E-03 0.  1.
         11   -1    0    0    0    0 -0.00000000000E+00 -0.00000000000E+00 -0.45593999997E+02  0.45594000000E+02  0.51100000000E-03 0. -1.
         23    2    1    2    0    0  0.35527136788E-14  0.00000000000E+00 -0.88817841970E-15  0.91188000000E+02  0.91188000000E+02 0.  0.
    9900012    2    3    3    0    0 -0.22899047390E+02 -0.28213191067E+02  0.59521140837E+01  0.54367106697E+02  0.40000051337E+02 0.  0.
         12    1    3    3    0    0  0.22899047390E+02  0.28213191067E+02 -0.59521140837E+01  0.36820893303E+02  0.00000000000E+00 0. -1.
         11    1    4    4    0    0 -0.26681199997E+01 -0.37583448472E+01 -0.85926363547E+01  0.97507651038E+01  0.51100000000E-03 0. -1.
        -11    1    4    4    0    0 -0.45626770411E+01 -0.23330978627E+02  0.86890157293E+00  0.23788811985E+02  0.51100000000E-03 0.  1.
         12    1    4    4    0    0 -0.15668250349E+02 -0.11238675929E+01  0.13675848865E+02  0.20827529608E+02  0.00000000000E+00 0. -1.
</event>
<event>
 8    1  0.1280925E-006  0.9118800E+02  0.7816164E-02  0.1184000E+00
        -11   -1    0    0    0    0  0.00000000000E+00  0.00000000000E+00  0.45593999997E+02  0.45594000000E+02  0.51100000000E-03 0. -1.
         11   -1    0    0    0    0 -0.00000000000E+00 -0.00000000000E+00 -0.45593999997E+02  0.45594000000E+02  0.51100000000E-03 0.  1.
         23    2    1    2    0    0  0.88817841970E-15 -0.35527136788E-14  0.00000000000E+00  0.91188000000E+02  0.91188000000E+02 0.  0.
    9900012    2    3    3    0    0 -0.45537897296E+01 -0.24941276283E+02  0.26701603005E+02  0.54367083844E+02  0.39999999240E+02 0.  0.
        -12    1    3    3    0    0  0.45537897296E+01  0.24941276283E+02 -0.26701603005E+02  0.36820916156E+02  0.00000000000E+00 0.  1.
         11    1    4    4    0    0 -0.59660591666E+01 -0.20770122379E+02  0.17490557693E+02  0.27801285120E+02  0.51100000000E-03 0. -1.
        -11    1    4    4    0    0  0.12561536597E+02  0.76042417271E+00  0.60939019169E+01  0.13982349139E+02  0.51100000000E-03 0.  1.
         12    1    4    4    0    0 -0.11149267160E+02 -0.49315780761E+01  0.31171433951E+01  0.12583449586E+02  0.00000000000E+00 0. -1.
</event>
<event>
 8    1  0.1280925E-006  0.9118800E+02  0.7816164E-02  0.1184000E+00
        -11   -1    0    0    0    0  0.00000000000E+00  0.00000000000E+00  0.45593999997E+02  0.45594000000E+02  0.51100000000E-03 0. -1.
         11   -1    0    0    0    0 -0.00000000000E+00 -0.00000000000E+00 -0.45593999997E+02  0.45594000000E+02  0.51100000000E-03 0.  1.
         23    2    1    2    0    0  0.00000000000E+00  0.00000000000E+00 -0.88817841970E-15  0.91188000000E+02  0.91188000000E+02 0.  0.
    9900012    2    3    3    0    0  0.27829423075E+02 -0.22932428635E+02 -0.74435915974E+01  0.54367080299E+02  0.39999991157E+02 0.  0.
        -12    1    3    3    0    0 -0.27829423075E+02  0.22932428635E+02  0.74435915974E+01  0.36820919701E+02  0.00000000000E+00 0.  1.
         11    1    4    4    0    0  0.42085914609E+01  0.92369305209E+01 -0.40871179569E+00  0.10158748600E+02  0.51100000000E-03 0. -1.
        -11    1    4    4    0    0  0.23564404104E+02 -0.31247576985E+02 -0.10582611349E+02  0.40542371310E+02  0.51100000000E-03 0.  1.
        -12    1    4    4    0    0  0.56427510324E-01 -0.92178217140E+00  0.35477315478E+01  0.36659603885E+01  0.00000000000E+00 0.  1.
</event>
<event>
 8    1  0.1280925E-006  0.9118800E+02  0.7816164E-02  0.1184000E+00
        -11   -1    0    0    0    0  0.00000000000E+00  0.00000000000E+00  0.45593999997E+02  0.45594000000E+02  0.51100000000E-03 0.  1.
         11   -1    0    0    0    0 -0.00000000000E+00 -0.00000000000E+00 -0.45593999997E+02  0.45594000000E+02  0.51100000000E-03 0. -1.
         23    2    1    2    0    0  0.00000000000E+00  0.00000000000E+00  0.00000000000E+00  0.91188000000E+02  0.91188000000E+02 0.  0.
    9900012    2    3    3    0    0 -0.17742618293E+02 -0.19866425177E+02 -0.25422514461E+02  0.54367087536E+02  0.40000007655E+02 0.  0.
        -12    1    3    3    0    0  0.17742618293E+02  0.19866425177E+02  0.25422514461E+02  0.36820912464E+02  0.00000000000E+00 0.  1.
         11    1    4    4    0    0 -0.19725713621E+02 -0.13100722660E+02  0.93039265671E+00  0.23698066226E+02  0.51100000000E-03 0. -1.
        -11    1    4    4    0    0 -0.19874214810E+01  0.21679454862E+01 -0.44064266736E+00  0.29738860091E+01  0.51100000000E-03 0.  1.
        -12    1    4    4    0    0  0.39705168092E+01 -0.89336480028E+01 -0.25912264450E+02  0.27695135301E+02  0.00000000000E+00 0.  1.
</event>
<event>
 8    1  0.1280925E-006  0.9118800E+02  0.7816164E-02  0.1184000E+00
        -11   -1    0    0    0    0  0.00000000000E+00  0.00000000000E+00  0.45593999997E+02  0.45594000000E+02  0.51100000000E-03 0.  1.
         11   -1    0    0    0    0 -0.00000000000E+00 -0.00000000000E+00 -0.45593999997E+02  0.45594000000E+02  0.51100000000E-03 0. -1.
         23    2    1    2    0    0  0.35527136788E-14  0.00000000000E+00  0.00000000000E+00  0.91188000000E+02  0.91188000000E+02 0.  0.
    9900012    2    3    3    0    0  0.23573178023E+02  0.24677039691E+02  0.13824928106E+02  0.54367086823E+02  0.40000006031E+02 0.  0.
        -12    1    3    3    0    0 -0.23573178023E+02 -0.24677039691E+02 -0.13824928106E+02  0.36820913177E+02  0.00000000000E+00 0.  1.
         11    1    4    4    0    0  0.97451907655E+01  0.37310027796E+01  0.15811970432E+02  0.18944855080E+02  0.51100000000E-03 0. -1.
        -11    1    4    4    0    0 -0.23858077337E+01  0.13888210856E+02  0.68334671751E+01  0.15661122349E+02  0.51100000000E-03 0.  1.
         12    1    4    4    0    0  0.16213794991E+02  0.70578260550E+01 -0.88205095010E+01  0.19761109394E+02  0.00000000000E+00 0. -1.
</event>
<event>
 8    1  0.1280925E-006  0.9118800E+02  0.7816164E-02  0.1184000E+00
        -11   -1    0    0    0    0  0.00000000000E+00  0.00000000000E+00  0.45593999997E+02  0.45594000000E+02  0.51100000000E-03 0.  1.
         11   -1    0    0    0    0 -0.00000000000E+00 -0.00000000000E+00 -0.45593999997E+02  0.45594000000E+02  0.51100000000E-03 0. -1.
         23    2    1    2    0    0  0.17763568394E-14  0.00000000000E+00  0.00000000000E+00  0.91188000000E+02  0.91188000000E+02 0.  0.
    9900012    2    3    3    0    0 -0.11865772483E+02 -0.11804427589E+02  0.32796933392E+02  0.54367083291E+02  0.39999997979E+02 0.  0.
         12    1    3    3    0    0  0.11865772483E+02  0.11804427589E+02 -0.32796933392E+02  0.36820916709E+02  0.00000000000E+00 0. -1.
         11    1    4    4    0    0 -0.28240461199E+01  0.87214518154E+00  0.66777434645E+01  0.73026112963E+01  0.51100000000E-03 0. -1.
        -11    1    4    4    0    0  0.33092804475E+01 -0.37819043276E+01  0.30747815001E+02  0.31155774185E+02  0.51100000000E-03 0.  1.
        -12    1    4    4    0    0 -0.12351006810E+02 -0.88946684433E+01 -0.46286250735E+01  0.15908697810E+02  0.00000000000E+00 0.  1.
</event>
<event>
 8    1  0.1280925E-006  0.9118800E+02  0.7816164E-02  0.1184000E+00
        -11   -1    0    0    0    0  0.00000000000E+00  0.00000000000E+00  0.45593999997E+02  0.45594000000E+02  0.51100000000E-03 0. -1.
         11   -1    0    0    0    0 -0.00000000000E+00 -0.00000000000E+00 -0.45593999997E+02  0.45594000000E+02  0.51100000000E-03 0.  1.
         23    2    1    2    0    0 -0.35527136788E-14  0.00000000000E+00  0.00000000000E+00  0.91188000000E+02  0.91188000000E+02 0.  0.
    9900012    2    3    3    0    0  0.75132593111E+01  0.29938586934E+02  0.20075115370E+02  0.54367104979E+02  0.40000047420E+02 0.  0.
        -12    1    3    3    0    0 -0.75132593111E+01 -0.29938586934E+02 -0.20075115370E+02  0.36820895021E+02  0.00000000000E+00 0.  1.
         11    1    4    4    0    0  0.19177165731E+02  0.17927361191E+02  0.67088679399E+01  0.27095440097E+02  0.51100000000E-03 0. -1.
        -11    1    4    4    0    0  0.35813045616E+01  0.39660896934E+01 -0.18207407317E+00  0.53468458972E+01  0.51100000000E-03 0.  1.
         12    1    4    4    0    0 -0.15245210982E+02  0.80451360492E+01  0.13548321503E+02  0.21924818984E+02  0.00000000000E+00 0. -1.
</event>
<event>
 8    1  0.1280925E-006  0.9118800E+02  0.7816164E-02  0.1184000E+00
        -11   -1    0    0    0    0  0.00000000000E+00  0.00000000000E+00  0.45593999997E+02  0.45594000000E+02  0.51100000000E-03 0.  1.
         11   -1    0    0    0    0 -0.00000000000E+00 -0.00000000000E+00 -0.45593999997E+02  0.45594000000E+02  0.51100000000E-03 0. -1.
         23    2    1    2    0    0 -0.88817841970E-15  0.00000000000E+00  0.00000000000E+00  0.91188000000E+02  0.91188000000E+02 0.  0.
    9900012    2    3    3    0    0 -0.58046381320E+01  0.20866237119E+02  0.29777320914E+02  0.54367047864E+02  0.39999917216E+02 0.  0.
         12    1    3    3    0    0  0.58046381320E+01 -0.20866237119E+02 -0.29777320914E+02  0.36820952136E+02  0.00000000000E+00 0. -1.
         11    1    4    4    0    0 -0.31049368669E+01  0.11251525573E+02 -0.80918498421E+01  0.14202658019E+02  0.51100000000E-03 0. -1.
        -11    1    4    4    0    0 -0.31579604849E+01 -0.41844190984E+00  0.11950092599E+02  0.12367397521E+02  0.51100000000E-03 0.  1.
        -12    1    4    4    0    0  0.45825921983E+00  0.10033153456E+02  0.25919078157E+02  0.27796992324E+02  0.00000000000E+00 0.  1.
</event>
<event>
 8    1  0.1280925E-006  0.9118800E+02  0.7816164E-02  0.1184000E+00
        -11   -1    0    0    0    0  0.00000000000E+00  0.00000000000E+00  0.45593999997E+02  0.45594000000E+02  0.51100000000E-03 0.  1.
         11   -1    0    0    0    0 -0.00000000000E+00 -0.00000000000E+00 -0.45593999997E+02  0.45594000000E+02  0.51100000000E-03 0. -1.
         23    2    1    2    0    0 -0.35527136788E-14 -0.17763568394E-14  0.35527136788E-14  0.91188000000E+02  0.91188000000E+02 0.  0.
    9900012    2    3    3    0    0  0.17005262522E+02  0.15017721876E+02 -0.29001180049E+02  0.54367090614E+02  0.40000014672E+02 0.  0.
        -12    1    3    3    0    0 -0.17005262522E+02 -0.15017721876E+02  0.29001180049E+02  0.36820909386E+02  0.00000000000E+00 0.  1.
         11    1    4    4    0    0  0.17860081896E+01 -0.36586726590E+01 -0.14453289253E+02  0.15015767758E+02  0.51100000000E-03 0. -1.
        -11    1    4    4    0    0  0.21620827672E+02  0.83735201056E+01 -0.14256610228E+02  0.27218136667E+02  0.51100000000E-03 0.  1.
        -12    1    4    4    0    0 -0.64015733388E+01  0.10302874430E+02 -0.29128056864E+00  0.12133186189E+02  0.00000000000E+00 0.  1.
</event>
<event>
 8    1  0.1280925E-006  0.9118800E+02  0.7816164E-02  0.1184000E+00
        -11   -1    0    0    0    0  0.00000000000E+00  0.00000000000E+00  0.45593999997E+02  0.45594000000E+02  0.51100000000E-03 0.  1.
         11   -1    0    0    0    0 -0.00000000000E+00 -0.00000000000E+00 -0.45593999997E+02  0.45594000000E+02  0.51100000000E-03 0. -1.
         23    2    1    2    0    0 -0.35527136788E-14  0.17763568394E-14 -0.35527136788E-14  0.91188000000E+02  0.91188000000E+02 0.  0.
    9900012    2    3    3    0    0 -0.23886004311E+02  0.52217020826E+01 -0.27531305864E+02  0.54367079627E+02  0.39999989625E+02 0.  0.
        -12    1    3    3    0    0  0.23886004311E+02 -0.52217020826E+01  0.27531305864E+02  0.36820920373E+02  0.00000000000E+00 0.  1.
         11    1    4    4    0    0 -0.21943950197E+01 -0.45237310121E+01 -0.12214024735E+02  0.13208403093E+02  0.51100000000E-03 0. -1.
        -11    1    4    4    0    0  0.48767314893E+01  0.58997751706E+01 -0.11826512729E+02  0.14087450467E+02  0.51100000000E-03 0.  1.
         12    1    4    4    0    0 -0.26568340781E+02  0.38456579241E+01 -0.34907683993E+01  0.27071226066E+02  0.00000000000E+00 0. -1.
</event>
<event>
 8    1  0.1280925E-006  0.9118800E+02  0.7816164E-02  0.1184000E+00
        -11   -1    0    0    0    0  0.00000000000E+00  0.00000000000E+00  0.45593999997E+02  0.45594000000E+02  0.51100000000E-03 0. -1.
         11   -1    0    0    0    0 -0.00000000000E+00 -0.00000000000E+00 -0.45593999997E+02  0.45594000000E+02  0.51100000000E-03 0.  1.
         23    2    1    2    0    0  0.00000000000E+00  0.00000000000E+00  0.35527136788E-14  0.91188000000E+02  0.91188000000E+02 0.  0.
    9900012    2    3    3    0    0  0.82118127115E+01 -0.20208203016E+02  0.29664362403E+02  0.54367085646E+02  0.40000003346E+02 0.  0.
        -12    1    3    3    0    0 -0.82118127115E+01  0.20208203016E+02 -0.29664362403E+02  0.36820914354E+02  0.00000000000E+00 0.  1.
         11    1    4    4    0    0  0.14484689970E+01  0.35906753774E+01  0.12191000106E+02  0.12791070946E+02  0.51100000000E-03 0. -1.
        -11    1    4    4    0    0  0.72470282565E+01  0.21247607540E+01  0.13327504254E+02  0.15318498514E+02  0.51100000000E-03 0.  1.
        -12    1    4    4    0    0 -0.48368454200E+00 -0.25923639147E+02  0.41458580431E+01  0.26257516186E+02  0.00000000000E+00 0.  1.
</event>
<event>
 8    1  0.1280925E-006  0.9118800E+02  0.7816164E-02  0.1184000E+00
        -11   -1    0    0    0    0  0.00000000000E+00  0.00000000000E+00  0.45593999997E+02  0.45594000000E+02  0.51100000000E-03 0. -1.
         11   -1    0    0    0    0 -0.00000000000E+00 -0.00000000000E+00 -0.45593999997E+02  0.45594000000E+02  0.51100000000E-03 0.  1.
         23    2    1    2    0    0  0.00000000000E+00  0.00000000000E+00  0.00000000000E+00  0.91188000000E+02  0.91188000000E+02 0.  0.
    9900012    2    3    3    0    0  0.26017809639E+02  0.22801825833E+02 -0.12606757915E+02  0.54367081695E+02  0.39999994339E+02 0.  0.
        -12    1    3    3    0    0 -0.26017809639E+02 -0.22801825833E+02  0.12606757915E+02  0.36820918305E+02  0.00000000000E+00 0.  1.
         11    1    4    4    0    0 -0.31602466799E+00 -0.26699292089E+01 -0.12039496313E+02  0.12336039287E+02  0.51100000000E-03 0. -1.
        -11    1    4    4    0    0  0.15220482867E+02  0.30542859771E+01  0.51673006001E+01  0.16361318934E+02  0.51100000000E-03 0.  1.
         12    1    4    4    0    0  0.11113351440E+02  0.22417469065E+02 -0.57345622023E+01  0.25669723473E+02  0.00000000000E+00 0. -1.
</event>
<event>
 8    1  0.1280925E-006  0.9118800E+02  0.7816164E-02  0.1184000E+00
        -11   -1    0    0    0    0  0.00000000000E+00  0.00000000000E+00  0.45593999997E+02  0.45594000000E+02  0.51100000000E-03 0. -1.
         11   -1    0    0    0    0 -0.00000000000E+00 -0.00000000000E+00 -0.45593999997E+02  0.45594000000E+02  0.51100000000E-03 0.  1.
         23    2    1    2    0    0  0.00000000000E+00  0.00000000000E+00 -0.35527136788E-14  0.91188000000E+02  0.91188000000E+02 0.  0.
    9900012    2    3    3    0    0  0.25495761920E+02  0.19059776660E+02  0.18505898251E+02  0.54367119616E+02  0.40000080788E+02 0.  0.
         12    1    3    3    0    0 -0.25495761920E+02 -0.19059776660E+02 -0.18505898251E+02  0.36820880384E+02  0.00000000000E+00 0. -1.
         11    1    4    4    0    0  0.25392641584E+01  0.65744746601E+01  0.10771150641E+01  0.71296393068E+01  0.51100000000E-03 0. -1.
        -11    1    4    4    0    0  0.74254870901E+00  0.19702551705E+02  0.34473778650E+01  0.20015652292E+02  0.51100000000E-03 0.  1.
        -12    1    4    4    0    0  0.22213949052E+02 -0.72172497052E+01  0.13981405322E+02  0.27221828017E+02  0.00000000000E+00 0.  1.
</event>
<event>
 8    1  0.1280925E-006  0.9118800E+02  0.7816164E-02  0.1184000E+00
        -11   -1    0    0    0    0  0.00000000000E+00  0.00000000000E+00  0.45593999997E+02  0.45594000000E+02  0.51100000000E-03 0.  1.
         11   -1    0    0    0    0 -0.00000000000E+00 -0.00000000000E+00 -0.45593999997E+02  0.45594000000E+02  0.51100000000E-03 0. -1.
         23    2    1    2    0    0 -0.17763568394E-14 -0.35527136788E-14  0.35527136788E-14  0.91188000000E+02  0.91188000000E+02 0.  0.
    9900012    2    3    3    0    0  0.13466276527E+02  0.28233121938E+02 -0.19424981819E+02  0.54367086153E+02  0.40000004503E+02 0.  0.
        -12    1    3    3    0    0 -0.13466276527E+02 -0.28233121938E+02  0.19424981819E+02  0.36820913847E+02  0.00000000000E+00 0.  1.
         11    1    4    4    0    0 -0.41686015060E+01  0.44354059394E+01  0.32014641097E+00  0.60952898495E+01  0.51100000000E-03 0. -1.
        -11    1    4    4    0    0  0.23229468115E+02  0.22529321288E+02 -0.53809347349E+01  0.32804465633E+02  0.51100000000E-03 0.  1.
        -12    1    4    4    0    0 -0.55945900818E+01  0.12683947110E+01 -0.14364193495E+02  0.15467330671E+02  0.00000000000E+00 0.  1.
</event>
<event>
 8    1  0.1280925E-006  0.9118800E+02  0.7816164E-02  0.1184000E+00
        -11   -1    0    0    0    0  0.00000000000E+00  0.00000000000E+00  0.45593999997E+02  0.45594000000E+02  0.51100000000E-03 0. -1.
         11   -1    0    0    0    0 -0.00000000000E+00 -0.00000000000E+00 -0.45593999997E+02  0.45594000000E+02  0.51100000000E-03 0.  1.
         23    2    1    2    0    0 -0.35527136788E-14  0.00000000000E+00  0.00000000000E+00  0.91188000000E+02  0.91188000000E+02 0.  0.
    9900012    2    3    3    0    0  0.29448535353E+02 -0.88519531316E+01  0.20253590843E+02  0.54367065049E+02  0.39999956391E+02 0.  0.
        -12    1    3    3    0    0 -0.29448535353E+02  0.88519531316E+01 -0.20253590843E+02  0.36820934951E+02  0.00000000000E+00 0.  1.
         11    1    4    4    0    0  0.12399046239E+02 -0.17606984172E+01  0.93441528992E+00  0.12558245847E+02  0.51100000000E-03 0. -1.
        -11    1    4    4    0    0 -0.29458538266E+01 -0.29689078387E+01  0.20916511680E+02  0.21330563276E+02  0.51100000000E-03 0.  1.
        -12    1    4    4    0    0  0.19995342940E+02 -0.41223468757E+01 -0.15973361273E+01  0.20478255926E+02  0.00000000000E+00 0.  1.
</event>
<event>
 8    1  0.1280925E-006  0.9118800E+02  0.7816164E-02  0.1184000E+00
        -11   -1    0    0    0    0  0.00000000000E+00  0.00000000000E+00  0.45593999997E+02  0.45594000000E+02  0.51100000000E-03 0. -1.
         11   -1    0    0    0    0 -0.00000000000E+00 -0.00000000000E+00 -0.45593999997E+02  0.45594000000E+02  0.51100000000E-03 0.  1.
         23    2    1    2    0    0 -0.35527136788E-14  0.00000000000E+00 -0.17763568394E-14  0.91188000000E+02  0.91188000000E+02 0.  0.
    9900012    2    3    3    0    0  0.26949394728E+02 -0.20337585686E+02  0.14693266387E+02  0.54367090928E+02  0.40000015389E+02 0.  0.
        -12    1    3    3    0    0 -0.26949394728E+02  0.20337585686E+02 -0.14693266387E+02  0.36820909072E+02  0.00000000000E+00 0.  1.
         11    1    4    4    0    0  0.19392217603E+01 -0.23770618196E+00  0.10636278027E+02  0.10814226546E+02  0.51100000000E-03 0. -1.
        -11    1    4    4    0    0  0.20615182846E+02 -0.23187576636E+02  0.12578879496E+02  0.33479511401E+02  0.51100000000E-03 0.  1.
        -12    1    4    4    0    0  0.43949901219E+01  0.30876971317E+01 -0.85218911360E+01  0.10073352981E+02  0.00000000000E+00 0.  1.
</event>
<event>
 8    1  0.1280925E-006  0.9118800E+02  0.7816164E-02  0.1184000E+00
        -11   -1    0    0    0    0  0.00000000000E+00  0.00000000000E+00  0.45593999997E+02  0.45594000000E+02  0.51100000000E-03 0.  1.
         11   -1    0    0    0    0 -0.00000000000E+00 -0.00000000000E+00 -0.45593999997E+02  0.45594000000E+02  0.51100000000E-03 0. -1.
         23    2    1    2    0    0 -0.35527136788E-14  0.00000000000E+00  0.88817841970E-15  0.91188000000E+02  0.91188000000E+02 0.  0.
    9900012    2    3    3    0    0  0.19983249577E+02 -0.30867740400E+02  0.19056027507E+01  0.54367095844E+02  0.40000026595E+02 0.  0.
         12    1    3    3    0    0 -0.19983249577E+02  0.30867740400E+02 -0.19056027507E+01  0.36820904156E+02  0.00000000000E+00 0. -1.
         11    1    4    4    0    0  0.76377356827E+01 -0.46434875679E+01 -0.11914947427E+02  0.14895064807E+02  0.51100000000E-03 0. -1.
        -11    1    4    4    0    0  0.93388603738E+01  0.42884134688E+00  0.73196640653E+01  0.11873318840E+02  0.51100000000E-03 0.  1.
         12    1    4    4    0    0  0.30066535208E+01 -0.26653094178E+02  0.65008861125E+01  0.27598712197E+02  0.00000000000E+00 0. -1.
</event>
<event>
 8    1  0.1280925E-006  0.9118800E+02  0.7816164E-02  0.1184000E+00
        -11   -1    0    0    0    0  0.00000000000E+00  0.00000000000E+00  0.45593999997E+02  0.45594000000E+02  0.51100000000E-03 0.  1.
         11   -1    0    0    0    0 -0.00000000000E+00 -0.00000000000E+00 -0.45593999997E+02  0.45594000000E+02  0.51100000000E-03 0. -1.
         23    2    1    2    0    0 -0.35527136788E-14  0.00000000000E+00  0.00000000000E+00  0.91188000000E+02  0.91188000000E+02 0.  0.
    9900012    2    3    3    0    0 -0.19036344446E+02  0.27521076358E+02  0.15361871682E+02  0.54367093501E+02  0.40000021255E+02 0.  0.
         12    1    3    3    0    0  0.19036344446E+02 -0.27521076358E+02 -0.15361871682E+02  0.36820906499E+02  0.00000000000E+00 0. -1.
         11    1    4    4    0    0  0.14711519161E+01 -0.29165103446E+01 -0.41535253219E+01  0.52841360137E+01  0.51100000000E-03 0. -1.
        -11    1    4    4    0    0 -0.68814512779E+01  0.25267535241E+02  0.19521937725E+01  0.26260498275E+02  0.51100000000E-03 0.  1.
        -12    1    4    4    0    0 -0.13626045084E+02  0.51700514621E+01  0.17563203232E+02  0.22822459213E+02  0.00000000000E+00 0.  1.
</event>
<event>
 8    1  0.1280925E-006  0.9118800E+02  0.7816164E-02  0.1184000E+00
        -11   -1    0    0    0    0  0.00000000000E+00  0.00000000000E+00  0.45593999997E+02  0.45594000000E+02  0.51100000000E-03 0.  1.
         11   -1    0    0    0    0 -0.00000000000E+00 -0.00000000000E+00 -0.45593999997E+02  0.45594000000E+02  0.51100000000E-03 0. -1.
         23    2    1    2    0    0 -0.35527136788E-14  0.00000000000E+00 -0.35527136788E-14  0.91188000000E+02  0.91188000000E+02 0.  0.
    9900012    2    3    3    0    0  0.22428158389E+02  0.23092024075E+02  0.17875035686E+02  0.54367071639E+02  0.39999971416E+02 0.  0.
         12    1    3    3    0    0 -0.22428158389E+02 -0.23092024075E+02 -0.17875035686E+02  0.36820928361E+02  0.00000000000E+00 0. -1.
         11    1    4    4    0    0  0.12255778618E+02  0.84027502489E+01  0.98162889161E+01  0.17809263029E+02  0.51100000000E-03 0.  1.
        -11    1    4    4    0    0 -0.10359911925E+02  0.84747753530E+01 -0.66147169843E+00  0.13401012553E+02  0.51100000000E-03 0. -1.
         12    1    4    4    0    0  0.20532291695E+02  0.62144984729E+01  0.87202184680E+01  0.23156796058E+02  0.00000000000E+00 0. -1.
</event>
<event>
 8    1  0.1280925E-006  0.9118800E+02  0.7816164E-02  0.1184000E+00
        -11   -1    0    0    0    0  0.00000000000E+00  0.00000000000E+00  0.45593999997E+02  0.45594000000E+02  0.51100000000E-03 0.  1.
         11   -1    0    0    0    0 -0.00000000000E+00 -0.00000000000E+00 -0.45593999997E+02  0.45594000000E+02  0.51100000000E-03 0. -1.
         23    2    1    2    0    0  0.00000000000E+00  0.35527136788E-14 -0.17763568394E-14  0.91188000000E+02  0.91188000000E+02 0.  0.
    9900012    2    3    3    0    0  0.15599809083E+02 -0.30954291228E+02 -0.12420074014E+02  0.54367076228E+02  0.39999981878E+02 0.  0.
        -12    1    3    3    0    0 -0.15599809083E+02  0.30954291228E+02  0.12420074014E+02  0.36820923772E+02  0.00000000000E+00 0.  1.
         11    1    4    4    0    0  0.17079386759E+02 -0.72963719761E+01 -0.17644467657E+01  0.18656252805E+02  0.51100000000E-03 0. -1.
        -11    1    4    4    0    0 -0.10387548397E+02 -0.17119128653E+02  0.47052593062E+00  0.20029656074E+02  0.51100000000E-03 0.  1.
         12    1    4    4    0    0  0.89079707206E+01 -0.65387905995E+01 -0.11126153179E+02  0.15681167349E+02  0.00000000000E+00 0. -1.
</event>
<event>
 8    1  0.1280925E-006  0.9118800E+02  0.7816164E-02  0.1184000E+00
        -11   -1    0    0    0    0  0.00000000000E+00  0.00000000000E+00  0.45593999997E+02  0.45594000000E+02  0.51100000000E-03 0.  1.
         11   -1    0    0    0    0 -0.00000000000E+00 -0.00000000000E+00 -0.45593999997E+02  0.45594000000E+02  0.51100000000E-03 0. -1.
         23    2    1    2    0    0  0.00000000000E+00  0.00000000000E+00 -0.17763568394E-14  0.91188000000E+02  0.91188000000E+02 0.  0.
    9900012    2    3    3    0    0  0.20095086063E+02  0.29988643956E+02 -0.72559473609E+01  0.54367081729E+02  0.39999994417E+02 0.  0.
        -12    1    3    3    0    0 -0.20095086063E+02 -0.29988643956E+02  0.72559473609E+01  0.36820918271E+02  0.00000000000E+00 0.  1.
         11    1    4    4    0    0  0.77711696799E+01  0.36152299380E+01  0.43436041987E+01  0.96087389076E+01  0.51100000000E-03 0. -1.
        -11    1    4    4    0    0  0.31263549433E+01  0.34200482065E+01  0.10574256278E+02  0.11544943528E+02  0.51100000000E-03 0.  1.
         12    1    4    4    0    0  0.91975614402E+01  0.22953365812E+02 -0.22173807838E+02  0.33213399293E+02  0.00000000000E+00 0. -1.
</event>
<event>
 8    1  0.1280925E-006  0.9118800E+02  0.7816164E-02  0.1184000E+00
        -11   -1    0    0    0    0  0.00000000000E+00  0.00000000000E+00  0.45593999997E+02  0.45594000000E+02  0.51100000000E-03 0.  1.
         11   -1    0    0    0    0 -0.00000000000E+00 -0.00000000000E+00 -0.45593999997E+02  0.45594000000E+02  0.51100000000E-03 0. -1.
         23    2    1    2    0    0  0.00000000000E+00  0.00000000000E+00  0.17763568394E-14  0.91188000000E+02  0.91188000000E+02 0.  0.
    9900012    2    3    3    0    0 -0.27378995250E+02 -0.21611180849E+02  0.11795218117E+02  0.54367086255E+02  0.40000004735E+02 0.  0.
         12    1    3    3    0    0  0.27378995250E+02  0.21611180849E+02 -0.11795218117E+02  0.36820913745E+02  0.00000000000E+00 0. -1.
         11    1    4    4    0    0 -0.29835901840E+01 -0.18672876962E+02  0.15625894306E+02  0.24530526239E+02  0.51100000000E-03 0. -1.
        -11    1    4    4    0    0 -0.26242541238E+02 -0.24164133860E+00 -0.40779505488E+01  0.26558596388E+02  0.51100000000E-03 0.  1.
        -12    1    4    4    0    0  0.18471361720E+01 -0.26966625487E+01  0.24727435997E+00  0.32779636283E+01  0.00000000000E+00 0.  1.
</event>
<event>
 8    1  0.1280925E-006  0.9118800E+02  0.7816164E-02  0.1184000E+00
        -11   -1    0    0    0    0  0.00000000000E+00  0.00000000000E+00  0.45593999997E+02  0.45594000000E+02  0.51100000000E-03 0.  1.
         11   -1    0    0    0    0 -0.00000000000E+00 -0.00000000000E+00 -0.45593999997E+02  0.45594000000E+02  0.51100000000E-03 0. -1.
         23    2    1    2    0    0 -0.17763568394E-14  0.00000000000E+00  0.00000000000E+00  0.91188000000E+02  0.91188000000E+02 0.  0.
    9900012    2    3    3    0    0  0.93533414862E+01 -0.33792508859E+02 -0.11241132269E+02  0.54367058857E+02  0.39999942276E+02 0.  0.
        -12    1    3    3    0    0 -0.93533414862E+01  0.33792508859E+02  0.11241132269E+02  0.36820941143E+02  0.00000000000E+00 0.  1.
         11    1    4    4    0    0 -0.23782857607E+01  0.53206710390E+01  0.34710421333E+00  0.58383443767E+01  0.51100000000E-03 0. -1.
        -11    1    4    4    0    0  0.28091604458E+01 -0.33283903269E+01  0.62045548700E+01  0.75806375704E+01  0.51100000000E-03 0.  1.
         12    1    4    4    0    0  0.89224668010E+01 -0.35784789572E+02 -0.17792791353E+02  0.40948076910E+02  0.00000000000E+00 0. -1.
</event>
<event>
 8    1  0.1280925E-006  0.9118800E+02  0.7816164E-02  0.1184000E+00
        -11   -1    0    0    0    0  0.00000000000E+00  0.00000000000E+00  0.45593999997E+02  0.45594000000E+02  0.51100000000E-03 0.  1.
         11   -1    0    0    0    0 -0.00000000000E+00 -0.00000000000E+00 -0.45593999997E+02  0.45594000000E+02  0.51100000000E-03 0. -1.
         23    2    1    2    0    0  0.00000000000E+00  0.35527136788E-14  0.00000000000E+00  0.91188000000E+02  0.91188000000E+02 0.  0.
    9900012    2    3    3    0    0 -0.16591600014E+02  0.23813768958E+02 -0.22658377046E+02  0.54367097874E+02  0.40000031223E+02 0.  0.
        -12    1    3    3    0    0  0.16591600014E+02 -0.23813768958E+02  0.22658377046E+02  0.36820902126E+02  0.00000000000E+00 0.  1.
         11    1    4    4    0    0 -0.19250035758E+02 -0.14568203977E+01 -0.15606897745E+02  0.24824613992E+02  0.51100000000E-03 0. -1.
        -11    1    4    4    0    0 -0.20556679515E+01  0.12630571396E+01  0.23161110562E+01  0.33444662879E+01  0.51100000000E-03 0.  1.
         12    1    4    4    0    0  0.47141036955E+01  0.24007532216E+02 -0.93675903573E+01  0.26198017594E+02  0.00000000000E+00 0. -1.
</event>
<event>
 8    1  0.1280925E-006  0.9118800E+02  0.7816164E-02  0.1184000E+00
        -11   -1    0    0    0    0  0.00000000000E+00  0.00000000000E+00  0.45593999997E+02  0.45594000000E+02  0.51100000000E-03 0. -1.
         11   -1    0    0    0    0 -0.00000000000E+00 -0.00000000000E+00 -0.45593999997E+02  0.45594000000E+02  0.51100000000E-03 0.  1.
         23    2    1    2    0    0  0.00000000000E+00  0.17763568394E-14  0.00000000000E+00  0.91188000000E+02  0.91188000000E+02 0.  0.
    9900012    2    3    3    0    0  0.69723549375E+01  0.13302610055E+02 -0.33618531261E+02  0.54367098167E+02  0.40000031891E+02 0.  0.
         12    1    3    3    0    0 -0.69723549375E+01 -0.13302610055E+02  0.33618531261E+02  0.36820901833E+02  0.00000000000E+00 0. -1.
         11    1    4    4    0    0 -0.61505939906E+01 -0.19640231623E+01 -0.61072848222E+00  0.64853822524E+01  0.51100000000E-03 0. -1.
        -11    1    4    4    0    0  0.69980704027E+01 -0.22737079241E+01 -0.27552912471E+02  0.28518515441E+02  0.51100000000E-03 0.  1.
        -12    1    4    4    0    0  0.61248785254E+01  0.17540341141E+02 -0.54548903079E+01  0.19363200473E+02  0.00000000000E+00 0.  1.
</event>
<event>
 8    1  0.1280925E-006  0.9118800E+02  0.7816164E-02  0.1184000E+00
        -11   -1    0    0    0    0  0.00000000000E+00  0.00000000000E+00  0.45593999997E+02  0.45594000000E+02  0.51100000000E-03 0.  1.
         11   -1    0    0    0    0 -0.00000000000E+00 -0.00000000000E+00 -0.45593999997E+02  0.45594000000E+02  0.51100000000E-03 0. -1.
         23    2    1    2    0    0  0.00000000000E+00  0.35527136788E-14  0.00000000000E+00  0.91188000000E+02  0.91188000000E+02 0.  0.
    9900012    2    3    3    0    0 -0.22113408933E+02 -0.28997387807E+02 -0.50918399257E+01  0.54367106637E+02  0.40000051199E+02 0.  0.
         12    1    3    3    0    0  0.22113408933E+02  0.28997387807E+02  0.50918399257E+01  0.36820893363E+02  0.00000000000E+00 0. -1.
         11    1    4    4    0    0 -0.14711326783E+02 -0.80422416964E+01  0.82227847640E+01  0.18673911662E+02  0.51100000000E-03 0. -1.
        -11    1    4    4    0    0  0.67417454383E+01  0.10693704769E+01 -0.39918532525E+01  0.79075645696E+01  0.51100000000E-03 0.  1.
         12    1    4    4    0    0 -0.14143827588E+02 -0.22024516588E+02 -0.93227714372E+01  0.27785630405E+02  0.00000000000E+00 0. -1.
</event>
<event>
 8    1  0.1280925E-006  0.9118800E+02  0.7816164E-02  0.1184000E+00
        -11   -1    0    0    0    0  0.00000000000E+00  0.00000000000E+00  0.45593999997E+02  0.45594000000E+02  0.51100000000E-03 0.  1.
         11   -1    0    0    0    0 -0.00000000000E+00 -0.00000000000E+00 -0.45593999997E+02  0.45594000000E+02  0.51100000000E-03 0. -1.
         23    2    1    2    0    0  0.00000000000E+00  0.00000000000E+00  0.00000000000E+00  0.91188000000E+02  0.91188000000E+02 0.  0.
    9900012    2    3    3    0    0  0.24884985104E+02  0.18361757992E+02 -0.19984136312E+02  0.54367050197E+02  0.39999922535E+02 0.  0.
        -12    1    3    3    0    0 -0.24884985104E+02 -0.18361757992E+02  0.19984136312E+02  0.36820949803E+02  0.00000000000E+00 0.  1.
         11    1    4    4    0    0  0.33597927584E+02  0.92547138645E+01 -0.15382386407E+02  0.38093152646E+02  0.51100000000E-03 0. -1.
        -11    1    4    4    0    0 -0.58607481902E+01  0.96569838586E+01 -0.57775155765E+00  0.11311034600E+02  0.51100000000E-03 0.  1.
         12    1    4    4    0    0 -0.28521942897E+01 -0.54993973070E+00 -0.40239983475E+01  0.49628629514E+01  0.00000000000E+00 0. -1.
</event>
<event>
 8    1  0.1280925E-006  0.9118800E+02  0.7816164E-02  0.1184000E+00
        -11   -1    0    0    0    0  0.00000000000E+00  0.00000000000E+00  0.45593999997E+02  0.45594000000E+02  0.51100000000E-03 0.  1.
         11   -1    0    0    0    0 -0.00000000000E+00 -0.00000000000E+00 -0.45593999997E+02  0.45594000000E+02  0.51100000000E-03 0. -1.
         23    2    1    2    0    0  0.00000000000E+00  0.00000000000E+00 -0.35527136788E-14  0.91188000000E+02  0.91188000000E+02 0.  0.
    9900012    2    3    3    0    0 -0.13440778576E+02 -0.16700906730E+02 -0.29936684016E+02  0.54367083876E+02  0.39999999312E+02 0.  0.
        -12    1    3    3    0    0  0.13440778576E+02  0.16700906730E+02  0.29936684016E+02  0.36820916124E+02  0.00000000000E+00 0.  1.
         11    1    4    4    0    0 -0.59479492895E+01  0.44851058282E+01 -0.11383671939E+02  0.13604494188E+02  0.51100000000E-03 0. -1.
        -11    1    4    4    0    0 -0.38474258980E+01 -0.28121965123E+02 -0.15604888841E+02  0.32390741956E+02  0.51100000000E-03 0.  1.
        -12    1    4    4    0    0 -0.36454033883E+01  0.69359525643E+01 -0.29481232357E+01  0.83718477321E+01  0.00000000000E+00 0.  1.
</event>
<event>
 8    1  0.1280925E-006  0.9118800E+02  0.7816164E-02  0.1184000E+00
        -11   -1    0    0    0    0  0.00000000000E+00  0.00000000000E+00  0.45593999997E+02  0.45594000000E+02  0.51100000000E-03 0. -1.
         11   -1    0    0    0    0 -0.00000000000E+00 -0.00000000000E+00 -0.45593999997E+02  0.45594000000E+02  0.51100000000E-03 0.  1.
         23    2    1    2    0    0  0.00000000000E+00  0.00000000000E+00  0.00000000000E+00  0.91188000000E+02  0.91188000000E+02 0.  0.
    9900012    2    3    3    0    0  0.21761236246E+02  0.17857829825E+02 -0.23734496317E+02  0.54367084688E+02  0.40000001163E+02 0.  0.
         12    1    3    3    0    0 -0.21761236246E+02 -0.17857829825E+02  0.23734496317E+02  0.36820915312E+02  0.00000000000E+00 0. -1.
         11    1    4    4    0    0  0.14915672600E+02  0.16919928392E+02 -0.28762553984E+01  0.22738384096E+02  0.51100000000E-03 0. -1.
        -11    1    4    4    0    0 -0.74410401203E+01  0.49093937607E+01 -0.70294971739E+01  0.11352755434E+02  0.51100000000E-03 0.  1.
        -12    1    4    4    0    0  0.14286603766E+02 -0.39714923279E+01 -0.13828743745E+02  0.20275945158E+02  0.00000000000E+00 0.  1.
</event>
<event>
 8    1  0.1280925E-006  0.9118800E+02  0.7816164E-02  0.1184000E+00
        -11   -1    0    0    0    0  0.00000000000E+00  0.00000000000E+00  0.45593999997E+02  0.45594000000E+02  0.51100000000E-03 0.  1.
         11   -1    0    0    0    0 -0.00000000000E+00 -0.00000000000E+00 -0.45593999997E+02  0.45594000000E+02  0.51100000000E-03 0. -1.
         23    2    1    2    0    0  0.35527136788E-14 -0.35527136788E-14  0.17763568394E-14  0.91188000000E+02  0.91188000000E+02 0.  0.
    9900012    2    3    3    0    0 -0.31216890921E+02  0.14315872883E+02 -0.13279330055E+02  0.54367094228E+02  0.40000022910E+02 0.  0.
        -12    1    3    3    0    0  0.31216890921E+02 -0.14315872883E+02  0.13279330055E+02  0.36820905772E+02  0.00000000000E+00 0.  1.
         11    1    4    4    0    0 -0.24715995406E+02  0.31826987970E+01  0.22340083877E+00  0.24921073587E+02  0.51100000000E-03 0. -1.
        -11    1    4    4    0    0  0.14407791532E+01  0.48749861707E-01  0.57083536638E+01  0.58875736028E+01  0.51100000000E-03 0.  1.
        -12    1    4    4    0    0 -0.79416746682E+01  0.11084424225E+02 -0.19211084558E+02  0.23558447038E+02  0.00000000000E+00 0.  1.
</event>
<event>
 8    1  0.1280925E-006  0.9118800E+02  0.7816164E-02  0.1184000E+00
        -11   -1    0    0    0    0  0.00000000000E+00  0.00000000000E+00  0.45593999997E+02  0.45594000000E+02  0.51100000000E-03 0. -1.
         11   -1    0    0    0    0 -0.00000000000E+00 -0.00000000000E+00 -0.45593999997E+02  0.45594000000E+02  0.51100000000E-03 0.  1.
         23    2    1    2    0    0  0.88817841970E-15 -0.17763568394E-14 -0.71054273576E-14  0.91188000000E+02  0.91188000000E+02 0.  0.
    9900012    2    3    3    0    0  0.45412662273E+01  0.81082610370E+01  0.35628852340E+02  0.54367053311E+02  0.39999929632E+02 0.  0.
        -12    1    3    3    0    0 -0.45412662273E+01 -0.81082610370E+01 -0.35628852340E+02  0.36820946689E+02  0.00000000000E+00 0.  1.
         11    1    4    4    0    0 -0.14050418046E+02  0.95905574521E+00  0.12848190779E+02  0.19063316652E+02  0.51100000000E-03 0. -1.
        -11    1    4    4    0    0  0.41951056091E+01  0.86324199239E+01  0.17384018241E+02  0.19857534472E+02  0.51100000000E-03 0.  1.
        -12    1    4    4    0    0  0.14396578665E+02 -0.14832146321E+01  0.53966433198E+01  0.15446202187E+02  0.00000000000E+00 0.  1.
</event>
<event>
 8    1  0.1280925E-006  0.9118800E+02  0.7816164E-02  0.1184000E+00
        -11   -1    0    0    0    0  0.00000000000E+00  0.00000000000E+00  0.45593999997E+02  0.45594000000E+02  0.51100000000E-03 0.  1.
         11   -1    0    0    0    0 -0.00000000000E+00 -0.00000000000E+00 -0.45593999997E+02  0.45594000000E+02  0.51100000000E-03 0. -1.
         23    2    1    2    0    0 -0.35527136788E-14  0.00000000000E+00  0.17763568394E-14  0.91188000000E+02  0.91188000000E+02 0.  0.
    9900012    2    3    3    0    0 -0.26304251337E+02  0.23390698889E+02  0.10804696804E+02  0.54367083309E+02  0.39999998020E+02 0.  0.
         12    1    3    3    0    0  0.26304251337E+02 -0.23390698889E+02 -0.10804696804E+02  0.36820916691E+02  0.00000000000E+00 0. -1.
         11    1    4    4    0    0 -0.20376668259E+01  0.14083061072E+02 -0.12047480770E+01  0.14280620205E+02  0.51100000000E-03 0. -1.
        -11    1    4    4    0    0 -0.59887118570E+01  0.38876352215E+01  0.18593314053E+02  0.19917070695E+02  0.51100000000E-03 0.  1.
         12    1    4    4    0    0 -0.18277872654E+02  0.54200025961E+01 -0.65838691720E+01  0.20169392409E+02  0.00000000000E+00 0. -1.
</event>
<event>
 8    1  0.1280925E-006  0.9118800E+02  0.7816164E-02  0.1184000E+00
        -11   -1    0    0    0    0  0.00000000000E+00  0.00000000000E+00  0.45593999997E+02  0.45594000000E+02  0.51100000000E-03 0.  1.
         11   -1    0    0    0    0 -0.00000000000E+00 -0.00000000000E+00 -0.45593999997E+02  0.45594000000E+02  0.51100000000E-03 0. -1.
         23    2    1    2    0    0  0.17763568394E-14 -0.35527136788E-14 -0.35527136788E-14  0.91188000000E+02  0.91188000000E+02 0.  0.
    9900012    2    3    3    0    0  0.51912632509E+01  0.30958819704E+02 -0.19245481722E+02  0.54366996506E+02  0.39999800135E+02 0.  0.
        -12    1    3    3    0    0 -0.51912632509E+01 -0.30958819704E+02  0.19245481722E+02  0.36821003494E+02  0.00000000000E+00 0.  1.
         11    1    4    4    0    0 -0.48769938283E+01  0.33660316134E+02 -0.20388464842E+01  0.34072846172E+02  0.51100000000E-03 0. -1.
        -11    1    4    4    0    0  0.72005964416E+01 -0.21734516925E+01 -0.14405126155E+02  0.16250542796E+02  0.51100000000E-03 0.  1.
         12    1    4    4    0    0  0.28676606376E+01 -0.52804473783E+00 -0.28015090826E+01  0.40436075375E+01  0.00000000000E+00 0. -1.
</event>
<event>
 8    1  0.1280925E-006  0.9118800E+02  0.7816164E-02  0.1184000E+00
        -11   -1    0    0    0    0  0.00000000000E+00  0.00000000000E+00  0.45593999997E+02  0.45594000000E+02  0.51100000000E-03 0.  1.
         11   -1    0    0    0    0 -0.00000000000E+00 -0.00000000000E+00 -0.45593999997E+02  0.45594000000E+02  0.51100000000E-03 0. -1.
         23    2    1    2    0    0  0.00000000000E+00  0.71054273576E-14 -0.66613381478E-15  0.91188000000E+02  0.91188000000E+02 0.  0.
    9900012    2    3    3    0    0 -0.90258351649E+01  0.35680929826E+02  0.10887007218E+01  0.54367085794E+02  0.40000003685E+02 0.  0.
         12    1    3    3    0    0  0.90258351649E+01 -0.35680929826E+02 -0.10887007218E+01  0.36820914206E+02  0.00000000000E+00 0. -1.
         11    1    4    4    0    0  0.77578296864E+00 -0.24925032579E+01 -0.70845538762E+01  0.75501864607E+01  0.51100000000E-03 0. -1.
        -11    1    4    4    0    0 -0.32915327292E+01  0.11085992503E+01  0.85011252556E+01  0.91832625400E+01  0.51100000000E-03 0.  1.
         12    1    4    4    0    0 -0.65100854043E+01  0.37064833834E+02 -0.32787065758E+00  0.37633636793E+02  0.00000000000E+00 0. -1.
</event>
<event>
 8    1  0.1280925E-006  0.9118800E+02  0.7816164E-02  0.1184000E+00
        -11   -1    0    0    0    0  0.00000000000E+00  0.00000000000E+00  0.45593999997E+02  0.45594000000E+02  0.51100000000E-03 0. -1.
         11   -1    0    0    0    0 -0.00000000000E+00 -0.00000000000E+00 -0.45593999997E+02  0.45594000000E+02  0.51100000000E-03 0.  1.
         23    2    1    2    0    0  0.71054273576E-14  0.00000000000E+00 -0.88817841970E-15  0.91188000000E+02  0.91188000000E+02 0.  0.
    9900012    2    3    3    0    0 -0.32482007187E+02 -0.16148173525E+02  0.63194763076E+01  0.54367080947E+02  0.39999992635E+02 0.  0.
        -12    1    3    3    0    0  0.32482007187E+02  0.16148173525E+02 -0.63194763076E+01  0.36820919053E+02  0.00000000000E+00 0.  1.
         11    1    4    4    0    0 -0.11561948321E+01  0.28555422321E+01  0.11007514922E+02  0.11430498368E+02  0.51100000000E-03 0. -1.
        -11    1    4    4    0    0 -0.24723921536E+01 -0.99399049201E+01 -0.73037718880E+01  0.12580123880E+02  0.51100000000E-03 0.  1.
         12    1    4    4    0    0 -0.28853420201E+02 -0.90638108369E+01  0.26157332740E+01  0.30356458699E+02  0.00000000000E+00 0. -1.
</event>
<event>
 8    1  0.1280925E-006  0.9118800E+02  0.7816164E-02  0.1184000E+00
        -11   -1    0    0    0    0  0.00000000000E+00  0.00000000000E+00  0.45593999997E+02  0.45594000000E+02  0.51100000000E-03 0. -1.
         11   -1    0    0    0    0 -0.00000000000E+00 -0.00000000000E+00 -0.45593999997E+02  0.45594000000E+02  0.51100000000E-03 0.  1.
         23    2    1    2    0    0 -0.35527136788E-14  0.00000000000E+00  0.00000000000E+00  0.91188000000E+02  0.91188000000E+02 0.  0.
    9900012    2    3    3    0    0  0.28872574895E+02 -0.96462937932E+01 -0.20714818435E+02  0.54367078395E+02  0.39999986818E+02 0.  0.
         12    1    3    3    0    0 -0.28872574895E+02  0.96462937932E+01  0.20714818435E+02  0.36820921605E+02  0.00000000000E+00 0. -1.
         11    1    4    4    0    0  0.58559817104E+01 -0.12748034853E+02  0.58581274419E+01  0.15202715935E+02  0.51100000000E-03 0. -1.
        -11    1    4    4    0    0  0.15216218553E+02  0.29401151922E+01 -0.27233559724E+02  0.31334395796E+02  0.51100000000E-03 0.  1.
         12    1    4    4    0    0  0.78003746316E+01  0.16162586739E+00  0.66061384688E+00  0.78299666646E+01  0.00000000000E+00 0. -1.
</event>
<event>
 8    1  0.1280925E-006  0.9118800E+02  0.7816164E-02  0.1184000E+00
        -11   -1    0    0    0    0  0.00000000000E+00  0.00000000000E+00  0.45593999997E+02  0.45594000000E+02  0.51100000000E-03 0.  1.
         11   -1    0    0    0    0 -0.00000000000E+00 -0.00000000000E+00 -0.45593999997E+02  0.45594000000E+02  0.51100000000E-03 0. -1.
         23    2    1    2    0    0  0.00000000000E+00  0.00000000000E+00 -0.35527136788E-14  0.91188000000E+02  0.91188000000E+02 0.  0.
    9900012    2    3    3    0    0  0.27491808325E+02 -0.54675506621E+01 -0.23876450873E+02  0.54367101837E+02  0.40000040259E+02 0.  0.
        -12    1    3    3    0    0 -0.27491808325E+02  0.54675506621E+01  0.23876450873E+02  0.36820898163E+02  0.00000000000E+00 0.  1.
         11    1    4    4    0    0  0.10862146624E+02 -0.48863956300E+01 -0.74261415346E+01  0.14036048942E+02  0.51100000000E-03 0. -1.
        -11    1    4    4    0    0  0.14664090348E+00 -0.13664144453E+02 -0.72975549468E-01  0.13665126157E+02  0.51100000000E-03 0.  1.
        -12    1    4    4    0    0  0.16483020797E+02  0.13082989421E+02 -0.16377333789E+02  0.26665926739E+02  0.00000000000E+00 0.  1.
</event>
<event>
 8    1  0.1280925E-006  0.9118800E+02  0.7816164E-02  0.1184000E+00
        -11   -1    0    0    0    0  0.00000000000E+00  0.00000000000E+00  0.45593999997E+02  0.45594000000E+02  0.51100000000E-03 0. -1.
         11   -1    0    0    0    0 -0.00000000000E+00 -0.00000000000E+00 -0.45593999997E+02  0.45594000000E+02  0.51100000000E-03 0.  1.
         23    2    1    2    0    0  0.00000000000E+00  0.00000000000E+00  0.00000000000E+00  0.91188000000E+02  0.91188000000E+02 0.  0.
    9900012    2    3    3    0    0 -0.46210546539E+01  0.25303728504E+02  0.26346687226E+02  0.54367071846E+02  0.39999971888E+02 0.  0.
        -12    1    3    3    0    0  0.46210546539E+01 -0.25303728504E+02 -0.26346687226E+02  0.36820928154E+02  0.00000000000E+00 0.  1.
         11    1    4    4    0    0 -0.45599804883E+01 -0.30643585396E+00  0.91798656371E+01  0.10254621317E+02  0.51100000000E-03 0. -1.
        -11    1    4    4    0    0 -0.82245894826E+01 -0.32864030319E+01 -0.11621946582E+01  0.89328054793E+01  0.51100000000E-03 0.  1.
        -12    1    4    4    0    0  0.81635153170E+01  0.28896567390E+02  0.18329016247E+02  0.35179645050E+02  0.00000000000E+00 0.  1.
</event>
<event>
 8    1  0.1280925E-006  0.9118800E+02  0.7816164E-02  0.1184000E+00
        -11   -1    0    0    0    0  0.00000000000E+00  0.00000000000E+00  0.45593999997E+02  0.45594000000E+02  0.51100000000E-03 0.  1.
         11   -1    0    0    0    0 -0.00000000000E+00 -0.00000000000E+00 -0.45593999997E+02  0.45594000000E+02  0.51100000000E-03 0. -1.
         23    2    1    2    0    0 -0.35527136788E-14  0.17763568394E-14  0.35527136788E-14  0.91188000000E+02  0.91188000000E+02 0.  0.
    9900012    2    3    3    0    0 -0.20037050098E+02  0.14029718684E+02  0.27522046552E+02  0.54367089781E+02  0.40000012774E+02 0.  0.
         12    1    3    3    0    0  0.20037050098E+02 -0.14029718684E+02 -0.27522046552E+02  0.36820910219E+02  0.00000000000E+00 0. -1.
         11    1    4    4    0    0 -0.12009199256E+02 -0.10264159786E+02  0.11536320176E+02  0.19561710721E+02  0.51100000000E-03 0. -1.
        -11    1    4    4    0    0  0.53590446172E+01  0.97841406762E+01  0.51788473793E+01  0.12299155598E+02  0.51100000000E-03 0.  1.
         12    1    4    4    0    0 -0.13386895459E+02  0.14509737794E+02  0.10806878996E+02  0.22506223462E+02  0.00000000000E+00 0. -1.
</event>
<event>
 8    1  0.1280925E-006  0.9118800E+02  0.7816164E-02  0.1184000E+00
        -11   -1    0    0    0    0  0.00000000000E+00  0.00000000000E+00  0.45593999997E+02  0.45594000000E+02  0.51100000000E-03 0.  1.
         11   -1    0    0    0    0 -0.00000000000E+00 -0.00000000000E+00 -0.45593999997E+02  0.45594000000E+02  0.51100000000E-03 0. -1.
         23    2    1    2    0    0  0.35527136788E-14  0.00000000000E+00 -0.88817841970E-15  0.91188000000E+02  0.91188000000E+02 0.  0.
    9900012    2    3    3    0    0 -0.29521033608E+02  0.21109742069E+02 -0.62185946005E+01  0.54367033767E+02  0.39999885078E+02 0.  0.
        -12    1    3    3    0    0  0.29521033608E+02 -0.21109742069E+02  0.62185946005E+01  0.36820966233E+02  0.00000000000E+00 0.  1.
         11    1    4    4    0    0 -0.20907026550E+02  0.18618953550E+02 -0.14951932680E+02  0.31738454303E+02  0.51100000000E-03 0. -1.
        -11    1    4    4    0    0  0.23617960079E+01 -0.32499324481E+01  0.94017171468E+01  0.10224110077E+02  0.51100000000E-03 0.  1.
        -12    1    4    4    0    0 -0.10975803066E+02  0.57407209678E+01 -0.66837906744E+00  0.12404469386E+02  0.00000000000E+00 0.  1.
</event>
<event>
 8    1  0.1280925E-006  0.9118800E+02  0.7816164E-02  0.1184000E+00
        -11   -1    0    0    0    0  0.00000000000E+00  0.00000000000E+00  0.45593999997E+02  0.45594000000E+02  0.51100000000E-03 0. -1.
         11   -1    0    0    0    0 -0.00000000000E+00 -0.00000000000E+00 -0.45593999997E+02  0.45594000000E+02  0.51100000000E-03 0.  1.
         23    2    1    2    0    0  0.00000000000E+00  0.17763568394E-14  0.00000000000E+00  0.91188000000E+02  0.91188000000E+02 0.  0.
    9900012    2    3    3    0    0 -0.12021052704E+02 -0.10065044418E+02  0.33316189649E+02  0.54367091266E+02  0.40000016159E+02 0.  0.
        -12    1    3    3    0    0  0.12021052704E+02  0.10065044418E+02 -0.33316189649E+02  0.36820908734E+02  0.00000000000E+00 0.  1.
         11    1    4    4    0    0 -0.17676818328E+02  0.68029746948E+01  0.14817103674E+02  0.24047805148E+02  0.51100000000E-03 0. -1.
        -11    1    4    4    0    0 -0.35150112435E+00  0.31014794645E+01  0.17964260132E+01  0.36013712098E+01  0.51100000000E-03 0.  1.
         12    1    4    4    0    0  0.60072667485E+01 -0.19969498578E+02  0.16702659962E+02  0.26717914908E+02  0.00000000000E+00 0. -1.
</event>
<event>
 8    1  0.1280925E-006  0.9118800E+02  0.7816164E-02  0.1184000E+00
        -11   -1    0    0    0    0  0.00000000000E+00  0.00000000000E+00  0.45593999997E+02  0.45594000000E+02  0.51100000000E-03 0. -1.
         11   -1    0    0    0    0 -0.00000000000E+00 -0.00000000000E+00 -0.45593999997E+02  0.45594000000E+02  0.51100000000E-03 0.  1.
         23    2    1    2    0    0  0.26645352591E-14  0.00000000000E+00  0.00000000000E+00  0.91188000000E+02  0.91188000000E+02 0.  0.
    9900012    2    3    3    0    0  0.66030233238E+01  0.33961948862E+02  0.12600231233E+02  0.54367085907E+02  0.40000003942E+02 0.  0.
        -12    1    3    3    0    0 -0.66030233238E+01 -0.33961948862E+02 -0.12600231233E+02  0.36820914093E+02  0.00000000000E+00 0.  1.
         11    1    4    4    0    0 -0.84879154757E+01  0.29241895109E+02  0.84393298397E+01  0.31596762921E+02  0.51100000000E-03 0. -1.
        -11    1    4    4    0    0 -0.98346646915E-01 -0.82884428159E-01  0.66458747757E+01  0.66471192021E+01  0.51100000000E-03 0.  1.
         12    1    4    4    0    0  0.15189285446E+02  0.48029381807E+01 -0.24849733821E+01  0.16123203784E+02  0.00000000000E+00 0. -1.
</event>
<event>
 8    1  0.1280925E-006  0.9118800E+02  0.7816164E-02  0.1184000E+00
        -11   -1    0    0    0    0  0.00000000000E+00  0.00000000000E+00  0.45593999997E+02  0.45594000000E+02  0.51100000000E-03 0.  1.
         11   -1    0    0    0    0 -0.00000000000E+00 -0.00000000000E+00 -0.45593999997E+02  0.45594000000E+02  0.51100000000E-03 0. -1.
         23    2    1    2    0    0 -0.44408920985E-15  0.00000000000E+00  0.88817841970E-15  0.91188000000E+02  0.91188000000E+02 0.  0.
    9900012    2    3    3    0    0  0.38245474482E+01  0.35874632234E+02  0.73595938216E+01  0.54367081729E+02  0.39999994418E+02 0.  0.
         12    1    3    3    0    0 -0.38245474482E+01 -0.35874632234E+02 -0.73595938216E+01  0.36820918271E+02  0.00000000000E+00 0. -1.
         11    1    4    4    0    0  0.25492871886E+01  0.39445381514E+01 -0.12057638743E+02  0.12940050182E+02  0.51100000000E-03 0. -1.
        -11    1    4    4    0    0  0.37718983632E+01  0.30724637258E+02  0.11473176340E+02  0.33013093273E+02  0.51100000000E-03 0.  1.
        -12    1    4    4    0    0 -0.24966381036E+01  0.12054568244E+01  0.79440562246E+01  0.84139382738E+01  0.00000000000E+00 0.  1.
</event>
<event>
 8    1  0.1280925E-006  0.9118800E+02  0.7816164E-02  0.1184000E+00
        -11   -1    0    0    0    0  0.00000000000E+00  0.00000000000E+00  0.45593999997E+02  0.45594000000E+02  0.51100000000E-03 0. -1.
         11   -1    0    0    0    0 -0.00000000000E+00 -0.00000000000E+00 -0.45593999997E+02  0.45594000000E+02  0.51100000000E-03 0.  1.
         23    2    1    2    0    0 -0.44408920985E-15  0.00000000000E+00 -0.35527136788E-14  0.91188000000E+02  0.91188000000E+02 0.  0.
    9900012    2    3    3    0    0 -0.16308126127E+01  0.32740705800E+02 -0.16768127957E+02  0.54367034759E+02  0.39999887341E+02 0.  0.
         12    1    3    3    0    0  0.16308126127E+01 -0.32740705800E+02  0.16768127957E+02  0.36820965241E+02  0.00000000000E+00 0. -1.
         11    1    4    4    0    0 -0.11189100946E+02  0.11034676484E+02 -0.14255556715E+02  0.21217468336E+02  0.51100000000E-03 0. -1.
        -11    1    4    4    0    0  0.24621478766E+01  0.59957584801E+00 -0.94837202435E+01  0.98164460616E+01  0.51100000000E-03 0.  1.
        -12    1    4    4    0    0  0.70961404571E+01  0.21106453469E+02  0.69711490014E+01  0.23333120362E+02  0.00000000000E+00 0.  1.
</event>
<event>
 8    1  0.1280925E-006  0.9118800E+02  0.7816164E-02  0.1184000E+00
        -11   -1    0    0    0    0  0.00000000000E+00  0.00000000000E+00  0.45593999997E+02  0.45594000000E+02  0.51100000000E-03 0. -1.
         11   -1    0    0    0    0 -0.00000000000E+00 -0.00000000000E+00 -0.45593999997E+02  0.45594000000E+02  0.51100000000E-03 0.  1.
         23    2    1    2    0    0  0.35527136788E-14  0.00000000000E+00  0.00000000000E+00  0.91188000000E+02  0.91188000000E+02 0.  0.
    9900012    2    3    3    0    0  0.12488917412E+02 -0.13558018972E+02 -0.31874555377E+02  0.54367079085E+02  0.39999988389E+02 0.  0.
         12    1    3    3    0    0 -0.12488917412E+02  0.13558018972E+02  0.31874555377E+02  0.36820920915E+02  0.00000000000E+00 0. -1.
         11    1    4    4    0    0  0.52704052522E+01 -0.52990818166E+01 -0.15290709818E+02  0.17019496074E+02  0.51100000000E-03 0.  1.
        -11    1    4    4    0    0 -0.57270433607E+01 -0.10189326473E+02  0.45054424083E+01  0.12526787744E+02  0.51100000000E-03 0. -1.
        -12    1    4    4    0    0  0.12945555520E+02  0.19303893185E+01 -0.21089287968E+02  0.24820795266E+02  0.00000000000E+00 0.  1.
</event>
<event>
 8    1  0.1280925E-006  0.9118800E+02  0.7816164E-02  0.1184000E+00
        -11   -1    0    0    0    0  0.00000000000E+00  0.00000000000E+00  0.45593999997E+02  0.45594000000E+02  0.51100000000E-03 0. -1.
         11   -1    0    0    0    0 -0.00000000000E+00 -0.00000000000E+00 -0.45593999997E+02  0.45594000000E+02  0.51100000000E-03 0.  1.
         23    2    1    2    0    0 -0.71054273576E-14 -0.17763568394E-14  0.26645352591E-14  0.91188000000E+02  0.91188000000E+02 0.  0.
    9900012    2    3    3    0    0  0.35495248593E+02 -0.94451215279E+01 -0.25798329999E+01  0.54367101971E+02  0.40000040563E+02 0.  0.
         12    1    3    3    0    0 -0.35495248593E+02  0.94451215279E+01  0.25798329999E+01  0.36820898029E+02  0.00000000000E+00 0. -1.
         11    1    4    4    0    0  0.20003467282E+02  0.14450485960E+01  0.14005410311E+02  0.24461773995E+02  0.51100000000E-03 0. -1.
        -11    1    4    4    0    0  0.11301682592E+02 -0.31501361548E+00 -0.21196703031E+01  0.11503054614E+02  0.51100000000E-03 0.  1.
         12    1    4    4    0    0  0.41900987189E+01 -0.10575156508E+02 -0.14465573007E+02  0.18402273362E+02  0.00000000000E+00 0. -1.
</event>
<event>
 8    1  0.1280925E-006  0.9118800E+02  0.7816164E-02  0.1184000E+00
        -11   -1    0    0    0    0  0.00000000000E+00  0.00000000000E+00  0.45593999997E+02  0.45594000000E+02  0.51100000000E-03 0. -1.
         11   -1    0    0    0    0 -0.00000000000E+00 -0.00000000000E+00 -0.45593999997E+02  0.45594000000E+02  0.51100000000E-03 0.  1.
         23    2    1    2    0    0  0.17763568394E-14  0.00000000000E+00  0.00000000000E+00  0.91188000000E+02  0.91188000000E+02 0.  0.
    9900012    2    3    3    0    0  0.12926354574E+02  0.19712650027E+02  0.28286066653E+02  0.54367071435E+02  0.39999970951E+02 0.  0.
        -12    1    3    3    0    0 -0.12926354574E+02 -0.19712650027E+02 -0.28286066653E+02  0.36820928565E+02  0.00000000000E+00 0.  1.
         11    1    4    4    0    0 -0.90204532328E+01 -0.11291108636E+00  0.76531025663E+01  0.11830101631E+02  0.51100000000E-03 0. -1.
        -11    1    4    4    0    0  0.10485716820E+02  0.10547368226E+02 -0.25222868500E+01  0.15085064300E+02  0.51100000000E-03 0.  1.
         12    1    4    4    0    0  0.11461090988E+02  0.92781928872E+01  0.23155250937E+02  0.27451905504E+02  0.00000000000E+00 0. -1.
</event>
<event>
 8    1  0.1280925E-006  0.9118800E+02  0.7816164E-02  0.1184000E+00
        -11   -1    0    0    0    0  0.00000000000E+00  0.00000000000E+00  0.45593999997E+02  0.45594000000E+02  0.51100000000E-03 0. -1.
         11   -1    0    0    0    0 -0.00000000000E+00 -0.00000000000E+00 -0.45593999997E+02  0.45594000000E+02  0.51100000000E-03 0.  1.
         23    2    1    2    0    0  0.35527136788E-14  0.53290705182E-14  0.14210854715E-13  0.91188000000E+02  0.91188000000E+02 0.  0.
    9900012    2    3    3    0    0 -0.81573032100E+01 -0.11901027956E+02 -0.33876294676E+02  0.54367090138E+02  0.40000013588E+02 0.  0.
         12    1    3    3    0    0  0.81573032100E+01  0.11901027956E+02  0.33876294676E+02  0.36820909862E+02  0.00000000000E+00 0. -1.
         11    1    4    4    0    0  0.12531303116E+01 -0.33209348848E+01  0.47868234127E+01  0.59592468259E+01  0.51100000000E-03 0. -1.
        -11    1    4    4    0    0  0.56149385105E+01  0.44088160837E+01 -0.33352064607E+01  0.78796444167E+01  0.51100000000E-03 0.  1.
        -12    1    4    4    0    0 -0.15025372032E+02 -0.12988909155E+02 -0.35327911628E+02  0.40528198896E+02  0.00000000000E+00 0.  1.
</event>
<event>
 8    1  0.1280925E-006  0.9118800E+02  0.7816164E-02  0.1184000E+00
        -11   -1    0    0    0    0  0.00000000000E+00  0.00000000000E+00  0.45593999997E+02  0.45594000000E+02  0.51100000000E-03 0.  1.
         11   -1    0    0    0    0 -0.00000000000E+00 -0.00000000000E+00 -0.45593999997E+02  0.45594000000E+02  0.51100000000E-03 0. -1.
         23    2    1    2    0    0  0.00000000000E+00  0.88817841970E-15  0.00000000000E+00  0.91188000000E+02  0.91188000000E+02 0.  0.
    9900012    2    3    3    0    0  0.22331336833E+02  0.41712737516E+01  0.28977446685E+02  0.54367074620E+02  0.39999978211E+02 0.  0.
         12    1    3    3    0    0 -0.22331336833E+02 -0.41712737516E+01 -0.28977446685E+02  0.36820925380E+02  0.00000000000E+00 0. -1.
         11    1    4    4    0    0  0.37691086507E+01 -0.84012340117E+01 -0.13317773035E+01  0.93037919144E+01  0.51100000000E-03 0. -1.
        -11    1    4    4    0    0 -0.96104981816E+00  0.95177493262E+01  0.21292147654E+02  0.23342380362E+02  0.51100000000E-03 0.  1.
         12    1    4    4    0    0  0.19523278001E+02  0.30547584371E+01  0.90170763341E+01  0.21720902344E+02  0.00000000000E+00 0. -1.
</event>
<event>
 8    1  0.1280925E-006  0.9118800E+02  0.7816164E-02  0.1184000E+00
        -11   -1    0    0    0    0  0.00000000000E+00  0.00000000000E+00  0.45593999997E+02  0.45594000000E+02  0.51100000000E-03 0.  1.
         11   -1    0    0    0    0 -0.00000000000E+00 -0.00000000000E+00 -0.45593999997E+02  0.45594000000E+02  0.51100000000E-03 0. -1.
         23    2    1    2    0    0  0.55511151231E-16  0.00000000000E+00  0.71054273576E-14  0.91188000000E+02  0.91188000000E+02 0.  0.
    9900012    2    3    3    0    0 -0.28846013661E+00 -0.11393002900E+02 -0.35012775682E+02  0.54367106675E+02  0.40000051286E+02 0.  0.
        -12    1    3    3    0    0  0.28846013661E+00  0.11393002900E+02  0.35012775682E+02  0.36820893325E+02  0.00000000000E+00 0.  1.
         11    1    4    4    0    0 -0.13240743242E+02 -0.53169267994E+01 -0.46628938732E+01  0.15010981704E+02  0.51100000000E-03 0. -1.
        -11    1    4    4    0    0  0.70647575615E+01 -0.90974748807E+01 -0.40081824495E+01  0.12195916342E+02  0.51100000000E-03 0.  1.
         12    1    4    4    0    0  0.58875255439E+01  0.30213987803E+01 -0.26341699359E+02  0.27160208629E+02  0.00000000000E+00 0. -1.
</event>
<event>
 8    1  0.1280925E-006  0.9118800E+02  0.7816164E-02  0.1184000E+00
        -11   -1    0    0    0    0  0.00000000000E+00  0.00000000000E+00  0.45593999997E+02  0.45594000000E+02  0.51100000000E-03 0.  1.
         11   -1    0    0    0    0 -0.00000000000E+00 -0.00000000000E+00 -0.45593999997E+02  0.45594000000E+02  0.51100000000E-03 0. -1.
         23    2    1    2    0    0 -0.22204460493E-15  0.71054273576E-14  0.00000000000E+00  0.91188000000E+02  0.91188000000E+02 0.  0.
    9900012    2    3    3    0    0 -0.63855719204E+00  0.36232375331E+02 -0.65258188033E+01  0.54367094410E+02  0.40000023325E+02 0.  0.
        -12    1    3    3    0    0  0.63855719204E+00 -0.36232375331E+02  0.65258188033E+01  0.36820905590E+02  0.00000000000E+00 0.  1.
         11    1    4    4    0    0  0.15625585421E+01 -0.34922801039E+01  0.41354667211E+01  0.56337993206E+01  0.51100000000E-03 0. -1.
        -11    1    4    4    0    0  0.38680347114E+01 -0.17317906100E+01 -0.48387886687E+01  0.64323143026E+01  0.51100000000E-03 0.  1.
         12    1    4    4    0    0 -0.60691504455E+01  0.41456446045E+02 -0.58224968557E+01  0.42300980786E+02  0.00000000000E+00 0. -1.
</event>
<event>
 8    1  0.1280925E-006  0.9118800E+02  0.7816164E-02  0.1184000E+00
        -11   -1    0    0    0    0  0.00000000000E+00  0.00000000000E+00  0.45593999997E+02  0.45594000000E+02  0.51100000000E-03 0. -1.
         11   -1    0    0    0    0 -0.00000000000E+00 -0.00000000000E+00 -0.45593999997E+02  0.45594000000E+02  0.51100000000E-03 0.  1.
         23    2    1    2    0    0  0.00000000000E+00  0.00000000000E+00 -0.88817841970E-15  0.91188000000E+02  0.91188000000E+02 0.  0.
    9900012    2    3    3    0    0  0.20765405185E+02 -0.29601009536E+02  0.69540194049E+01  0.54367079263E+02  0.39999988795E+02 0.  0.
        -12    1    3    3    0    0 -0.20765405185E+02  0.29601009536E+02 -0.69540194049E+01  0.36820920737E+02  0.00000000000E+00 0.  1.
         11    1    4    4    0    0  0.20441105463E+02 -0.11628113322E+02 -0.63344969497E+01  0.24355238941E+02  0.51100000000E-03 0. -1.
        -11    1    4    4    0    0  0.69003685852E+01 -0.13539479066E+01  0.93690351075E+01  0.11714396299E+02  0.51100000000E-03 0.  1.
         12    1    4    4    0    0 -0.65760688633E+01 -0.16618948307E+02  0.39194812471E+01  0.18297444023E+02  0.00000000000E+00 0. -1.
</event>
<event>
 8    1  0.1280925E-006  0.9118800E+02  0.7816164E-02  0.1184000E+00
        -11   -1    0    0    0    0  0.00000000000E+00  0.00000000000E+00  0.45593999997E+02  0.45594000000E+02  0.51100000000E-03 0. -1.
         11   -1    0    0    0    0 -0.00000000000E+00 -0.00000000000E+00 -0.45593999997E+02  0.45594000000E+02  0.51100000000E-03 0.  1.
         23    2    1    2    0    0 -0.71054273576E-14 -0.44408920985E-15  0.00000000000E+00  0.91188000000E+02  0.91188000000E+02 0.  0.
    9900012    2    3    3    0    0  0.33179101486E+02 -0.34196983835E+01  0.15595902831E+02  0.54367091570E+02  0.40000016853E+02 0.  0.
         12    1    3    3    0    0 -0.33179101486E+02  0.34196983835E+01 -0.15595902831E+02  0.36820908430E+02  0.00000000000E+00 0. -1.
         11    1    4    4    0    0 -0.30638013821E+01  0.62815637389E+01  0.20614273240E+01  0.72865907521E+01  0.51100000000E-03 0. -1.
        -11    1    4    4    0    0  0.27801335158E+02  0.27194002477E+01  0.17458951664E+01  0.27988524871E+02  0.51100000000E-03 0.  1.
         12    1    4    4    0    0  0.84415677102E+01 -0.12420662370E+02  0.11788580340E+02  0.19091975947E+02  0.00000000000E+00 0. -1.
</event>
<event>
 8    1  0.1280925E-006  0.9118800E+02  0.7816164E-02  0.1184000E+00
        -11   -1    0    0    0    0  0.00000000000E+00  0.00000000000E+00  0.45593999997E+02  0.45594000000E+02  0.51100000000E-03 0.  1.
         11   -1    0    0    0    0 -0.00000000000E+00 -0.00000000000E+00 -0.45593999997E+02  0.45594000000E+02  0.51100000000E-03 0. -1.
         23    2    1    2    0    0  0.00000000000E+00  0.17763568394E-14  0.17763568394E-14  0.91188000000E+02  0.91188000000E+02 0.  0.
    9900012    2    3    3    0    0  0.32326821244E+02  0.14626040883E+02 -0.98405203198E+01  0.54367078178E+02  0.39999986322E+02 0.  0.
        -12    1    3    3    0    0 -0.32326821244E+02 -0.14626040883E+02  0.98405203198E+01  0.36820921822E+02  0.00000000000E+00 0.  1.
         11    1    4    4    0    0  0.12760132423E+02  0.43120595855E+01 -0.15971135266E+02  0.20892390942E+02  0.51100000000E-03 0. -1.
        -11    1    4    4    0    0  0.26428370753E+01 -0.16761496676E+01  0.11608305024E+02  0.12022762216E+02  0.51100000000E-03 0.  1.
        -12    1    4    4    0    0  0.16923851746E+02  0.11990130965E+02 -0.54776900777E+01  0.21451925020E+02  0.00000000000E+00 0.  1.
</event>
<event>
 8    1  0.1280925E-006  0.9118800E+02  0.7816164E-02  0.1184000E+00
        -11   -1    0    0    0    0  0.00000000000E+00  0.00000000000E+00  0.45593999997E+02  0.45594000000E+02  0.51100000000E-03 0.  1.
         11   -1    0    0    0    0 -0.00000000000E+00 -0.00000000000E+00 -0.45593999997E+02  0.45594000000E+02  0.51100000000E-03 0. -1.
         23    2    1    2    0    0  0.00000000000E+00  0.00000000000E+00  0.00000000000E+00  0.91188000000E+02  0.91188000000E+02 0.  0.
    9900012    2    3    3    0    0 -0.25318086715E+02  0.26399638897E+02 -0.42221802306E+01  0.54367173628E+02  0.40000203920E+02 0.  0.
        -12    1    3    3    0    0  0.25318086715E+02 -0.26399638897E+02  0.42221802306E+01  0.36820826372E+02  0.00000000000E+00 0.  1.
         11    1    4    4    0    0 -0.29645184095E+02  0.12366814034E+02 -0.27640889430E+01  0.32239963048E+02  0.51100000000E-03 0. -1.
        -11    1    4    4    0    0  0.10554891872E+01  0.99784690881E+00  0.63975821131E+01  0.65603973228E+01  0.51100000000E-03 0.  1.
         12    1    4    4    0    0  0.32716081927E+01  0.13034977954E+02 -0.78556734006E+01  0.15566813258E+02  0.00000000000E+00 0. -1.
</event>
<event>
 8    1  0.1280925E-006  0.9118800E+02  0.7816164E-02  0.1184000E+00
        -11   -1    0    0    0    0  0.00000000000E+00  0.00000000000E+00  0.45593999997E+02  0.45594000000E+02  0.51100000000E-03 0.  1.
         11   -1    0    0    0    0 -0.00000000000E+00 -0.00000000000E+00 -0.45593999997E+02  0.45594000000E+02  0.51100000000E-03 0. -1.
         23    2    1    2    0    0  0.00000000000E+00  0.00000000000E+00  0.00000000000E+00  0.91188000000E+02  0.91188000000E+02 0.  0.
    9900012    2    3    3    0    0  0.30674205107E+02  0.91426142974E+01  0.18201262277E+02  0.54367079267E+02  0.39999988805E+02 0.  0.
         12    1    3    3    0    0 -0.30674205107E+02 -0.91426142974E+01 -0.18201262277E+02  0.36820920733E+02  0.00000000000E+00 0. -1.
         11    1    4    4    0    0  0.12743699900E+02 -0.50681737358E+01 -0.41922156608E+01  0.14340953405E+02  0.51100000000E-03 0. -1.
        -11    1    4    4    0    0  0.16935633092E+02  0.16526258714E+02  0.73574095411E+01  0.24780322248E+02  0.51100000000E-03 0.  1.
        -12    1    4    4    0    0  0.99487211535E+00 -0.23154706805E+01  0.15036068397E+02  0.15245803614E+02  0.00000000000E+00 0.  1.
</event>
<event>
 8    1  0.1280925E-006  0.9118800E+02  0.7816164E-02  0.1184000E+00
        -11   -1    0    0    0    0  0.00000000000E+00  0.00000000000E+00  0.45593999997E+02  0.45594000000E+02  0.51100000000E-03 0.  1.
         11   -1    0    0    0    0 -0.00000000000E+00 -0.00000000000E+00 -0.45593999997E+02  0.45594000000E+02  0.51100000000E-03 0. -1.
         23    2    1    2    0    0 -0.44408920985E-15  0.00000000000E+00  0.35527136788E-14  0.91188000000E+02  0.91188000000E+02 0.  0.
    9900012    2    3    3    0    0  0.24686619898E+01 -0.25899576147E+02 -0.26055660825E+02  0.54367084780E+02  0.40000001372E+02 0.  0.
        -12    1    3    3    0    0 -0.24686619898E+01  0.25899576147E+02  0.26055660825E+02  0.36820915220E+02  0.00000000000E+00 0.  1.
         11    1    4    4    0    0 -0.32889353531E+01  0.17530734241E+01 -0.74224289712E+01  0.83055893397E+01  0.51100000000E-03 0. -1.
        -11    1    4    4    0    0  0.98032419927E+01 -0.30568518127E+02 -0.62404029012E+01  0.32702912449E+02  0.51100000000E-03 0.  1.
        -12    1    4    4    0    0 -0.40456446498E+01  0.29158685556E+01 -0.12392828953E+02  0.13358582991E+02  0.00000000000E+00 0.  1.
</event>
<event>
 8    1  0.1280925E-006  0.9118800E+02  0.7816164E-02  0.1184000E+00
        -11   -1    0    0    0    0  0.00000000000E+00  0.00000000000E+00  0.45593999997E+02  0.45594000000E+02  0.51100000000E-03 0. -1.
         11   -1    0    0    0    0 -0.00000000000E+00 -0.00000000000E+00 -0.45593999997E+02  0.45594000000E+02  0.51100000000E-03 0.  1.
         23    2    1    2    0    0  0.00000000000E+00 -0.11102230246E-14 -0.35527136788E-14  0.91188000000E+02  0.91188000000E+02 0.  0.
    9900012    2    3    3    0    0 -0.26120375254E+02  0.10894460218E+01 -0.25929104431E+02  0.54367090823E+02  0.40000015149E+02 0.  0.
         12    1    3    3    0    0  0.26120375254E+02 -0.10894460218E+01  0.25929104431E+02  0.36820909177E+02  0.00000000000E+00 0. -1.
         11    1    4    4    0    0 -0.19708602388E+02  0.53427149905E+01 -0.31553571251E+01  0.20662281830E+02  0.51100000000E-03 0. -1.
        -11    1    4    4    0    0 -0.14948997416E+02  0.57418649123E+00 -0.12424114761E+02  0.19446358058E+02  0.51100000000E-03 0.  1.
         12    1    4    4    0    0  0.85372245505E+01 -0.48274554600E+01 -0.10349632545E+02  0.14258450935E+02  0.00000000000E+00 0. -1.
</event>
<event>
 8    1  0.1280925E-006  0.9118800E+02  0.7816164E-02  0.1184000E+00
        -11   -1    0    0    0    0  0.00000000000E+00  0.00000000000E+00  0.45593999997E+02  0.45594000000E+02  0.51100000000E-03 0.  1.
         11   -1    0    0    0    0 -0.00000000000E+00 -0.00000000000E+00 -0.45593999997E+02  0.45594000000E+02  0.51100000000E-03 0. -1.
         23    2    1    2    0    0  0.44408920985E-15  0.00000000000E+00  0.00000000000E+00  0.91188000000E+02  0.91188000000E+02 0.  0.
    9900012    2    3    3    0    0 -0.89860636197E+00 -0.32655016256E+02 -0.16988896289E+02  0.54367079626E+02  0.39999989623E+02 0.  0.
        -12    1    3    3    0    0  0.89860636197E+00  0.32655016256E+02  0.16988896289E+02  0.36820920374E+02  0.00000000000E+00 0.  1.
         11    1    4    4    0    0 -0.62479848407E+01 -0.17134987751E+02 -0.67474785913E+01  0.19446685769E+02  0.51100000000E-03 0.  1.
        -11    1    4    4    0    0  0.11225826924E+02 -0.20109678184E+02 -0.13595606915E+02  0.26744324153E+02  0.51100000000E-03 0. -1.
        -12    1    4    4    0    0 -0.58764484448E+01  0.45896496785E+01  0.33541892173E+01  0.81760697038E+01  0.00000000000E+00 0.  1.
</event>
<event>
 8    1  0.1280925E-006  0.9118800E+02  0.7816164E-02  0.1184000E+00
        -11   -1    0    0    0    0  0.00000000000E+00  0.00000000000E+00  0.45593999997E+02  0.45594000000E+02  0.51100000000E-03 0. -1.
         11   -1    0    0    0    0 -0.00000000000E+00 -0.00000000000E+00 -0.45593999997E+02  0.45594000000E+02  0.51100000000E-03 0.  1.
         23    2    1    2    0    0  0.00000000000E+00  0.00000000000E+00  0.00000000000E+00  0.91188000000E+02  0.91188000000E+02 0.  0.
    9900012    2    3    3    0    0 -0.34323651226E+02  0.88522692752E+01 -0.99651524173E+01  0.54367082473E+02  0.39999996115E+02 0.  0.
        -12    1    3    3    0    0  0.34323651226E+02 -0.88522692752E+01  0.99651524173E+01  0.36820917527E+02  0.00000000000E+00 0.  1.
         11    1    4    4    0    0 -0.36286554613E+02  0.32392852748E+01 -0.81686101048E+01  0.37335414904E+02  0.51100000000E-03 0. -1.
        -11    1    4    4    0    0 -0.65369825735E+01  0.43875163077E+01 -0.28643486182E+01  0.83777642474E+01  0.51100000000E-03 0.  1.
         12    1    4    4    0    0  0.84998859603E+01  0.12254676927E+01  0.10678063057E+01  0.86539033222E+01  0.00000000000E+00 0. -1.
</event>
<event>
 8    1  0.1280925E-006  0.9118800E+02  0.7816164E-02  0.1184000E+00
        -11   -1    0    0    0    0  0.00000000000E+00  0.00000000000E+00  0.45593999997E+02  0.45594000000E+02  0.51100000000E-03 0. -1.
         11   -1    0    0    0    0 -0.00000000000E+00 -0.00000000000E+00 -0.45593999997E+02  0.45594000000E+02  0.51100000000E-03 0.  1.
         23    2    1    2    0    0  0.00000000000E+00 -0.35527136788E-14  0.00000000000E+00  0.91188000000E+02  0.91188000000E+02 0.  0.
    9900012    2    3    3    0    0 -0.22910640614E+02 -0.20157671609E+02  0.20604586609E+02  0.54367106919E+02  0.40000051842E+02 0.  0.
        -12    1    3    3    0    0  0.22910640614E+02  0.20157671609E+02 -0.20604586609E+02  0.36820893081E+02  0.00000000000E+00 0.  1.
         11    1    4    4    0    0 -0.20253816793E+02 -0.12095937326E+02  0.11822422278E+02  0.26387467921E+02  0.51100000000E-03 0. -1.
        -11    1    4    4    0    0 -0.10664241988E+02 -0.13254137424E+02  0.60000902533E+01  0.18038827549E+02  0.51100000000E-03 0.  1.
        -12    1    4    4    0    0  0.80074181677E+01  0.51924031412E+01  0.27820740771E+01  0.99408114489E+01  0.00000000000E+00 0.  1.
</event>
<event>
 8    1  0.1280925E-006  0.9118800E+02  0.7816164E-02  0.1184000E+00
        -11   -1    0    0    0    0  0.00000000000E+00  0.00000000000E+00  0.45593999997E+02  0.45594000000E+02  0.51100000000E-03 0. -1.
         11   -1    0    0    0    0 -0.00000000000E+00 -0.00000000000E+00 -0.45593999997E+02  0.45594000000E+02  0.51100000000E-03 0.  1.
         23    2    1    2    0    0  0.71054273576E-14  0.10658141036E-13 -0.88817841970E-15  0.91188000000E+02  0.91188000000E+02 0.  0.
    9900012    2    3    3    0    0 -0.27860914285E+02 -0.22897710131E+02  0.74326356936E+01  0.54367085462E+02  0.40000002928E+02 0.  0.
         12    1    3    3    0    0  0.27860914285E+02  0.22897710131E+02 -0.74326356936E+01  0.36820914538E+02  0.00000000000E+00 0. -1.
         11    1    4    4    0    0 -0.25846144650E+01 -0.11232054522E+02  0.16285120199E+02  0.19951050621E+02  0.51100000000E-03 0. -1.
        -11    1    4    4    0    0  0.19997434242E+01  0.17408343290E+01 -0.18329952549E+01  0.32232514313E+01  0.51100000000E-03 0.  1.
        -12    1    4    4    0    0 -0.27276043244E+02 -0.13406489938E+02 -0.70194892504E+01  0.31192783410E+02  0.00000000000E+00 0.  1.
</event>
<event>
 8    1  0.1280925E-006  0.9118800E+02  0.7816164E-02  0.1184000E+00
        -11   -1    0    0    0    0  0.00000000000E+00  0.00000000000E+00  0.45593999997E+02  0.45594000000E+02  0.51100000000E-03 0. -1.
         11   -1    0    0    0    0 -0.00000000000E+00 -0.00000000000E+00 -0.45593999997E+02  0.45594000000E+02  0.51100000000E-03 0.  1.
         23    2    1    2    0    0  0.00000000000E+00  0.35527136788E-14  0.17763568394E-14  0.91188000000E+02  0.91188000000E+02 0.  0.
    9900012    2    3    3    0    0 -0.25600690370E+02  0.24967992803E+02  0.87741441018E+01  0.54367060078E+02  0.39999945059E+02 0.  0.
         12    1    3    3    0    0  0.25600690370E+02 -0.24967992803E+02 -0.87741441018E+01  0.36820939922E+02  0.00000000000E+00 0. -1.
         11    1    4    4    0    0 -0.10723984231E+02  0.58306944028E+01  0.12813924458E+02  0.17697386679E+02  0.51100000000E-03 0. -1.
        -11    1    4    4    0    0 -0.54057364248E+01  0.11450741842E+02 -0.15443839419E+02  0.19971320720E+02  0.51100000000E-03 0.  1.
        -12    1    4    4    0    0 -0.94709697142E+01  0.76865565586E+01  0.11404059064E+02  0.16698352679E+02  0.00000000000E+00 0.  1.
</event>
<event>
 8    1  0.1280925E-006  0.9118800E+02  0.7816164E-02  0.1184000E+00
        -11   -1    0    0    0    0  0.00000000000E+00  0.00000000000E+00  0.45593999997E+02  0.45594000000E+02  0.51100000000E-03 0. -1.
         11   -1    0    0    0    0 -0.00000000000E+00 -0.00000000000E+00 -0.45593999997E+02  0.45594000000E+02  0.51100000000E-03 0.  1.
         23    2    1    2    0    0 -0.35527136788E-14  0.00000000000E+00  0.00000000000E+00  0.91188000000E+02  0.91188000000E+02 0.  0.
    9900012    2    3    3    0    0 -0.31631281417E+02 -0.16453141121E+02 -0.91943526769E+01  0.54367082874E+02  0.39999997028E+02 0.  0.
        -12    1    3    3    0    0  0.31631281417E+02  0.16453141121E+02  0.91943526769E+01  0.36820917126E+02  0.00000000000E+00 0.  1.
         11    1    4    4    0    0 -0.23046774331E+02 -0.16637843651E+02 -0.18229323562E+00  0.28425426637E+02  0.51100000000E-03 0. -1.
        -11    1    4    4    0    0  0.11610020396E+01 -0.10056221189E+02 -0.47066887562E+01  0.11163710389E+02  0.51100000000E-03 0.  1.
        -12    1    4    4    0    0 -0.97455091265E+01  0.10240923719E+02 -0.43053706851E+01  0.14777945848E+02  0.00000000000E+00 0.  1.
</event>
<event>
 8    1  0.1280925E-006  0.9118800E+02  0.7816164E-02  0.1184000E+00
        -11   -1    0    0    0    0  0.00000000000E+00  0.00000000000E+00  0.45593999997E+02  0.45594000000E+02  0.51100000000E-03 0. -1.
         11   -1    0    0    0    0 -0.00000000000E+00 -0.00000000000E+00 -0.45593999997E+02  0.45594000000E+02  0.51100000000E-03 0.  1.
         23    2    1    2    0    0  0.00000000000E+00  0.00000000000E+00  0.00000000000E+00  0.91188000000E+02  0.91188000000E+02 0.  0.
    9900012    2    3    3    0    0  0.20295825706E+02 -0.12143271586E+02 -0.28220543785E+02  0.54367099991E+02  0.40000036050E+02 0.  0.
         12    1    3    3    0    0 -0.20295825706E+02  0.12143271586E+02  0.28220543785E+02  0.36820900009E+02  0.00000000000E+00 0. -1.
         11    1    4    4    0    0  0.20349016960E+02 -0.83516838702E+01 -0.15123672323E+02  0.26693792902E+02  0.51100000000E-03 0.  1.
        -11    1    4    4    0    0  0.20388603230E+01  0.73754862963E+01 -0.14330124851E+02  0.16245221698E+02  0.51100000000E-03 0. -1.
         12    1    4    4    0    0 -0.20920515767E+01 -0.11167074012E+02  0.12332533888E+01  0.11428085391E+02  0.00000000000E+00 0. -1.
</event>
<event>
 8    1  0.1280925E-006  0.9118800E+02  0.7816164E-02  0.1184000E+00
        -11   -1    0    0    0    0  0.00000000000E+00  0.00000000000E+00  0.45593999997E+02  0.45594000000E+02  0.51100000000E-03 0.  1.
         11   -1    0    0    0    0 -0.00000000000E+00 -0.00000000000E+00 -0.45593999997E+02  0.45594000000E+02  0.51100000000E-03 0. -1.
         23    2    1    2    0    0  0.00000000000E+00 -0.88817841970E-15  0.00000000000E+00  0.91188000000E+02  0.91188000000E+02 0.  0.
    9900012    2    3    3    0    0  0.30542951085E+01  0.75506139899E+01 -0.35908576333E+02  0.54367267464E+02  0.40000417835E+02 0.  0.
        -12    1    3    3    0    0 -0.30542951085E+01 -0.75506139899E+01  0.35908576333E+02  0.36820732536E+02  0.00000000000E+00 0.  1.
         11    1    4    4    0    0 -0.51333677623E+01  0.17044482500E+02 -0.14215896204E+02  0.22780639882E+02  0.51100000000E-03 0. -1.
        -11    1    4    4    0    0  0.87075791262E+00  0.16448614966E+01  0.29980892249E+01  0.35287856193E+01  0.51100000000E-03 0.  1.
        -12    1    4    4    0    0  0.73169049582E+01 -0.11138730007E+02 -0.24690769353E+02  0.28057841963E+02  0.00000000000E+00 0.  1.
</event>
<event>
 8    1  0.1280925E-006  0.9118800E+02  0.7816164E-02  0.1184000E+00
        -11   -1    0    0    0    0  0.00000000000E+00  0.00000000000E+00  0.45593999997E+02  0.45594000000E+02  0.51100000000E-03 0.  1.
         11   -1    0    0    0    0 -0.00000000000E+00 -0.00000000000E+00 -0.45593999997E+02  0.45594000000E+02  0.51100000000E-03 0. -1.
         23    2    1    2    0    0  0.35527136788E-14  0.88817841970E-15  0.00000000000E+00  0.91188000000E+02  0.91188000000E+02 0.  0.
    9900012    2    3    3    0    0 -0.20910167765E+02 -0.75427777913E+01 -0.29354011572E+02  0.54366992299E+02  0.39999790542E+02 0.  0.
        -12    1    3    3    0    0  0.20910167765E+02  0.75427777913E+01  0.29354011572E+02  0.36821007701E+02  0.00000000000E+00 0.  1.
         11    1    4    4    0    0 -0.58868773370E+01  0.37078074150E+01 -0.25689125871E+00  0.69619791717E+01  0.51100000000E-03 0. -1.
        -11    1    4    4    0    0 -0.13332162801E+02 -0.14998619735E+02 -0.21912957861E+01  0.20186801044E+02  0.51100000000E-03 0.  1.
         12    1    4    4    0    0 -0.16911276271E+01  0.37480345289E+01 -0.26905824528E+02  0.27218212083E+02  0.00000000000E+00 0. -1.
</event>
<event>
 8    1  0.1280925E-006  0.9118800E+02  0.7816164E-02  0.1184000E+00
        -11   -1    0    0    0    0  0.00000000000E+00  0.00000000000E+00  0.45593999997E+02  0.45594000000E+02  0.51100000000E-03 0.  1.
         11   -1    0    0    0    0 -0.00000000000E+00 -0.00000000000E+00 -0.45593999997E+02  0.45594000000E+02  0.51100000000E-03 0. -1.
         23    2    1    2    0    0 -0.17763568394E-14  0.00000000000E+00  0.35527136788E-14  0.91188000000E+02  0.91188000000E+02 0.  0.
    9900012    2    3    3    0    0  0.13028617145E+02 -0.15208268633E+02 -0.30898929925E+02  0.54367079723E+02  0.39999989845E+02 0.  0.
        -12    1    3    3    0    0 -0.13028617145E+02  0.15208268633E+02  0.30898929925E+02  0.36820920277E+02  0.00000000000E+00 0.  1.
         11    1    4    4    0    0  0.20234375996E+02 -0.13011913369E+02 -0.22089476576E+02  0.32660141413E+02  0.51100000000E-03 0. -1.
        -11    1    4    4    0    0  0.39843964169E+00  0.68807280082E+01  0.92193241370E-01  0.68928710945E+01  0.51100000000E-03 0.  1.
         12    1    4    4    0    0 -0.76041984932E+01 -0.90770832715E+01 -0.89016465906E+01  0.14814067216E+02  0.00000000000E+00 0. -1.
</event>
<event>
 8    1  0.1280925E-006  0.9118800E+02  0.7816164E-02  0.1184000E+00
        -11   -1    0    0    0    0  0.00000000000E+00  0.00000000000E+00  0.45593999997E+02  0.45594000000E+02  0.51100000000E-03 0. -1.
         11   -1    0    0    0    0 -0.00000000000E+00 -0.00000000000E+00 -0.45593999997E+02  0.45594000000E+02  0.51100000000E-03 0.  1.
         23    2    1    2    0    0  0.00000000000E+00  0.00000000000E+00  0.35527136788E-14  0.91188000000E+02  0.91188000000E+02 0.  0.
    9900012    2    3    3    0    0  0.72132726442E+01  0.20190043569E+02 -0.29935123543E+02  0.54367071399E+02  0.39999970868E+02 0.  0.
         12    1    3    3    0    0 -0.72132726442E+01 -0.20190043569E+02  0.29935123543E+02  0.36820928601E+02  0.00000000000E+00 0. -1.
         11    1    4    4    0    0  0.22050061133E+01 -0.58790408461E+00  0.19111331088E+01  0.29765942271E+01  0.51100000000E-03 0. -1.
        -11    1    4    4    0    0  0.19412441414E+02  0.13764407339E+02 -0.14935411523E+02  0.28095699114E+02  0.51100000000E-03 0.  1.
         12    1    4    4    0    0 -0.14404174883E+02  0.70135403141E+01 -0.16910845129E+02  0.23294778058E+02  0.00000000000E+00 0. -1.
</event>
<event>
 8    1  0.1280925E-006  0.9118800E+02  0.7816164E-02  0.1184000E+00
        -11   -1    0    0    0    0  0.00000000000E+00  0.00000000000E+00  0.45593999997E+02  0.45594000000E+02  0.51100000000E-03 0. -1.
         11   -1    0    0    0    0 -0.00000000000E+00 -0.00000000000E+00 -0.45593999997E+02  0.45594000000E+02  0.51100000000E-03 0.  1.
         23    2    1    2    0    0  0.00000000000E+00  0.00000000000E+00  0.71054273576E-14  0.91188000000E+02  0.91188000000E+02 0.  0.
    9900012    2    3    3    0    0 -0.91590398836E+01  0.23594365633E+02  0.26743165024E+02  0.54367095928E+02  0.40000026786E+02 0.  0.
        -12    1    3    3    0    0  0.91590398836E+01 -0.23594365633E+02 -0.26743165024E+02  0.36820904072E+02  0.00000000000E+00 0.  1.
         11    1    4    4    0    0 -0.14103860277E+01  0.22467923804E+01  0.24756841517E+02  0.24898563551E+02  0.51100000000E-03 0. -1.
        -11    1    4    4    0    0  0.26969293854E+00  0.17503501209E+02 -0.49488749153E+01  0.18191664356E+02  0.51100000000E-03 0.  1.
        -12    1    4    4    0    0 -0.80183467945E+01  0.38440720429E+01  0.69351984219E+01  0.11276868020E+02  0.00000000000E+00 0.  1.
</event>
<event>
 8    1  0.1280925E-006  0.9118800E+02  0.7816164E-02  0.1184000E+00
        -11   -1    0    0    0    0  0.00000000000E+00  0.00000000000E+00  0.45593999997E+02  0.45594000000E+02  0.51100000000E-03 0.  1.
         11   -1    0    0    0    0 -0.00000000000E+00 -0.00000000000E+00 -0.45593999997E+02  0.45594000000E+02  0.51100000000E-03 0. -1.
         23    2    1    2    0    0  0.99920072216E-15 -0.17763568394E-14  0.00000000000E+00  0.91188000000E+02  0.91188000000E+02 0.  0.
    9900012    2    3    3    0    0 -0.54371898385E+00 -0.15776351494E+02  0.33265477817E+02  0.54367069658E+02  0.39999966900E+02 0.  0.
         12    1    3    3    0    0  0.54371898385E+00  0.15776351494E+02 -0.33265477817E+02  0.36820930342E+02  0.00000000000E+00 0. -1.
         11    1    4    4    0    0  0.47299362692E+01 -0.10136234739E+01  0.97606286013E+01  0.10893557757E+02  0.51100000000E-03 0. -1.
        -11    1    4    4    0    0 -0.12823195091E+02  0.19367196927E+01  0.21404672992E+02  0.25026890371E+02  0.51100000000E-03 0.  1.
         12    1    4    4    0    0  0.75495398377E+01 -0.16699447713E+02  0.21001762240E+01  0.18446621530E+02  0.00000000000E+00 0. -1.
</event>
<event>
 8    1  0.1280925E-006  0.9118800E+02  0.7816164E-02  0.1184000E+00
        -11   -1    0    0    0    0  0.00000000000E+00  0.00000000000E+00  0.45593999997E+02  0.45594000000E+02  0.51100000000E-03 0. -1.
         11   -1    0    0    0    0 -0.00000000000E+00 -0.00000000000E+00 -0.45593999997E+02  0.45594000000E+02  0.51100000000E-03 0.  1.
         23    2    1    2    0    0 -0.35527136788E-14  0.00000000000E+00 -0.35527136788E-14  0.91188000000E+02  0.91188000000E+02 0.  0.
    9900012    2    3    3    0    0 -0.17906660338E+02 -0.16992011275E+02 -0.27320368131E+02  0.54367089549E+02  0.40000012246E+02 0.  0.
         12    1    3    3    0    0  0.17906660338E+02  0.16992011275E+02  0.27320368131E+02  0.36820910451E+02  0.00000000000E+00 0. -1.
         11    1    4    4    0    0  0.25817446930E+01 -0.37735836077E+01 -0.53649664842E+01  0.70489860648E+01  0.51100000000E-03 0. -1.
        -11    1    4    4    0    0 -0.24736288900E+02 -0.20928407551E+02 -0.20640727436E+02  0.38417728467E+02  0.51100000000E-03 0.  1.
         12    1    4    4    0    0  0.42478838691E+01  0.77099798844E+01 -0.13146742103E+01  0.89003750181E+01  0.00000000000E+00 0. -1.
</event>
<event>
 8    1  0.1280925E-006  0.9118800E+02  0.7816164E-02  0.1184000E+00
        -11   -1    0    0    0    0  0.00000000000E+00  0.00000000000E+00  0.45593999997E+02  0.45594000000E+02  0.51100000000E-03 0.  1.
         11   -1    0    0    0    0 -0.00000000000E+00 -0.00000000000E+00 -0.45593999997E+02  0.45594000000E+02  0.51100000000E-03 0. -1.
         23    2    1    2    0    0 -0.17763568394E-14  0.00000000000E+00  0.00000000000E+00  0.91188000000E+02  0.91188000000E+02 0.  0.
    9900012    2    3    3    0    0 -0.10398598378E+02 -0.18597378060E+02  0.30029758690E+02  0.54367085754E+02  0.40000003594E+02 0.  0.
         12    1    3    3    0    0  0.10398598378E+02  0.18597378060E+02 -0.30029758690E+02  0.36820914246E+02  0.00000000000E+00 0. -1.
         11    1    4    4    0    0 -0.18683122905E+02 -0.10791985188E+02  0.14005799324E+02  0.25723305401E+02  0.51100000000E-03 0. -1.
        -11    1    4    4    0    0  0.50696605951E+01  0.44779060447E+01  0.14314499932E+02  0.15832182719E+02  0.51100000000E-03 0.  1.
        -12    1    4    4    0    0  0.32148639316E+01 -0.12283298917E+02  0.17094594334E+01  0.12811597634E+02  0.00000000000E+00 0.  1.
</event>
<event>
 8    1  0.1280925E-006  0.9118800E+02  0.7816164E-02  0.1184000E+00
        -11   -1    0    0    0    0  0.00000000000E+00  0.00000000000E+00  0.45593999997E+02  0.45594000000E+02  0.51100000000E-03 0.  1.
         11   -1    0    0    0    0 -0.00000000000E+00 -0.00000000000E+00 -0.45593999997E+02  0.45594000000E+02  0.51100000000E-03 0. -1.
         23    2    1    2    0    0 -0.35527136788E-14  0.00000000000E+00  0.35527136788E-14  0.91188000000E+02  0.91188000000E+02 0.  0.
    9900012    2    3    3    0    0 -0.17492680520E+02 -0.14963776395E+02 -0.28737937508E+02  0.54367115600E+02  0.40000071633E+02 0.  0.
        -12    1    3    3    0    0  0.17492680520E+02  0.14963776395E+02  0.28737937508E+02  0.36820884400E+02  0.00000000000E+00 0.  1.
         11    1    4    4    0    0  0.23475846309E+01  0.13795798022E+01  0.17383557180E+01  0.32305223870E+01  0.51100000000E-03 0. -1.
        -11    1    4    4    0    0  0.24333601052E+01 -0.18410008681E+02 -0.11861163167E+02  0.22034900793E+02  0.51100000000E-03 0.  1.
         12    1    4    4    0    0 -0.22273625256E+02  0.20666524840E+01 -0.18615130060E+02  0.29101692420E+02  0.00000000000E+00 0. -1.
</event>
<event>
 8    1  0.1280925E-006  0.9118800E+02  0.7816164E-02  0.1184000E+00
        -11   -1    0    0    0    0  0.00000000000E+00  0.00000000000E+00  0.45593999997E+02  0.45594000000E+02  0.51100000000E-03 0. -1.
         11   -1    0    0    0    0 -0.00000000000E+00 -0.00000000000E+00 -0.45593999997E+02  0.45594000000E+02  0.51100000000E-03 0.  1.
         23    2    1    2    0    0  0.35527136788E-14  0.13322676296E-14 -0.35527136788E-14  0.91188000000E+02  0.91188000000E+02 0.  0.
    9900012    2    3    3    0    0  0.20112499149E+02 -0.27060740965E+01  0.30723678624E+02  0.54367083563E+02  0.39999998599E+02 0.  0.
        -12    1    3    3    0    0 -0.20112499149E+02  0.27060740965E+01 -0.30723678624E+02  0.36820916437E+02  0.00000000000E+00 0.  1.
         11    1    4    4    0    0  0.14638179989E+02 -0.92281804012E+01  0.44056594126E+01  0.17856244342E+02  0.51100000000E-03 0. -1.
        -11    1    4    4    0    0 -0.52468567134E+01  0.11913652820E+02  0.16425225291E+02  0.20958355255E+02  0.51100000000E-03 0.  1.
         12    1    4    4    0    0  0.10721175874E+02 -0.53915465156E+01  0.98927939211E+01  0.15552483966E+02  0.00000000000E+00 0. -1.
</event>
<event>
 8    1  0.1280925E-006  0.9118800E+02  0.7816164E-02  0.1184000E+00
        -11   -1    0    0    0    0  0.00000000000E+00  0.00000000000E+00  0.45593999997E+02  0.45594000000E+02  0.51100000000E-03 0. -1.
         11   -1    0    0    0    0 -0.00000000000E+00 -0.00000000000E+00 -0.45593999997E+02  0.45594000000E+02  0.51100000000E-03 0.  1.
         23    2    1    2    0    0  0.00000000000E+00  0.00000000000E+00 -0.17763568394E-14  0.91188000000E+02  0.91188000000E+02 0.  0.
    9900012    2    3    3    0    0 -0.13205155027E+02 -0.32498380314E+02 -0.11191885523E+02  0.54367093658E+02  0.40000021612E+02 0.  0.
         12    1    3    3    0    0  0.13205155027E+02  0.32498380314E+02  0.11191885523E+02  0.36820906342E+02  0.00000000000E+00 0. -1.
         11    1    4    4    0    0 -0.71155780925E+01 -0.12408045271E+02  0.99013649734E+01  0.17396208427E+02  0.51100000000E-03 0. -1.
        -11    1    4    4    0    0  0.29586769030E+01 -0.28405755240E+01  0.36430318672E+01  0.54858289957E+01  0.51100000000E-03 0.  1.
        -12    1    4    4    0    0 -0.90482538371E+01 -0.17249759518E+02 -0.24736282364E+02  0.31485056235E+02  0.00000000000E+00 0.  1.
</event>
<event>
 8    1  0.1280925E-006  0.9118800E+02  0.7816164E-02  0.1184000E+00
        -11   -1    0    0    0    0  0.00000000000E+00  0.00000000000E+00  0.45593999997E+02  0.45594000000E+02  0.51100000000E-03 0. -1.
         11   -1    0    0    0    0 -0.00000000000E+00 -0.00000000000E+00 -0.45593999997E+02  0.45594000000E+02  0.51100000000E-03 0.  1.
         23    2    1    2    0    0  0.17763568394E-14 -0.71054273576E-14  0.00000000000E+00  0.91188000000E+02  0.91188000000E+02 0.  0.
    9900012    2    3    3    0    0 -0.13237541707E+02  0.34258024604E+02 -0.26335740064E+01  0.54367075619E+02  0.39999980489E+02 0.  0.
         12    1    3    3    0    0  0.13237541707E+02 -0.34258024604E+02  0.26335740064E+01  0.36820924381E+02  0.00000000000E+00 0. -1.
         11    1    4    4    0    0 -0.32378324365E+01 -0.82824985220E+01 -0.11574238641E+01  0.89678855321E+01  0.51100000000E-03 0. -1.
        -11    1    4    4    0    0 -0.67067542115E+01  0.28217438296E+02 -0.67609976914E+01  0.29781126004E+02  0.51100000000E-03 0.  1.
        -12    1    4    4    0    0 -0.32929550587E+01  0.14323084830E+02  0.52848475491E+01  0.15618064083E+02  0.00000000000E+00 0.  1.
</event>
<event>
 8    1  0.1280925E-006  0.9118800E+02  0.7816164E-02  0.1184000E+00
        -11   -1    0    0    0    0  0.00000000000E+00  0.00000000000E+00  0.45593999997E+02  0.45594000000E+02  0.51100000000E-03 0. -1.
         11   -1    0    0    0    0 -0.00000000000E+00 -0.00000000000E+00 -0.45593999997E+02  0.45594000000E+02  0.51100000000E-03 0.  1.
         23    2    1    2    0    0  0.17763568394E-14  0.00000000000E+00 -0.71054273576E-14  0.91188000000E+02  0.91188000000E+02 0.  0.
    9900012    2    3    3    0    0  0.14714490427E+02  0.22325454062E+02 -0.25314908560E+02  0.54366990739E+02  0.39999786986E+02 0.  0.
         12    1    3    3    0    0 -0.14714490427E+02 -0.22325454062E+02  0.25314908560E+02  0.36821009261E+02  0.00000000000E+00 0. -1.
         11    1    4    4    0    0  0.17358886785E+02  0.21713537786E+02 -0.64949243131E+01  0.28548077268E+02  0.51100000000E-03 0. -1.
        -11    1    4    4    0    0  0.54592588702E+01 -0.53200745704E+01 -0.76930669292E+01  0.10830049856E+02  0.51100000000E-03 0.  1.
         12    1    4    4    0    0 -0.81036552281E+01  0.59319908466E+01 -0.11126917318E+02  0.14988863615E+02  0.00000000000E+00 0. -1.
</event>
<event>
 8    1  0.1280925E-006  0.9118800E+02  0.7816164E-02  0.1184000E+00
        -11   -1    0    0    0    0  0.00000000000E+00  0.00000000000E+00  0.45593999997E+02  0.45594000000E+02  0.51100000000E-03 0.  1.
         11   -1    0    0    0    0 -0.00000000000E+00 -0.00000000000E+00 -0.45593999997E+02  0.45594000000E+02  0.51100000000E-03 0. -1.
         23    2    1    2    0    0  0.35527136788E-14  0.00000000000E+00  0.00000000000E+00  0.91188000000E+02  0.91188000000E+02 0.  0.
    9900012    2    3    3    0    0 -0.21198450122E+02  0.26671686716E+02 -0.13965169278E+02  0.54367094079E+02  0.40000022572E+02 0.  0.
         12    1    3    3    0    0  0.21198450122E+02 -0.26671686716E+02  0.13965169278E+02  0.36820905921E+02  0.00000000000E+00 0. -1.
         11    1    4    4    0    0 -0.23400175424E+02  0.23494336407E+02 -0.13282413621E+02  0.35720786175E+02  0.51100000000E-03 0. -1.
        -11    1    4    4    0    0 -0.31372022049E+01  0.44656151330E+01 -0.78846967950E+01  0.95891709757E+01  0.51100000000E-03 0.  1.
         12    1    4    4    0    0  0.53389275070E+01 -0.12882648236E+01  0.72019411384E+01  0.90571369285E+01  0.00000000000E+00 0. -1.
</event>
<event>
 8    1  0.1280925E-006  0.9118800E+02  0.7816164E-02  0.1184000E+00
        -11   -1    0    0    0    0  0.00000000000E+00  0.00000000000E+00  0.45593999997E+02  0.45594000000E+02  0.51100000000E-03 0.  1.
         11   -1    0    0    0    0 -0.00000000000E+00 -0.00000000000E+00 -0.45593999997E+02  0.45594000000E+02  0.51100000000E-03 0. -1.
         23    2    1    2    0    0  0.35527136788E-14  0.00000000000E+00  0.35527136788E-14  0.91188000000E+02  0.91188000000E+02 0.  0.
    9900012    2    3    3    0    0 -0.28715696365E+02  0.15364023966E+02 -0.17179764134E+02  0.54366963270E+02  0.39999724367E+02 0.  0.
        -12    1    3    3    0    0  0.28715696365E+02 -0.15364023966E+02  0.17179764134E+02  0.36821036730E+02  0.00000000000E+00 0.  1.
         11    1    4    4    0    0  0.48007439417E+01  0.11863977408E+02 -0.11309105653E+02  0.17079138540E+02  0.51100000000E-03 0. -1.
        -11    1    4    4    0    0 -0.96013826979E+01 -0.15740763656E+01 -0.82074606094E+01  0.12728969952E+02  0.51100000000E-03 0.  1.
         12    1    4    4    0    0 -0.23915057609E+02  0.50741229237E+01  0.23368021287E+01  0.24558854779E+02  0.00000000000E+00 0. -1.
</event>
<event>
 8    1  0.1280925E-006  0.9118800E+02  0.7816164E-02  0.1184000E+00
        -11   -1    0    0    0    0  0.00000000000E+00  0.00000000000E+00  0.45593999997E+02  0.45594000000E+02  0.51100000000E-03 0. -1.
         11   -1    0    0    0    0 -0.00000000000E+00 -0.00000000000E+00 -0.45593999997E+02  0.45594000000E+02  0.51100000000E-03 0.  1.
         23    2    1    2    0    0  0.00000000000E+00  0.17763568394E-14 -0.35527136788E-14  0.91188000000E+02  0.91188000000E+02 0.  0.
    9900012    2    3    3    0    0 -0.29686733721E+02 -0.12566044676E+02  0.17792398612E+02  0.54367121599E+02  0.40000085310E+02 0.  0.
        -12    1    3    3    0    0  0.29686733721E+02  0.12566044676E+02 -0.17792398612E+02  0.36820878401E+02  0.00000000000E+00 0.  1.
         11    1    4    4    0    0 -0.13325674982E+02  0.46429483384E+01  0.96704492147E+01  0.17106962655E+02  0.51100000000E-03 0. -1.
        -11    1    4    4    0    0 -0.19774656125E+02 -0.15710025772E+02 -0.30906938452E+01  0.25443944729E+02  0.51100000000E-03 0.  1.
         12    1    4    4    0    0  0.34135973864E+01 -0.14989672418E+01  0.11212643242E+02  0.11816214216E+02  0.00000000000E+00 0. -1.
</event>
<event>
 8    1  0.1280925E-006  0.9118800E+02  0.7816164E-02  0.1184000E+00
        -11   -1    0    0    0    0  0.00000000000E+00  0.00000000000E+00  0.45593999997E+02  0.45594000000E+02  0.51100000000E-03 0.  1.
         11   -1    0    0    0    0 -0.00000000000E+00 -0.00000000000E+00 -0.45593999997E+02  0.45594000000E+02  0.51100000000E-03 0. -1.
         23    2    1    2    0    0  0.17763568394E-14  0.00000000000E+00  0.00000000000E+00  0.91188000000E+02  0.91188000000E+02 0.  0.
    9900012    2    3    3    0    0 -0.82266536647E+01  0.35694215163E+02  0.37449833082E+01  0.54367085745E+02  0.40000003572E+02 0.  0.
        -12    1    3    3    0    0  0.82266536647E+01 -0.35694215163E+02 -0.37449833082E+01  0.36820914255E+02  0.00000000000E+00 0.  1.
         11    1    4    4    0    0  0.76586002063E+01  0.10855006988E+00  0.90198091171E+01  0.11833127102E+02  0.51100000000E-03 0. -1.
        -11    1    4    4    0    0 -0.51501524541E+01  0.19463941701E+02  0.48050387620E+01  0.20699214831E+02  0.51100000000E-03 0.  1.
         12    1    4    4    0    0 -0.10735101417E+02  0.16121723392E+02 -0.10079864571E+02  0.21834743812E+02  0.00000000000E+00 0. -1.
</event>
<event>
 8    1  0.1280925E-006  0.9118800E+02  0.7816164E-02  0.1184000E+00
        -11   -1    0    0    0    0  0.00000000000E+00  0.00000000000E+00  0.45593999997E+02  0.45594000000E+02  0.51100000000E-03 0. -1.
         11   -1    0    0    0    0 -0.00000000000E+00 -0.00000000000E+00 -0.45593999997E+02  0.45594000000E+02  0.51100000000E-03 0.  1.
         23    2    1    2    0    0  0.00000000000E+00  0.00000000000E+00  0.35527136788E-14  0.91188000000E+02  0.91188000000E+02 0.  0.
    9900012    2    3    3    0    0  0.27973904751E+02 -0.14989667204E+02  0.18669510556E+02  0.54367080752E+02  0.39999992190E+02 0.  0.
        -12    1    3    3    0    0 -0.27973904751E+02  0.14989667204E+02 -0.18669510556E+02  0.36820919248E+02  0.00000000000E+00 0.  1.
         11    1    4    4    0    0  0.38818120779E+01 -0.11968057585E+02 -0.39229857854E+01  0.13179252069E+02  0.51100000000E-03 0. -1.
        -11    1    4    4    0    0  0.45485024801E+01  0.99211301467E+01  0.58600863472E+01  0.12387829126E+02  0.51100000000E-03 0.  1.
         12    1    4    4    0    0  0.19543590193E+02 -0.12942739765E+02  0.16732409994E+02  0.28799999557E+02  0.00000000000E+00 0. -1.
</event>
<event>
 8    1  0.1280925E-006  0.9118800E+02  0.7816164E-02  0.1184000E+00
        -11   -1    0    0    0    0  0.00000000000E+00  0.00000000000E+00  0.45593999997E+02  0.45594000000E+02  0.51100000000E-03 0. -1.
         11   -1    0    0    0    0 -0.00000000000E+00 -0.00000000000E+00 -0.45593999997E+02  0.45594000000E+02  0.51100000000E-03 0.  1.
         23    2    1    2    0    0 -0.35527136788E-14  0.00000000000E+00 -0.35527136788E-14  0.91188000000E+02  0.91188000000E+02 0.  0.
    9900012    2    3    3    0    0  0.25565240564E+02  0.11085700841E+02 -0.24068777162E+02  0.54367077656E+02  0.39999985132E+02 0.  0.
        -12    1    3    3    0    0 -0.25565240564E+02 -0.11085700841E+02  0.24068777162E+02  0.36820922344E+02  0.00000000000E+00 0.  1.
         11    1    4    4    0    0  0.25125893933E+02  0.30076679485E+01 -0.13940824210E+02  0.28891230371E+02  0.51100000000E-03 0. -1.
        -11    1    4    4    0    0 -0.35309815711E+01  0.99001873169E+01  0.35679809598E+01  0.11100091358E+02  0.51100000000E-03 0.  1.
        -12    1    4    4    0    0  0.39703282019E+01 -0.18221544245E+01 -0.13695933911E+02  0.14375755927E+02  0.00000000000E+00 0.  1.
</event>
<event>
 8    1  0.1280925E-006  0.9118800E+02  0.7816164E-02  0.1184000E+00
        -11   -1    0    0    0    0  0.00000000000E+00  0.00000000000E+00  0.45593999997E+02  0.45594000000E+02  0.51100000000E-03 0.  1.
         11   -1    0    0    0    0 -0.00000000000E+00 -0.00000000000E+00 -0.45593999997E+02  0.45594000000E+02  0.51100000000E-03 0. -1.
         23    2    1    2    0    0  0.00000000000E+00  0.35527136788E-14  0.00000000000E+00  0.91188000000E+02  0.91188000000E+02 0.  0.
    9900012    2    3    3    0    0  0.13228304125E+02 -0.25866440705E+02  0.22621197320E+02  0.54367090818E+02  0.40000015138E+02 0.  0.
         12    1    3    3    0    0 -0.13228304125E+02  0.25866440705E+02 -0.22621197320E+02  0.36820909182E+02  0.00000000000E+00 0. -1.
         11    1    4    4    0    0  0.11405887281E+01  0.50315453736E+01  0.24238303122E+00  0.51648950897E+01  0.51100000000E-03 0. -1.
        -11    1    4    4    0    0  0.34950392483E+01 -0.34300287930E+02  0.18968164534E+02  0.39351192072E+02  0.51100000000E-03 0.  1.
        -12    1    4    4    0    0  0.85926761483E+01  0.34023018516E+01  0.34106497550E+01  0.98510036560E+01  0.00000000000E+00 0.  1.
</event>
<event>
 8    1  0.1280925E-006  0.9118800E+02  0.7816164E-02  0.1184000E+00
        -11   -1    0    0    0    0  0.00000000000E+00  0.00000000000E+00  0.45593999997E+02  0.45594000000E+02  0.51100000000E-03 0.  1.
         11   -1    0    0    0    0 -0.00000000000E+00 -0.00000000000E+00 -0.45593999997E+02  0.45594000000E+02  0.51100000000E-03 0. -1.
         23    2    1    2    0    0  0.00000000000E+00  0.97144514655E-16  0.00000000000E+00  0.91188000000E+02  0.91188000000E+02 0.  0.
    9900012    2    3    3    0    0 -0.31099172904E+02  0.11673405508E+00 -0.19713190227E+02  0.54367054180E+02  0.39999931614E+02 0.  0.
        -12    1    3    3    0    0  0.31099172904E+02 -0.11673405508E+00  0.19713190227E+02  0.36820945820E+02  0.00000000000E+00 0.  1.
         11    1    4    4    0    0 -0.50866633877E+01  0.84027656215E+00 -0.14292027795E+02  0.15193494262E+02  0.51100000000E-03 0. -1.
        -11    1    4    4    0    0 -0.26641095724E+02  0.38737005480E+01 -0.13301959816E+02  0.30028247909E+02  0.51100000000E-03 0.  1.
        -12    1    4    4    0    0  0.62858620716E+00 -0.45972430551E+01  0.78807973845E+01  0.91453120090E+01  0.00000000000E+00 0.  1.
</event>
<event>
 8    1  0.1280925E-006  0.9118800E+02  0.7816164E-02  0.1184000E+00
        -11   -1    0    0    0    0  0.00000000000E+00  0.00000000000E+00  0.45593999997E+02  0.45594000000E+02  0.51100000000E-03 0. -1.
         11   -1    0    0    0    0 -0.00000000000E+00 -0.00000000000E+00 -0.45593999997E+02  0.45594000000E+02  0.51100000000E-03 0.  1.
         23    2    1    2    0    0  0.00000000000E+00 -0.17763568394E-14  0.00000000000E+00  0.91188000000E+02  0.91188000000E+02 0.  0.
    9900012    2    3    3    0    0  0.10106549031E+02 -0.14478960422E+02  0.32310956788E+02  0.54367074472E+02  0.39999977873E+02 0.  0.
        -12    1    3    3    0    0 -0.10106549031E+02  0.14478960422E+02 -0.32310956788E+02  0.36820925528E+02  0.00000000000E+00 0.  1.
         11    1    4    4    0    0  0.82863764949E+01 -0.57130129218E+01  0.30024071843E-01  0.10064961687E+02  0.51100000000E-03 0. -1.
        -11    1    4    4    0    0 -0.10725110019E+02 -0.64913261659E+01  0.38035653730E+01  0.13100855320E+02  0.51100000000E-03 0.  1.
        -12    1    4    4    0    0  0.12545282554E+02 -0.22746213343E+01  0.28477367343E+02  0.31201257465E+02  0.00000000000E+00 0.  1.
</event>
<event>
 8    1  0.1280925E-006  0.9118800E+02  0.7816164E-02  0.1184000E+00
        -11   -1    0    0    0    0  0.00000000000E+00  0.00000000000E+00  0.45593999997E+02  0.45594000000E+02  0.51100000000E-03 0.  1.
         11   -1    0    0    0    0 -0.00000000000E+00 -0.00000000000E+00 -0.45593999997E+02  0.45594000000E+02  0.51100000000E-03 0. -1.
         23    2    1    2    0    0  0.00000000000E+00  0.35527136788E-14  0.88817841970E-15  0.91188000000E+02  0.91188000000E+02 0.  0.
    9900012    2    3    3    0    0 -0.22678563145E+02  0.28715159836E+02  0.41112197007E+01  0.54367085316E+02  0.40000002595E+02 0.  0.
        -12    1    3    3    0    0  0.22678563145E+02 -0.28715159836E+02 -0.41112197007E+01  0.36820914684E+02  0.00000000000E+00 0.  1.
         11    1    4    4    0    0 -0.14756940189E+02  0.16649352336E+02 -0.12954626125E+02  0.25744718978E+02  0.51100000000E-03 0. -1.
        -11    1    4    4    0    0 -0.13170574338E+02  0.48094885281E+01  0.10272557209E+02  0.17381617881E+02  0.51100000000E-03 0.  1.
         12    1    4    4    0    0  0.52489513820E+01  0.72563189723E+01  0.67932886170E+01  0.11240748457E+02  0.00000000000E+00 0. -1.
</event>
<event>
 8    1  0.1280925E-006  0.9118800E+02  0.7816164E-02  0.1184000E+00
        -11   -1    0    0    0    0  0.00000000000E+00  0.00000000000E+00  0.45593999997E+02  0.45594000000E+02  0.51100000000E-03 0.  1.
         11   -1    0    0    0    0 -0.00000000000E+00 -0.00000000000E+00 -0.45593999997E+02  0.45594000000E+02  0.51100000000E-03 0. -1.
         23    2    1    2    0    0  0.00000000000E+00  0.22204460493E-15  0.35527136788E-14  0.91188000000E+02  0.91188000000E+02 0.  0.
    9900012    2    3    3    0    0  0.18238499406E+02 -0.15847016077E+01  0.31947303219E+02  0.54367023333E+02  0.39999861292E+02 0.  0.
         12    1    3    3    0    0 -0.18238499406E+02  0.15847016077E+01 -0.31947303219E+02  0.36820976667E+02  0.00000000000E+00 0. -1.
         11    1    4    4    0    0  0.16363056604E+02  0.84961816331E+00  0.86978184854E+01  0.18550566544E+02  0.51100000000E-03 0. -1.
        -11    1    4    4    0    0  0.14232174047E+02 -0.20775490764E+00  0.15583130089E+02  0.21105257256E+02  0.51100000000E-03 0.  1.
         12    1    4    4    0    0 -0.12356731245E+02 -0.22265648634E+01  0.76663546444E+01  0.14711199533E+02  0.00000000000E+00 0. -1.
</event>
<event>
 8    1  0.1280925E-006  0.9118800E+02  0.7816164E-02  0.1184000E+00
        -11   -1    0    0    0    0  0.00000000000E+00  0.00000000000E+00  0.45593999997E+02  0.45594000000E+02  0.51100000000E-03 0.  1.
         11   -1    0    0    0    0 -0.00000000000E+00 -0.00000000000E+00 -0.45593999997E+02  0.45594000000E+02  0.51100000000E-03 0. -1.
         23    2    1    2    0    0  0.00000000000E+00  0.00000000000E+00  0.00000000000E+00  0.91188000000E+02  0.91188000000E+02 0.  0.
    9900012    2    3    3    0    0  0.14998687894E+01 -0.25664104858E+02  0.26360654681E+02  0.54367082035E+02  0.39999995116E+02 0.  0.
        -12    1    3    3    0    0 -0.14998687894E+01  0.25664104858E+02 -0.26360654681E+02  0.36820917965E+02  0.00000000000E+00 0.  1.
         11    1    4    4    0    0  0.53383567659E+01  0.31835943282E+01  0.18876504851E+01  0.64958871929E+01  0.51100000000E-03 0. -1.
        -11    1    4    4    0    0  0.10482918822E+02 -0.39854278635E+01  0.12465360075E+02  0.16767838989E+02  0.51100000000E-03 0.  1.
         12    1    4    4    0    0 -0.14321406799E+02 -0.24862271323E+02  0.12007644120E+02  0.31103355854E+02  0.00000000000E+00 0. -1.
</event>
<event>
 8    1  0.1280925E-006  0.9118800E+02  0.7816164E-02  0.1184000E+00
        -11   -1    0    0    0    0  0.00000000000E+00  0.00000000000E+00  0.45593999997E+02  0.45594000000E+02  0.51100000000E-03 0.  1.
         11   -1    0    0    0    0 -0.00000000000E+00 -0.00000000000E+00 -0.45593999997E+02  0.45594000000E+02  0.51100000000E-03 0. -1.
         23    2    1    2    0    0  0.00000000000E+00  0.00000000000E+00  0.44408920985E-15  0.91188000000E+02  0.91188000000E+02 0.  0.
    9900012    2    3    3    0    0 -0.35481122485E+02 -0.96790692241E+01  0.17845946866E+01  0.54367092732E+02  0.40000019502E+02 0.  0.
         12    1    3    3    0    0  0.35481122485E+02  0.96790692241E+01 -0.17845946866E+01  0.36820907268E+02  0.00000000000E+00 0. -1.
         11    1    4    4    0    0 -0.34213056817E+02 -0.60597442270E+00  0.17313708407E+01  0.34262196471E+02  0.51100000000E-03 0. -1.
        -11    1    4    4    0    0 -0.54062737703E+01 -0.12840793093E+02 -0.21364436226E+01  0.14095323869E+02  0.51100000000E-03 0.  1.
        -12    1    4    4    0    0  0.41382081026E+01  0.37676982919E+01  0.21896674686E+01  0.60095723926E+01  0.00000000000E+00 0.  1.
</event>
<event>
 8    1  0.1280925E-006  0.9118800E+02  0.7816164E-02  0.1184000E+00
        -11   -1    0    0    0    0  0.00000000000E+00  0.00000000000E+00  0.45593999997E+02  0.45594000000E+02  0.51100000000E-03 0. -1.
         11   -1    0    0    0    0 -0.00000000000E+00 -0.00000000000E+00 -0.45593999997E+02  0.45594000000E+02  0.51100000000E-03 0.  1.
         23    2    1    2    0    0  0.00000000000E+00 -0.66613381478E-15 -0.71054273576E-14  0.91188000000E+02  0.91188000000E+02 0.  0.
    9900012    2    3    3    0    0 -0.83938646111E+01  0.18131902459E+01 -0.35805516414E+02  0.54367087088E+02  0.40000006635E+02 0.  0.
         12    1    3    3    0    0  0.83938646111E+01 -0.18131902459E+01  0.35805516414E+02  0.36820912912E+02  0.00000000000E+00 0. -1.
         11    1    4    4    0    0  0.73235125637E+01 -0.41724679662E+01 -0.80567937570E+01  0.11659985039E+02  0.51100000000E-03 0. -1.
        -11    1    4    4    0    0 -0.12805070704E+02  0.28532749378E+01 -0.33246643592E+02  0.35741437073E+02  0.51100000000E-03 0.  1.
         12    1    4    4    0    0 -0.29123064711E+01  0.31323832743E+01  0.54979209353E+01  0.69656649769E+01  0.00000000000E+00 0. -1.
</event>
<event>
 8    1  0.1280925E-006  0.9118800E+02  0.7816164E-02  0.1184000E+00
        -11   -1    0    0    0    0  0.00000000000E+00  0.00000000000E+00  0.45593999997E+02  0.45594000000E+02  0.51100000000E-03 0.  1.
         11   -1    0    0    0    0 -0.00000000000E+00 -0.00000000000E+00 -0.45593999997E+02  0.45594000000E+02  0.51100000000E-03 0. -1.
         23    2    1    2    0    0 -0.35527136788E-14 -0.17763568394E-14  0.71054273576E-14  0.91188000000E+02  0.91188000000E+02 0.  0.
    9900012    2    3    3    0    0  0.26884977387E+02 -0.74887109528E+01 -0.24018678961E+02  0.54367085565E+02  0.40000003162E+02 0.  0.
        -12    1    3    3    0    0 -0.26884977387E+02  0.74887109528E+01  0.24018678961E+02  0.36820914435E+02  0.00000000000E+00 0.  1.
         11    1    4    4    0    0  0.91986892229E+00 -0.25322631030E+00 -0.11710608944E+02  0.11749410389E+02  0.51100000000E-03 0. -1.
        -11    1    4    4    0    0  0.11880211115E+02 -0.18411549828E+02 -0.22800337171E+01  0.22030050776E+02  0.51100000000E-03 0.  1.
        -12    1    4    4    0    0  0.14084897350E+02  0.11176065185E+02 -0.10028036300E+02  0.20587624399E+02  0.00000000000E+00 0.  1.
</event>
<event>
 8    1  0.1280925E-006  0.9118800E+02  0.7816164E-02  0.1184000E+00
        -11   -1    0    0    0    0  0.00000000000E+00  0.00000000000E+00  0.45593999997E+02  0.45594000000E+02  0.51100000000E-03 0. -1.
         11   -1    0    0    0    0 -0.00000000000E+00 -0.00000000000E+00 -0.45593999997E+02  0.45594000000E+02  0.51100000000E-03 0.  1.
         23    2    1    2    0    0 -0.35527136788E-14  0.00000000000E+00  0.00000000000E+00  0.91188000000E+02  0.91188000000E+02 0.  0.
    9900012    2    3    3    0    0  0.22057204285E+02 -0.33269404633E+01 -0.29295055333E+02  0.54366958995E+02  0.39999714620E+02 0.  0.
         12    1    3    3    0    0 -0.22057204285E+02  0.33269404633E+01  0.29295055333E+02  0.36821041005E+02  0.00000000000E+00 0. -1.
         11    1    4    4    0    0 -0.40558013475E-01 -0.90296539136E+01 -0.12614405694E+02  0.15513204892E+02  0.51100000000E-03 0. -1.
        -11    1    4    4    0    0  0.71716483884E+01 -0.45910439883E+01 -0.18761275668E+02  0.20603293195E+02  0.51100000000E-03 0.  1.
         12    1    4    4    0    0  0.14926113911E+02  0.10293757439E+02  0.20806260293E+01  0.18250460908E+02  0.00000000000E+00 0. -1.
</event>
<event>
 8    1  0.1280925E-006  0.9118800E+02  0.7816164E-02  0.1184000E+00
        -11   -1    0    0    0    0  0.00000000000E+00  0.00000000000E+00  0.45593999997E+02  0.45594000000E+02  0.51100000000E-03 0. -1.
         11   -1    0    0    0    0 -0.00000000000E+00 -0.00000000000E+00 -0.45593999997E+02  0.45594000000E+02  0.51100000000E-03 0.  1.
         23    2    1    2    0    0  0.71054273576E-14  0.44408920985E-15  0.00000000000E+00  0.91188000000E+02  0.91188000000E+02 0.  0.
    9900012    2    3    3    0    0 -0.36774450192E+02 -0.12932392804E+01 -0.13246260059E+01  0.54366983055E+02  0.39999769470E+02 0.  0.
         12    1    3    3    0    0  0.36774450192E+02  0.12932392804E+01  0.13246260059E+01  0.36821016945E+02  0.00000000000E+00 0. -1.
         11    1    4    4    0    0  0.35952891671E+01 -0.25238356692E+01 -0.34188488933E+01  0.55663613516E+01  0.51100000000E-03 0. -1.
        -11    1    4    4    0    0  0.36752279502E+01 -0.26172905485E+01 -0.31004395255E+00  0.45225698242E+01  0.51100000000E-03 0.  1.
        -12    1    4    4    0    0 -0.44044967310E+02  0.38478869373E+01  0.24042668400E+01  0.44278051879E+02  0.00000000000E+00 0.  1.
</event>
<event>
 8    1  0.1280925E-006  0.9118800E+02  0.7816164E-02  0.1184000E+00
        -11   -1    0    0    0    0  0.00000000000E+00  0.00000000000E+00  0.45593999997E+02  0.45594000000E+02  0.51100000000E-03 0.  1.
         11   -1    0    0    0    0 -0.00000000000E+00 -0.00000000000E+00 -0.45593999997E+02  0.45594000000E+02  0.51100000000E-03 0. -1.
         23    2    1    2    0    0  0.00000000000E+00  0.00000000000E+00  0.00000000000E+00  0.91188000000E+02  0.91188000000E+02 0.  0.
    9900012    2    3    3    0    0  0.21094482587E+02 -0.20750271957E+02 -0.21914117950E+02  0.54367088178E+02  0.40000009119E+02 0.  0.
        -12    1    3    3    0    0 -0.21094482587E+02  0.20750271957E+02  0.21914117950E+02  0.36820911822E+02  0.00000000000E+00 0.  1.
         11    1    4    4    0    0  0.10563818383E+02 -0.10356460369E+02  0.45287678253E+01  0.15471272362E+02  0.51100000000E-03 0. -1.
        -11    1    4    4    0    0  0.42064323956E+01 -0.12880024495E+02 -0.22104674308E+01  0.13728629612E+02  0.51100000000E-03 0.  1.
        -12    1    4    4    0    0  0.63242318082E+01  0.24862129079E+01 -0.24232418345E+02  0.25167186204E+02  0.00000000000E+00 0.  1.
</event>
<event>
 8    1  0.1280925E-006  0.9118800E+02  0.7816164E-02  0.1184000E+00
        -11   -1    0    0    0    0  0.00000000000E+00  0.00000000000E+00  0.45593999997E+02  0.45594000000E+02  0.51100000000E-03 0.  1.
         11   -1    0    0    0    0 -0.00000000000E+00 -0.00000000000E+00 -0.45593999997E+02  0.45594000000E+02  0.51100000000E-03 0. -1.
         23    2    1    2    0    0  0.00000000000E+00 -0.17763568394E-14  0.00000000000E+00  0.91188000000E+02  0.91188000000E+02 0.  0.
    9900012    2    3    3    0    0 -0.34166855201E+02 -0.73963789608E+01  0.11562804315E+02  0.54367097517E+02  0.40000030410E+02 0.  0.
        -12    1    3    3    0    0  0.34166855201E+02  0.73963789608E+01 -0.11562804315E+02  0.36820902483E+02  0.00000000000E+00 0.  1.
         11    1    4    4    0    0 -0.10888951817E+02  0.10066432756E+02  0.34342565415E+01  0.15221578708E+02  0.51100000000E-03 0. -1.
        -11    1    4    4    0    0  0.37221655155E+01 -0.11475466860E+01  0.64741286758E+01  0.75555093735E+01  0.51100000000E-03 0.  1.
         12    1    4    4    0    0 -0.27000068899E+02 -0.16315265031E+02  0.16544190973E+01  0.31590009435E+02  0.00000000000E+00 0. -1.
</event>
<event>
 8    1  0.1280925E-006  0.9118800E+02  0.7816164E-02  0.1184000E+00
        -11   -1    0    0    0    0  0.00000000000E+00  0.00000000000E+00  0.45593999997E+02  0.45594000000E+02  0.51100000000E-03 0.  1.
         11   -1    0    0    0    0 -0.00000000000E+00 -0.00000000000E+00 -0.45593999997E+02  0.45594000000E+02  0.51100000000E-03 0. -1.
         23    2    1    2    0    0  0.00000000000E+00  0.00000000000E+00  0.00000000000E+00  0.91188000000E+02  0.91188000000E+02 0.  0.
    9900012    2    3    3    0    0  0.84039512331E+01  0.30569356271E+01 -0.35718424994E+02  0.54367120926E+02  0.40000083775E+02 0.  0.
        -12    1    3    3    0    0 -0.84039512331E+01 -0.30569356271E+01  0.35718424994E+02  0.36820879074E+02  0.00000000000E+00 0.  1.
         11    1    4    4    0    0 -0.83180719559E+01  0.15819040023E+01 -0.20796528123E+02  0.22454138228E+02  0.51100000000E-03 0.  1.
        -11    1    4    4    0    0  0.21459289211E+01  0.96105757155E+01 -0.11003695554E+02  0.14766498997E+02  0.51100000000E-03 0. -1.
        -12    1    4    4    0    0  0.14576094268E+02 -0.81355440908E+01 -0.39182013166E+01  0.17146483701E+02  0.00000000000E+00 0.  1.
</event>
<event>
 8    1  0.1280925E-006  0.9118800E+02  0.7816164E-02  0.1184000E+00
        -11   -1    0    0    0    0  0.00000000000E+00  0.00000000000E+00  0.45593999997E+02  0.45594000000E+02  0.51100000000E-03 0.  1.
         11   -1    0    0    0    0 -0.00000000000E+00 -0.00000000000E+00 -0.45593999997E+02  0.45594000000E+02  0.51100000000E-03 0. -1.
         23    2    1    2    0    0  0.00000000000E+00  0.35527136788E-14  0.00000000000E+00  0.91188000000E+02  0.91188000000E+02 0.  0.
    9900012    2    3    3    0    0  0.26994904650E+02 -0.23644771882E+02  0.82449869013E+01  0.54367083072E+02  0.39999997480E+02 0.  0.
         12    1    3    3    0    0 -0.26994904650E+02  0.23644771882E+02 -0.82449869013E+01  0.36820916928E+02  0.00000000000E+00 0. -1.
         11    1    4    4    0    0  0.11478100459E+02  0.78053491862E+01 -0.47253710979E+01  0.14662857782E+02  0.51100000000E-03 0. -1.
        -11    1    4    4    0    0  0.11502334093E+02 -0.31002205100E+02  0.95700854718E+01  0.34424220352E+02  0.51100000000E-03 0.  1.
        -12    1    4    4    0    0  0.40144700982E+01 -0.44791596779E+00  0.34002725274E+01  0.52800049379E+01  0.00000000000E+00 0.  1.
</event>
<event>
 8    1  0.1280925E-006  0.9118800E+02  0.7816164E-02  0.1184000E+00
        -11   -1    0    0    0    0  0.00000000000E+00  0.00000000000E+00  0.45593999997E+02  0.45594000000E+02  0.51100000000E-03 0. -1.
         11   -1    0    0    0    0 -0.00000000000E+00 -0.00000000000E+00 -0.45593999997E+02  0.45594000000E+02  0.51100000000E-03 0.  1.
         23    2    1    2    0    0  0.00000000000E+00 -0.35527136788E-14  0.00000000000E+00  0.91188000000E+02  0.91188000000E+02 0.  0.
    9900012    2    3    3    0    0  0.27331771257E+02 -0.19401202104E+02 -0.15242912811E+02  0.54367098950E+02  0.40000033677E+02 0.  0.
         12    1    3    3    0    0 -0.27331771257E+02  0.19401202104E+02  0.15242912811E+02  0.36820901050E+02  0.00000000000E+00 0. -1.
         11    1    4    4    0    0 -0.87715490150E+01 -0.48196476813E+00  0.82551209927E+00  0.88234818891E+01  0.51100000000E-03 0. -1.
        -11    1    4    4    0    0  0.20938518347E+02 -0.82765122409E+01 -0.26549596828E+01  0.22670928887E+02  0.51100000000E-03 0.  1.
         12    1    4    4    0    0  0.15164801925E+02 -0.10642725095E+02 -0.13413465228E+02  0.22872688174E+02  0.00000000000E+00 0. -1.
</event>
<event>
 8    1  0.1280925E-006  0.9118800E+02  0.7816164E-02  0.1184000E+00
        -11   -1    0    0    0    0  0.00000000000E+00  0.00000000000E+00  0.45593999997E+02  0.45594000000E+02  0.51100000000E-03 0.  1.
         11   -1    0    0    0    0 -0.00000000000E+00 -0.00000000000E+00 -0.45593999997E+02  0.45594000000E+02  0.51100000000E-03 0. -1.
         23    2    1    2    0    0  0.00000000000E+00  0.17763568394E-14  0.77715611724E-15  0.91188000000E+02  0.91188000000E+02 0.  0.
    9900012    2    3    3    0    0  0.34968512067E+02  0.11498224111E+02 -0.87707129751E+00  0.54367146561E+02  0.40000142215E+02 0.  0.
         12    1    3    3    0    0 -0.34968512067E+02 -0.11498224111E+02  0.87707129751E+00  0.36820853439E+02  0.00000000000E+00 0. -1.
         11    1    4    4    0    0  0.52874232558E+01 -0.46264765950E+01 -0.75404332768E+00  0.70660959497E+01  0.51100000000E-03 0. -1.
        -11    1    4    4    0    0  0.17547699156E+02  0.18059675546E+02  0.13814249749E+02  0.28721196404E+02  0.51100000000E-03 0.  1.
        -12    1    4    4    0    0  0.12133389656E+02 -0.19349748393E+01 -0.13937277718E+02  0.18579854207E+02  0.00000000000E+00 0.  1.
</event>
<event>
 8    1  0.1280925E-006  0.9118800E+02  0.7816164E-02  0.1184000E+00
        -11   -1    0    0    0    0  0.00000000000E+00  0.00000000000E+00  0.45593999997E+02  0.45594000000E+02  0.51100000000E-03 0.  1.
         11   -1    0    0    0    0 -0.00000000000E+00 -0.00000000000E+00 -0.45593999997E+02  0.45594000000E+02  0.51100000000E-03 0. -1.
         23    2    1    2    0    0  0.00000000000E+00  0.00000000000E+00  0.00000000000E+00  0.91188000000E+02  0.91188000000E+02 0.  0.
    9900012    2    3    3    0    0 -0.16077451112E+02 -0.28802998855E+02  0.16360836070E+02  0.54367161685E+02  0.40000176694E+02 0.  0.
        -12    1    3    3    0    0  0.16077451112E+02  0.28802998855E+02 -0.16360836070E+02  0.36820838315E+02  0.00000000000E+00 0.  1.
         11    1    4    4    0    0 -0.27161221240E+02 -0.26083249755E+02  0.47180043379E+01  0.37951645843E+02  0.51100000000E-03 0. -1.
        -11    1    4    4    0    0  0.52114114385E+01 -0.61682350177E+00  0.63268568679E+01  0.82199999088E+01  0.51100000000E-03 0.  1.
         12    1    4    4    0    0  0.58723586897E+01 -0.21029255980E+01  0.53159748646E+01  0.81955159333E+01  0.00000000000E+00 0. -1.
</event>
<event>
 8    1  0.1280925E-006  0.9118800E+02  0.7816164E-02  0.1184000E+00
        -11   -1    0    0    0    0  0.00000000000E+00  0.00000000000E+00  0.45593999997E+02  0.45594000000E+02  0.51100000000E-03 0.  1.
         11   -1    0    0    0    0 -0.00000000000E+00 -0.00000000000E+00 -0.45593999997E+02  0.45594000000E+02  0.51100000000E-03 0. -1.
         23    2    1    2    0    0  0.35527136788E-14 -0.71054273576E-14 -0.17763568394E-14  0.91188000000E+02  0.91188000000E+02 0.  0.
    9900012    2    3    3    0    0  0.14623254290E+02 -0.32390880743E+02 -0.96317690309E+01  0.54367086160E+02  0.40000004519E+02 0.  0.
         12    1    3    3    0    0 -0.14623254290E+02  0.32390880743E+02  0.96317690309E+01  0.36820913840E+02  0.00000000000E+00 0. -1.
         11    1    4    4    0    0 -0.44299411813E+01 -0.15001162570E+02 -0.61418437568E+01  0.16804210850E+02  0.51100000000E-03 0.  1.
        -11    1    4    4    0    0  0.10390587269E+02 -0.22218616963E+02  0.43623578745E+01  0.24913077089E+02  0.51100000000E-03 0. -1.
         12    1    4    4    0    0  0.86626082018E+01  0.48288987892E+01 -0.78522831486E+01  0.12649798221E+02  0.00000000000E+00 0. -1.
</event>
<event>
 8    1  0.1280925E-006  0.9118800E+02  0.7816164E-02  0.1184000E+00
        -11   -1    0    0    0    0  0.00000000000E+00  0.00000000000E+00  0.45593999997E+02  0.45594000000E+02  0.51100000000E-03 0.  1.
         11   -1    0    0    0    0 -0.00000000000E+00 -0.00000000000E+00 -0.45593999997E+02  0.45594000000E+02  0.51100000000E-03 0. -1.
         23    2    1    2    0    0  0.71054273576E-14  0.17763568394E-14  0.00000000000E+00  0.91188000000E+02  0.91188000000E+02 0.  0.
    9900012    2    3    3    0    0 -0.35783916132E+02 -0.85411431781E+01 -0.15268811112E+01  0.54367202257E+02  0.40000269183E+02 0.  0.
         12    1    3    3    0    0  0.35783916132E+02  0.85411431781E+01  0.15268811112E+01  0.36820797743E+02  0.00000000000E+00 0. -1.
         11    1    4    4    0    0 -0.16646195946E+02 -0.12614043051E+02 -0.19706029656E+01  0.20978398363E+02  0.51100000000E-03 0. -1.
        -11    1    4    4    0    0  0.42280139773E+01 -0.62004958629E+01  0.21518189229E+01  0.78072130800E+01  0.51100000000E-03 0.  1.
        -12    1    4    4    0    0 -0.23365734163E+02  0.10273395736E+02 -0.17080970686E+01  0.25581590813E+02  0.00000000000E+00 0.  1.
</event>
<event>
 8    1  0.1280925E-006  0.9118800E+02  0.7816164E-02  0.1184000E+00
        -11   -1    0    0    0    0  0.00000000000E+00  0.00000000000E+00  0.45593999997E+02  0.45594000000E+02  0.51100000000E-03 0. -1.
         11   -1    0    0    0    0 -0.00000000000E+00 -0.00000000000E+00 -0.45593999997E+02  0.45594000000E+02  0.51100000000E-03 0.  1.
         23    2    1    2    0    0  0.00000000000E+00 -0.88817841970E-15  0.35527136788E-14  0.91188000000E+02  0.91188000000E+02 0.  0.
    9900012    2    3    3    0    0  0.30042545965E+02 -0.40723513062E+01  0.20895962764E+02  0.54367083756E+02  0.39999999038E+02 0.  0.
        -12    1    3    3    0    0 -0.30042545965E+02  0.40723513062E+01 -0.20895962764E+02  0.36820916244E+02  0.00000000000E+00 0.  1.
         11    1    4    4    0    0  0.17462179776E+02  0.84113010121E+01  0.16696999607E+02  0.25582562486E+02  0.51100000000E-03 0. -1.
        -11    1    4    4    0    0  0.64589258568E+01  0.57688232138E+01 -0.13137479094E+01  0.87591653898E+01  0.51100000000E-03 0.  1.
        -12    1    4    4    0    0  0.61214403327E+01 -0.18252475532E+02  0.55127110669E+01  0.20025355879E+02  0.00000000000E+00 0.  1.
</event>
<event>
 8    1  0.1280925E-006  0.9118800E+02  0.7816164E-02  0.1184000E+00
        -11   -1    0    0    0    0  0.00000000000E+00  0.00000000000E+00  0.45593999997E+02  0.45594000000E+02  0.51100000000E-03 0. -1.
         11   -1    0    0    0    0 -0.00000000000E+00 -0.00000000000E+00 -0.45593999997E+02  0.45594000000E+02  0.51100000000E-03 0.  1.
         23    2    1    2    0    0  0.00000000000E+00  0.71054273576E-14  0.17763568394E-14  0.91188000000E+02  0.91188000000E+02 0.  0.
    9900012    2    3    3    0    0 -0.23470136725E+01 -0.36046013682E+02  0.71383177921E+01  0.54367093487E+02  0.40000021222E+02 0.  0.
        -12    1    3    3    0    0  0.23470136725E+01  0.36046013682E+02 -0.71383177921E+01  0.36820906513E+02  0.00000000000E+00 0.  1.
         11    1    4    4    0    0 -0.26992545946E+01 -0.25612127318E+01 -0.82842082696E+01  0.90815138022E+01  0.51100000000E-03 0.  1.
        -11    1    4    4    0    0 -0.77199859843E+01 -0.10803666554E+02  0.16508855833E+02  0.21186309631E+02  0.51100000000E-03 0. -1.
        -12    1    4    4    0    0  0.80722269065E+01 -0.22681134396E+02 -0.10863297713E+01  0.24099270053E+02  0.00000000000E+00 0.  1.
</event>
<event>
 8    1  0.1280925E-006  0.9118800E+02  0.7816164E-02  0.1184000E+00
        -11   -1    0    0    0    0  0.00000000000E+00  0.00000000000E+00  0.45593999997E+02  0.45594000000E+02  0.51100000000E-03 0.  1.
         11   -1    0    0    0    0 -0.00000000000E+00 -0.00000000000E+00 -0.45593999997E+02  0.45594000000E+02  0.51100000000E-03 0. -1.
         23    2    1    2    0    0  0.00000000000E+00  0.00000000000E+00  0.00000000000E+00  0.91188000000E+02  0.91188000000E+02 0.  0.
    9900012    2    3    3    0    0 -0.10060662295E+01  0.35146910016E+02  0.10929877108E+02  0.54367086560E+02  0.40000005432E+02 0.  0.
        -12    1    3    3    0    0  0.10060662295E+01 -0.35146910016E+02 -0.10929877108E+02  0.36820913440E+02  0.00000000000E+00 0.  1.
         11    1    4    4    0    0 -0.26887892974E-01  0.27154091483E+01 -0.33697499851E+00  0.27363702622E+01  0.51100000000E-03 0. -1.
        -11    1    4    4    0    0  0.56621522681E+00  0.18405746291E+02 -0.13700359805E+02  0.22951948833E+02  0.51100000000E-03 0.  1.
        -12    1    4    4    0    0 -0.15453935633E+01  0.14025754577E+02  0.24967211911E+02  0.28678767465E+02  0.00000000000E+00 0.  1.
</event>
<event>
 8    1  0.1280925E-006  0.9118800E+02  0.7816164E-02  0.1184000E+00
        -11   -1    0    0    0    0  0.00000000000E+00  0.00000000000E+00  0.45593999997E+02  0.45594000000E+02  0.51100000000E-03 0.  1.
         11   -1    0    0    0    0 -0.00000000000E+00 -0.00000000000E+00 -0.45593999997E+02  0.45594000000E+02  0.51100000000E-03 0. -1.
         23    2    1    2    0    0 -0.44408920985E-15 -0.35527136788E-14  0.00000000000E+00  0.91188000000E+02  0.91188000000E+02 0.  0.
    9900012    2    3    3    0    0 -0.31247224853E+01 -0.28290184823E+02 -0.23359828615E+02  0.54367081478E+02  0.39999993845E+02 0.  0.
        -12    1    3    3    0    0  0.31247224853E+01  0.28290184823E+02  0.23359828615E+02  0.36820918522E+02  0.00000000000E+00 0.  1.
         11    1    4    4    0    0  0.12569564933E+02 -0.48830214542E+01 -0.10436873880E+02  0.17051867868E+02  0.51100000000E-03 0. -1.
        -11    1    4    4    0    0 -0.13159365047E+02 -0.15349944913E+02  0.18448001540E+01  0.20302536421E+02  0.51100000000E-03 0.  1.
         12    1    4    4    0    0 -0.25349223718E+01 -0.80572184558E+01 -0.14767754889E+02  0.17012677189E+02  0.00000000000E+00 0. -1.
</event>
<event>
 8    1  0.1280925E-006  0.9118800E+02  0.7816164E-02  0.1184000E+00
        -11   -1    0    0    0    0  0.00000000000E+00  0.00000000000E+00  0.45593999997E+02  0.45594000000E+02  0.51100000000E-03 0.  1.
         11   -1    0    0    0    0 -0.00000000000E+00 -0.00000000000E+00 -0.45593999997E+02  0.45594000000E+02  0.51100000000E-03 0. -1.
         23    2    1    2    0    0 -0.17763568394E-14  0.00000000000E+00  0.44408920985E-15  0.91188000000E+02  0.91188000000E+02 0.  0.
    9900012    2    3    3    0    0 -0.95249707000E+01  0.35544834461E+02  0.12726121892E+01  0.54367083859E+02  0.39999999273E+02 0.  0.
        -12    1    3    3    0    0  0.95249707000E+01 -0.35544834461E+02 -0.12726121892E+01  0.36820916141E+02  0.00000000000E+00 0.  1.
         11    1    4    4    0    0 -0.15330793518E+02  0.36097898753E+02  0.11534068134E+02  0.40879411105E+02  0.51100000000E-03 0.  1.
        -11    1    4    4    0    0  0.85911887433E+00 -0.30609668123E+01 -0.42658671031E+01  0.53202655449E+01  0.51100000000E-03 0. -1.
        -12    1    4    4    0    0  0.49467039432E+01  0.25079025200E+01 -0.59955888421E+01  0.81674072088E+01  0.00000000000E+00 0.  1.
</event>
<event>
 8    1  0.1280925E-006  0.9118800E+02  0.7816164E-02  0.1184000E+00
        -11   -1    0    0    0    0  0.00000000000E+00  0.00000000000E+00  0.45593999997E+02  0.45594000000E+02  0.51100000000E-03 0.  1.
         11   -1    0    0    0    0 -0.00000000000E+00 -0.00000000000E+00 -0.45593999997E+02  0.45594000000E+02  0.51100000000E-03 0. -1.
         23    2    1    2    0    0 -0.17763568394E-14  0.00000000000E+00  0.00000000000E+00  0.91188000000E+02  0.91188000000E+02 0.  0.
    9900012    2    3    3    0    0  0.12593788834E+02 -0.10957081594E+02  0.32819450276E+02  0.54367116379E+02  0.40000073409E+02 0.  0.
         12    1    3    3    0    0 -0.12593788834E+02  0.10957081594E+02 -0.32819450276E+02  0.36820883621E+02  0.00000000000E+00 0. -1.
         11    1    4    4    0    0 -0.17770487010E+01 -0.25493183760E+00 -0.17397488044E+01  0.24999236970E+01  0.51100000000E-03 0. -1.
        -11    1    4    4    0    0 -0.10535746251E+02 -0.60823415508E+01  0.56002865760E+01  0.13392536645E+02  0.51100000000E-03 0.  1.
        -12    1    4    4    0    0  0.24906583786E+02 -0.46198082051E+01  0.28958912504E+02  0.38474656037E+02  0.00000000000E+00 0.  1.
</event>
<event>
 8    1  0.1280925E-006  0.9118800E+02  0.7816164E-02  0.1184000E+00
        -11   -1    0    0    0    0  0.00000000000E+00  0.00000000000E+00  0.45593999997E+02  0.45594000000E+02  0.51100000000E-03 0.  1.
         11   -1    0    0    0    0 -0.00000000000E+00 -0.00000000000E+00 -0.45593999997E+02  0.45594000000E+02  0.51100000000E-03 0. -1.
         23    2    1    2    0    0 -0.88817841970E-15 -0.35527136788E-14  0.00000000000E+00  0.91188000000E+02  0.91188000000E+02 0.  0.
    9900012    2    3    3    0    0 -0.69335235419E+01 -0.30811793919E+02 -0.18929892984E+02  0.54367065172E+02  0.39999956673E+02 0.  0.
        -12    1    3    3    0    0  0.69335235419E+01  0.30811793919E+02  0.18929892984E+02  0.36820934828E+02  0.00000000000E+00 0.  1.
         11    1    4    4    0    0  0.31170003696E+01 -0.17866526234E+01 -0.17772037058E+01  0.40082754613E+01  0.51100000000E-03 0.  1.
        -11    1    4    4    0    0 -0.18889814853E+02 -0.57832148938E+01 -0.16075471943E+02  0.25469422415E+02  0.51100000000E-03 0. -1.
         12    1    4    4    0    0  0.88392909418E+01 -0.23241926401E+02 -0.10772173353E+01  0.24889367296E+02  0.00000000000E+00 0. -1.
</event>
<event>
 8    1  0.1280925E-006  0.9118800E+02  0.7816164E-02  0.1184000E+00
        -11   -1    0    0    0    0  0.00000000000E+00  0.00000000000E+00  0.45593999997E+02  0.45594000000E+02  0.51100000000E-03 0. -1.
         11   -1    0    0    0    0 -0.00000000000E+00 -0.00000000000E+00 -0.45593999997E+02  0.45594000000E+02  0.51100000000E-03 0.  1.
         23    2    1    2    0    0 -0.72164496601E-15  0.00000000000E+00  0.00000000000E+00  0.91188000000E+02  0.91188000000E+02 0.  0.
    9900012    2    3    3    0    0  0.49919116921E+00  0.33674360279E+02 -0.14885210644E+02  0.54367065358E+02  0.39999957096E+02 0.  0.
         12    1    3    3    0    0 -0.49919116921E+00 -0.33674360279E+02  0.14885210644E+02  0.36820934642E+02  0.00000000000E+00 0. -1.
         11    1    4    4    0    0 -0.14148581867E+02  0.11361977026E+02  0.45137636950E+01  0.18698955953E+02  0.51100000000E-03 0. -1.
        -11    1    4    4    0    0  0.15041286684E+02  0.20584813908E+02 -0.12216721332E+02  0.28270534999E+02  0.51100000000E-03 0.  1.
         12    1    4    4    0    0 -0.39351364709E+00  0.17275693448E+01 -0.71822530068E+01  0.73975744055E+01  0.00000000000E+00 0. -1.
</event>
<event>
 8    1  0.1280925E-006  0.9118800E+02  0.7816164E-02  0.1184000E+00
        -11   -1    0    0    0    0  0.00000000000E+00  0.00000000000E+00  0.45593999997E+02  0.45594000000E+02  0.51100000000E-03 0.  1.
         11   -1    0    0    0    0 -0.00000000000E+00 -0.00000000000E+00 -0.45593999997E+02  0.45594000000E+02  0.51100000000E-03 0. -1.
         23    2    1    2    0    0  0.00000000000E+00  0.35527136788E-14  0.00000000000E+00  0.91188000000E+02  0.91188000000E+02 0.  0.
    9900012    2    3    3    0    0  0.19642784242E+02 -0.21404673164E+02 -0.22622616579E+02  0.54367057767E+02  0.39999939792E+02 0.  0.
        -12    1    3    3    0    0 -0.19642784242E+02  0.21404673164E+02  0.22622616579E+02  0.36820942233E+02  0.00000000000E+00 0.  1.
         11    1    4    4    0    0  0.24422280721E+02 -0.41323911023E+01 -0.15679687949E+02  0.29315133742E+02  0.51100000000E-03 0. -1.
        -11    1    4    4    0    0 -0.48192502508E+01  0.13987131635E+01 -0.33629332577E+01  0.60407691439E+01  0.51100000000E-03 0.  1.
         12    1    4    4    0    0  0.39753771620E-01 -0.18670995225E+02 -0.35799953721E+01  0.19011154881E+02  0.00000000000E+00 0. -1.
</event>
<event>
 8    1  0.1280925E-006  0.9118800E+02  0.7816164E-02  0.1184000E+00
        -11   -1    0    0    0    0  0.00000000000E+00  0.00000000000E+00  0.45593999997E+02  0.45594000000E+02  0.51100000000E-03 0. -1.
         11   -1    0    0    0    0 -0.00000000000E+00 -0.00000000000E+00 -0.45593999997E+02  0.45594000000E+02  0.51100000000E-03 0.  1.
         23    2    1    2    0    0  0.00000000000E+00  0.00000000000E+00 -0.35527136788E-14  0.91188000000E+02  0.91188000000E+02 0.  0.
    9900012    2    3    3    0    0 -0.18130530683E+02  0.10449051225E+02 -0.30296445621E+02  0.54367171225E+02  0.40000198442E+02 0.  0.
         12    1    3    3    0    0  0.18130530683E+02 -0.10449051225E+02  0.30296445621E+02  0.36820828775E+02  0.00000000000E+00 0. -1.
         11    1    4    4    0    0 -0.20901693456E+01  0.59935875218E+01  0.42213910284E+01  0.76231254581E+01  0.51100000000E-03 0. -1.
        -11    1    4    4    0    0 -0.11717477404E+02  0.35563482916E+01 -0.38743409513E+02  0.40632482952E+02  0.51100000000E-03 0.  1.
         12    1    4    4    0    0 -0.43228839338E+01  0.89911541143E+00  0.42255728631E+01  0.61115628156E+01  0.00000000000E+00 0. -1.
</event>
<event>
 8    1  0.1280925E-006  0.9118800E+02  0.7816164E-02  0.1184000E+00
        -11   -1    0    0    0    0  0.00000000000E+00  0.00000000000E+00  0.45593999997E+02  0.45594000000E+02  0.51100000000E-03 0. -1.
         11   -1    0    0    0    0 -0.00000000000E+00 -0.00000000000E+00 -0.45593999997E+02  0.45594000000E+02  0.51100000000E-03 0.  1.
         23    2    1    2    0    0 -0.35527136788E-14 -0.12212453271E-14  0.00000000000E+00  0.91188000000E+02  0.91188000000E+02 0.  0.
    9900012    2    3    3    0    0  0.29414978128E+02 -0.85264456839E+00 -0.22131690346E+02  0.54367086668E+02  0.40000005677E+02 0.  0.
         12    1    3    3    0    0 -0.29414978128E+02  0.85264456839E+00  0.22131690346E+02  0.36820913332E+02  0.00000000000E+00 0. -1.
         11    1    4    4    0    0  0.64896384612E+01  0.90843146704E+01  0.26647237708E+01  0.11477845330E+02  0.51100000000E-03 0. -1.
        -11    1    4    4    0    0  0.25799053817E+01 -0.10380096442E+01 -0.19972081885E+02  0.20164757149E+02  0.51100000000E-03 0.  1.
        -12    1    4    4    0    0  0.20345434286E+02 -0.88989495946E+01 -0.48243322317E+01  0.22724484189E+02  0.00000000000E+00 0.  1.
</event>
<event>
 8    1  0.1280925E-006  0.9118800E+02  0.7816164E-02  0.1184000E+00
        -11   -1    0    0    0    0  0.00000000000E+00  0.00000000000E+00  0.45593999997E+02  0.45594000000E+02  0.51100000000E-03 0. -1.
         11   -1    0    0    0    0 -0.00000000000E+00 -0.00000000000E+00 -0.45593999997E+02  0.45594000000E+02  0.51100000000E-03 0.  1.
         23    2    1    2    0    0  0.44408920985E-15  0.00000000000E+00  0.00000000000E+00  0.91188000000E+02  0.91188000000E+02 0.  0.
    9900012    2    3    3    0    0 -0.21507509599E+01  0.92633081258E+01  0.35571685983E+02  0.54367089490E+02  0.40000012110E+02 0.  0.
        -12    1    3    3    0    0  0.21507509599E+01 -0.92633081258E+01 -0.35571685983E+02  0.36820910510E+02  0.00000000000E+00 0.  1.
         11    1    4    4    0    0  0.14161618798E+02  0.90369902809E+01  0.72937843840E+01  0.18314418670E+02  0.51100000000E-03 0. -1.
        -11    1    4    4    0    0 -0.70382146176E+01 -0.39397680632E+01  0.23448599090E+02  0.24797077185E+02  0.51100000000E-03 0.  1.
        -12    1    4    4    0    0 -0.92741551399E+01  0.41660859081E+01  0.48293025093E+01  0.11255593635E+02  0.00000000000E+00 0.  1.
</event>
<event>
 8    1  0.1280925E-006  0.9118800E+02  0.7816164E-02  0.1184000E+00
        -11   -1    0    0    0    0  0.00000000000E+00  0.00000000000E+00  0.45593999997E+02  0.45594000000E+02  0.51100000000E-03 0.  1.
         11   -1    0    0    0    0 -0.00000000000E+00 -0.00000000000E+00 -0.45593999997E+02  0.45594000000E+02  0.51100000000E-03 0. -1.
         23    2    1    2    0    0 -0.17763568394E-14  0.00000000000E+00  0.00000000000E+00  0.91188000000E+02  0.91188000000E+02 0.  0.
    9900012    2    3    3    0    0 -0.92431974810E+01  0.32306846333E+02 -0.15053627727E+02  0.54367072154E+02  0.39999972590E+02 0.  0.
        -12    1    3    3    0    0  0.92431974810E+01 -0.32306846333E+02  0.15053627727E+02  0.36820927846E+02  0.00000000000E+00 0.  1.
         11    1    4    4    0    0  0.80935520364E+01  0.26545036453E+02 -0.12269518390E+02  0.30342801892E+02  0.51100000000E-03 0. -1.
        -11    1    4    4    0    0 -0.19037063191E+02  0.68913567585E+01  0.39077524132E+00  0.20249772306E+02  0.51100000000E-03 0.  1.
        -12    1    4    4    0    0  0.17003136735E+01 -0.11295468783E+01 -0.31748845779E+01  0.37744979562E+01  0.00000000000E+00 0.  1.
</event>
<event>
 8    1  0.1280925E-006  0.9118800E+02  0.7816164E-02  0.1184000E+00
        -11   -1    0    0    0    0  0.00000000000E+00  0.00000000000E+00  0.45593999997E+02  0.45594000000E+02  0.51100000000E-03 0.  1.
         11   -1    0    0    0    0 -0.00000000000E+00 -0.00000000000E+00 -0.45593999997E+02  0.45594000000E+02  0.51100000000E-03 0. -1.
         23    2    1    2    0    0  0.00000000000E+00  0.00000000000E+00  0.00000000000E+00  0.91188000000E+02  0.91188000000E+02 0.  0.
    9900012    2    3    3    0    0  0.19957933982E+02  0.24105212912E+02  0.19400991478E+02  0.54367097122E+02  0.40000029510E+02 0.  0.
         12    1    3    3    0    0 -0.19957933982E+02 -0.24105212912E+02 -0.19400991478E+02  0.36820902878E+02  0.00000000000E+00 0. -1.
         11    1    4    4    0    0 -0.83207166108E+00 -0.70852306846E+01  0.64432683570E+01  0.96129363092E+01  0.51100000000E-03 0. -1.
        -11    1    4    4    0    0  0.13574935561E+01  0.12686031705E+02 -0.35580882701E+01  0.13245307908E+02  0.51100000000E-03 0.  1.
        -12    1    4    4    0    0  0.19432512087E+02  0.18504411892E+02  0.16515811391E+02  0.31508852905E+02  0.00000000000E+00 0.  1.
</event>
<event>
 8    1  0.1280925E-006  0.9118800E+02  0.7816164E-02  0.1184000E+00
        -11   -1    0    0    0    0  0.00000000000E+00  0.00000000000E+00  0.45593999997E+02  0.45594000000E+02  0.51100000000E-03 0.  1.
         11   -1    0    0    0    0 -0.00000000000E+00 -0.00000000000E+00 -0.45593999997E+02  0.45594000000E+02  0.51100000000E-03 0. -1.
         23    2    1    2    0    0  0.00000000000E+00 -0.35527136788E-14  0.00000000000E+00  0.91188000000E+02  0.91188000000E+02 0.  0.
    9900012    2    3    3    0    0  0.27623824478E+02  0.17841927973E+02 -0.16564114041E+02  0.54367082758E+02  0.39999996764E+02 0.  0.
        -12    1    3    3    0    0 -0.27623824478E+02 -0.17841927973E+02  0.16564114041E+02  0.36820917242E+02  0.00000000000E+00 0.  1.
         11    1    4    4    0    0  0.64607526406E+00 -0.76718579215E+01 -0.10800196633E+02  0.13263448450E+02  0.51100000000E-03 0. -1.
        -11    1    4    4    0    0  0.57004731897E+01  0.16428892702E+02 -0.43458740205E+01  0.17924578970E+02  0.51100000000E-03 0.  1.
         12    1    4    4    0    0  0.21277276024E+02  0.90848931928E+01 -0.14180433877E+01  0.23179055338E+02  0.00000000000E+00 0. -1.
</event>
<event>
 8    1  0.1280925E-006  0.9118800E+02  0.7816164E-02  0.1184000E+00
        -11   -1    0    0    0    0  0.00000000000E+00  0.00000000000E+00  0.45593999997E+02  0.45594000000E+02  0.51100000000E-03 0.  1.
         11   -1    0    0    0    0 -0.00000000000E+00 -0.00000000000E+00 -0.45593999997E+02  0.45594000000E+02  0.51100000000E-03 0. -1.
         23    2    1    2    0    0  0.00000000000E+00  0.00000000000E+00  0.00000000000E+00  0.91188000000E+02  0.91188000000E+02 0.  0.
    9900012    2    3    3    0    0 -0.26786068875E+02  0.12754224026E+02  0.21808648112E+02  0.54367070507E+02  0.39999968835E+02 0.  0.
         12    1    3    3    0    0  0.26786068875E+02 -0.12754224026E+02 -0.21808648112E+02  0.36820929493E+02  0.00000000000E+00 0. -1.
         11    1    4    4    0    0  0.14562942928E+01 -0.31254018260E+01  0.19335702279E+01  0.39531789397E+01  0.51100000000E-03 0. -1.
        -11    1    4    4    0    0 -0.21773801167E+02  0.12026502305E+02  0.29245619067E+02  0.38393246930E+02  0.51100000000E-03 0.  1.
        -12    1    4    4    0    0 -0.64685620012E+01  0.38531235463E+01 -0.93705411835E+01  0.12020644637E+02  0.00000000000E+00 0.  1.
</event>
<event>
 8    1  0.1280925E-006  0.9118800E+02  0.7816164E-02  0.1184000E+00
        -11   -1    0    0    0    0  0.00000000000E+00  0.00000000000E+00  0.45593999997E+02  0.45594000000E+02  0.51100000000E-03 0.  1.
         11   -1    0    0    0    0 -0.00000000000E+00 -0.00000000000E+00 -0.45593999997E+02  0.45594000000E+02  0.51100000000E-03 0. -1.
         23    2    1    2    0    0 -0.35527136788E-14 -0.35527136788E-14  0.17763568394E-14  0.91188000000E+02  0.91188000000E+02 0.  0.
    9900012    2    3    3    0    0 -0.30139685354E+02 -0.17090640533E+02  0.12461507600E+02  0.54367084765E+02  0.40000001339E+02 0.  0.
         12    1    3    3    0    0  0.30139685354E+02  0.17090640533E+02 -0.12461507600E+02  0.36820915235E+02  0.00000000000E+00 0. -1.
         11    1    4    4    0    0 -0.14409041371E+01 -0.14100114503E+02  0.54113271635E+01  0.15171417062E+02  0.51100000000E-03 0. -1.
        -11    1    4    4    0    0 -0.27220143934E+02  0.51836290545E-01  0.14624679441E+02  0.30900164592E+02  0.51100000000E-03 0.  1.
        -12    1    4    4    0    0 -0.14786372824E+01 -0.30423623199E+01 -0.75744990043E+01  0.82955031110E+01  0.00000000000E+00 0.  1.
</event>
<event>
 8    1  0.1280925E-006  0.9118800E+02  0.7816164E-02  0.1184000E+00
        -11   -1    0    0    0    0  0.00000000000E+00  0.00000000000E+00  0.45593999997E+02  0.45594000000E+02  0.51100000000E-03 0.  1.
         11   -1    0    0    0    0 -0.00000000000E+00 -0.00000000000E+00 -0.45593999997E+02  0.45594000000E+02  0.51100000000E-03 0. -1.
         23    2    1    2    0    0  0.71054273576E-14 -0.17763568394E-14  0.00000000000E+00  0.91188000000E+02  0.91188000000E+02 0.  0.
    9900012    2    3    3    0    0  0.35804074703E+02 -0.84441760245E+01 -0.15951476058E+01  0.54367077008E+02  0.39999983656E+02 0.  0.
        -12    1    3    3    0    0 -0.35804074703E+02  0.84441760245E+01  0.15951476058E+01  0.36820922992E+02  0.00000000000E+00 0.  1.
         11    1    4    4    0    0  0.10394043644E+02  0.46947884772E+01 -0.34009124519E+01  0.11901402770E+02  0.51100000000E-03 0. -1.
        -11    1    4    4    0    0  0.42868468267E+01 -0.12477397568E+01 -0.13214956280E+02  0.13948798513E+02  0.51100000000E-03 0.  1.
         12    1    4    4    0    0  0.21123184232E+02 -0.11891224745E+02  0.15020721126E+02  0.28516875726E+02  0.00000000000E+00 0. -1.
</event>
<event>
 8    1  0.1280925E-006  0.9118800E+02  0.7816164E-02  0.1184000E+00
        -11   -1    0    0    0    0  0.00000000000E+00  0.00000000000E+00  0.45593999997E+02  0.45594000000E+02  0.51100000000E-03 0. -1.
         11   -1    0    0    0    0 -0.00000000000E+00 -0.00000000000E+00 -0.45593999997E+02  0.45594000000E+02  0.51100000000E-03 0.  1.
         23    2    1    2    0    0  0.00000000000E+00 -0.35527136788E-14  0.00000000000E+00  0.91188000000E+02  0.91188000000E+02 0.  0.
    9900012    2    3    3    0    0 -0.88395835588E+01 -0.91531847676E+01 -0.34552318244E+02  0.54367058609E+02  0.39999941711E+02 0.  0.
         12    1    3    3    0    0  0.88395835588E+01  0.91531847676E+01  0.34552318244E+02  0.36820941391E+02  0.00000000000E+00 0. -1.
         11    1    4    4    0    0  0.36127205910E+01 -0.17831887265E+02 -0.12205139221E+02  0.21908751155E+02  0.51100000000E-03 0. -1.
        -11    1    4    4    0    0 -0.14413032630E+02  0.57935920681E+01 -0.75797960951E+01  0.17284516995E+02  0.51100000000E-03 0.  1.
        -12    1    4    4    0    0  0.19607284799E+01  0.28851104292E+01 -0.14767382928E+02  0.15173790460E+02  0.00000000000E+00 0.  1.
</event>
<event>
 8    1  0.1280925E-006  0.9118800E+02  0.7816164E-02  0.1184000E+00
        -11   -1    0    0    0    0  0.00000000000E+00  0.00000000000E+00  0.45593999997E+02  0.45594000000E+02  0.51100000000E-03 0.  1.
         11   -1    0    0    0    0 -0.00000000000E+00 -0.00000000000E+00 -0.45593999997E+02  0.45594000000E+02  0.51100000000E-03 0. -1.
         23    2    1    2    0    0 -0.35527136788E-14  0.00000000000E+00 -0.77715611724E-15  0.91188000000E+02  0.91188000000E+02 0.  0.
    9900012    2    3    3    0    0  0.31423446089E+02 -0.19170585482E+02 -0.91371030037E+00  0.54367093189E+02  0.40000020543E+02 0.  0.
         12    1    3    3    0    0 -0.31423446089E+02  0.19170585482E+02  0.91371030037E+00  0.36820906811E+02  0.00000000000E+00 0. -1.
         11    1    4    4    0    0  0.17054247091E+02  0.73080182438E+01  0.74025910540E+01  0.19976306692E+02  0.51100000000E-03 0. -1.
        -11    1    4    4    0    0  0.85460832476E+01 -0.49356455012E+01 -0.68763065311E+01  0.12028288621E+02  0.51100000000E-03 0.  1.
         12    1    4    4    0    0  0.58231157508E+01 -0.21542958225E+02 -0.14399948233E+01  0.22362497875E+02  0.00000000000E+00 0. -1.
</event>
<event>
 8    1  0.1280925E-006  0.9118800E+02  0.7816164E-02  0.1184000E+00
        -11   -1    0    0    0    0  0.00000000000E+00  0.00000000000E+00  0.45593999997E+02  0.45594000000E+02  0.51100000000E-03 0. -1.
         11   -1    0    0    0    0 -0.00000000000E+00 -0.00000000000E+00 -0.45593999997E+02  0.45594000000E+02  0.51100000000E-03 0.  1.
         23    2    1    2    0    0  0.17763568394E-14  0.72164496601E-15  0.71054273576E-14  0.91188000000E+02  0.91188000000E+02 0.  0.
    9900012    2    3    3    0    0  0.13314178525E+02 -0.39909190015E+00 -0.34327145547E+02  0.54367088203E+02  0.40000009177E+02 0.  0.
         12    1    3    3    0    0 -0.13314178525E+02  0.39909190015E+00  0.34327145547E+02  0.36820911797E+02  0.00000000000E+00 0. -1.
         11    1    4    4    0    0  0.24051543120E+01  0.67504150110E+00  0.26827689447E+01  0.36657465494E+01  0.51100000000E-03 0. -1.
        -11    1    4    4    0    0  0.11797931232E+02  0.10027601693E+02 -0.36389652654E+02  0.39546817794E+02  0.51100000000E-03 0.  1.
         12    1    4    4    0    0 -0.88890701852E+00 -0.11101735095E+02 -0.62026183753E+00  0.11154523860E+02  0.00000000000E+00 0. -1.
</event>
<event>
 8    1  0.1280925E-006  0.9118800E+02  0.7816164E-02  0.1184000E+00
        -11   -1    0    0    0    0  0.00000000000E+00  0.00000000000E+00  0.45593999997E+02  0.45594000000E+02  0.51100000000E-03 0. -1.
         11   -1    0    0    0    0 -0.00000000000E+00 -0.00000000000E+00 -0.45593999997E+02  0.45594000000E+02  0.51100000000E-03 0.  1.
         23    2    1    2    0    0  0.00000000000E+00 -0.35527136788E-14 -0.17763568394E-14  0.91188000000E+02  0.91188000000E+02 0.  0.
    9900012    2    3    3    0    0  0.24399589634E+02 -0.25920164514E+02  0.94118872053E+01  0.54367102082E+02  0.40000040817E+02 0.  0.
        -12    1    3    3    0    0 -0.24399589634E+02  0.25920164514E+02 -0.94118872053E+01  0.36820897918E+02  0.00000000000E+00 0.  1.
         11    1    4    4    0    0  0.27785814432E+02 -0.16275388274E+02  0.16879115633E+02  0.36357176622E+02  0.51100000000E-03 0. -1.
        -11    1    4    4    0    0 -0.72170036770E+01 -0.10133847358E+02 -0.64628962087E+01  0.14019594574E+02  0.51100000000E-03 0.  1.
         12    1    4    4    0    0  0.38307788783E+01  0.48907111754E+00 -0.10043322194E+01  0.39903308860E+01  0.00000000000E+00 0. -1.
</event>
<event>
 8    1  0.1280925E-006  0.9118800E+02  0.7816164E-02  0.1184000E+00
        -11   -1    0    0    0    0  0.00000000000E+00  0.00000000000E+00  0.45593999997E+02  0.45594000000E+02  0.51100000000E-03 0. -1.
         11   -1    0    0    0    0 -0.00000000000E+00 -0.00000000000E+00 -0.45593999997E+02  0.45594000000E+02  0.51100000000E-03 0.  1.
         23    2    1    2    0    0  0.13322676296E-14 -0.17763568394E-14  0.71054273576E-14  0.91188000000E+02  0.91188000000E+02 0.  0.
    9900012    2    3    3    0    0  0.28756814222E+01  0.13689321167E+02 -0.34060425417E+02  0.54367086958E+02  0.40000006338E+02 0.  0.
         12    1    3    3    0    0 -0.28756814222E+01 -0.13689321167E+02  0.34060425417E+02  0.36820913042E+02  0.00000000000E+00 0. -1.
         11    1    4    4    0    0  0.10436450080E+02  0.16098192324E+02 -0.12630427464E+02  0.22969522950E+02  0.51100000000E-03 0.  1.
        -11    1    4    4    0    0 -0.94456046795E+01 -0.61150681437E+01 -0.24001828604E+02  0.26508513402E+02  0.51100000000E-03 0. -1.
         12    1    4    4    0    0  0.18848360221E+01  0.37061969868E+01  0.25718306510E+01  0.48890506064E+01  0.00000000000E+00 0. -1.
</event>
<event>
 8    1  0.1280925E-006  0.9118800E+02  0.7816164E-02  0.1184000E+00
        -11   -1    0    0    0    0  0.00000000000E+00  0.00000000000E+00  0.45593999997E+02  0.45594000000E+02  0.51100000000E-03 0.  1.
         11   -1    0    0    0    0 -0.00000000000E+00 -0.00000000000E+00 -0.45593999997E+02  0.45594000000E+02  0.51100000000E-03 0. -1.
         23    2    1    2    0    0  0.00000000000E+00 -0.17763568394E-14  0.14210854715E-13  0.91188000000E+02  0.91188000000E+02 0.  0.
    9900012    2    3    3    0    0 -0.49530663312E+01  0.15705607249E+02 -0.32932990880E+02  0.54367070443E+02  0.39999968689E+02 0.  0.
        -12    1    3    3    0    0  0.49530663312E+01 -0.15705607249E+02  0.32932990880E+02  0.36820929557E+02  0.00000000000E+00 0.  1.
         11    1    4    4    0    0  0.26914968894E+01  0.11237552372E+02 -0.16713087796E+02  0.20318810073E+02  0.51100000000E-03 0. -1.
        -11    1    4    4    0    0 -0.30296749518E+01  0.14101285215E+02  0.24133108369E+00  0.14425096741E+02  0.51100000000E-03 0.  1.
        -12    1    4    4    0    0 -0.46148882688E+01 -0.96332303387E+01 -0.16461234168E+02  0.19623163629E+02  0.00000000000E+00 0.  1.
</event>
<event>
 8    1  0.1280925E-006  0.9118800E+02  0.7816164E-02  0.1184000E+00
        -11   -1    0    0    0    0  0.00000000000E+00  0.00000000000E+00  0.45593999997E+02  0.45594000000E+02  0.51100000000E-03 0. -1.
         11   -1    0    0    0    0 -0.00000000000E+00 -0.00000000000E+00 -0.45593999997E+02  0.45594000000E+02  0.51100000000E-03 0.  1.
         23    2    1    2    0    0  0.35527136788E-14  0.26645352591E-14  0.35527136788E-14  0.91188000000E+02  0.91188000000E+02 0.  0.
    9900012    2    3    3    0    0  0.29732944841E+02  0.63217346786E+01 -0.20779006841E+02  0.54367089316E+02  0.40000011714E+02 0.  0.
         12    1    3    3    0    0 -0.29732944841E+02 -0.63217346786E+01  0.20779006841E+02  0.36820910684E+02  0.00000000000E+00 0. -1.
         11    1    4    4    0    0  0.29203156313E+02  0.71072106539E+01 -0.84722831414E+01  0.31226853249E+02  0.51100000000E-03 0.  1.
        -11    1    4    4    0    0  0.46427586272E+01 -0.87152922671E+01 -0.96824816098E+01  0.13829749721E+02  0.51100000000E-03 0. -1.
        -12    1    4    4    0    0 -0.41129700987E+01  0.79298162918E+01 -0.26242420900E+01  0.93104863461E+01  0.00000000000E+00 0.  1.
</event>
<event>
 8    1  0.1280925E-006  0.9118800E+02  0.7816164E-02  0.1184000E+00
        -11   -1    0    0    0    0  0.00000000000E+00  0.00000000000E+00  0.45593999997E+02  0.45594000000E+02  0.51100000000E-03 0. -1.
         11   -1    0    0    0    0 -0.00000000000E+00 -0.00000000000E+00 -0.45593999997E+02  0.45594000000E+02  0.51100000000E-03 0.  1.
         23    2    1    2    0    0  0.30531133177E-15  0.00000000000E+00 -0.88817841970E-15  0.91188000000E+02  0.91188000000E+02 0.  0.
    9900012    2    3    3    0    0 -0.21862576840E+00 -0.36554132841E+02 -0.44189362471E+01  0.54367089874E+02  0.40000012986E+02 0.  0.
        -12    1    3    3    0    0  0.21862576840E+00  0.36554132841E+02  0.44189362471E+01  0.36820910126E+02  0.00000000000E+00 0.  1.
         11    1    4    4    0    0 -0.18578402852E+01 -0.14455379861E+02 -0.43148109118E+01  0.15199577985E+02  0.51100000000E-03 0. -1.
        -11    1    4    4    0    0 -0.35363688063E+01 -0.23190782997E+02 -0.11852647850E+02  0.26283142538E+02  0.51100000000E-03 0.  1.
         12    1    4    4    0    0  0.51755833232E+01  0.10920300179E+01  0.11748522515E+02  0.12884369351E+02  0.00000000000E+00 0. -1.
</event>
<event>
 8    1  0.1280925E-006  0.9118800E+02  0.7816164E-02  0.1184000E+00
        -11   -1    0    0    0    0  0.00000000000E+00  0.00000000000E+00  0.45593999997E+02  0.45594000000E+02  0.51100000000E-03 0.  1.
         11   -1    0    0    0    0 -0.00000000000E+00 -0.00000000000E+00 -0.45593999997E+02  0.45594000000E+02  0.51100000000E-03 0. -1.
         23    2    1    2    0    0  0.00000000000E+00  0.88817841970E-15  0.53290705182E-14  0.91188000000E+02  0.91188000000E+02 0.  0.
    9900012    2    3    3    0    0  0.33102334688E+02  0.45181587889E+01  0.15479033956E+02  0.54367098153E+02  0.40000031859E+02 0.  0.
         12    1    3    3    0    0 -0.33102334688E+02 -0.45181587889E+01 -0.15479033956E+02  0.36820901847E+02  0.00000000000E+00 0. -1.
         11    1    4    4    0    0  0.61707694038E+01 -0.14092376120E+02  0.92993156839E+00  0.15412275391E+02  0.51100000000E-03 0. -1.
        -11    1    4    4    0    0  0.15748561437E+02  0.17563406219E+01  0.52541179335E+01  0.16694540282E+02  0.51100000000E-03 0.  1.
        -12    1    4    4    0    0  0.11183003847E+02  0.16854194287E+02  0.92949844541E+01  0.22260282480E+02  0.00000000000E+00 0.  1.
</event>
<event>
 8    1  0.1280925E-006  0.9118800E+02  0.7816164E-02  0.1184000E+00
        -11   -1    0    0    0    0  0.00000000000E+00  0.00000000000E+00  0.45593999997E+02  0.45594000000E+02  0.51100000000E-03 0.  1.
         11   -1    0    0    0    0 -0.00000000000E+00 -0.00000000000E+00 -0.45593999997E+02  0.45594000000E+02  0.51100000000E-03 0. -1.
         23    2    1    2    0    0  0.00000000000E+00 -0.88817841970E-15  0.00000000000E+00  0.91188000000E+02  0.91188000000E+02 0.  0.
    9900012    2    3    3    0    0  0.26123322836E+02 -0.45631681996E+01  0.25544542646E+02  0.54367161348E+02  0.40000175925E+02 0.  0.
         12    1    3    3    0    0 -0.26123322836E+02  0.45631681996E+01 -0.25544542646E+02  0.36820838652E+02  0.00000000000E+00 0. -1.
         11    1    4    4    0    0  0.32486853666E+01 -0.16309511912E+02  0.16144414726E+02  0.23177494742E+02  0.51100000000E-03 0. -1.
        -11    1    4    4    0    0 -0.17714383194E+01 -0.76121742887E+00 -0.18419945116E+00  0.19368467654E+01  0.51100000000E-03 0.  1.
        -12    1    4    4    0    0  0.24646075789E+02  0.12507561141E+02  0.95843273713E+01  0.29252819841E+02  0.00000000000E+00 0.  1.
</event>
<event>
 8    1  0.1280925E-006  0.9118800E+02  0.7816164E-02  0.1184000E+00
        -11   -1    0    0    0    0  0.00000000000E+00  0.00000000000E+00  0.45593999997E+02  0.45594000000E+02  0.51100000000E-03 0.  1.
         11   -1    0    0    0    0 -0.00000000000E+00 -0.00000000000E+00 -0.45593999997E+02  0.45594000000E+02  0.51100000000E-03 0. -1.
         23    2    1    2    0    0  0.00000000000E+00  0.00000000000E+00  0.35527136788E-14  0.91188000000E+02  0.91188000000E+02 0.  0.
    9900012    2    3    3    0    0 -0.20668597160E+02 -0.26491689100E+02 -0.15059295526E+02  0.54367042901E+02  0.39999905902E+02 0.  0.
        -12    1    3    3    0    0  0.20668597160E+02  0.26491689100E+02  0.15059295526E+02  0.36820957099E+02  0.00000000000E+00 0.  1.
         11    1    4    4    0    0 -0.18333673533E+02 -0.92718138008E+01 -0.47706843856E+01  0.21091456709E+02  0.51100000000E-03 0. -1.
        -11    1    4    4    0    0 -0.42765156951E+01 -0.79693158671E+00  0.76979206517E+01  0.88420398702E+01  0.51100000000E-03 0.  1.
         12    1    4    4    0    0  0.19415920681E+01 -0.16422943713E+02 -0.17986531792E+02  0.24433546322E+02  0.00000000000E+00 0. -1.
</event>
<event>
 8    1  0.1280925E-006  0.9118800E+02  0.7816164E-02  0.1184000E+00
        -11   -1    0    0    0    0  0.00000000000E+00  0.00000000000E+00  0.45593999997E+02  0.45594000000E+02  0.51100000000E-03 0. -1.
         11   -1    0    0    0    0 -0.00000000000E+00 -0.00000000000E+00 -0.45593999997E+02  0.45594000000E+02  0.51100000000E-03 0.  1.
         23    2    1    2    0    0  0.00000000000E+00  0.35527136788E-14  0.00000000000E+00  0.91188000000E+02  0.91188000000E+02 0.  0.
    9900012    2    3    3    0    0  0.26166969292E+02  0.15498141705E+02  0.20757576483E+02  0.54367086654E+02  0.40000005644E+02 0.  0.
        -12    1    3    3    0    0 -0.26166969292E+02 -0.15498141705E+02 -0.20757576483E+02  0.36820913346E+02  0.00000000000E+00 0.  1.
         11    1    4    4    0    0 -0.48072397486E+01 -0.37133484020E+01  0.44726439374E+01  0.75434113243E+01  0.51100000000E-03 0. -1.
        -11    1    4    4    0    0  0.21501470062E+02 -0.98711731425E+00  0.92884467459E+01  0.23442757062E+02  0.51100000000E-03 0.  1.
        -12    1    4    4    0    0  0.94727389778E+01  0.20198607421E+02  0.69964857995E+01  0.23380918268E+02  0.00000000000E+00 0.  1.
</event>
<event>
 8    1  0.1280925E-006  0.9118800E+02  0.7816164E-02  0.1184000E+00
        -11   -1    0    0    0    0  0.00000000000E+00  0.00000000000E+00  0.45593999997E+02  0.45594000000E+02  0.51100000000E-03 0.  1.
         11   -1    0    0    0    0 -0.00000000000E+00 -0.00000000000E+00 -0.45593999997E+02  0.45594000000E+02  0.51100000000E-03 0. -1.
         23    2    1    2    0    0  0.00000000000E+00  0.00000000000E+00 -0.71054273576E-14  0.91188000000E+02  0.91188000000E+02 0.  0.
    9900012    2    3    3    0    0  0.14075081142E+02  0.11126676763E+02  0.32153831914E+02  0.54367085404E+02  0.40000002795E+02 0.  0.
         12    1    3    3    0    0 -0.14075081142E+02 -0.11126676763E+02 -0.32153831914E+02  0.36820914596E+02  0.00000000000E+00 0. -1.
         11    1    4    4    0    0  0.11122945418E+02 -0.51688142046E+00 -0.35147847144E+01  0.11676506028E+02  0.51100000000E-03 0. -1.
        -11    1    4    4    0    0  0.86050794840E+01  0.13312636673E+02  0.32099052315E+02  0.35799760445E+02  0.51100000000E-03 0.  1.
         12    1    4    4    0    0 -0.56529437595E+01 -0.16690784896E+01  0.35695643129E+01  0.68908189308E+01  0.00000000000E+00 0. -1.
</event>
<event>
 8    1  0.1280925E-006  0.9118800E+02  0.7816164E-02  0.1184000E+00
        -11   -1    0    0    0    0  0.00000000000E+00  0.00000000000E+00  0.45593999997E+02  0.45594000000E+02  0.51100000000E-03 0. -1.
         11   -1    0    0    0    0 -0.00000000000E+00 -0.00000000000E+00 -0.45593999997E+02  0.45594000000E+02  0.51100000000E-03 0.  1.
         23    2    1    2    0    0  0.00000000000E+00  0.88817841970E-15 -0.71054273576E-14  0.91188000000E+02  0.91188000000E+02 0.  0.
    9900012    2    3    3    0    0 -0.49567864131E+01 -0.49659567676E+01  0.36146219416E+02  0.54367086972E+02  0.40000006371E+02 0.  0.
        -12    1    3    3    0    0  0.49567864131E+01  0.49659567676E+01 -0.36146219416E+02  0.36820913028E+02  0.00000000000E+00 0.  1.
         11    1    4    4    0    0  0.12442001649E+02  0.70515401921E+01  0.13701415962E+02  0.19805464492E+02  0.51100000000E-03 0. -1.
        -11    1    4    4    0    0 -0.51468914737E+01 -0.12809946211E+02  0.13989337831E+02  0.19654179886E+02  0.51100000000E-03 0.  1.
         12    1    4    4    0    0 -0.12251896588E+02  0.79244925163E+00  0.84554656230E+01  0.14907442595E+02  0.00000000000E+00 0. -1.
</event>
<event>
 8    1  0.1280925E-006  0.9118800E+02  0.7816164E-02  0.1184000E+00
        -11   -1    0    0    0    0  0.00000000000E+00  0.00000000000E+00  0.45593999997E+02  0.45594000000E+02  0.51100000000E-03 0.  1.
         11   -1    0    0    0    0 -0.00000000000E+00 -0.00000000000E+00 -0.45593999997E+02  0.45594000000E+02  0.51100000000E-03 0. -1.
         23    2    1    2    0    0  0.71054273576E-14  0.00000000000E+00  0.00000000000E+00  0.91188000000E+02  0.91188000000E+02 0.  0.
    9900012    2    3    3    0    0 -0.33468973212E+02  0.11524440149E+02 -0.10138937068E+02  0.54367042198E+02  0.39999904298E+02 0.  0.
        -12    1    3    3    0    0  0.33468973212E+02 -0.11524440149E+02  0.10138937068E+02  0.36820957802E+02  0.00000000000E+00 0.  1.
         11    1    4    4    0    0 -0.14844578346E+02  0.50685531867E+01  0.29345006345E+00  0.15688781051E+02  0.51100000000E-03 0. -1.
        -11    1    4    4    0    0  0.11767670989E+01  0.13763485124E+02  0.23363856186E+01  0.14009889420E+02  0.51100000000E-03 0.  1.
        -12    1    4    4    0    0 -0.19801161965E+02 -0.73075981616E+01 -0.12768772750E+02  0.24668371726E+02  0.00000000000E+00 0.  1.
</event>
<event>
 8    1  0.1280925E-006  0.9118800E+02  0.7816164E-02  0.1184000E+00
        -11   -1    0    0    0    0  0.00000000000E+00  0.00000000000E+00  0.45593999997E+02  0.45594000000E+02  0.51100000000E-03 0.  1.
         11   -1    0    0    0    0 -0.00000000000E+00 -0.00000000000E+00 -0.45593999997E+02  0.45594000000E+02  0.51100000000E-03 0. -1.
         23    2    1    2    0    0  0.35527136788E-14  0.00000000000E+00  0.00000000000E+00  0.91188000000E+02  0.91188000000E+02 0.  0.
    9900012    2    3    3    0    0 -0.23951614693E+02 -0.16024252111E+02  0.22919910162E+02  0.54367098545E+02  0.40000032753E+02 0.  0.
         12    1    3    3    0    0  0.23951614693E+02  0.16024252111E+02 -0.22919910162E+02  0.36820901455E+02  0.00000000000E+00 0. -1.
         11    1    4    4    0    0  0.50827864681E+01 -0.45376357956E+01  0.40958099088E+01  0.79498752168E+01  0.51100000000E-03 0. -1.
        -11    1    4    4    0    0 -0.16258167166E+02  0.87575725109E+01  0.89637360204E+01  0.20527338834E+02  0.51100000000E-03 0.  1.
         12    1    4    4    0    0 -0.12776233995E+02 -0.20244188826E+02  0.98603642330E+01  0.25889884495E+02  0.00000000000E+00 0. -1.
</event>
<event>
 8    1  0.1280925E-006  0.9118800E+02  0.7816164E-02  0.1184000E+00
        -11   -1    0    0    0    0  0.00000000000E+00  0.00000000000E+00  0.45593999997E+02  0.45594000000E+02  0.51100000000E-03 0.  1.
         11   -1    0    0    0    0 -0.00000000000E+00 -0.00000000000E+00 -0.45593999997E+02  0.45594000000E+02  0.51100000000E-03 0. -1.
         23    2    1    2    0    0  0.35527136788E-14  0.00000000000E+00  0.00000000000E+00  0.91188000000E+02  0.91188000000E+02 0.  0.
    9900012    2    3    3    0    0 -0.21325852978E+02 -0.27081581939E+02 -0.12945131340E+02  0.54367075094E+02  0.39999979291E+02 0.  0.
        -12    1    3    3    0    0  0.21325852978E+02  0.27081581939E+02  0.12945131340E+02  0.36820924906E+02  0.00000000000E+00 0.  1.
         11    1    4    4    0    0  0.21322337093E+01  0.50629646193E+01 -0.97215035980E+01  0.11166363051E+02  0.51100000000E-03 0. -1.
        -11    1    4    4    0    0 -0.78967534368E+01 -0.19535805060E+02  0.48229952427E+01  0.21616375218E+02  0.51100000000E-03 0.  1.
        -12    1    4    4    0    0 -0.15561333250E+02 -0.12608741498E+02 -0.80466229845E+01  0.21584336824E+02  0.00000000000E+00 0.  1.
</event>
<event>
 8    1  0.1280925E-006  0.9118800E+02  0.7816164E-02  0.1184000E+00
        -11   -1    0    0    0    0  0.00000000000E+00  0.00000000000E+00  0.45593999997E+02  0.45594000000E+02  0.51100000000E-03 0.  1.
         11   -1    0    0    0    0 -0.00000000000E+00 -0.00000000000E+00 -0.45593999997E+02  0.45594000000E+02  0.51100000000E-03 0. -1.
         23    2    1    2    0    0  0.00000000000E+00  0.00000000000E+00  0.00000000000E+00  0.91188000000E+02  0.91188000000E+02 0.  0.
    9900012    2    3    3    0    0  0.21755811048E+02  0.11982853856E+02 -0.27182274527E+02  0.54367080005E+02  0.39999990486E+02 0.  0.
        -12    1    3    3    0    0 -0.21755811048E+02 -0.11982853856E+02  0.27182274527E+02  0.36820919995E+02  0.00000000000E+00 0.  1.
         11    1    4    4    0    0  0.13130847557E+02  0.13553228798E+02 -0.22395892945E+02  0.29286262811E+02  0.51100000000E-03 0. -1.
        -11    1    4    4    0    0  0.13649742430E+01  0.10001195631E+02 -0.53197223628E+01  0.11409930544E+02  0.51100000000E-03 0.  1.
        -12    1    4    4    0    0  0.72599892479E+01 -0.11571570573E+02  0.53334078077E+00  0.13670886650E+02  0.00000000000E+00 0.  1.
</event>
<event>
 8    1  0.1280925E-006  0.9118800E+02  0.7816164E-02  0.1184000E+00
        -11   -1    0    0    0    0  0.00000000000E+00  0.00000000000E+00  0.45593999997E+02  0.45594000000E+02  0.51100000000E-03 0.  1.
         11   -1    0    0    0    0 -0.00000000000E+00 -0.00000000000E+00 -0.45593999997E+02  0.45594000000E+02  0.51100000000E-03 0. -1.
         23    2    1    2    0    0  0.00000000000E+00  0.00000000000E+00  0.35527136788E-14  0.91188000000E+02  0.91188000000E+02 0.  0.
    9900012    2    3    3    0    0  0.18719177456E+02  0.19760644701E+02  0.24796973273E+02  0.54367074330E+02  0.39999977551E+02 0.  0.
         12    1    3    3    0    0 -0.18719177456E+02 -0.19760644701E+02 -0.24796973273E+02  0.36820925670E+02  0.00000000000E+00 0. -1.
         11    1    4    4    0    0 -0.80793496265E+01  0.69340412894E+01  0.23349283697E+01  0.10899940814E+02  0.51100000000E-03 0. -1.
        -11    1    4    4    0    0  0.28205041503E+02  0.14747420252E+02  0.14169161204E+02  0.34839286729E+02  0.51100000000E-03 0.  1.
        -12    1    4    4    0    0 -0.14065144205E+01 -0.19208168396E+01  0.82928836995E+01  0.86278467881E+01  0.00000000000E+00 0.  1.
</event>
<event>
 8    1  0.1280925E-006  0.9118800E+02  0.7816164E-02  0.1184000E+00
        -11   -1    0    0    0    0  0.00000000000E+00  0.00000000000E+00  0.45593999997E+02  0.45594000000E+02  0.51100000000E-03 0.  1.
         11   -1    0    0    0    0 -0.00000000000E+00 -0.00000000000E+00 -0.45593999997E+02  0.45594000000E+02  0.51100000000E-03 0. -1.
         23    2    1    2    0    0  0.35527136788E-14  0.44408920985E-15  0.35527136788E-14  0.91188000000E+02  0.91188000000E+02 0.  0.
    9900012    2    3    3    0    0  0.22673233750E+02  0.29191684538E+01  0.28864901388E+02  0.54367087392E+02  0.40000007327E+02 0.  0.
         12    1    3    3    0    0 -0.22673233750E+02 -0.29191684538E+01 -0.28864901388E+02  0.36820912608E+02  0.00000000000E+00 0. -1.
         11    1    4    4    0    0  0.15429552849E+02 -0.51489084535E+01 -0.47227655290E+01  0.16937735205E+02  0.51100000000E-03 0. -1.
        -11    1    4    4    0    0  0.20758032215E+01  0.10108647759E+02  0.16502632092E+02  0.19463570710E+02  0.51100000000E-03 0.  1.
        -12    1    4    4    0    0  0.51678776798E+01 -0.20405708520E+01  0.17085034825E+02  0.17965781477E+02  0.00000000000E+00 0.  1.
</event>
<event>
 8    1  0.1280925E-006  0.9118800E+02  0.7816164E-02  0.1184000E+00
        -11   -1    0    0    0    0  0.00000000000E+00  0.00000000000E+00  0.45593999997E+02  0.45594000000E+02  0.51100000000E-03 0.  1.
         11   -1    0    0    0    0 -0.00000000000E+00 -0.00000000000E+00 -0.45593999997E+02  0.45594000000E+02  0.51100000000E-03 0. -1.
         23    2    1    2    0    0 -0.17763568394E-14  0.42327252814E-15 -0.71054273576E-14  0.91188000000E+02  0.91188000000E+02 0.  0.
    9900012    2    3    3    0    0 -0.11982620094E+02 -0.57281445629E-01 -0.34816557877E+02  0.54367093332E+02  0.40000020868E+02 0.  0.
        -12    1    3    3    0    0  0.11982620094E+02  0.57281445629E-01  0.34816557877E+02  0.36820906668E+02  0.00000000000E+00 0.  1.
         11    1    4    4    0    0 -0.81769857801E+01  0.16634108125E+02 -0.20768509049E+02  0.27836803300E+02  0.51100000000E-03 0. -1.
        -11    1    4    4    0    0  0.29794016445E+01 -0.13473910491E+02 -0.12981310805E+02  0.18945646692E+02  0.51100000000E-03 0.  1.
        -12    1    4    4    0    0 -0.67850359586E+01 -0.32174790796E+01 -0.10667380230E+01  0.75846433401E+01  0.00000000000E+00 0.  1.
</event>
<event>
 8    1  0.1280925E-006  0.9118800E+02  0.7816164E-02  0.1184000E+00
        -11   -1    0    0    0    0  0.00000000000E+00  0.00000000000E+00  0.45593999997E+02  0.45594000000E+02  0.51100000000E-03 0. -1.
         11   -1    0    0    0    0 -0.00000000000E+00 -0.00000000000E+00 -0.45593999997E+02  0.45594000000E+02  0.51100000000E-03 0.  1.
         23    2    1    2    0    0 -0.53290705182E-14  0.71054273576E-14  0.35527136788E-14  0.91188000000E+02  0.91188000000E+02 0.  0.
    9900012    2    3    3    0    0 -0.13243683428E+02  0.23510310300E+02  0.25052947596E+02  0.54367081701E+02  0.39999994353E+02 0.  0.
        -12    1    3    3    0    0  0.13243683428E+02 -0.23510310300E+02 -0.25052947596E+02  0.36820918299E+02  0.00000000000E+00 0.  1.
         11    1    4    4    0    0 -0.11080455080E+01  0.18878835590E+02  0.23195390644E+02  0.29927651854E+02  0.51100000000E-03 0. -1.
        -11    1    4    4    0    0  0.17858960027E+01 -0.63585218665E+01  0.10213653088E+01  0.66830690715E+01  0.51100000000E-03 0.  1.
        -12    1    4    4    0    0 -0.13921533923E+02  0.10989996577E+02  0.83619164307E+00  0.17756360775E+02  0.00000000000E+00 0.  1.
</event>
<event>
 8    1  0.1280925E-006  0.9118800E+02  0.7816164E-02  0.1184000E+00
        -11   -1    0    0    0    0  0.00000000000E+00  0.00000000000E+00  0.45593999997E+02  0.45594000000E+02  0.51100000000E-03 0.  1.
         11   -1    0    0    0    0 -0.00000000000E+00 -0.00000000000E+00 -0.45593999997E+02  0.45594000000E+02  0.51100000000E-03 0. -1.
         23    2    1    2    0    0  0.00000000000E+00  0.00000000000E+00  0.22204460493E-15  0.91188000000E+02  0.91188000000E+02 0.  0.
    9900012    2    3    3    0    0 -0.19414359563E+02  0.31243395861E+02  0.16468144814E+01  0.54367093709E+02  0.40000021729E+02 0.  0.
        -12    1    3    3    0    0  0.19414359563E+02 -0.31243395861E+02 -0.16468144814E+01  0.36820906291E+02  0.00000000000E+00 0.  1.
         11    1    4    4    0    0 -0.11398465301E+02  0.30050442500E+02  0.18345730849E+01  0.32191920793E+02  0.51100000000E-03 0. -1.
        -11    1    4    4    0    0 -0.27273207203E+01 -0.74102037889E+00  0.10077800629E+02  0.10466587567E+02  0.51100000000E-03 0.  1.
        -12    1    4    4    0    0 -0.52885735413E+01  0.19339737398E+01 -0.10265559233E+02  0.11708585350E+02  0.00000000000E+00 0.  1.
</event>
<event>
 8    1  0.1280925E-006  0.9118800E+02  0.7816164E-02  0.1184000E+00
        -11   -1    0    0    0    0  0.00000000000E+00  0.00000000000E+00  0.45593999997E+02  0.45594000000E+02  0.51100000000E-03 0. -1.
         11   -1    0    0    0    0 -0.00000000000E+00 -0.00000000000E+00 -0.45593999997E+02  0.45594000000E+02  0.51100000000E-03 0.  1.
         23    2    1    2    0    0 -0.17763568394E-14  0.22204460493E-15  0.00000000000E+00  0.91188000000E+02  0.91188000000E+02 0.  0.
    9900012    2    3    3    0    0 -0.14295532091E+02 -0.18222021676E+01  0.33883665674E+02  0.54367007916E+02  0.39999826146E+02 0.  0.
        -12    1    3    3    0    0  0.14295532091E+02  0.18222021676E+01 -0.33883665674E+02  0.36820992084E+02  0.00000000000E+00 0.  1.
         11    1    4    4    0    0 -0.10896819566E+02 -0.27425218530E+01  0.60893574082E+01  0.12780546806E+02  0.51100000000E-03 0. -1.
        -11    1    4    4    0    0 -0.36966150192E+01  0.36749247688E+01  0.34206452165E+02  0.34601320851E+02  0.51100000000E-03 0.  1.
        -12    1    4    4    0    0  0.29790249373E+00 -0.27546050835E+01 -0.64121438987E+01  0.69851402591E+01  0.00000000000E+00 0.  1.
</event>
<event>
 8    1  0.1280925E-006  0.9118800E+02  0.7816164E-02  0.1184000E+00
        -11   -1    0    0    0    0  0.00000000000E+00  0.00000000000E+00  0.45593999997E+02  0.45594000000E+02  0.51100000000E-03 0. -1.
         11   -1    0    0    0    0 -0.00000000000E+00 -0.00000000000E+00 -0.45593999997E+02  0.45594000000E+02  0.51100000000E-03 0.  1.
         23    2    1    2    0    0  0.00000000000E+00  0.00000000000E+00  0.00000000000E+00  0.91188000000E+02  0.91188000000E+02 0.  0.
    9900012    2    3    3    0    0  0.23177985434E+02 -0.88976193293E+01 -0.27191776147E+02  0.54367091150E+02  0.40000015895E+02 0.  0.
        -12    1    3    3    0    0 -0.23177985434E+02  0.88976193293E+01  0.27191776147E+02  0.36820908850E+02  0.00000000000E+00 0.  1.
         11    1    4    4    0    0  0.26997429372E+02 -0.24322695003E+01 -0.10513459683E+02  0.29074214734E+02  0.51100000000E-03 0. -1.
        -11    1    4    4    0    0  0.36742789950E+01 -0.87938879753E+01 -0.14127209956E+02  0.17041445163E+02  0.51100000000E-03 0.  1.
        -12    1    4    4    0    0 -0.74937229337E+01  0.23285381463E+01 -0.25511065082E+01  0.82514312529E+01  0.00000000000E+00 0.  1.
</event>
<event>
 8    1  0.1280925E-006  0.9118800E+02  0.7816164E-02  0.1184000E+00
        -11   -1    0    0    0    0  0.00000000000E+00  0.00000000000E+00  0.45593999997E+02  0.45594000000E+02  0.51100000000E-03 0.  1.
         11   -1    0    0    0    0 -0.00000000000E+00 -0.00000000000E+00 -0.45593999997E+02  0.45594000000E+02  0.51100000000E-03 0. -1.
         23    2    1    2    0    0  0.00000000000E+00  0.00000000000E+00 -0.71054273576E-14  0.91188000000E+02  0.91188000000E+02 0.  0.
    9900012    2    3    3    0    0  0.10788636919E+02 -0.10029307378E+02  0.33746136896E+02  0.54367035205E+02  0.39999888356E+02 0.  0.
         12    1    3    3    0    0 -0.10788636919E+02  0.10029307378E+02 -0.33746136896E+02  0.36820964795E+02  0.00000000000E+00 0. -1.
         11    1    4    4    0    0 -0.59290203036E+01 -0.27931037316E+01 -0.58469015009E+01  0.87829930911E+01  0.51100000000E-03 0. -1.
        -11    1    4    4    0    0  0.13703145707E+02  0.29604429188E+00  0.18813558320E+02  0.23276894583E+02  0.51100000000E-03 0.  1.
        -12    1    4    4    0    0  0.30145115154E+01 -0.75322479386E+01  0.20779480077E+02  0.22307147531E+02  0.00000000000E+00 0.  1.
</event>
<event>
 8    1  0.1280925E-006  0.9118800E+02  0.7816164E-02  0.1184000E+00
        -11   -1    0    0    0    0  0.00000000000E+00  0.00000000000E+00  0.45593999997E+02  0.45594000000E+02  0.51100000000E-03 0. -1.
         11   -1    0    0    0    0 -0.00000000000E+00 -0.00000000000E+00 -0.45593999997E+02  0.45594000000E+02  0.51100000000E-03 0.  1.
         23    2    1    2    0    0 -0.17763568394E-14 -0.71054273576E-14  0.00000000000E+00  0.91188000000E+02  0.91188000000E+02 0.  0.
    9900012    2    3    3    0    0 -0.10615674116E+02 -0.31091702429E+02 -0.16625079201E+02  0.54367085355E+02  0.40000002683E+02 0.  0.
         12    1    3    3    0    0  0.10615674116E+02  0.31091702429E+02  0.16625079201E+02  0.36820914645E+02  0.00000000000E+00 0. -1.
         11    1    4    4    0    0 -0.24766134324E+00  0.53085607692E+01 -0.49069716892E+01  0.72332928187E+01  0.51100000000E-03 0. -1.
        -11    1    4    4    0    0  0.29218796343E+01 -0.59882716894E+01 -0.12245140480E+02  0.13940596976E+02  0.51100000000E-03 0.  1.
        -12    1    4    4    0    0 -0.13289892407E+02 -0.30411991509E+02  0.52703296792E+00  0.33193195560E+02  0.00000000000E+00 0.  1.
</event>
<event>
 8    1  0.1280925E-006  0.9118800E+02  0.7816164E-02  0.1184000E+00
        -11   -1    0    0    0    0  0.00000000000E+00  0.00000000000E+00  0.45593999997E+02  0.45594000000E+02  0.51100000000E-03 0.  1.
         11   -1    0    0    0    0 -0.00000000000E+00 -0.00000000000E+00 -0.45593999997E+02  0.45594000000E+02  0.51100000000E-03 0. -1.
         23    2    1    2    0    0  0.17763568394E-14  0.00000000000E+00 -0.71054273576E-14  0.91188000000E+02  0.91188000000E+02 0.  0.
    9900012    2    3    3    0    0 -0.13337669002E+02 -0.62684182498E+01  0.33743047080E+02  0.54367085997E+02  0.40000004147E+02 0.  0.
         12    1    3    3    0    0  0.13337669002E+02  0.62684182498E+01 -0.33743047080E+02  0.36820914003E+02  0.00000000000E+00 0. -1.
         11    1    4    4    0    0  0.70368765911E+01 -0.35016792337E+01  0.52743125253E+00  0.78776629530E+01  0.51100000000E-03 0. -1.
        -11    1    4    4    0    0  0.57311991460E+01  0.18334309282E+01  0.63181321559E+01  0.87250734564E+01  0.51100000000E-03 0.  1.
         12    1    4    4    0    0 -0.26105744739E+02 -0.46001699443E+01  0.26897483672E+02  0.37764349587E+02  0.00000000000E+00 0. -1.
</event>
<event>
 8    1  0.1280925E-006  0.9118800E+02  0.7816164E-02  0.1184000E+00
        -11   -1    0    0    0    0  0.00000000000E+00  0.00000000000E+00  0.45593999997E+02  0.45594000000E+02  0.51100000000E-03 0. -1.
         11   -1    0    0    0    0 -0.00000000000E+00 -0.00000000000E+00 -0.45593999997E+02  0.45594000000E+02  0.51100000000E-03 0.  1.
         23    2    1    2    0    0  0.88817841970E-15  0.00000000000E+00 -0.88817841970E-15  0.91188000000E+02  0.91188000000E+02 0.  0.
    9900012    2    3    3    0    0 -0.31244795691E+01 -0.36138522627E+02 -0.63264921598E+01  0.54367086197E+02  0.40000004603E+02 0.  0.
        -12    1    3    3    0    0  0.31244795691E+01  0.36138522627E+02  0.63264921598E+01  0.36820913803E+02  0.00000000000E+00 0.  1.
         11    1    4    4    0    0  0.14577759468E+02 -0.98781942805E+01 -0.24703706204E+00  0.17611099367E+02  0.51100000000E-03 0. -1.
        -11    1    4    4    0    0 -0.31198427306E+01 -0.19568442763E+02 -0.60251471777E+01  0.20711343984E+02  0.51100000000E-03 0.  1.
         12    1    4    4    0    0 -0.14582396307E+02 -0.66918855837E+01 -0.54307920001E-01  0.16044642846E+02  0.00000000000E+00 0. -1.
</event>
<event>
 8    1  0.1280925E-006  0.9118800E+02  0.7816164E-02  0.1184000E+00
        -11   -1    0    0    0    0  0.00000000000E+00  0.00000000000E+00  0.45593999997E+02  0.45594000000E+02  0.51100000000E-03 0.  1.
         11   -1    0    0    0    0 -0.00000000000E+00 -0.00000000000E+00 -0.45593999997E+02  0.45594000000E+02  0.51100000000E-03 0. -1.
         23    2    1    2    0    0  0.22204460493E-15 -0.71054273576E-14  0.00000000000E+00  0.91188000000E+02  0.91188000000E+02 0.  0.
    9900012    2    3    3    0    0  0.16063157625E+01  0.33960533702E+02  0.14137918945E+02  0.54367097625E+02  0.40000030655E+02 0.  0.
         12    1    3    3    0    0 -0.16063157625E+01 -0.33960533702E+02 -0.14137918945E+02  0.36820902375E+02  0.00000000000E+00 0. -1.
         11    1    4    4    0    0  0.15959593633E+01 -0.17666118025E+01 -0.23963623356E+01  0.33779514879E+01  0.51100000000E-03 0. -1.
        -11    1    4    4    0    0 -0.15145851691E+02  0.93211608663E+01  0.58148873440E+01  0.18710793100E+02  0.51100000000E-03 0.  1.
         12    1    4    4    0    0  0.15156208091E+02  0.26405984638E+02  0.10719393936E+02  0.32278353037E+02  0.00000000000E+00 0. -1.
</event>
<event>
 8    1  0.1280925E-006  0.9118800E+02  0.7816164E-02  0.1184000E+00
        -11   -1    0    0    0    0  0.00000000000E+00  0.00000000000E+00  0.45593999997E+02  0.45594000000E+02  0.51100000000E-03 0.  1.
         11   -1    0    0    0    0 -0.00000000000E+00 -0.00000000000E+00 -0.45593999997E+02  0.45594000000E+02  0.51100000000E-03 0. -1.
         23    2    1    2    0    0  0.26645352591E-14  0.00000000000E+00  0.00000000000E+00  0.91188000000E+02  0.91188000000E+02 0.  0.
    9900012    2    3    3    0    0 -0.33990368725E+01  0.21365877668E+02  0.29794647058E+02  0.54367147572E+02  0.40000144519E+02 0.  0.
         12    1    3    3    0    0  0.33990368725E+01 -0.21365877668E+02 -0.29794647058E+02  0.36820852428E+02  0.00000000000E+00 0. -1.
         11    1    4    4    0    0 -0.20040889111E+02  0.87584757222E+01  0.13051578387E+02  0.25469429361E+02  0.51100000000E-03 0. -1.
        -11    1    4    4    0    0  0.11625808308E+02  0.36425530971E+01  0.46745248421E+01  0.13049091717E+02  0.51100000000E-03 0.  1.
         12    1    4    4    0    0  0.50160439307E+01  0.89648488492E+01  0.12068543829E+02  0.15848626494E+02  0.00000000000E+00 0. -1.
</event>
<event>
 8    1  0.1280925E-006  0.9118800E+02  0.7816164E-02  0.1184000E+00
        -11   -1    0    0    0    0  0.00000000000E+00  0.00000000000E+00  0.45593999997E+02  0.45594000000E+02  0.51100000000E-03 0. -1.
         11   -1    0    0    0    0 -0.00000000000E+00 -0.00000000000E+00 -0.45593999997E+02  0.45594000000E+02  0.51100000000E-03 0.  1.
         23    2    1    2    0    0  0.35527136788E-14  0.00000000000E+00  0.00000000000E+00  0.91188000000E+02  0.91188000000E+02 0.  0.
    9900012    2    3    3    0    0 -0.21961624284E+02  0.21250453490E+01  0.29477968258E+02  0.54367090566E+02  0.40000014564E+02 0.  0.
        -12    1    3    3    0    0  0.21961624284E+02 -0.21250453490E+01 -0.29477968258E+02  0.36820909434E+02  0.00000000000E+00 0.  1.
         11    1    4    4    0    0 -0.22745622765E+02 -0.51090107460E+01  0.19181589354E+02  0.30189380851E+02  0.51100000000E-03 0. -1.
        -11    1    4    4    0    0 -0.65399993231E+00 -0.72173407357E+01  0.23231245590E+01  0.76101663046E+01  0.51100000000E-03 0.  1.
        -12    1    4    4    0    0  0.14379984139E+01  0.14451396831E+02  0.79732543449E+01  0.16567543410E+02  0.00000000000E+00 0.  1.
</event>
<event>
 8    1  0.1280925E-006  0.9118800E+02  0.7816164E-02  0.1184000E+00
        -11   -1    0    0    0    0  0.00000000000E+00  0.00000000000E+00  0.45593999997E+02  0.45594000000E+02  0.51100000000E-03 0. -1.
         11   -1    0    0    0    0 -0.00000000000E+00 -0.00000000000E+00 -0.45593999997E+02  0.45594000000E+02  0.51100000000E-03 0.  1.
         23    2    1    2    0    0 -0.44408920985E-15 -0.35527136788E-14  0.00000000000E+00  0.91188000000E+02  0.91188000000E+02 0.  0.
    9900012    2    3    3    0    0 -0.27730285317E+01  0.24039756733E+02 -0.27752087681E+02  0.54367109711E+02  0.40000058209E+02 0.  0.
         12    1    3    3    0    0  0.27730285317E+01 -0.24039756733E+02  0.27752087681E+02  0.36820890289E+02  0.00000000000E+00 0. -1.
         11    1    4    4    0    0  0.76454810412E+01  0.34511274453E+01 -0.83460313210E+01  0.11833000468E+02  0.51100000000E-03 0. -1.
        -11    1    4    4    0    0  0.16622157859E+01 -0.72726008958E+01 -0.32650941391E+01  0.81433730792E+01  0.51100000000E-03 0.  1.
        -12    1    4    4    0    0 -0.12080725359E+02  0.27861230183E+02 -0.16140962221E+02  0.34390736164E+02  0.00000000000E+00 0.  1.
</event>
<event>
 8    1  0.1280925E-006  0.9118800E+02  0.7816164E-02  0.1184000E+00
        -11   -1    0    0    0    0  0.00000000000E+00  0.00000000000E+00  0.45593999997E+02  0.45594000000E+02  0.51100000000E-03 0.  1.
         11   -1    0    0    0    0 -0.00000000000E+00 -0.00000000000E+00 -0.45593999997E+02  0.45594000000E+02  0.51100000000E-03 0. -1.
         23    2    1    2    0    0  0.00000000000E+00 -0.71054273576E-14  0.88817841970E-15  0.91188000000E+02  0.91188000000E+02 0.  0.
    9900012    2    3    3    0    0  0.15860286348E+02 -0.32934444774E+02  0.44216880695E+01  0.54367113795E+02  0.40000067517E+02 0.  0.
        -12    1    3    3    0    0 -0.15860286348E+02  0.32934444774E+02 -0.44216880695E+01  0.36820886205E+02  0.00000000000E+00 0.  1.
         11    1    4    4    0    0  0.23261150012E+02 -0.15364105225E+02 -0.52657473745E+01  0.28370141432E+02  0.51100000000E-03 0. -1.
        -11    1    4    4    0    0 -0.57420993816E+01 -0.16463995645E+02  0.13259940463E+02  0.21905727088E+02  0.51100000000E-03 0.  1.
         12    1    4    4    0    0 -0.16587642821E+01 -0.11063439036E+01 -0.35725050194E+01  0.40912452738E+01  0.00000000000E+00 0. -1.
</event>
<event>
 8    1  0.1280925E-006  0.9118800E+02  0.7816164E-02  0.1184000E+00
        -11   -1    0    0    0    0  0.00000000000E+00  0.00000000000E+00  0.45593999997E+02  0.45594000000E+02  0.51100000000E-03 0.  1.
         11   -1    0    0    0    0 -0.00000000000E+00 -0.00000000000E+00 -0.45593999997E+02  0.45594000000E+02  0.51100000000E-03 0. -1.
         23    2    1    2    0    0  0.00000000000E+00 -0.17763568394E-14 -0.35527136788E-14  0.91188000000E+02  0.91188000000E+02 0.  0.
    9900012    2    3    3    0    0 -0.26348890586E+02 -0.15389362302E+02  0.20607859330E+02  0.54367076963E+02  0.39999983552E+02 0.  0.
         12    1    3    3    0    0  0.26348890586E+02  0.15389362302E+02 -0.20607859330E+02  0.36820923037E+02  0.00000000000E+00 0. -1.
         11    1    4    4    0    0 -0.21184542773E+01  0.26405723196E+01 -0.15275640194E+01  0.37140170698E+01  0.51100000000E-03 0. -1.
        -11    1    4    4    0    0 -0.14054956216E+02  0.68899027694E+00  0.25459418745E+02  0.29089491314E+02  0.51100000000E-03 0.  1.
        -12    1    4    4    0    0 -0.10175480092E+02 -0.18718924899E+02 -0.33239953950E+01  0.21563568579E+02  0.00000000000E+00 0.  1.
</event>
<event>
 8    1  0.1280925E-006  0.9118800E+02  0.7816164E-02  0.1184000E+00
        -11   -1    0    0    0    0  0.00000000000E+00  0.00000000000E+00  0.45593999997E+02  0.45594000000E+02  0.51100000000E-03 0.  1.
         11   -1    0    0    0    0 -0.00000000000E+00 -0.00000000000E+00 -0.45593999997E+02  0.45594000000E+02  0.51100000000E-03 0. -1.
         23    2    1    2    0    0  0.00000000000E+00  0.00000000000E+00 -0.17763568394E-14  0.91188000000E+02  0.91188000000E+02 0.  0.
    9900012    2    3    3    0    0  0.28595176556E+01  0.34242245175E+02  0.13231459508E+02  0.54367085881E+02  0.40000003882E+02 0.  0.
         12    1    3    3    0    0 -0.28595176556E+01 -0.34242245175E+02 -0.13231459508E+02  0.36820914119E+02  0.00000000000E+00 0. -1.
         11    1    4    4    0    0 -0.91881288008E+01  0.49293602153E+01 -0.65511184579E+01  0.12314116140E+02  0.51100000000E-03 0.  1.
        -11    1    4    4    0    0  0.56414981963E+01  0.55650946573E+01  0.15044745185E+02  0.17004150622E+02  0.51100000000E-03 0. -1.
        -12    1    4    4    0    0  0.64061482602E+01  0.23747790303E+02  0.47378327818E+01  0.25048819119E+02  0.00000000000E+00 0.  1.
</event>
<event>
 8    1  0.1280925E-006  0.9118800E+02  0.7816164E-02  0.1184000E+00
        -11   -1    0    0    0    0  0.00000000000E+00  0.00000000000E+00  0.45593999997E+02  0.45594000000E+02  0.51100000000E-03 0. -1.
         11   -1    0    0    0    0 -0.00000000000E+00 -0.00000000000E+00 -0.45593999997E+02  0.45594000000E+02  0.51100000000E-03 0.  1.
         23    2    1    2    0    0  0.00000000000E+00 -0.44408920985E-15  0.00000000000E+00  0.91188000000E+02  0.91188000000E+02 0.  0.
    9900012    2    3    3    0    0  0.22366200455E+01 -0.32616284999E+01  0.36607911032E+02  0.54367084207E+02  0.40000000067E+02 0.  0.
        -12    1    3    3    0    0 -0.22366200455E+01  0.32616284999E+01 -0.36607911032E+02  0.36820915793E+02  0.00000000000E+00 0.  1.
         11    1    4    4    0    0 -0.11432615988E+02 -0.15152300588E+02  0.25019067398E+02  0.31404627926E+02  0.51100000000E-03 0. -1.
        -11    1    4    4    0    0  0.88146415500E+01  0.33106194964E+01  0.83525267809E+01  0.12586612372E+02  0.51100000000E-03 0.  1.
        -12    1    4    4    0    0  0.48545944836E+01  0.85800525915E+01  0.32363168530E+01  0.10375843910E+02  0.00000000000E+00 0.  1.
</event>
<event>
 8    1  0.1280925E-006  0.9118800E+02  0.7816164E-02  0.1184000E+00
        -11   -1    0    0    0    0  0.00000000000E+00  0.00000000000E+00  0.45593999997E+02  0.45594000000E+02  0.51100000000E-03 0.  1.
         11   -1    0    0    0    0 -0.00000000000E+00 -0.00000000000E+00 -0.45593999997E+02  0.45594000000E+02  0.51100000000E-03 0. -1.
         23    2    1    2    0    0  0.17763568394E-14  0.22204460493E-15  0.00000000000E+00  0.91188000000E+02  0.91188000000E+02 0.  0.
    9900012    2    3    3    0    0 -0.13722887594E+02 -0.15073918432E+01  0.34134902728E+02  0.54367062229E+02  0.39999949964E+02 0.  0.
         12    1    3    3    0    0  0.13722887594E+02  0.15073918432E+01 -0.34134902728E+02  0.36820937771E+02  0.00000000000E+00 0. -1.
         11    1    4    4    0    0 -0.24149396953E+02 -0.95865059921E+00  0.91311528627E+01  0.25835834359E+02  0.51100000000E-03 0. -1.
        -11    1    4    4    0    0  0.62069816488E+01  0.40962863003E+01  0.12620318825E+02  0.14648502659E+02  0.51100000000E-03 0.  1.
         12    1    4    4    0    0  0.42195277098E+01 -0.46450275443E+01  0.12383431040E+02  0.13882725212E+02  0.00000000000E+00 0. -1.
</event>
<event>
 8    1  0.1280925E-006  0.9118800E+02  0.7816164E-02  0.1184000E+00
        -11   -1    0    0    0    0  0.00000000000E+00  0.00000000000E+00  0.45593999997E+02  0.45594000000E+02  0.51100000000E-03 0. -1.
         11   -1    0    0    0    0 -0.00000000000E+00 -0.00000000000E+00 -0.45593999997E+02  0.45594000000E+02  0.51100000000E-03 0.  1.
         23    2    1    2    0    0 -0.35527136788E-14  0.00000000000E+00  0.00000000000E+00  0.91188000000E+02  0.91188000000E+02 0.  0.
    9900012    2    3    3    0    0 -0.14541319908E+02 -0.33709422745E+02 -0.28289758978E+01  0.54367105510E+02  0.40000048630E+02 0.  0.
         12    1    3    3    0    0  0.14541319908E+02  0.33709422745E+02  0.28289758978E+01  0.36820894490E+02  0.00000000000E+00 0. -1.
         11    1    4    4    0    0 -0.66948096039E+01 -0.27339652391E+02 -0.44159717686E+01  0.28491715909E+02  0.51100000000E-03 0. -1.
        -11    1    4    4    0    0  0.70061364491E+01 -0.11119609966E+01 -0.51229819689E+01  0.87502771222E+01  0.51100000000E-03 0.  1.
        -12    1    4    4    0    0 -0.14852646753E+02 -0.52578093571E+01  0.67099778397E+01  0.17125112479E+02  0.00000000000E+00 0.  1.
</event>
<event>
 8    1  0.1280925E-006  0.9118800E+02  0.7816164E-02  0.1184000E+00
        -11   -1    0    0    0    0  0.00000000000E+00  0.00000000000E+00  0.45593999997E+02  0.45594000000E+02  0.51100000000E-03 0. -1.
         11   -1    0    0    0    0 -0.00000000000E+00 -0.00000000000E+00 -0.45593999997E+02  0.45594000000E+02  0.51100000000E-03 0.  1.
         23    2    1    2    0    0  0.00000000000E+00  0.00000000000E+00 -0.17763568394E-14  0.91188000000E+02  0.91188000000E+02 0.  0.
    9900012    2    3    3    0    0  0.76973011695E+01  0.33236581262E+02  0.13851399659E+02  0.54367081329E+02  0.39999993506E+02 0.  0.
        -12    1    3    3    0    0 -0.76973011695E+01 -0.33236581262E+02 -0.13851399659E+02  0.36820918671E+02  0.00000000000E+00 0.  1.
         11    1    4    4    0    0 -0.10126852524E+02  0.80974255354E+01  0.55975942806E+00  0.12978242301E+02  0.51100000000E-03 0. -1.
        -11    1    4    4    0    0  0.18453034918E+01  0.19605397183E+02  0.14471633476E+02  0.24437776482E+02  0.51100000000E-03 0.  1.
        -12    1    4    4    0    0  0.15978850201E+02  0.55337585432E+01 -0.11799932451E+01  0.16951062546E+02  0.00000000000E+00 0.  1.
</event>
<event>
 8    1  0.1280925E-006  0.9118800E+02  0.7816164E-02  0.1184000E+00
        -11   -1    0    0    0    0  0.00000000000E+00  0.00000000000E+00  0.45593999997E+02  0.45594000000E+02  0.51100000000E-03 0.  1.
         11   -1    0    0    0    0 -0.00000000000E+00 -0.00000000000E+00 -0.45593999997E+02  0.45594000000E+02  0.51100000000E-03 0. -1.
         23    2    1    2    0    0  0.00000000000E+00 -0.88817841970E-15 -0.17763568394E-14  0.91188000000E+02  0.91188000000E+02 0.  0.
    9900012    2    3    3    0    0 -0.36294938777E+02  0.46087952957E+01  0.41492167970E+01  0.54367087805E+02  0.40000008268E+02 0.  0.
        -12    1    3    3    0    0  0.36294938777E+02 -0.46087952957E+01 -0.41492167970E+01  0.36820912195E+02  0.00000000000E+00 0.  1.
         11    1    4    4    0    0 -0.14054042079E+02  0.34908226086E+01  0.81940682221E+01  0.16638650652E+02  0.51100000000E-03 0. -1.
        -11    1    4    4    0    0 -0.26267481152E+02 -0.83916659691E+00 -0.11772823042E+02  0.28797293784E+02  0.51100000000E-03 0.  1.
        -12    1    4    4    0    0  0.40265844543E+01  0.19571392840E+01  0.77279716172E+01  0.89311433681E+01  0.00000000000E+00 0.  1.
</event>
<event>
 8    1  0.1280925E-006  0.9118800E+02  0.7816164E-02  0.1184000E+00
        -11   -1    0    0    0    0  0.00000000000E+00  0.00000000000E+00  0.45593999997E+02  0.45594000000E+02  0.51100000000E-03 0.  1.
         11   -1    0    0    0    0 -0.00000000000E+00 -0.00000000000E+00 -0.45593999997E+02  0.45594000000E+02  0.51100000000E-03 0. -1.
         23    2    1    2    0    0  0.00000000000E+00 -0.88817841970E-15 -0.53290705182E-14  0.91188000000E+02  0.91188000000E+02 0.  0.
    9900012    2    3    3    0    0  0.35580287314E+02 -0.37334522944E+01  0.87112164312E+01  0.54367071127E+02  0.39999970247E+02 0.  0.
         12    1    3    3    0    0 -0.35580287314E+02  0.37334522944E+01 -0.87112164312E+01  0.36820928873E+02  0.00000000000E+00 0. -1.
         11    1    4    4    0    0 -0.60379116203E+00  0.81615913861E+01  0.11386908007E+02  0.14022760496E+02  0.51100000000E-03 0. -1.
        -11    1    4    4    0    0  0.32602889815E+02 -0.14185531604E+02 -0.42558964567E+01  0.35809082453E+02  0.51100000000E-03 0.  1.
        -12    1    4    4    0    0  0.35811886612E+01  0.22904879240E+01  0.15802048809E+01  0.45352281775E+01  0.00000000000E+00 0.  1.
</event>
<event>
 8    1  0.1280925E-006  0.9118800E+02  0.7816164E-02  0.1184000E+00
        -11   -1    0    0    0    0  0.00000000000E+00  0.00000000000E+00  0.45593999997E+02  0.45594000000E+02  0.51100000000E-03 0. -1.
         11   -1    0    0    0    0 -0.00000000000E+00 -0.00000000000E+00 -0.45593999997E+02  0.45594000000E+02  0.51100000000E-03 0.  1.
         23    2    1    2    0    0  0.00000000000E+00 -0.35527136788E-14 -0.71054273576E-14  0.91188000000E+02  0.91188000000E+02 0.  0.
    9900012    2    3    3    0    0 -0.15140741505E+02  0.23969384281E+02 -0.23494796720E+02  0.54367096847E+02  0.40000028882E+02 0.  0.
        -12    1    3    3    0    0  0.15140741505E+02 -0.23969384281E+02  0.23494796720E+02  0.36820903153E+02  0.00000000000E+00 0.  1.
         11    1    4    4    0    0 -0.91714277017E+01  0.37018346495E+01  0.60196487721E+00  0.99086340044E+01  0.51100000000E-03 0. -1.
        -11    1    4    4    0    0 -0.19976337197E+01  0.19043162477E+01  0.73364491214E+01  0.78383956791E+01  0.51100000000E-03 0.  1.
        -12    1    4    4    0    0 -0.39716800839E+01  0.18363233383E+02 -0.31433210718E+02  0.36620067163E+02  0.00000000000E+00 0.  1.
</event>
<event>
 8    1  0.1280925E-006  0.9118800E+02  0.7816164E-02  0.1184000E+00
        -11   -1    0    0    0    0  0.00000000000E+00  0.00000000000E+00  0.45593999997E+02  0.45594000000E+02  0.51100000000E-03 0. -1.
         11   -1    0    0    0    0 -0.00000000000E+00 -0.00000000000E+00 -0.45593999997E+02  0.45594000000E+02  0.51100000000E-03 0.  1.
         23    2    1    2    0    0  0.17763568394E-14  0.00000000000E+00  0.35527136788E-14  0.91188000000E+02  0.91188000000E+02 0.  0.
    9900012    2    3    3    0    0  0.11804868921E+02  0.20905431368E+02 -0.27917535359E+02  0.54367071556E+02  0.39999971226E+02 0.  0.
         12    1    3    3    0    0 -0.11804868921E+02 -0.20905431368E+02  0.27917535359E+02  0.36820928444E+02  0.00000000000E+00 0. -1.
         11    1    4    4    0    0  0.73678526303E+01  0.13880583742E+02  0.25435673841E+01  0.15919346491E+02  0.51100000000E-03 0. -1.
        -11    1    4    4    0    0 -0.15050519253E+01  0.13231089290E+02 -0.11361993009E+02  0.17504907612E+02  0.51100000000E-03 0.  1.
         12    1    4    4    0    0  0.59420682159E+01 -0.62062416632E+01 -0.19099109734E+02  0.20942817454E+02  0.00000000000E+00 0. -1.
</event>
<event>
 8    1  0.1280925E-006  0.9118800E+02  0.7816164E-02  0.1184000E+00
        -11   -1    0    0    0    0  0.00000000000E+00  0.00000000000E+00  0.45593999997E+02  0.45594000000E+02  0.51100000000E-03 0.  1.
         11   -1    0    0    0    0 -0.00000000000E+00 -0.00000000000E+00 -0.45593999997E+02  0.45594000000E+02  0.51100000000E-03 0. -1.
         23    2    1    2    0    0 -0.35527136788E-14  0.00000000000E+00  0.00000000000E+00  0.91188000000E+02  0.91188000000E+02 0.  0.
    9900012    2    3    3    0    0 -0.24508335808E+02  0.15955105263E+02 -0.22373094761E+02  0.54367091847E+02  0.40000017484E+02 0.  0.
        -12    1    3    3    0    0  0.24508335808E+02 -0.15955105263E+02  0.22373094761E+02  0.36820908153E+02  0.00000000000E+00 0.  1.
         11    1    4    4    0    0  0.58078140962E+00  0.83782112222E+01 -0.38095495266E+01  0.92219519726E+01  0.51100000000E-03 0. -1.
        -11    1    4    4    0    0 -0.41784277897E+01  0.11380473442E+02 -0.20486151497E+02  0.23804554984E+02  0.51100000000E-03 0.  1.
        -12    1    4    4    0    0 -0.20910689428E+02 -0.38035794011E+01  0.19226062632E+01  0.21340584890E+02  0.00000000000E+00 0.  1.
</event>
<event>
 8    1  0.1280925E-006  0.9118800E+02  0.7816164E-02  0.1184000E+00
        -11   -1    0    0    0    0  0.00000000000E+00  0.00000000000E+00  0.45593999997E+02  0.45594000000E+02  0.51100000000E-03 0.  1.
         11   -1    0    0    0    0 -0.00000000000E+00 -0.00000000000E+00 -0.45593999997E+02  0.45594000000E+02  0.51100000000E-03 0. -1.
         23    2    1    2    0    0 -0.26645352591E-14  0.88817841970E-15  0.00000000000E+00  0.91188000000E+02  0.91188000000E+02 0.  0.
    9900012    2    3    3    0    0 -0.69509514835E+01 -0.72189791416E+01  0.35430876607E+02  0.54367130870E+02  0.40000106443E+02 0.  0.
         12    1    3    3    0    0  0.69509514835E+01  0.72189791416E+01 -0.35430876607E+02  0.36820869130E+02  0.00000000000E+00 0. -1.
         11    1    4    4    0    0  0.19664743190E+01 -0.43799334998E+01 -0.19158564022E+01  0.51692692641E+01  0.51100000000E-03 0. -1.
        -11    1    4    4    0    0  0.10557245064E+02  0.40222950882E+01  0.14899327623E+02  0.18698241763E+02  0.51100000000E-03 0.  1.
        -12    1    4    4    0    0 -0.19474670867E+02 -0.68613407300E+01  0.22447405386E+02  0.30499619843E+02  0.00000000000E+00 0.  1.
</event>
<event>
 8    1  0.1280925E-006  0.9118800E+02  0.7816164E-02  0.1184000E+00
        -11   -1    0    0    0    0  0.00000000000E+00  0.00000000000E+00  0.45593999997E+02  0.45594000000E+02  0.51100000000E-03 0.  1.
         11   -1    0    0    0    0 -0.00000000000E+00 -0.00000000000E+00 -0.45593999997E+02  0.45594000000E+02  0.51100000000E-03 0. -1.
         23    2    1    2    0    0  0.00000000000E+00  0.00000000000E+00 -0.44408920985E-14  0.91188000000E+02  0.91188000000E+02 0.  0.
    9900012    2    3    3    0    0  0.35153653094E+02  0.93704538448E+01  0.56740669130E+01  0.54367085203E+02  0.40000002338E+02 0.  0.
         12    1    3    3    0    0 -0.35153653094E+02 -0.93704538448E+01 -0.56740669130E+01  0.36820914797E+02  0.00000000000E+00 0. -1.
         11    1    4    4    0    0 -0.27934111013E+01  0.46090036419E+01  0.10896832133E+02  0.12156768113E+02  0.51100000000E-03 0. -1.
        -11    1    4    4    0    0  0.11290266342E+02  0.10601362870E+01 -0.97065088122E+01  0.14926832102E+02  0.51100000000E-03 0.  1.
        -12    1    4    4    0    0  0.26656797854E+02  0.37013139159E+01  0.44837435920E+01  0.27283484989E+02  0.00000000000E+00 0.  1.
</event>
<event>
 8    1  0.1280925E-006  0.9118800E+02  0.7816164E-02  0.1184000E+00
        -11   -1    0    0    0    0  0.00000000000E+00  0.00000000000E+00  0.45593999997E+02  0.45594000000E+02  0.51100000000E-03 0. -1.
         11   -1    0    0    0    0 -0.00000000000E+00 -0.00000000000E+00 -0.45593999997E+02  0.45594000000E+02  0.51100000000E-03 0.  1.
         23    2    1    2    0    0  0.17763568394E-14  0.00000000000E+00 -0.88817841970E-15  0.91188000000E+02  0.91188000000E+02 0.  0.
    9900012    2    3    3    0    0 -0.10320762829E+02 -0.34834768802E+02  0.59834376112E+01  0.54367071324E+02  0.39999970698E+02 0.  0.
        -12    1    3    3    0    0  0.10320762829E+02  0.34834768802E+02 -0.59834376112E+01  0.36820928676E+02  0.00000000000E+00 0.  1.
         11    1    4    4    0    0  0.77418207173E+00  0.17116495197E+01  0.36999766373E+01  0.41495697773E+01  0.51100000000E-03 0. -1.
        -11    1    4    4    0    0  0.10441058555E+01 -0.15066324417E+02 -0.14050620076E+02  0.20627753471E+02  0.51100000000E-03 0.  1.
         12    1    4    4    0    0 -0.12139050757E+02 -0.21480093905E+02  0.16334081050E+02  0.29589748076E+02  0.00000000000E+00 0. -1.
</event>
<event>
 8    1  0.1280925E-006  0.9118800E+02  0.7816164E-02  0.1184000E+00
        -11   -1    0    0    0    0  0.00000000000E+00  0.00000000000E+00  0.45593999997E+02  0.45594000000E+02  0.51100000000E-03 0. -1.
         11   -1    0    0    0    0 -0.00000000000E+00 -0.00000000000E+00 -0.45593999997E+02  0.45594000000E+02  0.51100000000E-03 0.  1.
         23    2    1    2    0    0  0.35527136788E-14 -0.35527136788E-14  0.00000000000E+00  0.91188000000E+02  0.91188000000E+02 0.  0.
    9900012    2    3    3    0    0 -0.29624610864E+02  0.19364296561E+02 -0.10158090723E+02  0.54367077180E+02  0.39999984047E+02 0.  0.
        -12    1    3    3    0    0  0.29624610864E+02 -0.19364296561E+02  0.10158090723E+02  0.36820922820E+02  0.00000000000E+00 0.  1.
         11    1    4    4    0    0 -0.21257123720E+02  0.10698593553E+02  0.10394905622E+02  0.25968813527E+02  0.51100000000E-03 0. -1.
        -11    1    4    4    0    0 -0.12896816138E+01 -0.44248463061E+01 -0.61772818105E+01  0.77072274085E+01  0.51100000000E-03 0.  1.
        -12    1    4    4    0    0 -0.70778055307E+01  0.13090549315E+02 -0.14375714535E+02  0.20691036245E+02  0.00000000000E+00 0.  1.
</event>
<event>
 8    1  0.1280925E-006  0.9118800E+02  0.7816164E-02  0.1184000E+00
        -11   -1    0    0    0    0  0.00000000000E+00  0.00000000000E+00  0.45593999997E+02  0.45594000000E+02  0.51100000000E-03 0.  1.
         11   -1    0    0    0    0 -0.00000000000E+00 -0.00000000000E+00 -0.45593999997E+02  0.45594000000E+02  0.51100000000E-03 0. -1.
         23    2    1    2    0    0  0.00000000000E+00  0.00000000000E+00  0.00000000000E+00  0.91188000000E+02  0.91188000000E+02 0.  0.
    9900012    2    3    3    0    0  0.13926274117E+02  0.24128772744E+01  0.34000239536E+02  0.54367090505E+02  0.40000014424E+02 0.  0.
         12    1    3    3    0    0 -0.13926274117E+02 -0.24128772744E+01 -0.34000239536E+02  0.36820909495E+02  0.00000000000E+00 0. -1.
         11    1    4    4    0    0  0.16488348104E+02 -0.58784327291E+01  0.21265486233E+02  0.27543465641E+02  0.51100000000E-03 0. -1.
        -11    1    4    4    0    0  0.95457546254E+01  0.53473836507E+01  0.41976924110E+01  0.11719068441E+02  0.51100000000E-03 0.  1.
        -12    1    4    4    0    0 -0.12107828612E+02  0.29439263527E+01  0.85370608922E+01  0.15104556423E+02  0.00000000000E+00 0.  1.
</event>
<event>
 8    1  0.1280925E-006  0.9118800E+02  0.7816164E-02  0.1184000E+00
        -11   -1    0    0    0    0  0.00000000000E+00  0.00000000000E+00  0.45593999997E+02  0.45594000000E+02  0.51100000000E-03 0.  1.
         11   -1    0    0    0    0 -0.00000000000E+00 -0.00000000000E+00 -0.45593999997E+02  0.45594000000E+02  0.51100000000E-03 0. -1.
         23    2    1    2    0    0 -0.55511151231E-15  0.00000000000E+00  0.00000000000E+00  0.91188000000E+02  0.91188000000E+02 0.  0.
    9900012    2    3    3    0    0 -0.49608579976E+00  0.16600852009E+02  0.32862519412E+02  0.54367087862E+02  0.40000008400E+02 0.  0.
         12    1    3    3    0    0  0.49608579976E+00 -0.16600852009E+02 -0.32862519412E+02  0.36820912138E+02  0.00000000000E+00 0. -1.
         11    1    4    4    0    0 -0.90154483636E+01 -0.39380718588E+01  0.17092801487E+02  0.19721830090E+02  0.51100000000E-03 0. -1.
        -11    1    4    4    0    0  0.66041431248E+01  0.23042834487E+02  0.64737876707E+01  0.24829354697E+02  0.51100000000E-03 0.  1.
        -12    1    4    4    0    0  0.19152194390E+01 -0.25039106192E+01  0.92959302541E+01  0.98159030750E+01  0.00000000000E+00 0.  1.
</event>
<event>
 8    1  0.1280925E-006  0.9118800E+02  0.7816164E-02  0.1184000E+00
        -11   -1    0    0    0    0  0.00000000000E+00  0.00000000000E+00  0.45593999997E+02  0.45594000000E+02  0.51100000000E-03 0.  1.
         11   -1    0    0    0    0 -0.00000000000E+00 -0.00000000000E+00 -0.45593999997E+02  0.45594000000E+02  0.51100000000E-03 0. -1.
         23    2    1    2    0    0  0.17763568394E-14  0.00000000000E+00 -0.71054273576E-14  0.91188000000E+02  0.91188000000E+02 0.  0.
    9900012    2    3    3    0    0 -0.69247082721E+01 -0.68201945101E+01 -0.35514998848E+02  0.54367057848E+02  0.39999939976E+02 0.  0.
        -12    1    3    3    0    0  0.69247082721E+01  0.68201945101E+01  0.35514998848E+02  0.36820942152E+02  0.00000000000E+00 0.  1.
         11    1    4    4    0    0 -0.15330755790E+02 -0.57227433257E+01 -0.16212586365E+02  0.23035403647E+02  0.51100000000E-03 0. -1.
        -11    1    4    4    0    0  0.13931909493E+02  0.59224431200E+01 -0.15361075887E+02  0.21567013871E+02  0.51100000000E-03 0.  1.
         12    1    4    4    0    0 -0.55258619753E+01 -0.70198943045E+01 -0.39413365952E+01  0.97646403299E+01  0.00000000000E+00 0. -1.
</event>
<event>
 8    1  0.1280925E-006  0.9118800E+02  0.7816164E-02  0.1184000E+00
        -11   -1    0    0    0    0  0.00000000000E+00  0.00000000000E+00  0.45593999997E+02  0.45594000000E+02  0.51100000000E-03 0. -1.
         11   -1    0    0    0    0 -0.00000000000E+00 -0.00000000000E+00 -0.45593999997E+02  0.45594000000E+02  0.51100000000E-03 0.  1.
         23    2    1    2    0    0 -0.35527136788E-14  0.35527136788E-14 -0.35527136788E-14  0.91188000000E+02  0.91188000000E+02 0.  0.
    9900012    2    3    3    0    0  0.21556045959E+02 -0.23082882177E+02  0.18928736977E+02  0.54367086777E+02  0.40000005926E+02 0.  0.
        -12    1    3    3    0    0 -0.21556045959E+02  0.23082882177E+02 -0.18928736977E+02  0.36820913223E+02  0.00000000000E+00 0.  1.
         11    1    4    4    0    0  0.19685329536E+02 -0.18591285115E+02  0.25290087088E+02  0.37050460002E+02  0.51100000000E-03 0. -1.
        -11    1    4    4    0    0  0.69144876261E+01 -0.17713507111E+01  0.17840596632E+01  0.73573562926E+01  0.51100000000E-03 0.  1.
        -12    1    4    4    0    0 -0.50437712023E+01 -0.27202463511E+01 -0.81454097746E+01  0.99592704827E+01  0.00000000000E+00 0.  1.
</event>
<event>
 8    1  0.1280925E-006  0.9118800E+02  0.7816164E-02  0.1184000E+00
        -11   -1    0    0    0    0  0.00000000000E+00  0.00000000000E+00  0.45593999997E+02  0.45594000000E+02  0.51100000000E-03 0. -1.
         11   -1    0    0    0    0 -0.00000000000E+00 -0.00000000000E+00 -0.45593999997E+02  0.45594000000E+02  0.51100000000E-03 0.  1.
         23    2    1    2    0    0  0.88817841970E-15  0.35527136788E-14  0.35527136788E-14  0.91188000000E+02  0.91188000000E+02 0.  0.
    9900012    2    3    3    0    0 -0.32942271145E+01 -0.31367673954E+02 -0.18999894138E+02  0.54367097257E+02  0.40000029817E+02 0.  0.
         12    1    3    3    0    0  0.32942271145E+01  0.31367673954E+02  0.18999894138E+02  0.36820902743E+02  0.00000000000E+00 0. -1.
         11    1    4    4    0    0 -0.12042625485E+02 -0.57981972671E+01  0.47237258935E+01  0.14175948177E+02  0.51100000000E-03 0. -1.
        -11    1    4    4    0    0 -0.34412933059E+01 -0.10247469919E+02 -0.20847076707E+01  0.11009048355E+02  0.51100000000E-03 0.  1.
        -12    1    4    4    0    0  0.12189691677E+02 -0.15322006768E+02 -0.21638912361E+02  0.29182100725E+02  0.00000000000E+00 0.  1.
</event>
<event>
 8    1  0.1280925E-006  0.9118800E+02  0.7816164E-02  0.1184000E+00
        -11   -1    0    0    0    0  0.00000000000E+00  0.00000000000E+00  0.45593999997E+02  0.45594000000E+02  0.51100000000E-03 0. -1.
         11   -1    0    0    0    0 -0.00000000000E+00 -0.00000000000E+00 -0.45593999997E+02  0.45594000000E+02  0.51100000000E-03 0.  1.
         23    2    1    2    0    0  0.00000000000E+00  0.17763568394E-14  0.00000000000E+00  0.91188000000E+02  0.91188000000E+02 0.  0.
    9900012    2    3    3    0    0  0.29275938334E+02  0.31745457427E+01 -0.22104816215E+02  0.54367065656E+02  0.39999957777E+02 0.  0.
         12    1    3    3    0    0 -0.29275938334E+02 -0.31745457427E+01  0.22104816215E+02  0.36820934344E+02  0.00000000000E+00 0. -1.
         11    1    4    4    0    0  0.10460766287E+01 -0.11745531605E+01  0.62024072900E+00  0.16907247745E+01  0.51100000000E-03 0. -1.
        -11    1    4    4    0    0  0.93782027315E+01 -0.15856970205E+02 -0.15594200421E+02  0.24136554799E+02  0.51100000000E-03 0.  1.
         12    1    4    4    0    0  0.18851658974E+02  0.20206069108E+02 -0.71308565231E+01  0.28539786083E+02  0.00000000000E+00 0. -1.
</event>
<event>
 8    1  0.1280925E-006  0.9118800E+02  0.7816164E-02  0.1184000E+00
        -11   -1    0    0    0    0  0.00000000000E+00  0.00000000000E+00  0.45593999997E+02  0.45594000000E+02  0.51100000000E-03 0. -1.
         11   -1    0    0    0    0 -0.00000000000E+00 -0.00000000000E+00 -0.45593999997E+02  0.45594000000E+02  0.51100000000E-03 0.  1.
         23    2    1    2    0    0  0.17763568394E-14  0.00000000000E+00 -0.35527136788E-14  0.91188000000E+02  0.91188000000E+02 0.  0.
    9900012    2    3    3    0    0  0.15887457498E+02  0.18007705000E+02 -0.27912175504E+02  0.54367105300E+02  0.40000048153E+02 0.  0.
         12    1    3    3    0    0 -0.15887457498E+02 -0.18007705000E+02  0.27912175504E+02  0.36820894700E+02  0.00000000000E+00 0. -1.
         11    1    4    4    0    0  0.14757343403E+01 -0.98859642821E+00  0.33467689435E+01  0.37889282605E+01  0.51100000000E-03 0. -1.
        -11    1    4    4    0    0 -0.13304774744E+01 -0.82127672787E+01 -0.61462695319E+01  0.10343903814E+02  0.51100000000E-03 0.  1.
        -12    1    4    4    0    0  0.15742200633E+02  0.27209068707E+02 -0.25112674915E+02  0.40234273226E+02  0.00000000000E+00 0.  1.
</event>
<event>
 8    1  0.1280925E-006  0.9118800E+02  0.7816164E-02  0.1184000E+00
        -11   -1    0    0    0    0  0.00000000000E+00  0.00000000000E+00  0.45593999997E+02  0.45594000000E+02  0.51100000000E-03 0.  1.
         11   -1    0    0    0    0 -0.00000000000E+00 -0.00000000000E+00 -0.45593999997E+02  0.45594000000E+02  0.51100000000E-03 0. -1.
         23    2    1    2    0    0 -0.35527136788E-14  0.17763568394E-14  0.00000000000E+00  0.91188000000E+02  0.91188000000E+02 0.  0.
    9900012    2    3    3    0    0 -0.26073046251E+02  0.10117294721E+02 -0.23950080918E+02  0.54367220958E+02  0.40000311816E+02 0.  0.
        -12    1    3    3    0    0  0.26073046251E+02 -0.10117294721E+02  0.23950080918E+02  0.36820779042E+02  0.00000000000E+00 0.  1.
         11    1    4    4    0    0 -0.53740028194E+01 -0.18041617351E+01  0.46449951747E+01  0.73287711319E+01  0.51100000000E-03 0. -1.
        -11    1    4    4    0    0  0.23027102778E+01 -0.66906457444E+01 -0.22613149410E+01  0.74283753691E+01  0.51100000000E-03 0.  1.
         12    1    4    4    0    0 -0.23001753710E+02  0.18612102201E+02 -0.26333761152E+02  0.39610074457E+02  0.00000000000E+00 0. -1.
</event>
<event>
 8    1  0.1280925E-006  0.9118800E+02  0.7816164E-02  0.1184000E+00
        -11   -1    0    0    0    0  0.00000000000E+00  0.00000000000E+00  0.45593999997E+02  0.45594000000E+02  0.51100000000E-03 0. -1.
         11   -1    0    0    0    0 -0.00000000000E+00 -0.00000000000E+00 -0.45593999997E+02  0.45594000000E+02  0.51100000000E-03 0.  1.
         23    2    1    2    0    0 -0.17763568394E-14 -0.35527136788E-14 -0.35527136788E-14  0.91188000000E+02  0.91188000000E+02 0.  0.
    9900012    2    3    3    0    0 -0.84889466608E+01 -0.20215467204E+02 -0.29581330348E+02  0.54367048969E+02  0.39999919734E+02 0.  0.
         12    1    3    3    0    0  0.84889466608E+01  0.20215467204E+02  0.29581330348E+02  0.36820951031E+02  0.00000000000E+00 0. -1.
         11    1    4    4    0    0  0.73861431452E+01 -0.87005936154E+01 -0.22387585631E+01  0.11630454849E+02  0.51100000000E-03 0.  1.
        -11    1    4    4    0    0 -0.17277346839E+02 -0.15056638710E+02 -0.10040931525E+02  0.25020579313E+02  0.51100000000E-03 0. -1.
         12    1    4    4    0    0  0.14022570328E+01  0.35417651215E+01 -0.17301640260E+02  0.17716014807E+02  0.00000000000E+00 0. -1.
</event>
<event>
 8    1  0.1280925E-006  0.9118800E+02  0.7816164E-02  0.1184000E+00
        -11   -1    0    0    0    0  0.00000000000E+00  0.00000000000E+00  0.45593999997E+02  0.45594000000E+02  0.51100000000E-03 0. -1.
         11   -1    0    0    0    0 -0.00000000000E+00 -0.00000000000E+00 -0.45593999997E+02  0.45594000000E+02  0.51100000000E-03 0.  1.
         23    2    1    2    0    0  0.35527136788E-14  0.44408920985E-15  0.35527136788E-14  0.91188000000E+02  0.91188000000E+02 0.  0.
    9900012    2    3    3    0    0  0.24627207167E+02  0.12223652492E+00  0.27372713763E+02  0.54367085653E+02  0.40000003363E+02 0.  0.
        -12    1    3    3    0    0 -0.24627207167E+02 -0.12223652492E+00 -0.27372713763E+02  0.36820914347E+02  0.00000000000E+00 0.  1.
         11    1    4    4    0    0  0.11269028957E+02  0.10234856253E+02 -0.39152185352E+01  0.15718531503E+02  0.51100000000E-03 0. -1.
        -11    1    4    4    0    0 -0.24795779039E+01 -0.99363789675E+00  0.11101589312E+02  0.11418445969E+02  0.51100000000E-03 0.  1.
         12    1    4    4    0    0  0.15837756114E+02 -0.91189818317E+01  0.20186342986E+02  0.27230108181E+02  0.00000000000E+00 0. -1.
</event>
<event>
 8    1  0.1280925E-006  0.9118800E+02  0.7816164E-02  0.1184000E+00
        -11   -1    0    0    0    0  0.00000000000E+00  0.00000000000E+00  0.45593999997E+02  0.45594000000E+02  0.51100000000E-03 0.  1.
         11   -1    0    0    0    0 -0.00000000000E+00 -0.00000000000E+00 -0.45593999997E+02  0.45594000000E+02  0.51100000000E-03 0. -1.
         23    2    1    2    0    0 -0.35527136788E-14 -0.88817841970E-15  0.00000000000E+00  0.91188000000E+02  0.91188000000E+02 0.  0.
    9900012    2    3    3    0    0  0.16925194410E+02  0.25247092477E+01 -0.32602816745E+02  0.54367081729E+02  0.39999994418E+02 0.  0.
        -12    1    3    3    0    0 -0.16925194410E+02 -0.25247092477E+01  0.32602816745E+02  0.36820918271E+02  0.00000000000E+00 0.  1.
         11    1    4    4    0    0  0.10097739726E+02 -0.15103254268E+02 -0.20415112591E+02  0.27328546603E+02  0.51100000000E-03 0. -1.
        -11    1    4    4    0    0  0.70801080044E+01  0.36412436856E+01 -0.10153013548E+02  0.12902335808E+02  0.51100000000E-03 0.  1.
        -12    1    4    4    0    0 -0.25265331986E+00  0.13986719830E+02 -0.20346906057E+01  0.14136199318E+02  0.00000000000E+00 0.  1.
</event>
<event>
 8    1  0.1280925E-006  0.9118800E+02  0.7816164E-02  0.1184000E+00
        -11   -1    0    0    0    0  0.00000000000E+00  0.00000000000E+00  0.45593999997E+02  0.45594000000E+02  0.51100000000E-03 0. -1.
         11   -1    0    0    0    0 -0.00000000000E+00 -0.00000000000E+00 -0.45593999997E+02  0.45594000000E+02  0.51100000000E-03 0.  1.
         23    2    1    2    0    0  0.17763568394E-14  0.00000000000E+00 -0.35527136788E-14  0.91188000000E+02  0.91188000000E+02 0.  0.
    9900012    2    3    3    0    0  0.11111188735E+01 -0.34377102005E+02 -0.13143777743E+02  0.54367100761E+02  0.40000037804E+02 0.  0.
         12    1    3    3    0    0 -0.11111188735E+01  0.34377102005E+02  0.13143777743E+02  0.36820899239E+02  0.00000000000E+00 0. -1.
         11    1    4    4    0    0  0.11201586989E+01 -0.16272771736E+02  0.76883270897E+01  0.18032421611E+02  0.51100000000E-03 0. -1.
        -11    1    4    4    0    0 -0.83079533530E+01 -0.12665957054E+02 -0.23104009760E+01  0.15322744857E+02  0.51100000000E-03 0.  1.
        -12    1    4    4    0    0  0.82989135275E+01 -0.54383732155E+01 -0.18521703856E+02  0.21011934292E+02  0.00000000000E+00 0.  1.
</event>
<event>
 8    1  0.1280925E-006  0.9118800E+02  0.7816164E-02  0.1184000E+00
        -11   -1    0    0    0    0  0.00000000000E+00  0.00000000000E+00  0.45593999997E+02  0.45594000000E+02  0.51100000000E-03 0.  1.
         11   -1    0    0    0    0 -0.00000000000E+00 -0.00000000000E+00 -0.45593999997E+02  0.45594000000E+02  0.51100000000E-03 0. -1.
         23    2    1    2    0    0  0.17763568394E-14  0.00000000000E+00 -0.88817841970E-15  0.91188000000E+02  0.91188000000E+02 0.  0.
    9900012    2    3    3    0    0  0.34479919902E+01 -0.36150031390E+02  0.60881090155E+01  0.54367102542E+02  0.40000041864E+02 0.  0.
        -12    1    3    3    0    0 -0.34479919902E+01  0.36150031390E+02 -0.60881090155E+01  0.36820897458E+02  0.00000000000E+00 0.  1.
         11    1    4    4    0    0 -0.21354330659E+01 -0.34388134763E+02  0.85145229999E+01  0.35490857823E+02  0.51100000000E-03 0. -1.
        -11    1    4    4    0    0  0.88487488894E+01 -0.16757699161E+01 -0.82406710964E+01  0.12207261040E+02  0.51100000000E-03 0.  1.
        -12    1    4    4    0    0 -0.32653238332E+01 -0.86126711137E-01  0.58142571119E+01  0.66689836789E+01  0.00000000000E+00 0.  1.
</event>
<event>
 8    1  0.1280925E-006  0.9118800E+02  0.7816164E-02  0.1184000E+00
        -11   -1    0    0    0    0  0.00000000000E+00  0.00000000000E+00  0.45593999997E+02  0.45594000000E+02  0.51100000000E-03 0. -1.
         11   -1    0    0    0    0 -0.00000000000E+00 -0.00000000000E+00 -0.45593999997E+02  0.45594000000E+02  0.51100000000E-03 0.  1.
         23    2    1    2    0    0 -0.35527136788E-14  0.00000000000E+00  0.00000000000E+00  0.91188000000E+02  0.91188000000E+02 0.  0.
    9900012    2    3    3    0    0  0.25688649252E+02 -0.11132183626E+02 -0.23915403528E+02  0.54367099162E+02  0.40000034159E+02 0.  0.
         12    1    3    3    0    0 -0.25688649252E+02  0.11132183626E+02  0.23915403528E+02  0.36820900838E+02  0.00000000000E+00 0. -1.
         11    1    4    4    0    0  0.19393571778E+02  0.23407598091E+00 -0.22994278872E+01  0.19530816336E+02  0.51100000000E-03 0. -1.
        -11    1    4    4    0    0 -0.20522123422E+01 -0.13069898803E+02 -0.19095018653E+01  0.13367124891E+02  0.51100000000E-03 0.  1.
         12    1    4    4    0    0  0.83472898160E+01  0.17036391961E+01 -0.19706473775E+02  0.21469157935E+02  0.00000000000E+00 0. -1.
</event>
<event>
 8    1  0.1280925E-006  0.9118800E+02  0.7816164E-02  0.1184000E+00
        -11   -1    0    0    0    0  0.00000000000E+00  0.00000000000E+00  0.45593999997E+02  0.45594000000E+02  0.51100000000E-03 0.  1.
         11   -1    0    0    0    0 -0.00000000000E+00 -0.00000000000E+00 -0.45593999997E+02  0.45594000000E+02  0.51100000000E-03 0. -1.
         23    2    1    2    0    0  0.00000000000E+00 -0.35527136788E-14  0.00000000000E+00  0.91188000000E+02  0.91188000000E+02 0.  0.
    9900012    2    3    3    0    0 -0.30478696192E+01  0.29758416635E+02 -0.21469301871E+02  0.54367030530E+02  0.39999877700E+02 0.  0.
        -12    1    3    3    0    0  0.30478696192E+01 -0.29758416635E+02  0.21469301871E+02  0.36820969470E+02  0.00000000000E+00 0.  1.
         11    1    4    4    0    0  0.17973178354E+01 -0.36921578359E+00 -0.20563931914E+02  0.20645628296E+02  0.51100000000E-03 0. -1.
        -11    1    4    4    0    0 -0.80650348281E+01  0.28796815941E+02 -0.22442482681E+01  0.29988965398E+02  0.51100000000E-03 0.  1.
        -12    1    4    4    0    0  0.32198473735E+01  0.13308164783E+01  0.13388783112E+01  0.37324368367E+01  0.00000000000E+00 0.  1.
</event>
<event>
 8    1  0.1280925E-006  0.9118800E+02  0.7816164E-02  0.1184000E+00
        -11   -1    0    0    0    0  0.00000000000E+00  0.00000000000E+00  0.45593999997E+02  0.45594000000E+02  0.51100000000E-03 0.  1.
         11   -1    0    0    0    0 -0.00000000000E+00 -0.00000000000E+00 -0.45593999997E+02  0.45594000000E+02  0.51100000000E-03 0. -1.
         23    2    1    2    0    0  0.00000000000E+00  0.00000000000E+00  0.00000000000E+00  0.91188000000E+02  0.91188000000E+02 0.  0.
    9900012    2    3    3    0    0  0.34308889953E+02 -0.12678260566E+02  0.42357027047E+01  0.54367090204E+02  0.40000013738E+02 0.  0.
         12    1    3    3    0    0 -0.34308889953E+02  0.12678260566E+02 -0.42357027047E+01  0.36820909796E+02  0.00000000000E+00 0. -1.
         11    1    4    4    0    0 -0.29251667226E+01  0.63285547507E+01  0.71592176508E+01  0.99930777651E+01  0.51100000000E-03 0. -1.
        -11    1    4    4    0    0  0.29736294448E+02 -0.21136874224E+02 -0.23789189634E+01  0.36560551351E+02  0.51100000000E-03 0.  1.
        -12    1    4    4    0    0  0.74977622284E+01  0.21300589068E+01 -0.54459598269E+00  0.78134610874E+01  0.00000000000E+00 0.  1.
</event>
<event>
 8    1  0.1280925E-006  0.9118800E+02  0.7816164E-02  0.1184000E+00
        -11   -1    0    0    0    0  0.00000000000E+00  0.00000000000E+00  0.45593999997E+02  0.45594000000E+02  0.51100000000E-03 0.  1.
         11   -1    0    0    0    0 -0.00000000000E+00 -0.00000000000E+00 -0.45593999997E+02  0.45594000000E+02  0.51100000000E-03 0. -1.
         23    2    1    2    0    0  0.00000000000E+00  0.22204460493E-14  0.00000000000E+00  0.91188000000E+02  0.91188000000E+02 0.  0.
    9900012    2    3    3    0    0 -0.20184466686E+02 -0.22095020393E+01  0.30716194829E+02  0.54367092632E+02  0.40000019272E+02 0.  0.
         12    1    3    3    0    0  0.20184466686E+02  0.22095020393E+01 -0.30716194829E+02  0.36820907368E+02  0.00000000000E+00 0. -1.
         11    1    4    4    0    0 -0.46419726382E+01  0.68547842251E+01  0.98430540237E+00  0.83369559272E+01  0.51100000000E-03 0. -1.
        -11    1    4    4    0    0 -0.23767065488E+02 -0.11681135345E+02  0.21646881688E+02  0.34203944392E+02  0.51100000000E-03 0.  1.
         12    1    4    4    0    0  0.82245714402E+01  0.26168490804E+01  0.80850077381E+01  0.11826192312E+02  0.00000000000E+00 0. -1.
</event>
<event>
 8    1  0.1280925E-006  0.9118800E+02  0.7816164E-02  0.1184000E+00
        -11   -1    0    0    0    0  0.00000000000E+00  0.00000000000E+00  0.45593999997E+02  0.45594000000E+02  0.51100000000E-03 0.  1.
         11   -1    0    0    0    0 -0.00000000000E+00 -0.00000000000E+00 -0.45593999997E+02  0.45594000000E+02  0.51100000000E-03 0. -1.
         23    2    1    2    0    0  0.00000000000E+00  0.71054273576E-14  0.17763568394E-14  0.91188000000E+02  0.91188000000E+02 0.  0.
    9900012    2    3    3    0    0  0.96498856305E+01  0.34027945807E+02  0.10235268909E+02  0.54367053269E+02  0.39999929538E+02 0.  0.
         12    1    3    3    0    0 -0.96498856305E+01 -0.34027945807E+02 -0.10235268909E+02  0.36820946731E+02  0.00000000000E+00 0. -1.
         11    1    4    4    0    0  0.11940952917E+02  0.44337735782E+01 -0.61863908700E+01  0.14160372063E+02  0.51100000000E-03 0. -1.
        -11    1    4    4    0    0 -0.81907255873E+01  0.21344012183E+01  0.53709898098E+01  0.10024529216E+02  0.51100000000E-03 0.  1.
         12    1    4    4    0    0  0.58996583013E+01  0.27459771010E+02  0.11050669969E+02  0.30182151990E+02  0.00000000000E+00 0. -1.
</event>
<event>
 8    1  0.1280925E-006  0.9118800E+02  0.7816164E-02  0.1184000E+00
        -11   -1    0    0    0    0  0.00000000000E+00  0.00000000000E+00  0.45593999997E+02  0.45594000000E+02  0.51100000000E-03 0.  1.
         11   -1    0    0    0    0 -0.00000000000E+00 -0.00000000000E+00 -0.45593999997E+02  0.45594000000E+02  0.51100000000E-03 0. -1.
         23    2    1    2    0    0 -0.35527136788E-14  0.88817841970E-15  0.00000000000E+00  0.91188000000E+02  0.91188000000E+02 0.  0.
    9900012    2    3    3    0    0 -0.31307721472E+02 -0.78628057318E+01  0.17713905532E+02  0.54367087641E+02  0.40000007896E+02 0.  0.
         12    1    3    3    0    0  0.31307721472E+02  0.78628057318E+01 -0.17713905532E+02  0.36820912359E+02  0.00000000000E+00 0. -1.
         11    1    4    4    0    0 -0.23269451660E+01 -0.10547605765E+02 -0.28478695129E+01  0.11170363566E+02  0.51100000000E-03 0. -1.
        -11    1    4    4    0    0 -0.29240415032E+01 -0.47970837614E+01  0.14313222308E+02  0.15376292285E+02  0.51100000000E-03 0.  1.
        -12    1    4    4    0    0 -0.26056734803E+02  0.74818837945E+01  0.62485527364E+01  0.27820431790E+02  0.00000000000E+00 0.  1.
</event>
<event>
 8    1  0.1280925E-006  0.9118800E+02  0.7816164E-02  0.1184000E+00
        -11   -1    0    0    0    0  0.00000000000E+00  0.00000000000E+00  0.45593999997E+02  0.45594000000E+02  0.51100000000E-03 0.  1.
         11   -1    0    0    0    0 -0.00000000000E+00 -0.00000000000E+00 -0.45593999997E+02  0.45594000000E+02  0.51100000000E-03 0. -1.
         23    2    1    2    0    0  0.00000000000E+00  0.00000000000E+00 -0.44408920985E-15  0.91188000000E+02  0.91188000000E+02 0.  0.
    9900012    2    3    3    0    0 -0.23038686690E+02 -0.28462928305E+02  0.38549166357E+01  0.54367085368E+02  0.40000002712E+02 0.  0.
        -12    1    3    3    0    0  0.23038686690E+02  0.28462928305E+02 -0.38549166357E+01  0.36820914632E+02  0.00000000000E+00 0.  1.
         11    1    4    4    0    0  0.33555110282E+00 -0.13447783124E+02  0.13826358391E+02  0.19290506788E+02  0.51100000000E-03 0.  1.
        -11    1    4    4    0    0 -0.25239878100E+02 -0.16193773584E+02 -0.60730369089E+01  0.30596920220E+02  0.51100000000E-03 0. -1.
        -12    1    4    4    0    0  0.18656403073E+01  0.11786284029E+01 -0.38984048469E+01  0.44796583596E+01  0.00000000000E+00 0.  1.
</event>
<event>
 8    1  0.1280925E-006  0.9118800E+02  0.7816164E-02  0.1184000E+00
        -11   -1    0    0    0    0  0.00000000000E+00  0.00000000000E+00  0.45593999997E+02  0.45594000000E+02  0.51100000000E-03 0. -1.
         11   -1    0    0    0    0 -0.00000000000E+00 -0.00000000000E+00 -0.45593999997E+02  0.45594000000E+02  0.51100000000E-03 0.  1.
         23    2    1    2    0    0  0.00000000000E+00  0.00000000000E+00  0.00000000000E+00  0.91188000000E+02  0.91188000000E+02 0.  0.
    9900012    2    3    3    0    0 -0.12842882725E+02 -0.67888929572E+01 -0.33834164615E+02  0.54367090187E+02  0.40000013699E+02 0.  0.
         12    1    3    3    0    0  0.12842882725E+02  0.67888929572E+01  0.33834164615E+02  0.36820909813E+02  0.00000000000E+00 0. -1.
         11    1    4    4    0    0 -0.12513742541E+02 -0.31312416618E+01 -0.20373753574E+02  0.24114067714E+02  0.51100000000E-03 0. -1.
        -11    1    4    4    0    0 -0.72156473232E+01  0.10107798294E+00 -0.19213631859E+02  0.20524118313E+02  0.51100000000E-03 0.  1.
         12    1    4    4    0    0  0.68865071391E+01 -0.37587292783E+01  0.57532208187E+01  0.97289041599E+01  0.00000000000E+00 0. -1.
</event>
<event>
 8    1  0.1280925E-006  0.9118800E+02  0.7816164E-02  0.1184000E+00
        -11   -1    0    0    0    0  0.00000000000E+00  0.00000000000E+00  0.45593999997E+02  0.45594000000E+02  0.51100000000E-03 0.  1.
         11   -1    0    0    0    0 -0.00000000000E+00 -0.00000000000E+00 -0.45593999997E+02  0.45594000000E+02  0.51100000000E-03 0. -1.
         23    2    1    2    0    0  0.00000000000E+00  0.44408920985E-15 -0.88817841970E-15  0.91188000000E+02  0.91188000000E+02 0.  0.
    9900012    2    3    3    0    0 -0.36189983828E+02 -0.38760652276E+01  0.55714468981E+01  0.54367084318E+02  0.40000000319E+02 0.  0.
        -12    1    3    3    0    0  0.36189983828E+02  0.38760652276E+01 -0.55714468981E+01  0.36820915682E+02  0.00000000000E+00 0.  1.
         11    1    4    4    0    0 -0.73009564326E+01  0.90118022774E+01 -0.12671408475E+02  0.17177925897E+02  0.51100000000E-03 0. -1.
        -11    1    4    4    0    0 -0.17375185016E+02 -0.41329277036E+01  0.11397088900E+02  0.21186594380E+02  0.51100000000E-03 0.  1.
         12    1    4    4    0    0 -0.11513842379E+02 -0.87549398014E+01  0.68457664730E+01  0.16002564040E+02  0.00000000000E+00 0. -1.
</event>
<event>
 8    1  0.1280925E-006  0.9118800E+02  0.7816164E-02  0.1184000E+00
        -11   -1    0    0    0    0  0.00000000000E+00  0.00000000000E+00  0.45593999997E+02  0.45594000000E+02  0.51100000000E-03 0. -1.
         11   -1    0    0    0    0 -0.00000000000E+00 -0.00000000000E+00 -0.45593999997E+02  0.45594000000E+02  0.51100000000E-03 0.  1.
         23    2    1    2    0    0  0.00000000000E+00  0.00000000000E+00  0.00000000000E+00  0.91188000000E+02  0.91188000000E+02 0.  0.
    9900012    2    3    3    0    0  0.17363186817E+02  0.24107177005E+02  0.21751854633E+02  0.54367089914E+02  0.40000013077E+02 0.  0.
        -12    1    3    3    0    0 -0.17363186817E+02 -0.24107177005E+02 -0.21751854633E+02  0.36820910086E+02  0.00000000000E+00 0.  1.
         11    1    4    4    0    0 -0.42775914759E+00  0.15988941978E+02  0.22041043967E+02  0.27233010537E+02  0.51100000000E-03 0. -1.
        -11    1    4    4    0    0  0.21421969923E+02  0.63605959167E+01 -0.25803205541E+01  0.22494800070E+02  0.51100000000E-03 0.  1.
        -12    1    4    4    0    0 -0.36310239576E+01  0.17576391103E+01  0.22911312194E+01  0.46392793069E+01  0.00000000000E+00 0.  1.
</event>
<event>
 8    1  0.1280925E-006  0.9118800E+02  0.7816164E-02  0.1184000E+00
        -11   -1    0    0    0    0  0.00000000000E+00  0.00000000000E+00  0.45593999997E+02  0.45594000000E+02  0.51100000000E-03 0.  1.
         11   -1    0    0    0    0 -0.00000000000E+00 -0.00000000000E+00 -0.45593999997E+02  0.45594000000E+02  0.51100000000E-03 0. -1.
         23    2    1    2    0    0  0.00000000000E+00  0.17763568394E-14  0.35527136788E-14  0.91188000000E+02  0.91188000000E+02 0.  0.
    9900012    2    3    3    0    0  0.28294041841E+02  0.92648449503E+01 -0.21665458689E+02  0.54367051399E+02  0.39999925275E+02 0.  0.
        -12    1    3    3    0    0 -0.28294041841E+02 -0.92648449503E+01  0.21665458689E+02  0.36820948601E+02  0.00000000000E+00 0.  1.
         11    1    4    4    0    0  0.33177166197E+02  0.95653935402E+01 -0.14743857828E+02  0.37544672782E+02  0.51100000000E-03 0. -1.
        -11    1    4    4    0    0 -0.19828078717E+01  0.81983933299E+00  0.44998936045E+01  0.49852488705E+01  0.51100000000E-03 0.  1.
         12    1    4    4    0    0 -0.29003164840E+01 -0.11203879230E+01 -0.11421494465E+02  0.11837129746E+02  0.00000000000E+00 0. -1.
</event>
<event>
 8    1  0.1280925E-006  0.9118800E+02  0.7816164E-02  0.1184000E+00
        -11   -1    0    0    0    0  0.00000000000E+00  0.00000000000E+00  0.45593999997E+02  0.45594000000E+02  0.51100000000E-03 0.  1.
         11   -1    0    0    0    0 -0.00000000000E+00 -0.00000000000E+00 -0.45593999997E+02  0.45594000000E+02  0.51100000000E-03 0. -1.
         23    2    1    2    0    0  0.88817841970E-15  0.11102230246E-14  0.71054273576E-14  0.91188000000E+02  0.91188000000E+02 0.  0.
    9900012    2    3    3    0    0 -0.64494961414E+00 -0.15494430279E+01  0.36782644425E+02  0.54367086587E+02  0.40000005492E+02 0.  0.
         12    1    3    3    0    0  0.64494961414E+00  0.15494430279E+01 -0.36782644425E+02  0.36820913413E+02  0.00000000000E+00 0. -1.
         11    1    4    4    0    0 -0.77500353093E+01 -0.66736491339E+01  0.20921113457E+02  0.23287198814E+02  0.51100000000E-03 0. -1.
        -11    1    4    4    0    0  0.12220420014E+02 -0.35919602699E+01  0.16626399111E+02  0.20944641118E+02  0.51100000000E-03 0.  1.
         12    1    4    4    0    0 -0.51153343190E+01  0.87161663759E+01 -0.76486814295E+00  0.10135246655E+02  0.00000000000E+00 0. -1.
</event>
<event>
 8    1  0.1280925E-006  0.9118800E+02  0.7816164E-02  0.1184000E+00
        -11   -1    0    0    0    0  0.00000000000E+00  0.00000000000E+00  0.45593999997E+02  0.45594000000E+02  0.51100000000E-03 0. -1.
         11   -1    0    0    0    0 -0.00000000000E+00 -0.00000000000E+00 -0.45593999997E+02  0.45594000000E+02  0.51100000000E-03 0.  1.
         23    2    1    2    0    0  0.00000000000E+00 -0.35527136788E-14  0.00000000000E+00  0.91188000000E+02  0.91188000000E+02 0.  0.
    9900012    2    3    3    0    0  0.16848217712E+02  0.30283218637E+02 -0.12443649956E+02  0.54367079380E+02  0.39999989063E+02 0.  0.
         12    1    3    3    0    0 -0.16848217712E+02 -0.30283218637E+02  0.12443649956E+02  0.36820920620E+02  0.00000000000E+00 0. -1.
         11    1    4    4    0    0 -0.52409663433E+01 -0.12555209001E+01 -0.55320610418E+01  0.77231962667E+01  0.51100000000E-03 0. -1.
        -11    1    4    4    0    0  0.13537577752E+02  0.33643616526E+02 -0.94544730881E+01  0.37477273193E+02  0.51100000000E-03 0.  1.
        -12    1    4    4    0    0  0.85516063040E+01 -0.21048769890E+01  0.25428841744E+01  0.91666099209E+01  0.00000000000E+00 0.  1.
</event>
<event>
 8    1  0.1280925E-006  0.9118800E+02  0.7816164E-02  0.1184000E+00
        -11   -1    0    0    0    0  0.00000000000E+00  0.00000000000E+00  0.45593999997E+02  0.45594000000E+02  0.51100000000E-03 0.  1.
         11   -1    0    0    0    0 -0.00000000000E+00 -0.00000000000E+00 -0.45593999997E+02  0.45594000000E+02  0.51100000000E-03 0. -1.
         23    2    1    2    0    0  0.66613381478E-15  0.00000000000E+00 -0.17763568394E-14  0.91188000000E+02  0.91188000000E+02 0.  0.
    9900012    2    3    3    0    0  0.15874767358E+01 -0.34212937943E+02 -0.13517868818E+02  0.54367109429E+02  0.40000057565E+02 0.  0.
         12    1    3    3    0    0 -0.15874767358E+01  0.34212937943E+02  0.13517868818E+02  0.36820890571E+02  0.00000000000E+00 0. -1.
         11    1    4    4    0    0 -0.21473350202E+01  0.79355902522E+01  0.75430481745E+00  0.82555203566E+01  0.51100000000E-03 0. -1.
        -11    1    4    4    0    0  0.38581964553E+01 -0.28951504069E+02 -0.15115670042E+02  0.32887060507E+02  0.51100000000E-03 0.  1.
         12    1    4    4    0    0 -0.12338469929E+00 -0.13197024127E+02  0.84349640673E+00  0.13224528565E+02  0.00000000000E+00 0. -1.
</event>
<event>
 8    1  0.1280925E-006  0.9118800E+02  0.7816164E-02  0.1184000E+00
        -11   -1    0    0    0    0  0.00000000000E+00  0.00000000000E+00  0.45593999997E+02  0.45594000000E+02  0.51100000000E-03 0.  1.
         11   -1    0    0    0    0 -0.00000000000E+00 -0.00000000000E+00 -0.45593999997E+02  0.45594000000E+02  0.51100000000E-03 0. -1.
         23    2    1    2    0    0  0.00000000000E+00  0.44408920985E-15  0.00000000000E+00  0.91188000000E+02  0.91188000000E+02 0.  0.
    9900012    2    3    3    0    0 -0.15751544495E+02  0.75315313549E+00  0.33273126190E+02  0.54367091264E+02  0.40000016155E+02 0.  0.
         12    1    3    3    0    0  0.15751544495E+02 -0.75315313549E+00 -0.33273126190E+02  0.36820908736E+02  0.00000000000E+00 0. -1.
         11    1    4    4    0    0 -0.70619099616E+01  0.19690414449E+01  0.12985174889E+01  0.74453908190E+01  0.51100000000E-03 0. -1.
        -11    1    4    4    0    0  0.29244887301E+01 -0.13870289614E+02  0.24248466789E+02  0.28087821386E+02  0.51100000000E-03 0.  1.
        -12    1    4    4    0    0 -0.11614123264E+02  0.12654401305E+02  0.77261419122E+01  0.18833879059E+02  0.00000000000E+00 0.  1.
</event>
<event>
 8    1  0.1280925E-006  0.9118800E+02  0.7816164E-02  0.1184000E+00
        -11   -1    0    0    0    0  0.00000000000E+00  0.00000000000E+00  0.45593999997E+02  0.45594000000E+02  0.51100000000E-03 0. -1.
         11   -1    0    0    0    0 -0.00000000000E+00 -0.00000000000E+00 -0.45593999997E+02  0.45594000000E+02  0.51100000000E-03 0.  1.
         23    2    1    2    0    0  0.00000000000E+00  0.00000000000E+00  0.00000000000E+00  0.91188000000E+02  0.91188000000E+02 0.  0.
    9900012    2    3    3    0    0  0.98073372804E+01 -0.34310495115E+02 -0.90766818901E+01  0.54367080760E+02  0.39999992209E+02 0.  0.
         12    1    3    3    0    0 -0.98073372804E+01  0.34310495115E+02  0.90766818901E+01  0.36820919240E+02  0.00000000000E+00 0. -1.
         11    1    4    4    0    0 -0.18794236389E+01  0.77827619883E-01 -0.65756859204E+01  0.68394397386E+01  0.51100000000E-03 0.  1.
        -11    1    4    4    0    0  0.17180349038E+02 -0.66294243217E+01  0.31200263941E+01  0.18677479082E+02  0.51100000000E-03 0. -1.
         12    1    4    4    0    0 -0.54935881187E+01 -0.27758898413E+02 -0.56210223638E+01  0.28850161939E+02  0.00000000000E+00 0. -1.
</event>
<event>
 8    1  0.1280925E-006  0.9118800E+02  0.7816164E-02  0.1184000E+00
        -11   -1    0    0    0    0  0.00000000000E+00  0.00000000000E+00  0.45593999997E+02  0.45594000000E+02  0.51100000000E-03 0.  1.
         11   -1    0    0    0    0 -0.00000000000E+00 -0.00000000000E+00 -0.45593999997E+02  0.45594000000E+02  0.51100000000E-03 0. -1.
         23    2    1    2    0    0 -0.15543122345E-14  0.71054273576E-14  0.00000000000E+00  0.91188000000E+02  0.91188000000E+02 0.  0.
    9900012    2    3    3    0    0 -0.37193317261E+00  0.28858520924E+02 -0.22865488665E+02  0.54367039446E+02  0.39999898025E+02 0.  0.
        -12    1    3    3    0    0  0.37193317261E+00 -0.28858520924E+02  0.22865488665E+02  0.36820960554E+02  0.00000000000E+00 0.  1.
         11    1    4    4    0    0  0.12968119887E+02  0.93695049118E+01 -0.36726555546E+01  0.16414876021E+02  0.51100000000E-03 0. -1.
        -11    1    4    4    0    0 -0.11168897783E+02 -0.17580716382E+01 -0.54171777849E+01  0.12537181063E+02  0.51100000000E-03 0.  1.
         12    1    4    4    0    0 -0.21711552763E+01  0.21247087650E+02 -0.13775655326E+02  0.25414982363E+02  0.00000000000E+00 0. -1.
</event>
<event>
 8    1  0.1280925E-006  0.9118800E+02  0.7816164E-02  0.1184000E+00
        -11   -1    0    0    0    0  0.00000000000E+00  0.00000000000E+00  0.45593999997E+02  0.45594000000E+02  0.51100000000E-03 0. -1.
         11   -1    0    0    0    0 -0.00000000000E+00 -0.00000000000E+00 -0.45593999997E+02  0.45594000000E+02  0.51100000000E-03 0.  1.
         23    2    1    2    0    0  0.00000000000E+00  0.26645352591E-14  0.00000000000E+00  0.91188000000E+02  0.91188000000E+02 0.  0.
    9900012    2    3    3    0    0  0.27957199832E+02  0.70891276897E+01 -0.22889294928E+02  0.54367074209E+02  0.39999977274E+02 0.  0.
         12    1    3    3    0    0 -0.27957199832E+02 -0.70891276897E+01  0.22889294928E+02  0.36820925791E+02  0.00000000000E+00 0. -1.
         11    1    4    4    0    0  0.28172646865E+02 -0.55579078520E+01 -0.59476682404E+01  0.29325127942E+02  0.51100000000E-03 0. -1.
        -11    1    4    4    0    0  0.60559480419E+01  0.30699868449E+01 -0.81514161888E+01  0.10608718681E+02  0.51100000000E-03 0.  1.
         12    1    4    4    0    0 -0.62713950749E+01  0.95770486968E+01 -0.87902104987E+01  0.14433227586E+02  0.00000000000E+00 0. -1.
</event>
<event>
 8    1  0.1280925E-006  0.9118800E+02  0.7816164E-02  0.1184000E+00
        -11   -1    0    0    0    0  0.00000000000E+00  0.00000000000E+00  0.45593999997E+02  0.45594000000E+02  0.51100000000E-03 0. -1.
         11   -1    0    0    0    0 -0.00000000000E+00 -0.00000000000E+00 -0.45593999997E+02  0.45594000000E+02  0.51100000000E-03 0.  1.
         23    2    1    2    0    0 -0.35527136788E-14  0.00000000000E+00 -0.35527136788E-14  0.91188000000E+02  0.91188000000E+02 0.  0.
    9900012    2    3    3    0    0  0.21531878746E+02 -0.11547340539E+02  0.27546536859E+02  0.54367155784E+02  0.40000163241E+02 0.  0.
        -12    1    3    3    0    0 -0.21531878746E+02  0.11547340539E+02 -0.27546536859E+02  0.36820844216E+02  0.00000000000E+00 0.  1.
         11    1    4    4    0    0  0.27378429311E+01  0.10145855993E+02  0.87518164584E+01  0.13675835233E+02  0.51100000000E-03 0. -1.
        -11    1    4    4    0    0  0.78405490024E+01 -0.12693026854E+02 -0.24817386879E+01  0.15124356732E+02  0.51100000000E-03 0.  1.
        -12    1    4    4    0    0  0.10953486812E+02 -0.90001696782E+01  0.21276459089E+02  0.25566963819E+02  0.00000000000E+00 0.  1.
</event>
<event>
 8    1  0.1280925E-006  0.9118800E+02  0.7816164E-02  0.1184000E+00
        -11   -1    0    0    0    0  0.00000000000E+00  0.00000000000E+00  0.45593999997E+02  0.45594000000E+02  0.51100000000E-03 0.  1.
         11   -1    0    0    0    0 -0.00000000000E+00 -0.00000000000E+00 -0.45593999997E+02  0.45594000000E+02  0.51100000000E-03 0. -1.
         23    2    1    2    0    0  0.17763568394E-14  0.00000000000E+00  0.00000000000E+00  0.91188000000E+02  0.91188000000E+02 0.  0.
    9900012    2    3    3    0    0  0.10622871285E+02  0.34432730650E+02 -0.75711620551E+01  0.54367070771E+02  0.39999969438E+02 0.  0.
        -12    1    3    3    0    0 -0.10622871285E+02 -0.34432730650E+02  0.75711620551E+01  0.36820929229E+02  0.00000000000E+00 0.  1.
         11    1    4    4    0    0  0.15508991114E+02  0.31963457686E+02  0.81453373158E+01  0.36449114569E+02  0.51100000000E-03 0. -1.
        -11    1    4    4    0    0 -0.17055713532E+00  0.36856724344E+01 -0.76963249841E+01  0.85350272145E+01  0.51100000000E-03 0.  1.
        -12    1    4    4    0    0 -0.47155626937E+01 -0.12163994702E+01 -0.80201743868E+01  0.93829289875E+01  0.00000000000E+00 0.  1.
</event>
<event>
 8    1  0.1280925E-006  0.9118800E+02  0.7816164E-02  0.1184000E+00
        -11   -1    0    0    0    0  0.00000000000E+00  0.00000000000E+00  0.45593999997E+02  0.45594000000E+02  0.51100000000E-03 0.  1.
         11   -1    0    0    0    0 -0.00000000000E+00 -0.00000000000E+00 -0.45593999997E+02  0.45594000000E+02  0.51100000000E-03 0. -1.
         23    2    1    2    0    0 -0.35527136788E-14  0.88817841970E-15  0.35527136788E-14  0.91188000000E+02  0.91188000000E+02 0.  0.
    9900012    2    3    3    0    0 -0.28830953762E+02  0.52241537340E+01 -0.22299384615E+02  0.54367106050E+02  0.40000049863E+02 0.  0.
        -12    1    3    3    0    0  0.28830953762E+02 -0.52241537340E+01  0.22299384615E+02  0.36820893950E+02  0.00000000000E+00 0.  1.
         11    1    4    4    0    0 -0.26712428325E+02  0.71789855343E+01 -0.26349120641E+02  0.38201672988E+02  0.51100000000E-03 0. -1.
        -11    1    4    4    0    0 -0.23416870457E+01 -0.80534319502E+01 -0.72298312696E+00  0.84180739638E+01  0.51100000000E-03 0.  1.
        -12    1    4    4    0    0  0.22316160855E+00  0.60986001499E+01  0.47727191524E+01  0.77473590984E+01  0.00000000000E+00 0.  1.
</event>
<event>
 8    1  0.1280925E-006  0.9118800E+02  0.7816164E-02  0.1184000E+00
        -11   -1    0    0    0    0  0.00000000000E+00  0.00000000000E+00  0.45593999997E+02  0.45594000000E+02  0.51100000000E-03 0.  1.
         11   -1    0    0    0    0 -0.00000000000E+00 -0.00000000000E+00 -0.45593999997E+02  0.45594000000E+02  0.51100000000E-03 0. -1.
         23    2    1    2    0    0 -0.88817841970E-15 -0.88817841970E-15  0.00000000000E+00  0.91188000000E+02  0.91188000000E+02 0.  0.
    9900012    2    3    3    0    0  0.70713678001E+01  0.48995388774E+01  0.35801836610E+02  0.54367065351E+02  0.39999957081E+02 0.  0.
         12    1    3    3    0    0 -0.70713678001E+01 -0.48995388774E+01 -0.35801836610E+02  0.36820934649E+02  0.00000000000E+00 0. -1.
         11    1    4    4    0    0 -0.11455520990E+01  0.25573153896E+01  0.40395232999E+00  0.28311357013E+01  0.51100000000E-03 0. -1.
        -11    1    4    4    0    0  0.69132550832E+01 -0.41030673609E+01  0.41676064773E+02  0.42444347478E+02  0.51100000000E-03 0.  1.
        -12    1    4    4    0    0  0.13036648160E+01  0.64452908487E+01 -0.62781804930E+01  0.90915821715E+01  0.00000000000E+00 0.  1.
</event>
<event>
 8    1  0.1280925E-006  0.9118800E+02  0.7816164E-02  0.1184000E+00
        -11   -1    0    0    0    0  0.00000000000E+00  0.00000000000E+00  0.45593999997E+02  0.45594000000E+02  0.51100000000E-03 0. -1.
         11   -1    0    0    0    0 -0.00000000000E+00 -0.00000000000E+00 -0.45593999997E+02  0.45594000000E+02  0.51100000000E-03 0.  1.
         23    2    1    2    0    0  0.00000000000E+00  0.19984014443E-14  0.00000000000E+00  0.91188000000E+02  0.91188000000E+02 0.  0.
    9900012    2    3    3    0    0 -0.10367735977E+02  0.12769089860E+01  0.35308061672E+02  0.54367086583E+02  0.40000005483E+02 0.  0.
        -12    1    3    3    0    0  0.10367735977E+02 -0.12769089860E+01 -0.35308061672E+02  0.36820913417E+02  0.00000000000E+00 0.  1.
         11    1    4    4    0    0 -0.77461740382E+01 -0.12941801634E+02  0.31302169764E+00  0.15086133521E+02  0.51100000000E-03 0. -1.
        -11    1    4    4    0    0 -0.52362046056E+01  0.56911830278E+01  0.93772955010E+01  0.12154878613E+02  0.51100000000E-03 0.  1.
         12    1    4    4    0    0  0.26146426667E+01  0.85275275924E+01  0.25617744473E+02  0.27126074449E+02  0.00000000000E+00 0. -1.
</event>
<event>
 8    1  0.1280925E-006  0.9118800E+02  0.7816164E-02  0.1184000E+00
        -11   -1    0    0    0    0  0.00000000000E+00  0.00000000000E+00  0.45593999997E+02  0.45594000000E+02  0.51100000000E-03 0.  1.
         11   -1    0    0    0    0 -0.00000000000E+00 -0.00000000000E+00 -0.45593999997E+02  0.45594000000E+02  0.51100000000E-03 0. -1.
         23    2    1    2    0    0  0.00000000000E+00 -0.88817841970E-15 -0.13322676296E-14  0.91188000000E+02  0.91188000000E+02 0.  0.
    9900012    2    3    3    0    0 -0.36144526432E+02  0.63455277045E+01  0.30145479343E+01  0.54367081868E+02  0.39999994735E+02 0.  0.
         12    1    3    3    0    0  0.36144526432E+02 -0.63455277045E+01 -0.30145479343E+01  0.36820918132E+02  0.00000000000E+00 0. -1.
         11    1    4    4    0    0 -0.19614572018E+02 -0.10016360738E+02 -0.76845408540E+01  0.23326188850E+02  0.51100000000E-03 0. -1.
        -11    1    4    4    0    0 -0.92772714409E+01  0.25843394612E+01 -0.32218457300E+01  0.10155139881E+02  0.51100000000E-03 0.  1.
         12    1    4    4    0    0 -0.72526829727E+01  0.13777548981E+02  0.13920934518E+02  0.20885753137E+02  0.00000000000E+00 0. -1.
</event>
<event>
 8    1  0.1280925E-006  0.9118800E+02  0.7816164E-02  0.1184000E+00
        -11   -1    0    0    0    0  0.00000000000E+00  0.00000000000E+00  0.45593999997E+02  0.45594000000E+02  0.51100000000E-03 0.  1.
         11   -1    0    0    0    0 -0.00000000000E+00 -0.00000000000E+00 -0.45593999997E+02  0.45594000000E+02  0.51100000000E-03 0. -1.
         23    2    1    2    0    0  0.35527136788E-14  0.35527136788E-14  0.88817841970E-15  0.91188000000E+02  0.91188000000E+02 0.  0.
    9900012    2    3    3    0    0 -0.28454219680E+02  0.22919503758E+02  0.45642991864E+01  0.54367094292E+02  0.40000023057E+02 0.  0.
        -12    1    3    3    0    0  0.28454219680E+02 -0.22919503758E+02 -0.45642991864E+01  0.36820905708E+02  0.00000000000E+00 0.  1.
         11    1    4    4    0    0 -0.17680150666E+02  0.78440169374E+01 -0.14770156465E+01  0.19398399541E+02  0.51100000000E-03 0. -1.
        -11    1    4    4    0    0  0.33703548144E+01  0.24706489074E+01 -0.95551454628E+01  0.10429007751E+02  0.51100000000E-03 0.  1.
        -12    1    4    4    0    0 -0.14144423829E+02  0.12604837914E+02  0.15596460296E+02  0.24539686999E+02  0.00000000000E+00 0.  1.
</event>
<event>
 8    1  0.1280925E-006  0.9118800E+02  0.7816164E-02  0.1184000E+00
        -11   -1    0    0    0    0  0.00000000000E+00  0.00000000000E+00  0.45593999997E+02  0.45594000000E+02  0.51100000000E-03 0.  1.
         11   -1    0    0    0    0 -0.00000000000E+00 -0.00000000000E+00 -0.45593999997E+02  0.45594000000E+02  0.51100000000E-03 0. -1.
         23    2    1    2    0    0 -0.17763568394E-14 -0.17763568394E-14 -0.35527136788E-14  0.91188000000E+02  0.91188000000E+02 0.  0.
    9900012    2    3    3    0    0 -0.13542030823E+02 -0.14155451349E+02 -0.31177199936E+02  0.54367065770E+02  0.39999958036E+02 0.  0.
        -12    1    3    3    0    0  0.13542030823E+02  0.14155451349E+02  0.31177199936E+02  0.36820934230E+02  0.00000000000E+00 0.  1.
         11    1    4    4    0    0 -0.44685050915E+01 -0.18156127899E+02 -0.76799659457E+01  0.20213717996E+02  0.51100000000E-03 0. -1.
        -11    1    4    4    0    0  0.44560105402E+01 -0.32346271685E+01  0.64963631891E+00  0.55444450093E+01  0.51100000000E-03 0.  1.
         12    1    4    4    0    0 -0.13529536272E+02  0.72353037188E+01 -0.24146870309E+02  0.28608902764E+02  0.00000000000E+00 0. -1.
</event>
<event>
 8    1  0.1280925E-006  0.9118800E+02  0.7816164E-02  0.1184000E+00
        -11   -1    0    0    0    0  0.00000000000E+00  0.00000000000E+00  0.45593999997E+02  0.45594000000E+02  0.51100000000E-03 0. -1.
         11   -1    0    0    0    0 -0.00000000000E+00 -0.00000000000E+00 -0.45593999997E+02  0.45594000000E+02  0.51100000000E-03 0.  1.
         23    2    1    2    0    0  0.00000000000E+00 -0.13322676296E-14  0.00000000000E+00  0.91188000000E+02  0.91188000000E+02 0.  0.
    9900012    2    3    3    0    0 -0.24558141426E+02 -0.23286418204E+01 -0.27335955049E+02  0.54367091246E+02  0.40000016114E+02 0.  0.
         12    1    3    3    0    0  0.24558141426E+02  0.23286418204E+01  0.27335955049E+02  0.36820908754E+02  0.00000000000E+00 0. -1.
         11    1    4    4    0    0 -0.13080075941E+02 -0.12067627386E+02  0.37441194152E+01  0.18186105900E+02  0.51100000000E-03 0. -1.
        -11    1    4    4    0    0 -0.47773428021E+01  0.45682571357E+01 -0.38138946636E+01  0.76313675231E+01  0.51100000000E-03 0.  1.
         12    1    4    4    0    0 -0.67007226830E+01  0.51707284299E+01 -0.27266179800E+02  0.28549617824E+02  0.00000000000E+00 0. -1.
</event>
<event>
 8    1  0.1280925E-006  0.9118800E+02  0.7816164E-02  0.1184000E+00
        -11   -1    0    0    0    0  0.00000000000E+00  0.00000000000E+00  0.45593999997E+02  0.45594000000E+02  0.51100000000E-03 0. -1.
         11   -1    0    0    0    0 -0.00000000000E+00 -0.00000000000E+00 -0.45593999997E+02  0.45594000000E+02  0.51100000000E-03 0.  1.
         23    2    1    2    0    0  0.35527136788E-14  0.00000000000E+00  0.22204460493E-15  0.91188000000E+02  0.91188000000E+02 0.  0.
    9900012    2    3    3    0    0  0.30153947254E+02  0.21066084834E+02 -0.16555559211E+01  0.54367063963E+02  0.39999953916E+02 0.  0.
         12    1    3    3    0    0 -0.30153947254E+02 -0.21066084834E+02  0.16555559211E+01  0.36820936037E+02  0.00000000000E+00 0. -1.
         11    1    4    4    0    0  0.12965039754E+02  0.44767527979E+01 -0.70126671443E+01  0.15404904160E+02  0.51100000000E-03 0. -1.
        -11    1    4    4    0    0  0.19429408807E+02  0.22261745771E+02 -0.17464825239E+01  0.29599619133E+02  0.51100000000E-03 0.  1.
         12    1    4    4    0    0 -0.22405013070E+01 -0.56724137343E+01  0.71035937471E+01  0.93625406703E+01  0.00000000000E+00 0. -1.
</event>
<event>
 8    1  0.1280925E-006  0.9118800E+02  0.7816164E-02  0.1184000E+00
        -11   -1    0    0    0    0  0.00000000000E+00  0.00000000000E+00  0.45593999997E+02  0.45594000000E+02  0.51100000000E-03 0. -1.
         11   -1    0    0    0    0 -0.00000000000E+00 -0.00000000000E+00 -0.45593999997E+02  0.45594000000E+02  0.51100000000E-03 0.  1.
         23    2    1    2    0    0  0.00000000000E+00  0.00000000000E+00  0.00000000000E+00  0.91188000000E+02  0.91188000000E+02 0.  0.
    9900012    2    3    3    0    0  0.28595574353E+02 -0.44505324582E+01 -0.22765351711E+02  0.54367145172E+02  0.40000139049E+02 0.  0.
         12    1    3    3    0    0 -0.28595574353E+02  0.44505324582E+01  0.22765351711E+02  0.36820854828E+02  0.00000000000E+00 0. -1.
         11    1    4    4    0    0  0.91889387929E+00  0.20049268227E+01  0.32710520154E+01  0.39451082462E+01  0.51100000000E-03 0. -1.
        -11    1    4    4    0    0  0.24936956952E+02 -0.51447334064E+01 -0.12951284974E+01  0.25495047793E+02  0.51100000000E-03 0.  1.
        -12    1    4    4    0    0  0.27397235210E+01 -0.13107258744E+01 -0.24741275229E+02  0.24926989133E+02  0.00000000000E+00 0.  1.
</event>
<event>
 8    1  0.1280925E-006  0.9118800E+02  0.7816164E-02  0.1184000E+00
        -11   -1    0    0    0    0  0.00000000000E+00  0.00000000000E+00  0.45593999997E+02  0.45594000000E+02  0.51100000000E-03 0.  1.
         11   -1    0    0    0    0 -0.00000000000E+00 -0.00000000000E+00 -0.45593999997E+02  0.45594000000E+02  0.51100000000E-03 0. -1.
         23    2    1    2    0    0  0.00000000000E+00  0.00000000000E+00 -0.35527136788E-14  0.91188000000E+02  0.91188000000E+02 0.  0.
    9900012    2    3    3    0    0  0.12166061867E+02  0.30733087943E+02 -0.16224778725E+02  0.54367092888E+02  0.40000019857E+02 0.  0.
         12    1    3    3    0    0 -0.12166061867E+02 -0.30733087943E+02  0.16224778725E+02  0.36820907112E+02  0.00000000000E+00 0. -1.
         11    1    4    4    0    0  0.23461316502E+01  0.17861692036E+02 -0.17191243143E+02  0.24901470181E+02  0.51100000000E-03 0. -1.
        -11    1    4    4    0    0  0.96005244021E+01  0.78560892608E+01  0.12052462976E+02  0.17295955346E+02  0.51100000000E-03 0.  1.
        -12    1    4    4    0    0  0.21940581506E+00  0.50153066456E+01 -0.11085998558E+02  0.12169667361E+02  0.00000000000E+00 0.  1.
</event>
<event>
 8    1  0.1280925E-006  0.9118800E+02  0.7816164E-02  0.1184000E+00
        -11   -1    0    0    0    0  0.00000000000E+00  0.00000000000E+00  0.45593999997E+02  0.45594000000E+02  0.51100000000E-03 0. -1.
         11   -1    0    0    0    0 -0.00000000000E+00 -0.00000000000E+00 -0.45593999997E+02  0.45594000000E+02  0.51100000000E-03 0.  1.
         23    2    1    2    0    0  0.35527136788E-14  0.35527136788E-14  0.00000000000E+00  0.91188000000E+02  0.91188000000E+02 0.  0.
    9900012    2    3    3    0    0 -0.29553310765E+02 -0.20133688445E+02 -0.87758707536E+01  0.54367088889E+02  0.40000010740E+02 0.  0.
         12    1    3    3    0    0  0.29553310765E+02  0.20133688445E+02  0.87758707536E+01  0.36820911111E+02  0.00000000000E+00 0. -1.
         11    1    4    4    0    0 -0.31052720880E+01 -0.10231851197E+02 -0.65830323583E+01  0.12556663926E+02  0.51100000000E-03 0. -1.
        -11    1    4    4    0    0 -0.31409043749E+02 -0.88117726622E+01 -0.85013211522E+01  0.33711241868E+02  0.51100000000E-03 0.  1.
         12    1    4    4    0    0  0.49610050719E+01 -0.10900645861E+01  0.63084827570E+01  0.80991830958E+01  0.00000000000E+00 0. -1.
</event>
<event>
 8    1  0.1280925E-006  0.9118800E+02  0.7816164E-02  0.1184000E+00
        -11   -1    0    0    0    0  0.00000000000E+00  0.00000000000E+00  0.45593999997E+02  0.45594000000E+02  0.51100000000E-03 0. -1.
         11   -1    0    0    0    0 -0.00000000000E+00 -0.00000000000E+00 -0.45593999997E+02  0.45594000000E+02  0.51100000000E-03 0.  1.
         23    2    1    2    0    0 -0.35527136788E-14  0.35527136788E-14 -0.35527136788E-14  0.91188000000E+02  0.91188000000E+02 0.  0.
    9900012    2    3    3    0    0  0.24041254838E+02 -0.14313959480E+02  0.23935491700E+02  0.54367093804E+02  0.40000021944E+02 0.  0.
        -12    1    3    3    0    0 -0.24041254838E+02  0.14313959480E+02 -0.23935491700E+02  0.36820906196E+02  0.00000000000E+00 0.  1.
         11    1    4    4    0    0 -0.12255984980E+01 -0.76386076298E+01  0.18445777132E+02  0.20002427664E+02  0.51100000000E-03 0. -1.
        -11    1    4    4    0    0 -0.36963291490E+01  0.12361677189E+01  0.73383187076E+00  0.39660394959E+01  0.51100000000E-03 0.  1.
        -12    1    4    4    0    0  0.28963182485E+02 -0.79115195695E+01  0.47558826974E+01  0.30398626643E+02  0.00000000000E+00 0.  1.
</event>
<event>
 8    1  0.1280925E-006  0.9118800E+02  0.7816164E-02  0.1184000E+00
        -11   -1    0    0    0    0  0.00000000000E+00  0.00000000000E+00  0.45593999997E+02  0.45594000000E+02  0.51100000000E-03 0.  1.
         11   -1    0    0    0    0 -0.00000000000E+00 -0.00000000000E+00 -0.45593999997E+02  0.45594000000E+02  0.51100000000E-03 0. -1.
         23    2    1    2    0    0  0.88817841970E-15  0.71054273576E-14  0.00000000000E+00  0.91188000000E+02  0.91188000000E+02 0.  0.
    9900012    2    3    3    0    0  0.51881407410E+01 -0.35118710222E+02 -0.97743044836E+01  0.54367114078E+02  0.40000068163E+02 0.  0.
        -12    1    3    3    0    0 -0.51881407410E+01  0.35118710222E+02  0.97743044836E+01  0.36820885922E+02  0.00000000000E+00 0.  1.
         11    1    4    4    0    0  0.10374632076E+02  0.35396930205E+01 -0.16008175466E+01  0.11078133167E+02  0.51100000000E-03 0. -1.
        -11    1    4    4    0    0  0.55595781503E+01 -0.13359812785E+02  0.46280097330E+00  0.14477834502E+02  0.51100000000E-03 0.  1.
         12    1    4    4    0    0 -0.10746069486E+02 -0.25298590457E+02 -0.86362879103E+01  0.28811146408E+02  0.00000000000E+00 0. -1.
</event>
<event>
 8    1  0.1280925E-006  0.9118800E+02  0.7816164E-02  0.1184000E+00
        -11   -1    0    0    0    0  0.00000000000E+00  0.00000000000E+00  0.45593999997E+02  0.45594000000E+02  0.51100000000E-03 0.  1.
         11   -1    0    0    0    0 -0.00000000000E+00 -0.00000000000E+00 -0.45593999997E+02  0.45594000000E+02  0.51100000000E-03 0. -1.
         23    2    1    2    0    0 -0.17763568394E-14  0.00000000000E+00  0.35527136788E-14  0.91188000000E+02  0.91188000000E+02 0.  0.
    9900012    2    3    3    0    0 -0.11809957749E+02 -0.26660726328E+02 -0.22483528799E+02  0.54367102433E+02  0.40000041617E+02 0.  0.
        -12    1    3    3    0    0  0.11809957749E+02  0.26660726328E+02  0.22483528799E+02  0.36820897567E+02  0.00000000000E+00 0.  1.
         11    1    4    4    0    0 -0.32083108067E+01 -0.17819747634E+02 -0.21153229812E+02  0.27844133955E+02  0.51100000000E-03 0. -1.
        -11    1    4    4    0    0 -0.61359109931E+01 -0.10940005704E+02 -0.10776715676E+02  0.16536950431E+02  0.51100000000E-03 0.  1.
        -12    1    4    4    0    0 -0.24657359496E+01  0.20990270096E+01  0.94464166898E+01  0.99860180471E+01  0.00000000000E+00 0.  1.
</event>
<event>
 8    1  0.1280925E-006  0.9118800E+02  0.7816164E-02  0.1184000E+00
        -11   -1    0    0    0    0  0.00000000000E+00  0.00000000000E+00  0.45593999997E+02  0.45594000000E+02  0.51100000000E-03 0.  1.
         11   -1    0    0    0    0 -0.00000000000E+00 -0.00000000000E+00 -0.45593999997E+02  0.45594000000E+02  0.51100000000E-03 0. -1.
         23    2    1    2    0    0  0.00000000000E+00 -0.35527136788E-14  0.00000000000E+00  0.91188000000E+02  0.91188000000E+02 0.  0.
    9900012    2    3    3    0    0  0.16565035380E+02 -0.23702389972E+02  0.22794206967E+02  0.54367088024E+02  0.40000008767E+02 0.  0.
         12    1    3    3    0    0 -0.16565035380E+02  0.23702389972E+02 -0.22794206967E+02  0.36820911976E+02  0.00000000000E+00 0. -1.
         11    1    4    4    0    0 -0.55041671003E+01  0.35782959748E+01  0.70354817426E+01  0.96227886376E+01  0.51100000000E-03 0. -1.
        -11    1    4    4    0    0  0.17326323347E+02 -0.27576179147E+02  0.49559389092E+01  0.32942502452E+02  0.51100000000E-03 0.  1.
        -12    1    4    4    0    0  0.47428791328E+01  0.29549320003E+00  0.10802786315E+02  0.11801796934E+02  0.00000000000E+00 0.  1.
</event>
<event>
 8    1  0.1280925E-006  0.9118800E+02  0.7816164E-02  0.1184000E+00
        -11   -1    0    0    0    0  0.00000000000E+00  0.00000000000E+00  0.45593999997E+02  0.45594000000E+02  0.51100000000E-03 0.  1.
         11   -1    0    0    0    0 -0.00000000000E+00 -0.00000000000E+00 -0.45593999997E+02  0.45594000000E+02  0.51100000000E-03 0. -1.
         23    2    1    2    0    0  0.00000000000E+00 -0.44408920985E-15  0.35527136788E-14  0.91188000000E+02  0.91188000000E+02 0.  0.
    9900012    2    3    3    0    0  0.20548419507E+02 -0.13804082758E+01  0.30522745672E+02  0.54367067440E+02  0.39999961843E+02 0.  0.
         12    1    3    3    0    0 -0.20548419507E+02  0.13804082758E+01 -0.30522745672E+02  0.36820932560E+02  0.00000000000E+00 0. -1.
         11    1    4    4    0    0  0.17813619745E+02  0.59596261623E+01  0.58896299871E+01  0.19685779996E+02  0.51100000000E-03 0. -1.
        -11    1    4    4    0    0  0.36466070028E+01 -0.10958712620E+02  0.27596605044E+02  0.29915944496E+02  0.51100000000E-03 0.  1.
         12    1    4    4    0    0 -0.91180724074E+00  0.36186781815E+01 -0.29634893591E+01  0.47653429475E+01  0.00000000000E+00 0. -1.
</event>
<event>
 8    1  0.1280925E-006  0.9118800E+02  0.7816164E-02  0.1184000E+00
        -11   -1    0    0    0    0  0.00000000000E+00  0.00000000000E+00  0.45593999997E+02  0.45594000000E+02  0.51100000000E-03 0.  1.
         11   -1    0    0    0    0 -0.00000000000E+00 -0.00000000000E+00 -0.45593999997E+02  0.45594000000E+02  0.51100000000E-03 0. -1.
         23    2    1    2    0    0  0.00000000000E+00 -0.35527136788E-14  0.00000000000E+00  0.91188000000E+02  0.91188000000E+02 0.  0.
    9900012    2    3    3    0    0  0.16185639636E+02 -0.28153585106E+02  0.17354535543E+02  0.54367093050E+02  0.40000020226E+02 0.  0.
         12    1    3    3    0    0 -0.16185639636E+02  0.28153585106E+02 -0.17354535543E+02  0.36820906950E+02  0.00000000000E+00 0. -1.
         11    1    4    4    0    0 -0.57748879874E+00  0.15647289995E+01 -0.46278650700E+01  0.49192484713E+01  0.51100000000E-03 0. -1.
        -11    1    4    4    0    0 -0.11886601363E+01 -0.20146068357E+02  0.97603744749E+00  0.20204693329E+02  0.51100000000E-03 0.  1.
        -12    1    4    4    0    0  0.17951788571E+02 -0.95722457483E+01  0.21006363165E+02  0.29243151249E+02  0.00000000000E+00 0.  1.
</event>
<event>
 8    1  0.1280925E-006  0.9118800E+02  0.7816164E-02  0.1184000E+00
        -11   -1    0    0    0    0  0.00000000000E+00  0.00000000000E+00  0.45593999997E+02  0.45594000000E+02  0.51100000000E-03 0. -1.
         11   -1    0    0    0    0 -0.00000000000E+00 -0.00000000000E+00 -0.45593999997E+02  0.45594000000E+02  0.51100000000E-03 0.  1.
         23    2    1    2    0    0  0.00000000000E+00 -0.33306690739E-15  0.00000000000E+00  0.91188000000E+02  0.91188000000E+02 0.  0.
    9900012    2    3    3    0    0  0.21057002109E+02 -0.23609766414E+00  0.30204754070E+02  0.54367078660E+02  0.39999987421E+02 0.  0.
        -12    1    3    3    0    0 -0.21057002109E+02  0.23609766414E+00 -0.30204754070E+02  0.36820921340E+02  0.00000000000E+00 0.  1.
         11    1    4    4    0    0  0.22652406963E+02  0.11624192287E+01  0.23396190710E+02  0.32586262438E+02  0.51100000000E-03 0. -1.
        -11    1    4    4    0    0  0.61879725805E+01 -0.63312433643E+01 -0.19526656564E+01  0.90657901267E+01  0.51100000000E-03 0.  1.
        -12    1    4    4    0    0 -0.77833774344E+01  0.49327264714E+01  0.87612290157E+01  0.12715026095E+02  0.00000000000E+00 0.  1.
</event>
<event>
 8    1  0.1280925E-006  0.9118800E+02  0.7816164E-02  0.1184000E+00
        -11   -1    0    0    0    0  0.00000000000E+00  0.00000000000E+00  0.45593999997E+02  0.45594000000E+02  0.51100000000E-03 0.  1.
         11   -1    0    0    0    0 -0.00000000000E+00 -0.00000000000E+00 -0.45593999997E+02  0.45594000000E+02  0.51100000000E-03 0. -1.
         23    2    1    2    0    0  0.00000000000E+00  0.00000000000E+00 -0.35527136788E-14  0.91188000000E+02  0.91188000000E+02 0.  0.
    9900012    2    3    3    0    0 -0.60174328904E+01 -0.29996729080E+02 -0.20488244809E+02  0.54367062621E+02  0.39999950858E+02 0.  0.
        -12    1    3    3    0    0  0.60174328904E+01  0.29996729080E+02  0.20488244809E+02  0.36820937379E+02  0.00000000000E+00 0.  1.
         11    1    4    4    0    0 -0.11800443762E+02 -0.18337122334E+02 -0.98446717565E+01  0.23925260516E+02  0.51100000000E-03 0. -1.
        -11    1    4    4    0    0  0.37878384855E+01 -0.16029123584E+02  0.23048825023E+01  0.16631085559E+02  0.51100000000E-03 0.  1.
        -12    1    4    4    0    0  0.19951723866E+01  0.43695168388E+01 -0.12948455555E+02  0.13810716546E+02  0.00000000000E+00 0.  1.
</event>
<event>
 8    1  0.1280925E-006  0.9118800E+02  0.7816164E-02  0.1184000E+00
        -11   -1    0    0    0    0  0.00000000000E+00  0.00000000000E+00  0.45593999997E+02  0.45594000000E+02  0.51100000000E-03 0.  1.
         11   -1    0    0    0    0 -0.00000000000E+00 -0.00000000000E+00 -0.45593999997E+02  0.45594000000E+02  0.51100000000E-03 0. -1.
         23    2    1    2    0    0  0.17763568394E-14  0.00000000000E+00 -0.17763568394E-14  0.91188000000E+02  0.91188000000E+02 0.  0.
    9900012    2    3    3    0    0  0.13962708206E+02  0.33039610863E+02 -0.83190452386E+01  0.54367087191E+02  0.40000006868E+02 0.  0.
        -12    1    3    3    0    0 -0.13962708206E+02 -0.33039610863E+02  0.83190452386E+01  0.36820912809E+02  0.00000000000E+00 0.  1.
         11    1    4    4    0    0  0.18747233067E+02  0.18859422846E+02 -0.21148232161E+02  0.33976231421E+02  0.51100000000E-03 0. -1.
        -11    1    4    4    0    0 -0.26279216488E+01  0.69531150585E+01  0.30339571037E+01  0.80284915879E+01  0.51100000000E-03 0.  1.
         12    1    4    4    0    0 -0.21566032126E+01  0.72270729584E+01  0.97952298187E+01  0.12362364182E+02  0.00000000000E+00 0. -1.
</event>
<event>
 8    1  0.1280925E-006  0.9118800E+02  0.7816164E-02  0.1184000E+00
        -11   -1    0    0    0    0  0.00000000000E+00  0.00000000000E+00  0.45593999997E+02  0.45594000000E+02  0.51100000000E-03 0.  1.
         11   -1    0    0    0    0 -0.00000000000E+00 -0.00000000000E+00 -0.45593999997E+02  0.45594000000E+02  0.51100000000E-03 0. -1.
         23    2    1    2    0    0  0.35527136788E-14 -0.35527136788E-14  0.00000000000E+00  0.91188000000E+02  0.91188000000E+02 0.  0.
    9900012    2    3    3    0    0 -0.23833015707E+02  0.19603268409E+02  0.20086721994E+02  0.54367120455E+02  0.40000082701E+02 0.  0.
         12    1    3    3    0    0  0.23833015707E+02 -0.19603268409E+02 -0.20086721994E+02  0.36820879545E+02  0.00000000000E+00 0. -1.
         11    1    4    4    0    0 -0.11268061362E+02  0.18678360897E+02 -0.69849682512E+01  0.22905024654E+02  0.51100000000E-03 0. -1.
        -11    1    4    4    0    0 -0.13433233532E+02  0.15145633885E+01  0.18976850544E+02  0.23299496179E+02  0.51100000000E-03 0.  1.
        -12    1    4    4    0    0  0.86827918673E+00 -0.58965587618E+00  0.80948397012E+01  0.81625996219E+01  0.00000000000E+00 0.  1.
</event>
<event>
 8    1  0.1280925E-006  0.9118800E+02  0.7816164E-02  0.1184000E+00
        -11   -1    0    0    0    0  0.00000000000E+00  0.00000000000E+00  0.45593999997E+02  0.45594000000E+02  0.51100000000E-03 0.  1.
         11   -1    0    0    0    0 -0.00000000000E+00 -0.00000000000E+00 -0.45593999997E+02  0.45594000000E+02  0.51100000000E-03 0. -1.
         23    2    1    2    0    0  0.00000000000E+00 -0.38857805862E-15 -0.22204460493E-15  0.91188000000E+02  0.91188000000E+02 0.  0.
    9900012    2    3    3    0    0  0.36816972204E+02  0.34350373384E+00  0.41507916786E+00  0.54367085729E+02  0.40000003536E+02 0.  0.
        -12    1    3    3    0    0 -0.36816972204E+02 -0.34350373384E+00 -0.41507916786E+00  0.36820914271E+02  0.00000000000E+00 0.  1.
         11    1    4    4    0    0  0.35617734873E+02  0.10891534848E+01 -0.13872112473E+02  0.38239309584E+02  0.51100000000E-03 0. -1.
        -11    1    4    4    0    0  0.37552921597E+00 -0.40358720056E+01  0.69742869196E+01  0.80665955232E+01  0.51100000000E-03 0.  1.
         12    1    4    4    0    0  0.82370811510E+00  0.32902222546E+01  0.73129047211E+01  0.80611806210E+01  0.00000000000E+00 0. -1.
</event>
<event>
 8    1  0.1280925E-006  0.9118800E+02  0.7816164E-02  0.1184000E+00
        -11   -1    0    0    0    0  0.00000000000E+00  0.00000000000E+00  0.45593999997E+02  0.45594000000E+02  0.51100000000E-03 0.  1.
         11   -1    0    0    0    0 -0.00000000000E+00 -0.00000000000E+00 -0.45593999997E+02  0.45594000000E+02  0.51100000000E-03 0. -1.
         23    2    1    2    0    0  0.26645352591E-14  0.35527136788E-14  0.00000000000E+00  0.91188000000E+02  0.91188000000E+02 0.  0.
    9900012    2    3    3    0    0  0.46915507325E+01  0.29360769361E+02 -0.21718924113E+02  0.54367121543E+02  0.40000085181E+02 0.  0.
        -12    1    3    3    0    0 -0.46915507325E+01 -0.29360769361E+02  0.21718924113E+02  0.36820878457E+02  0.00000000000E+00 0.  1.
         11    1    4    4    0    0 -0.11129647071E+02  0.15002233073E+02 -0.13923092091E+02  0.23297822532E+02  0.51100000000E-03 0. -1.
        -11    1    4    4    0    0 -0.38460207603E+01  0.88486552092E+01 -0.23126918864E+01  0.99216489921E+01  0.51100000000E-03 0.  1.
         12    1    4    4    0    0  0.19667218564E+02  0.55098810788E+01 -0.54831401351E+01  0.21147650018E+02  0.00000000000E+00 0. -1.
</event>
<event>
 8    1  0.1280925E-006  0.9118800E+02  0.7816164E-02  0.1184000E+00
        -11   -1    0    0    0    0  0.00000000000E+00  0.00000000000E+00  0.45593999997E+02  0.45594000000E+02  0.51100000000E-03 0. -1.
         11   -1    0    0    0    0 -0.00000000000E+00 -0.00000000000E+00 -0.45593999997E+02  0.45594000000E+02  0.51100000000E-03 0.  1.
         23    2    1    2    0    0  0.00000000000E+00  0.44408920985E-15  0.00000000000E+00  0.91188000000E+02  0.91188000000E+02 0.  0.
    9900012    2    3    3    0    0  0.33480414741E+02  0.37888706849E+01  0.14848773522E+02  0.54367084919E+02  0.40000001689E+02 0.  0.
        -12    1    3    3    0    0 -0.33480414741E+02 -0.37888706849E+01 -0.14848773522E+02  0.36820915081E+02  0.00000000000E+00 0.  1.
         11    1    4    4    0    0  0.11719152810E+02 -0.34824936189E+01 -0.63642136065E+01  0.13782943063E+02  0.51100000000E-03 0. -1.
        -11    1    4    4    0    0 -0.24282969809E+01 -0.59509294483E+01  0.12502568910E+01  0.65477729100E+01  0.51100000000E-03 0.  1.
         12    1    4    4    0    0  0.24189558912E+02  0.13222293752E+02  0.19962730238E+02  0.34036368945E+02  0.00000000000E+00 0. -1.
</event>
<event>
 8    1  0.1280925E-006  0.9118800E+02  0.7816164E-02  0.1184000E+00
        -11   -1    0    0    0    0  0.00000000000E+00  0.00000000000E+00  0.45593999997E+02  0.45594000000E+02  0.51100000000E-03 0.  1.
         11   -1    0    0    0    0 -0.00000000000E+00 -0.00000000000E+00 -0.45593999997E+02  0.45594000000E+02  0.51100000000E-03 0. -1.
         23    2    1    2    0    0 -0.44408920985E-15  0.00000000000E+00  0.00000000000E+00  0.91188000000E+02  0.91188000000E+02 0.  0.
    9900012    2    3    3    0    0 -0.35725747974E+01 -0.16961149907E+02 -0.32485922922E+02  0.54367094457E+02  0.40000023435E+02 0.  0.
        -12    1    3    3    0    0  0.35725747974E+01  0.16961149907E+02  0.32485922922E+02  0.36820905543E+02  0.00000000000E+00 0.  1.
         11    1    4    4    0    0 -0.90288027932E+01 -0.19110364995E+02 -0.29493663628E+02  0.36285004128E+02  0.51100000000E-03 0. -1.
        -11    1    4    4    0    0  0.11156183767E+02  0.37978404431E+00 -0.43173715930E+01  0.11968474001E+02  0.51100000000E-03 0.  1.
        -12    1    4    4    0    0 -0.56999557715E+01  0.17694310430E+01  0.13251122987E+01  0.61136163289E+01  0.00000000000E+00 0.  1.
</event>
<event>
 8    1  0.1280925E-006  0.9118800E+02  0.7816164E-02  0.1184000E+00
        -11   -1    0    0    0    0  0.00000000000E+00  0.00000000000E+00  0.45593999997E+02  0.45594000000E+02  0.51100000000E-03 0.  1.
         11   -1    0    0    0    0 -0.00000000000E+00 -0.00000000000E+00 -0.45593999997E+02  0.45594000000E+02  0.51100000000E-03 0. -1.
         23    2    1    2    0    0  0.00000000000E+00  0.00000000000E+00 -0.88817841970E-15  0.91188000000E+02  0.91188000000E+02 0.  0.
    9900012    2    3    3    0    0 -0.33912447404E+02  0.13143855148E+02  0.57415876492E+01  0.54367070547E+02  0.39999968925E+02 0.  0.
        -12    1    3    3    0    0  0.33912447404E+02 -0.13143855148E+02 -0.57415876492E+01  0.36820929453E+02  0.00000000000E+00 0.  1.
         11    1    4    4    0    0 -0.32264941376E+02  0.50962286304E+00 -0.53659695448E+01  0.32712074023E+02  0.51100000000E-03 0. -1.
        -11    1    4    4    0    0 -0.35705100948E+01  0.79459188352E-01  0.77257564730E+01  0.85112965781E+01  0.51100000000E-03 0.  1.
        -12    1    4    4    0    0  0.19230040667E+01  0.12554773096E+02  0.33818007211E+01  0.13143699946E+02  0.00000000000E+00 0.  1.
</event>
<event>
 8    1  0.1280925E-006  0.9118800E+02  0.7816164E-02  0.1184000E+00
        -11   -1    0    0    0    0  0.00000000000E+00  0.00000000000E+00  0.45593999997E+02  0.45594000000E+02  0.51100000000E-03 0. -1.
         11   -1    0    0    0    0 -0.00000000000E+00 -0.00000000000E+00 -0.45593999997E+02  0.45594000000E+02  0.51100000000E-03 0.  1.
         23    2    1    2    0    0 -0.15543122345E-14  0.00000000000E+00 -0.35527136788E-14  0.91188000000E+02  0.91188000000E+02 0.  0.
    9900012    2    3    3    0    0 -0.17868912147E+01 -0.32869500471E+02 -0.16497955786E+02  0.54367087646E+02  0.40000007907E+02 0.  0.
         12    1    3    3    0    0  0.17868912147E+01  0.32869500471E+02  0.16497955786E+02  0.36820912354E+02  0.00000000000E+00 0. -1.
         11    1    4    4    0    0 -0.10578718840E+02  0.77015915340E+00  0.52636364798E+01  0.11840958858E+02  0.51100000000E-03 0. -1.
        -11    1    4    4    0    0  0.86287829499E+01 -0.13289873644E+02 -0.66775588928E+01  0.17194953612E+02  0.51100000000E-03 0.  1.
         12    1    4    4    0    0  0.16304467547E+00 -0.20349785980E+02 -0.15084033373E+02  0.25331175176E+02  0.00000000000E+00 0. -1.
</event>
<event>
 8    1  0.1280925E-006  0.9118800E+02  0.7816164E-02  0.1184000E+00
        -11   -1    0    0    0    0  0.00000000000E+00  0.00000000000E+00  0.45593999997E+02  0.45594000000E+02  0.51100000000E-03 0. -1.
         11   -1    0    0    0    0 -0.00000000000E+00 -0.00000000000E+00 -0.45593999997E+02  0.45594000000E+02  0.51100000000E-03 0.  1.
         23    2    1    2    0    0  0.00000000000E+00  0.00000000000E+00  0.00000000000E+00  0.91188000000E+02  0.91188000000E+02 0.  0.
    9900012    2    3    3    0    0 -0.35700009133E+02  0.61310604347E+01 -0.66093673998E+01  0.54367295341E+02  0.40000481387E+02 0.  0.
         12    1    3    3    0    0  0.35700009133E+02 -0.61310604347E+01  0.66093673998E+01  0.36820704659E+02  0.00000000000E+00 0. -1.
         11    1    4    4    0    0 -0.14497087513E+00 -0.16398187618E+01 -0.37095401612E+01  0.40584123244E+01  0.51100000000E-03 0. -1.
        -11    1    4    4    0    0  0.19415284217E+01  0.12231685977E+02 -0.19389997654E+01  0.12535684856E+02  0.51100000000E-03 0.  1.
        -12    1    4    4    0    0 -0.37496566679E+02 -0.44608067808E+01 -0.96082747322E+00  0.37773198161E+02  0.00000000000E+00 0.  1.
</event>
<event>
 8    1  0.1280925E-006  0.9118800E+02  0.7816164E-02  0.1184000E+00
        -11   -1    0    0    0    0  0.00000000000E+00  0.00000000000E+00  0.45593999997E+02  0.45594000000E+02  0.51100000000E-03 0.  1.
         11   -1    0    0    0    0 -0.00000000000E+00 -0.00000000000E+00 -0.45593999997E+02  0.45594000000E+02  0.51100000000E-03 0. -1.
         23    2    1    2    0    0 -0.35527136788E-14  0.17763568394E-14 -0.35527136788E-14  0.91188000000E+02  0.91188000000E+02 0.  0.
    9900012    2    3    3    0    0 -0.16232460572E+02  0.12444282552E+02 -0.30617403056E+02  0.54367104922E+02  0.40000047290E+02 0.  0.
        -12    1    3    3    0    0  0.16232460572E+02 -0.12444282552E+02  0.30617403056E+02  0.36820895078E+02  0.00000000000E+00 0.  1.
         11    1    4    4    0    0 -0.10262428912E+02  0.14980054439E+02 -0.17183452677E+02  0.24999810486E+02  0.51100000000E-03 0. -1.
        -11    1    4    4    0    0  0.96769926879E+01 -0.38246464981E+01 -0.49762447570E+01  0.11534085159E+02  0.51100000000E-03 0.  1.
        -12    1    4    4    0    0 -0.15647024348E+02  0.12888746109E+01 -0.84577056228E+01  0.17833209277E+02  0.00000000000E+00 0.  1.
</event>
<event>
 8    1  0.1280925E-006  0.9118800E+02  0.7816164E-02  0.1184000E+00
        -11   -1    0    0    0    0  0.00000000000E+00  0.00000000000E+00  0.45593999997E+02  0.45594000000E+02  0.51100000000E-03 0.  1.
         11   -1    0    0    0    0 -0.00000000000E+00 -0.00000000000E+00 -0.45593999997E+02  0.45594000000E+02  0.51100000000E-03 0. -1.
         23    2    1    2    0    0 -0.17763568394E-14  0.00000000000E+00  0.00000000000E+00  0.91188000000E+02  0.91188000000E+02 0.  0.
    9900012    2    3    3    0    0  0.10421015081E+02 -0.20875020292E+02 -0.28485359644E+02  0.54367085542E+02  0.40000003110E+02 0.  0.
        -12    1    3    3    0    0 -0.10421015081E+02  0.20875020292E+02  0.28485359644E+02  0.36820914458E+02  0.00000000000E+00 0.  1.
         11    1    4    4    0    0 -0.79882789278E+01 -0.18656083637E+02 -0.17843406664E+02  0.27023123775E+02  0.51100000000E-03 0. -1.
        -11    1    4    4    0    0  0.57580457855E+01 -0.87378368554E+01 -0.71984720161E+01  0.12701294572E+02  0.51100000000E-03 0.  1.
         12    1    4    4    0    0  0.12651248223E+02  0.65189002013E+01 -0.34434809633E+01  0.14642667195E+02  0.00000000000E+00 0. -1.
</event>
<event>
 8    1  0.1280925E-006  0.9118800E+02  0.7816164E-02  0.1184000E+00
        -11   -1    0    0    0    0  0.00000000000E+00  0.00000000000E+00  0.45593999997E+02  0.45594000000E+02  0.51100000000E-03 0. -1.
         11   -1    0    0    0    0 -0.00000000000E+00 -0.00000000000E+00 -0.45593999997E+02  0.45594000000E+02  0.51100000000E-03 0.  1.
         23    2    1    2    0    0 -0.17763568394E-14 -0.22204460493E-15 -0.71054273576E-14  0.91188000000E+02  0.91188000000E+02 0.  0.
    9900012    2    3    3    0    0 -0.97534332492E+01  0.11127989760E+01  0.35488196335E+02  0.54367083922E+02  0.39999999416E+02 0.  0.
        -12    1    3    3    0    0  0.97534332492E+01 -0.11127989760E+01 -0.35488196335E+02  0.36820916078E+02  0.00000000000E+00 0.  1.
         11    1    4    4    0    0  0.10336453961E+02 -0.24484526573E+01  0.26630193524E+02  0.28670619252E+02  0.51100000000E-03 0. -1.
        -11    1    4    4    0    0  0.36416180116E-01 -0.11666983181E+01 -0.20215865657E+01  0.23343786341E+01  0.51100000000E-03 0.  1.
        -12    1    4    4    0    0 -0.20126303391E+02  0.47279499514E+01  0.10879589377E+02  0.23362086035E+02  0.00000000000E+00 0.  1.
</event>
<event>
 8    1  0.1280925E-006  0.9118800E+02  0.7816164E-02  0.1184000E+00
        -11   -1    0    0    0    0  0.00000000000E+00  0.00000000000E+00  0.45593999997E+02  0.45594000000E+02  0.51100000000E-03 0.  1.
         11   -1    0    0    0    0 -0.00000000000E+00 -0.00000000000E+00 -0.45593999997E+02  0.45594000000E+02  0.51100000000E-03 0. -1.
         23    2    1    2    0    0  0.00000000000E+00 -0.35527136788E-14 -0.35527136788E-14  0.91188000000E+02  0.91188000000E+02 0.  0.
    9900012    2    3    3    0    0 -0.41234940454E+01 -0.19060404358E+02 -0.31232646168E+02  0.54367076545E+02  0.39999982600E+02 0.  0.
        -12    1    3    3    0    0  0.41234940454E+01  0.19060404358E+02  0.31232646168E+02  0.36820923455E+02  0.00000000000E+00 0.  1.
         11    1    4    4    0    0  0.78543133220E+01 -0.38698127452E+01 -0.19419799713E+02  0.21302448442E+02  0.51100000000E-03 0. -1.
        -11    1    4    4    0    0 -0.39289490389E+01 -0.14851762017E+01 -0.16070338592E+02  0.16610182769E+02  0.51100000000E-03 0.  1.
        -12    1    4    4    0    0 -0.80488583286E+01 -0.13705415411E+02  0.42574921373E+01  0.16454445335E+02  0.00000000000E+00 0.  1.
</event>
<event>
 8    1  0.1280925E-006  0.9118800E+02  0.7816164E-02  0.1184000E+00
        -11   -1    0    0    0    0  0.00000000000E+00  0.00000000000E+00  0.45593999997E+02  0.45594000000E+02  0.51100000000E-03 0. -1.
         11   -1    0    0    0    0 -0.00000000000E+00 -0.00000000000E+00 -0.45593999997E+02  0.45594000000E+02  0.51100000000E-03 0.  1.
         23    2    1    2    0    0  0.00000000000E+00 -0.17763568394E-14  0.00000000000E+00  0.91188000000E+02  0.91188000000E+02 0.  0.
    9900012    2    3    3    0    0  0.12125349284E+02 -0.98124891011E+01  0.33353716043E+02  0.54367090024E+02  0.40000013327E+02 0.  0.
        -12    1    3    3    0    0 -0.12125349284E+02  0.98124891011E+01 -0.33353716043E+02  0.36820909976E+02  0.00000000000E+00 0.  1.
         11    1    4    4    0    0  0.15453742403E+02  0.19905609166E+01  0.69895788461E+01  0.17077315355E+02  0.51100000000E-03 0. -1.
        -11    1    4    4    0    0 -0.20811155901E+01 -0.15870191865E+02  0.70103342657E+01  0.17473946855E+02  0.51100000000E-03 0.  1.
         12    1    4    4    0    0 -0.12472775286E+01  0.40671418472E+01  0.19353802931E+02  0.19815827813E+02  0.00000000000E+00 0. -1.
</event>
<event>
 8    1  0.1280925E-006  0.9118800E+02  0.7816164E-02  0.1184000E+00
        -11   -1    0    0    0    0  0.00000000000E+00  0.00000000000E+00  0.45593999997E+02  0.45594000000E+02  0.51100000000E-03 0.  1.
         11   -1    0    0    0    0 -0.00000000000E+00 -0.00000000000E+00 -0.45593999997E+02  0.45594000000E+02  0.51100000000E-03 0. -1.
         23    2    1    2    0    0  0.88817841970E-15  0.17763568394E-14 -0.71054273576E-14  0.91188000000E+02  0.91188000000E+02 0.  0.
    9900012    2    3    3    0    0  0.37327453175E+01 -0.15063513250E+02  0.33390669975E+02  0.54367086643E+02  0.40000005621E+02 0.  0.
         12    1    3    3    0    0 -0.37327453175E+01  0.15063513250E+02 -0.33390669975E+02  0.36820913357E+02  0.00000000000E+00 0. -1.
         11    1    4    4    0    0 -0.12653720326E+02 -0.50097746275E+01  0.51858972940E+01  0.14563928416E+02  0.51100000000E-03 0. -1.
        -11    1    4    4    0    0  0.82611444353E+01 -0.10981748260E+02  0.28478188363E+02  0.31620444572E+02  0.51100000000E-03 0.  1.
         12    1    4    4    0    0  0.81253212085E+01  0.92800963743E+00 -0.27341568180E+00  0.81827136552E+01  0.00000000000E+00 0. -1.
</event>
<event>
 8    1  0.1280925E-006  0.9118800E+02  0.7816164E-02  0.1184000E+00
        -11   -1    0    0    0    0  0.00000000000E+00  0.00000000000E+00  0.45593999997E+02  0.45594000000E+02  0.51100000000E-03 0. -1.
         11   -1    0    0    0    0 -0.00000000000E+00 -0.00000000000E+00 -0.45593999997E+02  0.45594000000E+02  0.51100000000E-03 0.  1.
         23    2    1    2    0    0  0.00000000000E+00  0.00000000000E+00  0.35527136788E-14  0.91188000000E+02  0.91188000000E+02 0.  0.
    9900012    2    3    3    0    0  0.19940286674E+02  0.18409227235E+02  0.24885030633E+02  0.54367089777E+02  0.40000012764E+02 0.  0.
        -12    1    3    3    0    0 -0.19940286674E+02 -0.18409227235E+02 -0.24885030633E+02  0.36820910223E+02  0.00000000000E+00 0.  1.
         11    1    4    4    0    0  0.28653515159E+01  0.35889689070E+01 -0.18160098660E+01  0.49385047554E+01  0.51100000000E-03 0. -1.
        -11    1    4    4    0    0  0.56276949090E+01 -0.25339159240E+00 -0.80687948894E+01  0.98407625983E+01  0.51100000000E-03 0.  1.
         12    1    4    4    0    0  0.11447240249E+02  0.15073649920E+02  0.34769835389E+02  0.39587822423E+02  0.00000000000E+00 0. -1.
</event>
<event>
 8    1  0.1280925E-006  0.9118800E+02  0.7816164E-02  0.1184000E+00
        -11   -1    0    0    0    0  0.00000000000E+00  0.00000000000E+00  0.45593999997E+02  0.45594000000E+02  0.51100000000E-03 0. -1.
         11   -1    0    0    0    0 -0.00000000000E+00 -0.00000000000E+00 -0.45593999997E+02  0.45594000000E+02  0.51100000000E-03 0.  1.
         23    2    1    2    0    0  0.00000000000E+00  0.00000000000E+00  0.00000000000E+00  0.91188000000E+02  0.91188000000E+02 0.  0.
    9900012    2    3    3    0    0 -0.21037298659E+02 -0.14220644811E+02 -0.26664284099E+02  0.54367099410E+02  0.40000034726E+02 0.  0.
         12    1    3    3    0    0  0.21037298659E+02  0.14220644811E+02  0.26664284099E+02  0.36820900590E+02  0.00000000000E+00 0. -1.
         11    1    4    4    0    0  0.99762865505E-01  0.43650708520E+01 -0.23574875578E+01  0.49620100784E+01  0.51100000000E-03 0. -1.
        -11    1    4    4    0    0  0.82260088923E+01  0.48928611689E-01 -0.42560711348E+01  0.92619521738E+01  0.51100000000E-03 0.  1.
        -12    1    4    4    0    0 -0.29363070417E+02 -0.18634644275E+02 -0.20050725406E+02  0.40143137158E+02  0.00000000000E+00 0.  1.
</event>
<event>
 8    1  0.1280925E-006  0.9118800E+02  0.7816164E-02  0.1184000E+00
        -11   -1    0    0    0    0  0.00000000000E+00  0.00000000000E+00  0.45593999997E+02  0.45594000000E+02  0.51100000000E-03 0. -1.
         11   -1    0    0    0    0 -0.00000000000E+00 -0.00000000000E+00 -0.45593999997E+02  0.45594000000E+02  0.51100000000E-03 0.  1.
         23    2    1    2    0    0  0.17763568394E-14 -0.17763568394E-14  0.00000000000E+00  0.91188000000E+02  0.91188000000E+02 0.  0.
    9900012    2    3    3    0    0  0.13914675569E+02 -0.12576037641E+02  0.31686040949E+02  0.54367080539E+02  0.39999991704E+02 0.  0.
        -12    1    3    3    0    0 -0.13914675569E+02  0.12576037641E+02 -0.31686040949E+02  0.36820919461E+02  0.00000000000E+00 0.  1.
         11    1    4    4    0    0  0.94570501930E+01 -0.36621877859E+01  0.24168061585E+02  0.26209590206E+02  0.51100000000E-03 0. -1.
        -11    1    4    4    0    0 -0.10160722759E+01  0.18096112592E+01  0.14225062401E+02  0.14375656380E+02  0.51100000000E-03 0.  1.
        -12    1    4    4    0    0  0.54736976524E+01 -0.10723461114E+02 -0.67070830361E+01  0.13781833953E+02  0.00000000000E+00 0.  1.
</event>
<event>
 8    1  0.1280925E-006  0.9118800E+02  0.7816164E-02  0.1184000E+00
        -11   -1    0    0    0    0  0.00000000000E+00  0.00000000000E+00  0.45593999997E+02  0.45594000000E+02  0.51100000000E-03 0.  1.
         11   -1    0    0    0    0 -0.00000000000E+00 -0.00000000000E+00 -0.45593999997E+02  0.45594000000E+02  0.51100000000E-03 0. -1.
         23    2    1    2    0    0  0.71054273576E-14 -0.44408920985E-15  0.17763568394E-14  0.91188000000E+02  0.91188000000E+02 0.  0.
    9900012    2    3    3    0    0 -0.34719004806E+02  0.13781992926E+01 -0.12184857071E+02  0.54367089231E+02  0.40000011520E+02 0.  0.
         12    1    3    3    0    0  0.34719004806E+02 -0.13781992926E+01  0.12184857071E+02  0.36820910769E+02  0.00000000000E+00 0. -1.
         11    1    4    4    0    0 -0.62745006537E+01  0.16492815638E+01 -0.86698853974E+01  0.10828499490E+02  0.51100000000E-03 0. -1.
        -11    1    4    4    0    0 -0.32590376074E+02 -0.83260033960E+01  0.47295124223E+00  0.33640431453E+02  0.51100000000E-03 0.  1.
        -12    1    4    4    0    0  0.41458719220E+01  0.80549211248E+01 -0.39879229155E+01  0.98981582883E+01  0.00000000000E+00 0.  1.
</event>
<event>
 8    1  0.1280925E-006  0.9118800E+02  0.7816164E-02  0.1184000E+00
        -11   -1    0    0    0    0  0.00000000000E+00  0.00000000000E+00  0.45593999997E+02  0.45594000000E+02  0.51100000000E-03 0.  1.
         11   -1    0    0    0    0 -0.00000000000E+00 -0.00000000000E+00 -0.45593999997E+02  0.45594000000E+02  0.51100000000E-03 0. -1.
         23    2    1    2    0    0  0.00000000000E+00  0.88817841970E-15 -0.14210854715E-13  0.91188000000E+02  0.91188000000E+02 0.  0.
    9900012    2    3    3    0    0 -0.16159732220E+02  0.54951605843E+01  0.32625798626E+02  0.54367129950E+02  0.40000104346E+02 0.  0.
         12    1    3    3    0    0  0.16159732220E+02 -0.54951605843E+01 -0.32625798626E+02  0.36820870050E+02  0.00000000000E+00 0. -1.
         11    1    4    4    0    0 -0.11022754887E+02 -0.10154050798E+02  0.10884051728E+01  0.15026326863E+02  0.51100000000E-03 0. -1.
        -11    1    4    4    0    0 -0.43585930862E+01 -0.12616778598E+01  0.13558780424E+01  0.47357755690E+01  0.51100000000E-03 0.  1.
        -12    1    4    4    0    0 -0.77838424744E+00  0.16910889243E+02  0.30181515411E+02  0.34605027518E+02  0.00000000000E+00 0.  1.
</event>
<event>
 8    1  0.1280925E-006  0.9118800E+02  0.7816164E-02  0.1184000E+00
        -11   -1    0    0    0    0  0.00000000000E+00  0.00000000000E+00  0.45593999997E+02  0.45594000000E+02  0.51100000000E-03 0.  1.
         11   -1    0    0    0    0 -0.00000000000E+00 -0.00000000000E+00 -0.45593999997E+02  0.45594000000E+02  0.51100000000E-03 0. -1.
         23    2    1    2    0    0  0.17763568394E-14  0.00000000000E+00  0.00000000000E+00  0.91188000000E+02  0.91188000000E+02 0.  0.
    9900012    2    3    3    0    0  0.13259449612E+02 -0.32334008970E+02 -0.11596156141E+02  0.54367190974E+02  0.40000243463E+02 0.  0.
        -12    1    3    3    0    0 -0.13259449612E+02  0.32334008970E+02  0.11596156141E+02  0.36820809026E+02  0.00000000000E+00 0.  1.
         11    1    4    4    0    0  0.21777793326E+02 -0.10130139705E+02  0.88742828999E-01  0.24018740352E+02  0.51100000000E-03 0. -1.
        -11    1    4    4    0    0 -0.54211733630E+00 -0.16598291611E+02 -0.22096709394E+01  0.16753501769E+02  0.51100000000E-03 0.  1.
        -12    1    4    4    0    0 -0.79762263776E+01 -0.56055776546E+01 -0.94752280308E+01  0.13594948853E+02  0.00000000000E+00 0.  1.
</event>
<event>
 8    1  0.1280925E-006  0.9118800E+02  0.7816164E-02  0.1184000E+00
        -11   -1    0    0    0    0  0.00000000000E+00  0.00000000000E+00  0.45593999997E+02  0.45594000000E+02  0.51100000000E-03 0. -1.
         11   -1    0    0    0    0 -0.00000000000E+00 -0.00000000000E+00 -0.45593999997E+02  0.45594000000E+02  0.51100000000E-03 0.  1.
         23    2    1    2    0    0  0.00000000000E+00 -0.17763568394E-14 -0.71054273576E-14  0.91188000000E+02  0.91188000000E+02 0.  0.
    9900012    2    3    3    0    0 -0.14001746710E+02  0.10258464798E+02  0.32472994428E+02  0.54367076899E+02  0.39999983406E+02 0.  0.
        -12    1    3    3    0    0  0.14001746710E+02 -0.10258464798E+02 -0.32472994428E+02  0.36820923101E+02  0.00000000000E+00 0.  1.
         11    1    4    4    0    0 -0.82431178222E+01  0.15332610868E+02  0.23996919282E+02  0.29646080395E+02  0.51100000000E-03 0. -1.
        -11    1    4    4    0    0 -0.50599845427E+01  0.79346013165E+01  0.45394842898E+00  0.94216458786E+01  0.51100000000E-03 0.  1.
        -12    1    4    4    0    0 -0.69864434505E+00 -0.13008747387E+02  0.80221267164E+01  0.15299350625E+02  0.00000000000E+00 0.  1.
</event>
<event>
 8    1  0.1280925E-006  0.9118800E+02  0.7816164E-02  0.1184000E+00
        -11   -1    0    0    0    0  0.00000000000E+00  0.00000000000E+00  0.45593999997E+02  0.45594000000E+02  0.51100000000E-03 0. -1.
         11   -1    0    0    0    0 -0.00000000000E+00 -0.00000000000E+00 -0.45593999997E+02  0.45594000000E+02  0.51100000000E-03 0.  1.
         23    2    1    2    0    0  0.00000000000E+00  0.00000000000E+00  0.71054273576E-14  0.91188000000E+02  0.91188000000E+02 0.  0.
    9900012    2    3    3    0    0 -0.22554996791E+01 -0.14560248749E+02  0.33744515476E+02  0.54367075960E+02  0.39999981266E+02 0.  0.
        -12    1    3    3    0    0  0.22554996791E+01  0.14560248749E+02 -0.33744515476E+02  0.36820924040E+02  0.00000000000E+00 0.  1.
         11    1    4    4    0    0  0.71289995698E+01  0.61263173150E+01  0.13467499460E+01  0.94956903061E+01  0.51100000000E-03 0. -1.
        -11    1    4    4    0    0 -0.45468086175E+01 -0.17029599005E+02  0.73453342936E+01  0.19095409057E+02  0.51100000000E-03 0.  1.
         12    1    4    4    0    0 -0.48376906314E+01 -0.36569670589E+01  0.25052431236E+02  0.25775976598E+02  0.00000000000E+00 0. -1.
</event>
<event>
 8    1  0.1280925E-006  0.9118800E+02  0.7816164E-02  0.1184000E+00
        -11   -1    0    0    0    0  0.00000000000E+00  0.00000000000E+00  0.45593999997E+02  0.45594000000E+02  0.51100000000E-03 0. -1.
         11   -1    0    0    0    0 -0.00000000000E+00 -0.00000000000E+00 -0.45593999997E+02  0.45594000000E+02  0.51100000000E-03 0.  1.
         23    2    1    2    0    0  0.00000000000E+00  0.00000000000E+00 -0.35527136788E-14  0.91188000000E+02  0.91188000000E+02 0.  0.
    9900012    2    3    3    0    0 -0.24669300811E+02 -0.11714124164E+02 -0.24697865499E+02  0.54367086545E+02  0.40000005397E+02 0.  0.
         12    1    3    3    0    0  0.24669300811E+02  0.11714124164E+02  0.24697865499E+02  0.36820913455E+02  0.00000000000E+00 0. -1.
         11    1    4    4    0    0  0.65936244461E+01 -0.67322173355E+01 -0.10534323692E+02  0.14134023118E+02  0.51100000000E-03 0. -1.
        -11    1    4    4    0    0 -0.20570357645E+02 -0.12650942388E+02 -0.11746170838E+02  0.26854394176E+02  0.51100000000E-03 0.  1.
         12    1    4    4    0    0 -0.10692567611E+02  0.76690355591E+01 -0.24173709696E+01  0.13378669251E+02  0.00000000000E+00 0. -1.
</event>
<event>
 8    1  0.1280925E-006  0.9118800E+02  0.7816164E-02  0.1184000E+00
        -11   -1    0    0    0    0  0.00000000000E+00  0.00000000000E+00  0.45593999997E+02  0.45594000000E+02  0.51100000000E-03 0. -1.
         11   -1    0    0    0    0 -0.00000000000E+00 -0.00000000000E+00 -0.45593999997E+02  0.45594000000E+02  0.51100000000E-03 0.  1.
         23    2    1    2    0    0 -0.35527136788E-14  0.00000000000E+00  0.44408920985E-15  0.91188000000E+02  0.91188000000E+02 0.  0.
    9900012    2    3    3    0    0  0.18545898939E+02 -0.31643040079E+02 -0.32477678290E+01  0.54367077296E+02  0.39999984313E+02 0.  0.
        -12    1    3    3    0    0 -0.18545898939E+02  0.31643040079E+02  0.32477678290E+01  0.36820922704E+02  0.00000000000E+00 0.  1.
         11    1    4    4    0    0 -0.12794137470E+01 -0.12291221431E+02 -0.96190973748E+00  0.12395010868E+02  0.51100000000E-03 0. -1.
        -11    1    4    4    0    0  0.98289779293E+01 -0.51994362673E+01 -0.16269561665E+02  0.19706384287E+02  0.51100000000E-03 0.  1.
         12    1    4    4    0    0  0.99963347563E+01 -0.14152382381E+02  0.13983703574E+02  0.22265682142E+02  0.00000000000E+00 0. -1.
</event>
<event>
 8    1  0.1280925E-006  0.9118800E+02  0.7816164E-02  0.1184000E+00
        -11   -1    0    0    0    0  0.00000000000E+00  0.00000000000E+00  0.45593999997E+02  0.45594000000E+02  0.51100000000E-03 0.  1.
         11   -1    0    0    0    0 -0.00000000000E+00 -0.00000000000E+00 -0.45593999997E+02  0.45594000000E+02  0.51100000000E-03 0. -1.
         23    2    1    2    0    0 -0.26645352591E-14  0.00000000000E+00  0.00000000000E+00  0.91188000000E+02  0.91188000000E+02 0.  0.
    9900012    2    3    3    0    0  0.28248001111E+01 -0.26983798087E+02 -0.24893285374E+02  0.54367075085E+02  0.39999979271E+02 0.  0.
        -12    1    3    3    0    0 -0.28248001111E+01  0.26983798087E+02  0.24893285374E+02  0.36820924915E+02  0.00000000000E+00 0.  1.
         11    1    4    4    0    0 -0.89019645709E+01  0.15817985807E+01 -0.17107012415E+02  0.19349339368E+02  0.51100000000E-03 0. -1.
        -11    1    4    4    0    0  0.22446038732E+01  0.13971039192E+01 -0.12200531680E+01  0.29118165984E+01  0.51100000000E-03 0.  1.
         12    1    4    4    0    0  0.94821608088E+01 -0.29962700587E+02 -0.65662197915E+01  0.32105919118E+02  0.00000000000E+00 0. -1.
</event>
<event>
 8    1  0.1280925E-006  0.9118800E+02  0.7816164E-02  0.1184000E+00
        -11   -1    0    0    0    0  0.00000000000E+00  0.00000000000E+00  0.45593999997E+02  0.45594000000E+02  0.51100000000E-03 0.  1.
         11   -1    0    0    0    0 -0.00000000000E+00 -0.00000000000E+00 -0.45593999997E+02  0.45594000000E+02  0.51100000000E-03 0. -1.
         23    2    1    2    0    0 -0.71054273576E-14  0.17763568394E-14  0.00000000000E+00  0.91188000000E+02  0.91188000000E+02 0.  0.
    9900012    2    3    3    0    0  0.33931003938E+02 -0.11423894686E+02  0.86001188202E+01  0.54367076034E+02  0.39999981434E+02 0.  0.
         12    1    3    3    0    0 -0.33931003938E+02  0.11423894686E+02 -0.86001188202E+01  0.36820923966E+02  0.00000000000E+00 0. -1.
         11    1    4    4    0    0  0.16449916081E+02  0.10787372358E+02 -0.20322532996E+01  0.19776177467E+02  0.51100000000E-03 0. -1.
        -11    1    4    4    0    0  0.95333932214E+01 -0.30211091422E+01 -0.21129689365E+01  0.10221415007E+02  0.51100000000E-03 0.  1.
        -12    1    4    4    0    0  0.79476946353E+01 -0.19190157902E+02  0.12745341056E+02  0.24369483560E+02  0.00000000000E+00 0.  1.
</event>
<event>
 8    1  0.1280925E-006  0.9118800E+02  0.7816164E-02  0.1184000E+00
        -11   -1    0    0    0    0  0.00000000000E+00  0.00000000000E+00  0.45593999997E+02  0.45594000000E+02  0.51100000000E-03 0. -1.
         11   -1    0    0    0    0 -0.00000000000E+00 -0.00000000000E+00 -0.45593999997E+02  0.45594000000E+02  0.51100000000E-03 0.  1.
         23    2    1    2    0    0  0.17763568394E-14 -0.88817841970E-15 -0.71054273576E-14  0.91188000000E+02  0.91188000000E+02 0.  0.
    9900012    2    3    3    0    0 -0.69714822777E+01  0.60501086006E+01  0.35645112473E+02  0.54367089874E+02  0.40000012987E+02 0.  0.
        -12    1    3    3    0    0  0.69714822777E+01 -0.60501086006E+01 -0.35645112473E+02  0.36820910126E+02  0.00000000000E+00 0.  1.
         11    1    4    4    0    0  0.52795846530E+01  0.25435378065E+00 -0.14219505523E+01  0.54736325770E+01  0.51100000000E-03 0. -1.
        -11    1    4    4    0    0 -0.16730097920E+02  0.83062381013E+01  0.96965572594E+01  0.21045498112E+02  0.51100000000E-03 0.  1.
         12    1    4    4    0    0  0.44790309896E+01 -0.25104832814E+01  0.27370505766E+02  0.27847959186E+02  0.00000000000E+00 0. -1.
</event>
<event>
 8    1  0.1280925E-006  0.9118800E+02  0.7816164E-02  0.1184000E+00
        -11   -1    0    0    0    0  0.00000000000E+00  0.00000000000E+00  0.45593999997E+02  0.45594000000E+02  0.51100000000E-03 0. -1.
         11   -1    0    0    0    0 -0.00000000000E+00 -0.00000000000E+00 -0.45593999997E+02  0.45594000000E+02  0.51100000000E-03 0.  1.
         23    2    1    2    0    0 -0.17763568394E-14  0.00000000000E+00  0.00000000000E+00  0.91188000000E+02  0.91188000000E+02 0.  0.
    9900012    2    3    3    0    0  0.12910128828E+02  0.29326806987E+01 -0.34358531884E+02  0.54367071770E+02  0.39999971715E+02 0.  0.
         12    1    3    3    0    0 -0.12910128828E+02 -0.29326806987E+01  0.34358531884E+02  0.36820928230E+02  0.00000000000E+00 0. -1.
         11    1    4    4    0    0  0.19917907262E+02 -0.40659065842E+01 -0.67764479449E+01  0.21428366085E+02  0.51100000000E-03 0. -1.
        -11    1    4    4    0    0  0.34205687684E+01  0.29645949399E+01 -0.16823923560E+02  0.17422213351E+02  0.51100000000E-03 0.  1.
         12    1    4    4    0    0 -0.10428347202E+02  0.40339923430E+01 -0.10758160380E+02  0.15516492334E+02  0.00000000000E+00 0. -1.
</event>
<event>
 8    1  0.1280925E-006  0.9118800E+02  0.7816164E-02  0.1184000E+00
        -11   -1    0    0    0    0  0.00000000000E+00  0.00000000000E+00  0.45593999997E+02  0.45594000000E+02  0.51100000000E-03 0.  1.
         11   -1    0    0    0    0 -0.00000000000E+00 -0.00000000000E+00 -0.45593999997E+02  0.45594000000E+02  0.51100000000E-03 0. -1.
         23    2    1    2    0    0 -0.71054273576E-14  0.00000000000E+00  0.00000000000E+00  0.91188000000E+02  0.91188000000E+02 0.  0.
    9900012    2    3    3    0    0  0.28835244429E+02 -0.16868010718E+02 -0.15484801905E+02  0.54367079358E+02  0.39999989013E+02 0.  0.
        -12    1    3    3    0    0 -0.28835244429E+02  0.16868010718E+02  0.15484801905E+02  0.36820920642E+02  0.00000000000E+00 0.  1.
         11    1    4    4    0    0  0.83052337269E+01 -0.83412539445E+01 -0.93687653109E+01  0.15044174565E+02  0.51100000000E-03 0. -1.
        -11    1    4    4    0    0  0.87172661283E+01 -0.15190629401E+02 -0.15041614263E+02  0.23086708519E+02  0.51100000000E-03 0.  1.
        -12    1    4    4    0    0  0.11812744573E+02  0.66638726266E+01  0.89255776687E+01  0.16236196274E+02  0.00000000000E+00 0.  1.
</event>
<event>
 8    1  0.1280925E-006  0.9118800E+02  0.7816164E-02  0.1184000E+00
        -11   -1    0    0    0    0  0.00000000000E+00  0.00000000000E+00  0.45593999997E+02  0.45594000000E+02  0.51100000000E-03 0. -1.
         11   -1    0    0    0    0 -0.00000000000E+00 -0.00000000000E+00 -0.45593999997E+02  0.45594000000E+02  0.51100000000E-03 0.  1.
         23    2    1    2    0    0 -0.71054273576E-14  0.88817841970E-15  0.00000000000E+00  0.91188000000E+02  0.91188000000E+02 0.  0.
    9900012    2    3    3    0    0 -0.29529560527E+02  0.75880350869E+01 -0.20644683738E+02  0.54367133795E+02  0.40000113113E+02 0.  0.
         12    1    3    3    0    0  0.29529560527E+02 -0.75880350869E+01  0.20644683738E+02  0.36820866205E+02  0.00000000000E+00 0. -1.
         11    1    4    4    0    0  0.47111089919E+01  0.65667475812E+00  0.11998150708E+01  0.49056422757E+01  0.51100000000E-03 0. -1.
        -11    1    4    4    0    0 -0.31193402447E+00 -0.31343333325E+01 -0.12454474691E+02  0.12846606103E+02  0.51100000000E-03 0.  1.
        -12    1    4    4    0    0 -0.33928735495E+02  0.10065693661E+02 -0.93900241180E+01  0.36614885417E+02  0.00000000000E+00 0.  1.
</event>
<event>
 8    1  0.1280925E-006  0.9118800E+02  0.7816164E-02  0.1184000E+00
        -11   -1    0    0    0    0  0.00000000000E+00  0.00000000000E+00  0.45593999997E+02  0.45594000000E+02  0.51100000000E-03 0. -1.
         11   -1    0    0    0    0 -0.00000000000E+00 -0.00000000000E+00 -0.45593999997E+02  0.45594000000E+02  0.51100000000E-03 0.  1.
         23    2    1    2    0    0  0.44408920985E-15 -0.17763568394E-14  0.00000000000E+00  0.91188000000E+02  0.91188000000E+02 0.  0.
    9900012    2    3    3    0    0 -0.26911600874E+01  0.96758473699E+01  0.35424789668E+02  0.54367080837E+02  0.39999992384E+02 0.  0.
        -12    1    3    3    0    0  0.26911600874E+01 -0.96758473699E+01 -0.35424789668E+02  0.36820919163E+02  0.00000000000E+00 0.  1.
         11    1    4    4    0    0 -0.17516888837E+01  0.80650277485E+01  0.25911612224E+01  0.86502718611E+01  0.51100000000E-03 0. -1.
        -11    1    4    4    0    0 -0.47342862222E+01 -0.93972215210E+01 -0.37187342114E+00  0.10528985158E+02  0.51100000000E-03 0.  1.
        -12    1    4    4    0    0  0.37948150185E+01  0.11008041142E+02  0.33205501867E+02  0.35187823818E+02  0.00000000000E+00 0.  1.
</event>
<event>
 8    1  0.1280925E-006  0.9118800E+02  0.7816164E-02  0.1184000E+00
        -11   -1    0    0    0    0  0.00000000000E+00  0.00000000000E+00  0.45593999997E+02  0.45594000000E+02  0.51100000000E-03 0.  1.
         11   -1    0    0    0    0 -0.00000000000E+00 -0.00000000000E+00 -0.45593999997E+02  0.45594000000E+02  0.51100000000E-03 0. -1.
         23    2    1    2    0    0  0.17763568394E-14  0.00000000000E+00  0.00000000000E+00  0.91188000000E+02  0.91188000000E+02 0.  0.
    9900012    2    3    3    0    0  0.14635374506E+02 -0.20979544046E+02 -0.26484818046E+02  0.54367067879E+02  0.39999962845E+02 0.  0.
        -12    1    3    3    0    0 -0.14635374506E+02  0.20979544046E+02  0.26484818046E+02  0.36820932121E+02  0.00000000000E+00 0.  1.
         11    1    4    4    0    0  0.70656198051E+01 -0.10250222244E+02 -0.30918152974E+02  0.33330499889E+02  0.51100000000E-03 0. -1.
        -11    1    4    4    0    0  0.85997174406E+01 -0.71405219453E+01 -0.39533960683E+01  0.11856286706E+02  0.51100000000E-03 0.  1.
         12    1    4    4    0    0 -0.10299627396E+01 -0.35887998563E+01  0.83867309965E+01  0.91802812844E+01  0.00000000000E+00 0. -1.
</event>
<event>
 8    1  0.1280925E-006  0.9118800E+02  0.7816164E-02  0.1184000E+00
        -11   -1    0    0    0    0  0.00000000000E+00  0.00000000000E+00  0.45593999997E+02  0.45594000000E+02  0.51100000000E-03 0. -1.
         11   -1    0    0    0    0 -0.00000000000E+00 -0.00000000000E+00 -0.45593999997E+02  0.45594000000E+02  0.51100000000E-03 0.  1.
         23    2    1    2    0    0  0.00000000000E+00  0.35527136788E-14 -0.27755575616E-15  0.91188000000E+02  0.91188000000E+02 0.  0.
    9900012    2    3    3    0    0  0.30470352841E+02 -0.20667390954E+02 -0.44351827807E+00  0.54367079866E+02  0.39999990170E+02 0.  0.
         12    1    3    3    0    0 -0.30470352841E+02  0.20667390954E+02  0.44351827807E+00  0.36820920134E+02  0.00000000000E+00 0. -1.
         11    1    4    4    0    0  0.17776324008E+01  0.85801057634E+01 -0.63715814639E+01  0.10833985531E+02  0.51100000000E-03 0. -1.
        -11    1    4    4    0    0  0.26787686169E+02 -0.23593507002E+02  0.86314092593E+00  0.35706844098E+02  0.51100000000E-03 0.  1.
         12    1    4    4    0    0  0.19050342710E+01 -0.56539897151E+01  0.50649222599E+01  0.78262502369E+01  0.00000000000E+00 0. -1.
</event>
<event>
 8    1  0.1280925E-006  0.9118800E+02  0.7816164E-02  0.1184000E+00
        -11   -1    0    0    0    0  0.00000000000E+00  0.00000000000E+00  0.45593999997E+02  0.45594000000E+02  0.51100000000E-03 0. -1.
         11   -1    0    0    0    0 -0.00000000000E+00 -0.00000000000E+00 -0.45593999997E+02  0.45594000000E+02  0.51100000000E-03 0.  1.
         23    2    1    2    0    0  0.00000000000E+00  0.00000000000E+00  0.10616507673E-14  0.91188000000E+02  0.91188000000E+02 0.  0.
    9900012    2    3    3    0    0  0.95025837608E+01  0.35573565042E+02  0.49791806722E-01  0.54367080577E+02  0.39999991792E+02 0.  0.
         12    1    3    3    0    0 -0.95025837608E+01 -0.35573565042E+02 -0.49791806722E-01  0.36820919423E+02  0.00000000000E+00 0. -1.
         11    1    4    4    0    0  0.69966988436E+01  0.13137586028E+02 -0.76530464850E+01  0.16736758411E+02  0.51100000000E-03 0. -1.
        -11    1    4    4    0    0  0.13788360252E+02  0.91694299803E+01 -0.34974603229E+01  0.16924229778E+02  0.51100000000E-03 0.  1.
         12    1    4    4    0    0 -0.11282475335E+02  0.13266549034E+02  0.11200298615E+02  0.20706092388E+02  0.00000000000E+00 0. -1.
</event>
<event>
 8    1  0.1280925E-006  0.9118800E+02  0.7816164E-02  0.1184000E+00
        -11   -1    0    0    0    0  0.00000000000E+00  0.00000000000E+00  0.45593999997E+02  0.45594000000E+02  0.51100000000E-03 0.  1.
         11   -1    0    0    0    0 -0.00000000000E+00 -0.00000000000E+00 -0.45593999997E+02  0.45594000000E+02  0.51100000000E-03 0. -1.
         23    2    1    2    0    0 -0.17763568394E-14  0.00000000000E+00  0.00000000000E+00  0.91188000000E+02  0.91188000000E+02 0.  0.
    9900012    2    3    3    0    0 -0.88019768015E+01  0.24319688198E+02 -0.26207955269E+02  0.54367096303E+02  0.40000027642E+02 0.  0.
        -12    1    3    3    0    0  0.88019768015E+01 -0.24319688198E+02  0.26207955269E+02  0.36820903697E+02  0.00000000000E+00 0.  1.
         11    1    4    4    0    0  0.28247011263E+01  0.22022336036E+00 -0.13597998464E+02  0.13890032299E+02  0.51100000000E-03 0. -1.
        -11    1    4    4    0    0 -0.50996664361E+01  0.69490705901E+01 -0.19146473863E+02  0.20997229376E+02  0.51100000000E-03 0.  1.
        -12    1    4    4    0    0 -0.65270114917E+01  0.17150394248E+02  0.65365170580E+01  0.19479834628E+02  0.00000000000E+00 0.  1.
</event>
<event>
 8    1  0.1280925E-006  0.9118800E+02  0.7816164E-02  0.1184000E+00
        -11   -1    0    0    0    0  0.00000000000E+00  0.00000000000E+00  0.45593999997E+02  0.45594000000E+02  0.51100000000E-03 0.  1.
         11   -1    0    0    0    0 -0.00000000000E+00 -0.00000000000E+00 -0.45593999997E+02  0.45594000000E+02  0.51100000000E-03 0. -1.
         23    2    1    2    0    0 -0.35527136788E-14  0.00000000000E+00 -0.35527136788E-14  0.91188000000E+02  0.91188000000E+02 0.  0.
    9900012    2    3    3    0    0 -0.18509392705E+02 -0.10918709312E+02 -0.29899202267E+02  0.54367107459E+02  0.40000053074E+02 0.  0.
        -12    1    3    3    0    0  0.18509392705E+02  0.10918709312E+02  0.29899202267E+02  0.36820892541E+02  0.00000000000E+00 0.  1.
         11    1    4    4    0    0 -0.22734084385E+02 -0.19114839795E+01 -0.13476520827E+02  0.26497339069E+02  0.51100000000E-03 0. -1.
        -11    1    4    4    0    0  0.75629605678E+01  0.43084572089E+01 -0.52054424358E+01  0.10141883813E+02  0.51100000000E-03 0.  1.
         12    1    4    4    0    0 -0.33382688870E+01 -0.13315682542E+02 -0.11217239004E+02  0.17727884577E+02  0.00000000000E+00 0. -1.
</event>
<event>
 8    1  0.1280925E-006  0.9118800E+02  0.7816164E-02  0.1184000E+00
        -11   -1    0    0    0    0  0.00000000000E+00  0.00000000000E+00  0.45593999997E+02  0.45594000000E+02  0.51100000000E-03 0. -1.
         11   -1    0    0    0    0 -0.00000000000E+00 -0.00000000000E+00 -0.45593999997E+02  0.45594000000E+02  0.51100000000E-03 0.  1.
         23    2    1    2    0    0 -0.17763568394E-14  0.35527136788E-14  0.00000000000E+00  0.91188000000E+02  0.91188000000E+02 0.  0.
    9900012    2    3    3    0    0  0.81738254597E+01 -0.28181079051E+02  0.22244010428E+02  0.54367073354E+02  0.39999975325E+02 0.  0.
        -12    1    3    3    0    0 -0.81738254597E+01  0.28181079051E+02 -0.22244010428E+02  0.36820926646E+02  0.00000000000E+00 0.  1.
         11    1    4    4    0    0 -0.10377742629E+01  0.43887012041E+01  0.15267245957E+01  0.47611513241E+01  0.51100000000E-03 0. -1.
        -11    1    4    4    0    0 -0.28074059845E+00  0.54033084464E+01  0.51890085504E+01  0.74966904330E+01  0.51100000000E-03 0.  1.
         12    1    4    4    0    0  0.94923403210E+01 -0.37973088702E+02  0.15528277282E+02  0.42109231597E+02  0.00000000000E+00 0. -1.
</event>
<event>
 8    1  0.1280925E-006  0.9118800E+02  0.7816164E-02  0.1184000E+00
        -11   -1    0    0    0    0  0.00000000000E+00  0.00000000000E+00  0.45593999997E+02  0.45594000000E+02  0.51100000000E-03 0.  1.
         11   -1    0    0    0    0 -0.00000000000E+00 -0.00000000000E+00 -0.45593999997E+02  0.45594000000E+02  0.51100000000E-03 0. -1.
         23    2    1    2    0    0  0.00000000000E+00  0.00000000000E+00  0.00000000000E+00  0.91188000000E+02  0.91188000000E+02 0.  0.
    9900012    2    3    3    0    0 -0.21058566517E+02  0.11235677161E+02 -0.28037159176E+02  0.54367001104E+02  0.39999810617E+02 0.  0.
        -12    1    3    3    0    0  0.21058566517E+02 -0.11235677161E+02  0.28037159176E+02  0.36820998896E+02  0.00000000000E+00 0.  1.
         11    1    4    4    0    0 -0.13209920779E+02  0.17356149736E+01 -0.33658905422E+02  0.36199948629E+02  0.51100000000E-03 0. -1.
        -11    1    4    4    0    0 -0.27853448024E+01  0.80799532513E+01  0.85992135567E+01  0.12123954151E+02  0.51100000000E-03 0.  1.
        -12    1    4    4    0    0 -0.50633009357E+01  0.14201089362E+01 -0.29774673114E+01  0.60430983235E+01  0.00000000000E+00 0.  1.
</event>
<event>
 8    1  0.1280925E-006  0.9118800E+02  0.7816164E-02  0.1184000E+00
        -11   -1    0    0    0    0  0.00000000000E+00  0.00000000000E+00  0.45593999997E+02  0.45594000000E+02  0.51100000000E-03 0.  1.
         11   -1    0    0    0    0 -0.00000000000E+00 -0.00000000000E+00 -0.45593999997E+02  0.45594000000E+02  0.51100000000E-03 0. -1.
         23    2    1    2    0    0 -0.88817841970E-15  0.17763568394E-14  0.00000000000E+00  0.91188000000E+02  0.91188000000E+02 0.  0.
    9900012    2    3    3    0    0 -0.67388433800E+01  0.11942033789E+02  0.34172450493E+02  0.54367074512E+02  0.39999977964E+02 0.  0.
         12    1    3    3    0    0  0.67388433800E+01 -0.11942033789E+02 -0.34172450493E+02  0.36820925488E+02  0.00000000000E+00 0. -1.
         11    1    4    4    0    0 -0.48750762316E+01  0.10970471281E+02  0.39195561420E+01  0.12628560053E+02  0.51100000000E-03 0. -1.
        -11    1    4    4    0    0  0.45587066199E+01 -0.12742035361E+02  0.15828136803E+02  0.20824773374E+02  0.51100000000E-03 0.  1.
         12    1    4    4    0    0 -0.64224737683E+01  0.13713597869E+02  0.14424757548E+02  0.20913741085E+02  0.00000000000E+00 0. -1.
</event>
<event>
 8    1  0.1280925E-006  0.9118800E+02  0.7816164E-02  0.1184000E+00
        -11   -1    0    0    0    0  0.00000000000E+00  0.00000000000E+00  0.45593999997E+02  0.45594000000E+02  0.51100000000E-03 0.  1.
         11   -1    0    0    0    0 -0.00000000000E+00 -0.00000000000E+00 -0.45593999997E+02  0.45594000000E+02  0.51100000000E-03 0. -1.
         23    2    1    2    0    0  0.44408920985E-15  0.00000000000E+00  0.35527136788E-14  0.91188000000E+02  0.91188000000E+02 0.  0.
    9900012    2    3    3    0    0  0.20381003756E+01  0.30256952252E+02 -0.20884016894E+02  0.54367093244E+02  0.40000020668E+02 0.  0.
        -12    1    3    3    0    0 -0.20381003756E+01 -0.30256952252E+02  0.20884016894E+02  0.36820906756E+02  0.00000000000E+00 0.  1.
         11    1    4    4    0    0  0.69044458431E+00  0.20153349084E+02 -0.22999845059E+01  0.20295913924E+02  0.51100000000E-03 0. -1.
        -11    1    4    4    0    0  0.12917886828E+02  0.48049289360E+01 -0.32801135918E+01  0.14167508166E+02  0.51100000000E-03 0.  1.
        -12    1    4    4    0    0 -0.11570231037E+02  0.52986742313E+01 -0.15303918797E+02  0.19903671154E+02  0.00000000000E+00 0.  1.
</event>
<event>
 8    1  0.1280925E-006  0.9118800E+02  0.7816164E-02  0.1184000E+00
        -11   -1    0    0    0    0  0.00000000000E+00  0.00000000000E+00  0.45593999997E+02  0.45594000000E+02  0.51100000000E-03 0. -1.
         11   -1    0    0    0    0 -0.00000000000E+00 -0.00000000000E+00 -0.45593999997E+02  0.45594000000E+02  0.51100000000E-03 0.  1.
         23    2    1    2    0    0 -0.88817841970E-15  0.00000000000E+00  0.00000000000E+00  0.91188000000E+02  0.91188000000E+02 0.  0.
    9900012    2    3    3    0    0 -0.70326233604E+01 -0.21480785498E+02  0.29067112390E+02  0.54367096159E+02  0.40000027315E+02 0.  0.
        -12    1    3    3    0    0  0.70326233604E+01  0.21480785498E+02 -0.29067112390E+02  0.36820903841E+02  0.00000000000E+00 0.  1.
         11    1    4    4    0    0  0.42803636071E+01 -0.30199655701E+02  0.21413212211E+02  0.37267497562E+02  0.51100000000E-03 0. -1.
        -11    1    4    4    0    0 -0.42843299123E+01  0.30085521631E+00  0.26385532783E+01  0.50406309449E+01  0.51100000000E-03 0.  1.
         12    1    4    4    0    0 -0.70286570552E+01  0.84180149866E+01  0.50153469005E+01  0.12058967653E+02  0.00000000000E+00 0. -1.
</event>
<event>
 8    1  0.1280925E-006  0.9118800E+02  0.7816164E-02  0.1184000E+00
        -11   -1    0    0    0    0  0.00000000000E+00  0.00000000000E+00  0.45593999997E+02  0.45594000000E+02  0.51100000000E-03 0. -1.
         11   -1    0    0    0    0 -0.00000000000E+00 -0.00000000000E+00 -0.45593999997E+02  0.45594000000E+02  0.51100000000E-03 0.  1.
         23    2    1    2    0    0  0.00000000000E+00  0.00000000000E+00  0.00000000000E+00  0.91188000000E+02  0.91188000000E+02 0.  0.
    9900012    2    3    3    0    0 -0.11464780019E+02 -0.17054556162E+02  0.30552956829E+02  0.54367051645E+02  0.39999925835E+02 0.  0.
        -12    1    3    3    0    0  0.11464780019E+02  0.17054556162E+02 -0.30552956829E+02  0.36820948355E+02  0.00000000000E+00 0.  1.
         11    1    4    4    0    0 -0.11775407833E+02 -0.30289799094E+01  0.57269687264E+01  0.13439982142E+02  0.51100000000E-03 0. -1.
        -11    1    4    4    0    0 -0.20338343964E+01  0.76851169710E+01  0.15010351045E+02  0.16985527486E+02  0.51100000000E-03 0.  1.
         12    1    4    4    0    0  0.23444622104E+01 -0.21710693224E+02  0.98156370567E+01  0.23941542017E+02  0.00000000000E+00 0. -1.
</event>
<event>
 8    1  0.1280925E-006  0.9118800E+02  0.7816164E-02  0.1184000E+00
        -11   -1    0    0    0    0  0.00000000000E+00  0.00000000000E+00  0.45593999997E+02  0.45594000000E+02  0.51100000000E-03 0. -1.
         11   -1    0    0    0    0 -0.00000000000E+00 -0.00000000000E+00 -0.45593999997E+02  0.45594000000E+02  0.51100000000E-03 0.  1.
         23    2    1    2    0    0  0.00000000000E+00  0.00000000000E+00  0.00000000000E+00  0.91188000000E+02  0.91188000000E+02 0.  0.
    9900012    2    3    3    0    0  0.11142690204E+02 -0.33780582448E+02  0.95127169227E+01  0.54367094542E+02  0.40000023628E+02 0.  0.
         12    1    3    3    0    0 -0.11142690204E+02  0.33780582448E+02 -0.95127169227E+01  0.36820905458E+02  0.00000000000E+00 0. -1.
         11    1    4    4    0    0  0.77008407221E+01 -0.30156603797E+02  0.10463837112E+02  0.32836193259E+02  0.51100000000E-03 0. -1.
        -11    1    4    4    0    0  0.93707135783E+00 -0.10228493824E+02 -0.68351110358E+01  0.12337703667E+02  0.51100000000E-03 0.  1.
         12    1    4    4    0    0  0.25047781237E+01  0.66045151733E+01  0.58839908467E+01  0.91931976161E+01  0.00000000000E+00 0. -1.
</event>
<event>
 8    1  0.1280925E-006  0.9118800E+02  0.7816164E-02  0.1184000E+00
        -11   -1    0    0    0    0  0.00000000000E+00  0.00000000000E+00  0.45593999997E+02  0.45594000000E+02  0.51100000000E-03 0. -1.
         11   -1    0    0    0    0 -0.00000000000E+00 -0.00000000000E+00 -0.45593999997E+02  0.45594000000E+02  0.51100000000E-03 0.  1.
         23    2    1    2    0    0 -0.35527136788E-14 -0.13322676296E-14  0.35527136788E-14  0.91188000000E+02  0.91188000000E+02 0.  0.
    9900012    2    3    3    0    0  0.27133394821E+02  0.72438028385E+00 -0.24880431907E+02  0.54367058496E+02  0.39999941454E+02 0.  0.
         12    1    3    3    0    0 -0.27133394821E+02 -0.72438028385E+00  0.24880431907E+02  0.36820941504E+02  0.00000000000E+00 0. -1.
         11    1    4    4    0    0  0.15484566741E+02 -0.54593656876E+01  0.83590749025E+01  0.18424185582E+02  0.51100000000E-03 0. -1.
        -11    1    4    4    0    0  0.19930862000E+01 -0.24783522117E+00 -0.62704905989E+01  0.65842894461E+01  0.51100000000E-03 0.  1.
         12    1    4    4    0    0  0.96557418801E+01  0.64315811926E+01 -0.26969016211E+02  0.29358583468E+02  0.00000000000E+00 0. -1.
</event>
<event>
 8    1  0.1280925E-006  0.9118800E+02  0.7816164E-02  0.1184000E+00
        -11   -1    0    0    0    0  0.00000000000E+00  0.00000000000E+00  0.45593999997E+02  0.45594000000E+02  0.51100000000E-03 0. -1.
         11   -1    0    0    0    0 -0.00000000000E+00 -0.00000000000E+00 -0.45593999997E+02  0.45594000000E+02  0.51100000000E-03 0.  1.
         23    2    1    2    0    0  0.00000000000E+00  0.00000000000E+00 -0.13322676296E-14  0.91188000000E+02  0.91188000000E+02 0.  0.
    9900012    2    3    3    0    0  0.33970477375E+02  0.13941878155E+02 -0.27212584822E+01  0.54367156076E+02  0.40000163906E+02 0.  0.
        -12    1    3    3    0    0 -0.33970477375E+02 -0.13941878155E+02  0.27212584822E+01  0.36820843924E+02  0.00000000000E+00 0.  1.
         11    1    4    4    0    0 -0.28782841480E+01  0.34088624789E+01  0.10402576705E+02  0.11318942769E+02  0.51100000000E-03 0. -1.
        -11    1    4    4    0    0  0.55874598126E+01 -0.69207366206E+00  0.27138156428E+01  0.62500774967E+01  0.51100000000E-03 0.  1.
         12    1    4    4    0    0  0.31261301710E+02  0.11225089338E+02 -0.15837650830E+02  0.36798135810E+02  0.00000000000E+00 0. -1.
</event>
<event>
 8    1  0.1280925E-006  0.9118800E+02  0.7816164E-02  0.1184000E+00
        -11   -1    0    0    0    0  0.00000000000E+00  0.00000000000E+00  0.45593999997E+02  0.45594000000E+02  0.51100000000E-03 0. -1.
         11   -1    0    0    0    0 -0.00000000000E+00 -0.00000000000E+00 -0.45593999997E+02  0.45594000000E+02  0.51100000000E-03 0.  1.
         23    2    1    2    0    0 -0.35527136788E-14  0.71054273576E-14  0.35527136788E-14  0.91188000000E+02  0.91188000000E+02 0.  0.
    9900012    2    3    3    0    0  0.28869007082E+02 -0.19694873510E+02 -0.11596666628E+02  0.54366942311E+02  0.39999676585E+02 0.  0.
         12    1    3    3    0    0 -0.28869007082E+02  0.19694873510E+02  0.11596666628E+02  0.36821057689E+02  0.00000000000E+00 0. -1.
         11    1    4    4    0    0  0.11496546508E+02 -0.93271016636E+01  0.11613750753E+02  0.18816073285E+02  0.51100000000E-03 0. -1.
        -11    1    4    4    0    0  0.37892097909E+01  0.31579118081E+01  0.61575986479E+00  0.49708830502E+01  0.51100000000E-03 0.  1.
        -12    1    4    4    0    0  0.13583250783E+02 -0.13525683654E+02 -0.23826177245E+02  0.30579985976E+02  0.00000000000E+00 0.  1.
</event>
<event>
 8    1  0.1280925E-006  0.9118800E+02  0.7816164E-02  0.1184000E+00
        -11   -1    0    0    0    0  0.00000000000E+00  0.00000000000E+00  0.45593999997E+02  0.45594000000E+02  0.51100000000E-03 0.  1.
         11   -1    0    0    0    0 -0.00000000000E+00 -0.00000000000E+00 -0.45593999997E+02  0.45594000000E+02  0.51100000000E-03 0. -1.
         23    2    1    2    0    0  0.00000000000E+00  0.88817841970E-15  0.00000000000E+00  0.91188000000E+02  0.91188000000E+02 0.  0.
    9900012    2    3    3    0    0 -0.19018224099E+02  0.40428593137E+01  0.31268912575E+02  0.54367048723E+02  0.39999919173E+02 0.  0.
         12    1    3    3    0    0  0.19018224099E+02 -0.40428593137E+01 -0.31268912575E+02  0.36820951277E+02  0.00000000000E+00 0. -1.
         11    1    4    4    0    0 -0.10498291318E+02 -0.15479165486E+01 -0.12933098615E+01  0.10690314163E+02  0.51100000000E-03 0. -1.
        -11    1    4    4    0    0 -0.14012845399E+02 -0.14683839242E+01  0.54156083437E+01  0.15094528860E+02  0.51100000000E-03 0.  1.
         12    1    4    4    0    0  0.54929126176E+01  0.70591597866E+01  0.27146614093E+02  0.28582205699E+02  0.00000000000E+00 0. -1.
</event>
<event>
 8    1  0.1280925E-006  0.9118800E+02  0.7816164E-02  0.1184000E+00
        -11   -1    0    0    0    0  0.00000000000E+00  0.00000000000E+00  0.45593999997E+02  0.45594000000E+02  0.51100000000E-03 0. -1.
         11   -1    0    0    0    0 -0.00000000000E+00 -0.00000000000E+00 -0.45593999997E+02  0.45594000000E+02  0.51100000000E-03 0.  1.
         23    2    1    2    0    0  0.35527136788E-14  0.35527136788E-14  0.35527136788E-14  0.91188000000E+02  0.91188000000E+02 0.  0.
    9900012    2    3    3    0    0  0.23690378979E+02  0.19131443344E+02  0.20701068431E+02  0.54367076400E+02  0.39999982269E+02 0.  0.
        -12    1    3    3    0    0 -0.23690378979E+02 -0.19131443344E+02 -0.20701068431E+02  0.36820923600E+02  0.00000000000E+00 0.  1.
         11    1    4    4    0    0  0.15957289426E+02  0.18035555745E+02  0.15880734954E+02  0.28846387985E+02  0.51100000000E-03 0. -1.
        -11    1    4    4    0    0 -0.23348675960E+01 -0.52417672575E+01  0.10781989469E+02  0.12213886680E+02  0.51100000000E-03 0.  1.
        -12    1    4    4    0    0  0.10067957149E+02  0.63376548562E+01 -0.59616559920E+01  0.13306801734E+02  0.00000000000E+00 0.  1.
</event>
<event>
 8    1  0.1280925E-006  0.9118800E+02  0.7816164E-02  0.1184000E+00
        -11   -1    0    0    0    0  0.00000000000E+00  0.00000000000E+00  0.45593999997E+02  0.45594000000E+02  0.51100000000E-03 0.  1.
         11   -1    0    0    0    0 -0.00000000000E+00 -0.00000000000E+00 -0.45593999997E+02  0.45594000000E+02  0.51100000000E-03 0. -1.
         23    2    1    2    0    0  0.35527136788E-14  0.00000000000E+00 -0.35527136788E-14  0.91188000000E+02  0.91188000000E+02 0.  0.
    9900012    2    3    3    0    0 -0.16434481280E+02 -0.12615505805E+02 -0.30439037910E+02  0.54367106603E+02  0.40000051124E+02 0.  0.
        -12    1    3    3    0    0  0.16434481280E+02  0.12615505805E+02  0.30439037910E+02  0.36820893397E+02  0.00000000000E+00 0.  1.
         11    1    4    4    0    0  0.50078349801E+01 -0.48186749496E+01 -0.85393366399E+00  0.70019456168E+01  0.51100000000E-03 0. -1.
        -11    1    4    4    0    0 -0.22253388558E+01 -0.13261039172E+02 -0.24489119848E+01  0.13667642925E+02  0.51100000000E-03 0.  1.
        -12    1    4    4    0    0 -0.19216977404E+02  0.54642083172E+01 -0.27136192261E+02  0.33697518062E+02  0.00000000000E+00 0.  1.
</event>
<event>
 8    1  0.1280925E-006  0.9118800E+02  0.7816164E-02  0.1184000E+00
        -11   -1    0    0    0    0  0.00000000000E+00  0.00000000000E+00  0.45593999997E+02  0.45594000000E+02  0.51100000000E-03 0.  1.
         11   -1    0    0    0    0 -0.00000000000E+00 -0.00000000000E+00 -0.45593999997E+02  0.45594000000E+02  0.51100000000E-03 0. -1.
         23    2    1    2    0    0  0.00000000000E+00  0.00000000000E+00  0.00000000000E+00  0.91188000000E+02  0.91188000000E+02 0.  0.
    9900012    2    3    3    0    0 -0.10056607763E+02  0.11336883027E+02 -0.33557709924E+02  0.54367079699E+02  0.39999989789E+02 0.  0.
        -12    1    3    3    0    0  0.10056607763E+02 -0.11336883027E+02  0.33557709924E+02  0.36820920301E+02  0.00000000000E+00 0.  1.
         11    1    4    4    0    0 -0.34441909145E+01  0.17279264070E+02 -0.88219168064E+01  0.19704355718E+02  0.51100000000E-03 0. -1.
        -11    1    4    4    0    0 -0.20014807731E+01  0.82134487849E+01 -0.13824928671E+02  0.16204793095E+02  0.51100000000E-03 0.  1.
        -12    1    4    4    0    0 -0.46109360760E+01 -0.14155829828E+02 -0.10910864447E+02  0.18457930886E+02  0.00000000000E+00 0.  1.
</event>
<event>
 8    1  0.1280925E-006  0.9118800E+02  0.7816164E-02  0.1184000E+00
        -11   -1    0    0    0    0  0.00000000000E+00  0.00000000000E+00  0.45593999997E+02  0.45594000000E+02  0.51100000000E-03 0.  1.
         11   -1    0    0    0    0 -0.00000000000E+00 -0.00000000000E+00 -0.45593999997E+02  0.45594000000E+02  0.51100000000E-03 0. -1.
         23    2    1    2    0    0  0.44408920985E-15 -0.71054273576E-14  0.00000000000E+00  0.91188000000E+02  0.91188000000E+02 0.  0.
    9900012    2    3    3    0    0 -0.90129293013E+00 -0.35877526051E+02 -0.82323297639E+01  0.54367075815E+02  0.39999980935E+02 0.  0.
         12    1    3    3    0    0  0.90129293013E+00  0.35877526051E+02  0.82323297639E+01  0.36820924185E+02  0.00000000000E+00 0. -1.
         11    1    4    4    0    0  0.71869581417E+01  0.24043598402E+01 -0.62779125158E+01  0.98410110959E+01  0.51100000000E-03 0. -1.
        -11    1    4    4    0    0 -0.19924682776E+01 -0.27564910984E+02 -0.10457238694E+02  0.29549079322E+02  0.51100000000E-03 0.  1.
         12    1    4    4    0    0 -0.60957827942E+01 -0.10716974907E+02  0.85028214464E+01  0.14976985397E+02  0.00000000000E+00 0. -1.
</event>
<event>
 8    1  0.1280925E-006  0.9118800E+02  0.7816164E-02  0.1184000E+00
        -11   -1    0    0    0    0  0.00000000000E+00  0.00000000000E+00  0.45593999997E+02  0.45594000000E+02  0.51100000000E-03 0.  1.
         11   -1    0    0    0    0 -0.00000000000E+00 -0.00000000000E+00 -0.45593999997E+02  0.45594000000E+02  0.51100000000E-03 0. -1.
         23    2    1    2    0    0  0.88817841970E-15  0.35527136788E-14  0.35527136788E-14  0.91188000000E+02  0.91188000000E+02 0.  0.
    9900012    2    3    3    0    0 -0.31625501839E+01 -0.31036928339E+02 -0.19557282268E+02  0.54367082927E+02  0.39999997148E+02 0.  0.
        -12    1    3    3    0    0  0.31625501839E+01  0.31036928339E+02  0.19557282268E+02  0.36820917073E+02  0.00000000000E+00 0.  1.
         11    1    4    4    0    0 -0.11057020280E+02  0.20204864103E+01 -0.13010470444E+02  0.17193382571E+02  0.51100000000E-03 0. -1.
        -11    1    4    4    0    0  0.32818638078E+00 -0.33352860686E+01  0.35522626852E+01  0.48836881458E+01  0.51100000000E-03 0.  1.
        -12    1    4    4    0    0  0.75662837149E+01 -0.29722128681E+02 -0.10099074510E+02  0.32290012210E+02  0.00000000000E+00 0.  1.
</event>
<event>
 8    1  0.1280925E-006  0.9118800E+02  0.7816164E-02  0.1184000E+00
        -11   -1    0    0    0    0  0.00000000000E+00  0.00000000000E+00  0.45593999997E+02  0.45594000000E+02  0.51100000000E-03 0. -1.
         11   -1    0    0    0    0 -0.00000000000E+00 -0.00000000000E+00 -0.45593999997E+02  0.45594000000E+02  0.51100000000E-03 0.  1.
         23    2    1    2    0    0  0.17763568394E-14  0.00000000000E+00  0.35527136788E-14  0.91188000000E+02  0.91188000000E+02 0.  0.
    9900012    2    3    3    0    0  0.84391877434E+01  0.28053488001E+02 -0.22306086111E+02  0.54367088056E+02  0.40000008841E+02 0.  0.
         12    1    3    3    0    0 -0.84391877434E+01 -0.28053488001E+02  0.22306086111E+02  0.36820911944E+02  0.00000000000E+00 0. -1.
         11    1    4    4    0    0  0.30624257006E+01  0.24043563105E+01  0.48000619209E+01  0.61806128454E+01  0.51100000000E-03 0. -1.
        -11    1    4    4    0    0 -0.12208014064E+02  0.13960764624E+02 -0.14959729926E+02  0.23827128992E+02  0.51100000000E-03 0.  1.
        -12    1    4    4    0    0  0.17584776107E+02  0.11688367066E+02 -0.12146418107E+02  0.24359346219E+02  0.00000000000E+00 0.  1.
</event>
<event>
 8    1  0.1280925E-006  0.9118800E+02  0.7816164E-02  0.1184000E+00
        -11   -1    0    0    0    0  0.00000000000E+00  0.00000000000E+00  0.45593999997E+02  0.45594000000E+02  0.51100000000E-03 0. -1.
         11   -1    0    0    0    0 -0.00000000000E+00 -0.00000000000E+00 -0.45593999997E+02  0.45594000000E+02  0.51100000000E-03 0.  1.
         23    2    1    2    0    0 -0.17763568394E-14  0.00000000000E+00  0.17763568394E-14  0.91188000000E+02  0.91188000000E+02 0.  0.
    9900012    2    3    3    0    0 -0.88940701300E+01 -0.35181395321E+02  0.62406103249E+01  0.54367078264E+02  0.39999986519E+02 0.  0.
        -12    1    3    3    0    0  0.88940701300E+01  0.35181395321E+02 -0.62406103249E+01  0.36820921736E+02  0.00000000000E+00 0.  1.
         11    1    4    4    0    0  0.75872812010E+01 -0.11884616974E+02  0.11209204331E+02  0.18012696040E+02  0.51100000000E-03 0. -1.
        -11    1    4    4    0    0 -0.13352138213E+02 -0.25096820044E+02 -0.10023293146E+02  0.30142932455E+02  0.51100000000E-03 0.  1.
        -12    1    4    4    0    0 -0.31292131176E+01  0.18000416969E+01  0.50546991395E+01  0.62114497693E+01  0.00000000000E+00 0.  1.
</event>
<event>
 8    1  0.1280925E-006  0.9118800E+02  0.7816164E-02  0.1184000E+00
        -11   -1    0    0    0    0  0.00000000000E+00  0.00000000000E+00  0.45593999997E+02  0.45594000000E+02  0.51100000000E-03 0.  1.
         11   -1    0    0    0    0 -0.00000000000E+00 -0.00000000000E+00 -0.45593999997E+02  0.45594000000E+02  0.51100000000E-03 0. -1.
         23    2    1    2    0    0  0.44408920985E-15  0.00000000000E+00 -0.53290705182E-14  0.91188000000E+02  0.91188000000E+02 0.  0.
    9900012    2    3    3    0    0 -0.16899660672E+01  0.34234316259E+02 -0.13451160338E+02  0.54367107704E+02  0.40000053633E+02 0.  0.
         12    1    3    3    0    0  0.16899660672E+01 -0.34234316259E+02  0.13451160338E+02  0.36820892296E+02  0.00000000000E+00 0. -1.
         11    1    4    4    0    0 -0.22039580482E+01 -0.48807994844E+00  0.74171470018E+01  0.77530460480E+01  0.51100000000E-03 0. -1.
        -11    1    4    4    0    0 -0.44843594410E+01  0.12192010126E+02  0.30851925431E+01  0.13351891394E+02  0.51100000000E-03 0.  1.
         12    1    4    4    0    0  0.49983514220E+01  0.22530386082E+02 -0.23953499882E+02  0.33262170262E+02  0.00000000000E+00 0. -1.
</event>
<event>
 8    1  0.1280925E-006  0.9118800E+02  0.7816164E-02  0.1184000E+00
        -11   -1    0    0    0    0  0.00000000000E+00  0.00000000000E+00  0.45593999997E+02  0.45594000000E+02  0.51100000000E-03 0. -1.
         11   -1    0    0    0    0 -0.00000000000E+00 -0.00000000000E+00 -0.45593999997E+02  0.45594000000E+02  0.51100000000E-03 0.  1.
         23    2    1    2    0    0  0.13322676296E-14 -0.88817841970E-15  0.00000000000E+00  0.91188000000E+02  0.91188000000E+02 0.  0.
    9900012    2    3    3    0    0 -0.38363295573E+01  0.22142761904E+01 -0.36553525041E+02  0.54367073390E+02  0.39999975407E+02 0.  0.
         12    1    3    3    0    0  0.38363295573E+01 -0.22142761904E+01  0.36553525041E+02  0.36820926610E+02  0.00000000000E+00 0. -1.
         11    1    4    4    0    0 -0.17248360931E+02  0.10016479569E+02 -0.19769017161E+02  0.28082910418E+02  0.51100000000E-03 0. -1.
        -11    1    4    4    0    0  0.35262676592E+01 -0.95010009671E+01 -0.94649905872E+01  0.13866853647E+02  0.51100000000E-03 0.  1.
        -12    1    4    4    0    0  0.98857637150E+01  0.16987975887E+01 -0.73195172925E+01  0.12417309325E+02  0.00000000000E+00 0.  1.
</event>
<event>
 8    1  0.1280925E-006  0.9118800E+02  0.7816164E-02  0.1184000E+00
        -11   -1    0    0    0    0  0.00000000000E+00  0.00000000000E+00  0.45593999997E+02  0.45594000000E+02  0.51100000000E-03 0.  1.
         11   -1    0    0    0    0 -0.00000000000E+00 -0.00000000000E+00 -0.45593999997E+02  0.45594000000E+02  0.51100000000E-03 0. -1.
         23    2    1    2    0    0  0.00000000000E+00 -0.88817841970E-15  0.00000000000E+00  0.91188000000E+02  0.91188000000E+02 0.  0.
    9900012    2    3    3    0    0  0.31122754093E+02  0.20985946169E+01  0.19564048593E+02  0.54367055972E+02  0.39999935700E+02 0.  0.
         12    1    3    3    0    0 -0.31122754093E+02 -0.20985946169E+01 -0.19564048593E+02  0.36820944028E+02  0.00000000000E+00 0. -1.
         11    1    4    4    0    0  0.67757174698E+01 -0.15246076336E+02  0.59453099409E+01  0.17711575351E+02  0.51100000000E-03 0. -1.
        -11    1    4    4    0    0  0.23749656737E+02  0.88076068530E+01  0.86882061606E+01  0.26778817378E+02  0.51100000000E-03 0.  1.
         12    1    4    4    0    0  0.59737988610E+00  0.85370640994E+01  0.49305324919E+01  0.98766632432E+01  0.00000000000E+00 0. -1.
</event>
<event>
 8    1  0.1280925E-006  0.9118800E+02  0.7816164E-02  0.1184000E+00
        -11   -1    0    0    0    0  0.00000000000E+00  0.00000000000E+00  0.45593999997E+02  0.45594000000E+02  0.51100000000E-03 0.  1.
         11   -1    0    0    0    0 -0.00000000000E+00 -0.00000000000E+00 -0.45593999997E+02  0.45594000000E+02  0.51100000000E-03 0. -1.
         23    2    1    2    0    0  0.17763568394E-14  0.35527136788E-14 -0.35527136788E-14  0.91188000000E+02  0.91188000000E+02 0.  0.
    9900012    2    3    3    0    0  0.13478257988E+02  0.30700920862E+02 -0.15217429927E+02  0.54367079944E+02  0.39999990349E+02 0.  0.
        -12    1    3    3    0    0 -0.13478257988E+02 -0.30700920862E+02  0.15217429927E+02  0.36820920056E+02  0.00000000000E+00 0.  1.
         11    1    4    4    0    0 -0.61383746423E+01  0.16278185042E+02 -0.32050195874E+01  0.17689858743E+02  0.51100000000E-03 0. -1.
        -11    1    4    4    0    0 -0.38427943478E+01  0.38860262461E+01 -0.93403042449E+01  0.10821716686E+02  0.51100000000E-03 0.  1.
         12    1    4    4    0    0  0.23459426978E+02  0.10536709574E+02 -0.26721060951E+01  0.25855504515E+02  0.00000000000E+00 0. -1.
</event>
<event>
 8    1  0.1280925E-006  0.9118800E+02  0.7816164E-02  0.1184000E+00
        -11   -1    0    0    0    0  0.00000000000E+00  0.00000000000E+00  0.45593999997E+02  0.45594000000E+02  0.51100000000E-03 0. -1.
         11   -1    0    0    0    0 -0.00000000000E+00 -0.00000000000E+00 -0.45593999997E+02  0.45594000000E+02  0.51100000000E-03 0.  1.
         23    2    1    2    0    0 -0.55511151231E-16 -0.17763568394E-14  0.71054273576E-14  0.91188000000E+02  0.91188000000E+02 0.  0.
    9900012    2    3    3    0    0 -0.49601725625E+00 -0.13924804025E+02  0.34082732356E+02  0.54367097715E+02  0.40000030860E+02 0.  0.
        -12    1    3    3    0    0  0.49601725625E+00  0.13924804025E+02 -0.34082732356E+02  0.36820902285E+02  0.00000000000E+00 0.  1.
         11    1    4    4    0    0  0.13816550058E+02 -0.98305152988E+01  0.15534029307E+01  0.17027893219E+02  0.51100000000E-03 0. -1.
        -11    1    4    4    0    0 -0.57526774884E+01  0.35491490733E+01  0.10251648276E+02  0.12279497142E+02  0.51100000000E-03 0.  1.
         12    1    4    4    0    0 -0.85598898262E+01 -0.76434377992E+01  0.22277681149E+02  0.25059707353E+02  0.00000000000E+00 0. -1.
</event>
<event>
 8    1  0.1280925E-006  0.9118800E+02  0.7816164E-02  0.1184000E+00
        -11   -1    0    0    0    0  0.00000000000E+00  0.00000000000E+00  0.45593999997E+02  0.45594000000E+02  0.51100000000E-03 0.  1.
         11   -1    0    0    0    0 -0.00000000000E+00 -0.00000000000E+00 -0.45593999997E+02  0.45594000000E+02  0.51100000000E-03 0. -1.
         23    2    1    2    0    0  0.17763568394E-14  0.71054273576E-14 -0.88817841970E-15  0.91188000000E+02  0.91188000000E+02 0.  0.
    9900012    2    3    3    0    0 -0.11446299329E+02 -0.34857436978E+02  0.31178703985E+01  0.54367084791E+02  0.40000001397E+02 0.  0.
         12    1    3    3    0    0  0.11446299329E+02  0.34857436978E+02 -0.31178703985E+01  0.36820915209E+02  0.00000000000E+00 0. -1.
         11    1    4    4    0    0  0.34973357819E+00 -0.97712441592E+01 -0.44923535434E+01  0.10760147146E+02  0.51100000000E-03 0. -1.
        -11    1    4    4    0    0 -0.72086201617E+01 -0.32611705732E+02  0.26753057628E+01  0.33505892266E+02  0.51100000000E-03 0.  1.
         12    1    4    4    0    0 -0.45874127456E+01  0.75255129124E+01  0.49349181791E+01  0.10101045378E+02  0.00000000000E+00 0. -1.
</event>
<event>
 8    1  0.1280925E-006  0.9118800E+02  0.7816164E-02  0.1184000E+00
        -11   -1    0    0    0    0  0.00000000000E+00  0.00000000000E+00  0.45593999997E+02  0.45594000000E+02  0.51100000000E-03 0.  1.
         11   -1    0    0    0    0 -0.00000000000E+00 -0.00000000000E+00 -0.45593999997E+02  0.45594000000E+02  0.51100000000E-03 0. -1.
         23    2    1    2    0    0 -0.17763568394E-14 -0.35527136788E-14  0.00000000000E+00  0.91188000000E+02  0.91188000000E+02 0.  0.
    9900012    2    3    3    0    0 -0.39695204580E+01 -0.15840481978E+02  0.33001548156E+02  0.54367080095E+02  0.39999990692E+02 0.  0.
         12    1    3    3    0    0  0.39695204580E+01  0.15840481978E+02 -0.33001548156E+02  0.36820919905E+02  0.00000000000E+00 0. -1.
         11    1    4    4    0    0 -0.17754248576E+02 -0.40705532233E+01  0.22082310097E+02  0.28625358784E+02  0.51100000000E-03 0. -1.
        -11    1    4    4    0    0 -0.72015314872E+00  0.43682137205E+00  0.61310532705E+01  0.61886386173E+01  0.51100000000E-03 0.  1.
         12    1    4    4    0    0  0.14504881267E+02 -0.12206750127E+02  0.47881847894E+01  0.19553082693E+02  0.00000000000E+00 0. -1.
</event>
<event>
 8    1  0.1280925E-006  0.9118800E+02  0.7816164E-02  0.1184000E+00
        -11   -1    0    0    0    0  0.00000000000E+00  0.00000000000E+00  0.45593999997E+02  0.45594000000E+02  0.51100000000E-03 0.  1.
         11   -1    0    0    0    0 -0.00000000000E+00 -0.00000000000E+00 -0.45593999997E+02  0.45594000000E+02  0.51100000000E-03 0. -1.
         23    2    1    2    0    0  0.71054273576E-14  0.00000000000E+00 -0.17763568394E-14  0.91188000000E+02  0.91188000000E+02 0.  0.
    9900012    2    3    3    0    0 -0.32692041730E+02  0.12635267583E+02  0.11285450259E+02  0.54367068902E+02  0.39999965176E+02 0.  0.
         12    1    3    3    0    0  0.32692041730E+02 -0.12635267583E+02 -0.11285450259E+02  0.36820931098E+02  0.00000000000E+00 0. -1.
         11    1    4    4    0    0 -0.70435250699E+01  0.26314890643E+01  0.14815157814E+02  0.16613996552E+02  0.51100000000E-03 0. -1.
        -11    1    4    4    0    0 -0.93234787562E+01 -0.30850360480E+01  0.90364118129E+01  0.13345465232E+02  0.51100000000E-03 0.  1.
         12    1    4    4    0    0 -0.16325037904E+02  0.13088814566E+02 -0.12566119367E+02  0.24407607119E+02  0.00000000000E+00 0. -1.
</event>
<event>
 8    1  0.1280925E-006  0.9118800E+02  0.7816164E-02  0.1184000E+00
        -11   -1    0    0    0    0  0.00000000000E+00  0.00000000000E+00  0.45593999997E+02  0.45594000000E+02  0.51100000000E-03 0.  1.
         11   -1    0    0    0    0 -0.00000000000E+00 -0.00000000000E+00 -0.45593999997E+02  0.45594000000E+02  0.51100000000E-03 0. -1.
         23    2    1    2    0    0  0.00000000000E+00  0.22204460493E-15  0.71054273576E-14  0.91188000000E+02  0.91188000000E+02 0.  0.
    9900012    2    3    3    0    0  0.16609098163E+02  0.56564887173E+00  0.32857254075E+02  0.54367065116E+02  0.39999956545E+02 0.  0.
         12    1    3    3    0    0 -0.16609098163E+02 -0.56564887173E+00 -0.32857254075E+02  0.36820934884E+02  0.00000000000E+00 0. -1.
         11    1    4    4    0    0  0.14153068832E+02  0.83597043745E+01  0.14780696085E+02  0.22105723051E+02  0.51100000000E-03 0.  1.
        -11    1    4    4    0    0  0.96510091126E+01 -0.97035424862E+01  0.11065811144E+01  0.13730449217E+02  0.51100000000E-03 0. -1.
         12    1    4    4    0    0 -0.71949797819E+01  0.19094869834E+01  0.16969976875E+02  0.18530892848E+02  0.00000000000E+00 0. -1.
</event>
<event>
 8    1  0.1280925E-006  0.9118800E+02  0.7816164E-02  0.1184000E+00
        -11   -1    0    0    0    0  0.00000000000E+00  0.00000000000E+00  0.45593999997E+02  0.45594000000E+02  0.51100000000E-03 0.  1.
         11   -1    0    0    0    0 -0.00000000000E+00 -0.00000000000E+00 -0.45593999997E+02  0.45594000000E+02  0.51100000000E-03 0. -1.
         23    2    1    2    0    0  0.35527136788E-14  0.00000000000E+00  0.35527136788E-14  0.91188000000E+02  0.91188000000E+02 0.  0.
    9900012    2    3    3    0    0 -0.16551451392E+02 -0.19637048435E+02  0.26385914515E+02  0.54367072537E+02  0.39999973463E+02 0.  0.
         12    1    3    3    0    0  0.16551451392E+02  0.19637048435E+02 -0.26385914515E+02  0.36820927463E+02  0.00000000000E+00 0. -1.
         11    1    4    4    0    0 -0.12706699073E+02 -0.23037667349E+02  0.17609550266E+02  0.31658973120E+02  0.51100000000E-03 0.  1.
        -11    1    4    4    0    0  0.77248458052E+01 -0.57864886767E+00  0.68140384948E+01  0.10316937438E+02  0.51100000000E-03 0. -1.
         12    1    4    4    0    0 -0.11569598124E+02  0.39792677815E+01  0.19623257547E+01  0.12391161979E+02  0.00000000000E+00 0. -1.
</event>
<event>
 8    1  0.1280925E-006  0.9118800E+02  0.7816164E-02  0.1184000E+00
        -11   -1    0    0    0    0  0.00000000000E+00  0.00000000000E+00  0.45593999997E+02  0.45594000000E+02  0.51100000000E-03 0.  1.
         11   -1    0    0    0    0 -0.00000000000E+00 -0.00000000000E+00 -0.45593999997E+02  0.45594000000E+02  0.51100000000E-03 0. -1.
         23    2    1    2    0    0  0.00000000000E+00  0.00000000000E+00  0.00000000000E+00  0.91188000000E+02  0.91188000000E+02 0.  0.
    9900012    2    3    3    0    0 -0.21304029129E+02  0.58408550015E+01 -0.29458479130E+02  0.54367092394E+02  0.40000018730E+02 0.  0.
        -12    1    3    3    0    0  0.21304029129E+02 -0.58408550015E+01  0.29458479130E+02  0.36820907606E+02  0.00000000000E+00 0.  1.
         11    1    4    4    0    0 -0.46616628461E+01 -0.10071156990E+01 -0.15499817536E+02  0.16216957989E+02  0.51100000000E-03 0. -1.
        -11    1    4    4    0    0 -0.65855163308E+01 -0.10910163245E+02  0.10950343008E+01  0.12790613267E+02  0.51100000000E-03 0.  1.
         12    1    4    4    0    0 -0.10056849952E+02  0.17758133945E+02 -0.15053695895E+02  0.25359521137E+02  0.00000000000E+00 0. -1.
</event>
<event>
 8    1  0.1280925E-006  0.9118800E+02  0.7816164E-02  0.1184000E+00
        -11   -1    0    0    0    0  0.00000000000E+00  0.00000000000E+00  0.45593999997E+02  0.45594000000E+02  0.51100000000E-03 0.  1.
         11   -1    0    0    0    0 -0.00000000000E+00 -0.00000000000E+00 -0.45593999997E+02  0.45594000000E+02  0.51100000000E-03 0. -1.
         23    2    1    2    0    0  0.00000000000E+00 -0.35527136788E-14  0.00000000000E+00  0.91188000000E+02  0.91188000000E+02 0.  0.
    9900012    2    3    3    0    0  0.17226626615E+02  0.23398469461E+02  0.22617129777E+02  0.54367087505E+02  0.40000007584E+02 0.  0.
        -12    1    3    3    0    0 -0.17226626615E+02 -0.23398469461E+02 -0.22617129777E+02  0.36820912495E+02  0.00000000000E+00 0.  1.
         11    1    4    4    0    0  0.16600845599E+02  0.73006711230E+00  0.76934581205E+01  0.18311481937E+02  0.51100000000E-03 0. -1.
        -11    1    4    4    0    0  0.63025963714E+01 -0.18794243790E+01  0.70888318977E+01  0.96698756430E+01  0.51100000000E-03 0.  1.
        -12    1    4    4    0    0 -0.56768153556E+01  0.24547826727E+02  0.78348397588E+01  0.26385729925E+02  0.00000000000E+00 0.  1.
</event>
<event>
 8    1  0.1280925E-006  0.9118800E+02  0.7816164E-02  0.1184000E+00
        -11   -1    0    0    0    0  0.00000000000E+00  0.00000000000E+00  0.45593999997E+02  0.45594000000E+02  0.51100000000E-03 0.  1.
         11   -1    0    0    0    0 -0.00000000000E+00 -0.00000000000E+00 -0.45593999997E+02  0.45594000000E+02  0.51100000000E-03 0. -1.
         23    2    1    2    0    0  0.17763568394E-14  0.00000000000E+00 -0.35527136788E-14  0.91188000000E+02  0.91188000000E+02 0.  0.
    9900012    2    3    3    0    0 -0.11823959958E+02  0.26712708707E+02 -0.22414386010E+02  0.54367088336E+02  0.40000009481E+02 0.  0.
        -12    1    3    3    0    0  0.11823959958E+02 -0.26712708707E+02  0.22414386010E+02  0.36820911664E+02  0.00000000000E+00 0.  1.
         11    1    4    4    0    0 -0.80114494357E+01 -0.31353273207E+01 -0.56535935276E+01  0.10294499478E+02  0.51100000000E-03 0. -1.
        -11    1    4    4    0    0  0.11007184108E-02  0.11873495446E+02  0.71935011589E+01  0.13882591779E+02  0.51100000000E-03 0.  1.
         12    1    4    4    0    0 -0.38136112407E+01  0.17974540581E+02 -0.23954293641E+02  0.30189997079E+02  0.00000000000E+00 0. -1.
</event>
<event>
 8    1  0.1280925E-006  0.9118800E+02  0.7816164E-02  0.1184000E+00
        -11   -1    0    0    0    0  0.00000000000E+00  0.00000000000E+00  0.45593999997E+02  0.45594000000E+02  0.51100000000E-03 0. -1.
         11   -1    0    0    0    0 -0.00000000000E+00 -0.00000000000E+00 -0.45593999997E+02  0.45594000000E+02  0.51100000000E-03 0.  1.
         23    2    1    2    0    0  0.00000000000E+00  0.00000000000E+00  0.00000000000E+00  0.91188000000E+02  0.91188000000E+02 0.  0.
    9900012    2    3    3    0    0  0.24900474083E+02  0.26566197106E+02 -0.54757230660E+01  0.54367082286E+02  0.39999995687E+02 0.  0.
         12    1    3    3    0    0 -0.24900474083E+02 -0.26566197106E+02  0.54757230660E+01  0.36820917714E+02  0.00000000000E+00 0. -1.
         11    1    4    4    0    0 -0.70910104779E+01  0.86751985410E+01 -0.39556301478E+01  0.11882277116E+02  0.51100000000E-03 0. -1.
        -11    1    4    4    0    0  0.56017675362E+01  0.83037161445E+01 -0.89592471566E+01  0.13438735477E+02  0.51100000000E-03 0.  1.
         12    1    4    4    0    0  0.26389717025E+02  0.95872824206E+01  0.74391542384E+01  0.29046069693E+02  0.00000000000E+00 0. -1.
</event>
<event>
 8    1  0.1280925E-006  0.9118800E+02  0.7816164E-02  0.1184000E+00
        -11   -1    0    0    0    0  0.00000000000E+00  0.00000000000E+00  0.45593999997E+02  0.45594000000E+02  0.51100000000E-03 0.  1.
         11   -1    0    0    0    0 -0.00000000000E+00 -0.00000000000E+00 -0.45593999997E+02  0.45594000000E+02  0.51100000000E-03 0. -1.
         23    2    1    2    0    0 -0.35527136788E-14 -0.88817841970E-15  0.35527136788E-14  0.91188000000E+02  0.91188000000E+02 0.  0.
    9900012    2    3    3    0    0  0.20400246968E+02 -0.10252457829E+01 -0.30635887474E+02  0.54367098237E+02  0.40000032051E+02 0.  0.
        -12    1    3    3    0    0 -0.20400246968E+02  0.10252457829E+01  0.30635887474E+02  0.36820901763E+02  0.00000000000E+00 0.  1.
         11    1    4    4    0    0  0.64740121865E+01 -0.48964522492E+01 -0.21112182595E+01  0.83872117668E+01  0.51100000000E-03 0.  1.
        -11    1    4    4    0    0 -0.25613878009E+00  0.89496536778E+01 -0.29554122182E+02  0.30880544785E+02  0.51100000000E-03 0. -1.
         12    1    4    4    0    0  0.14182373562E+02 -0.50784472114E+01  0.10294529666E+01  0.15099341686E+02  0.00000000000E+00 0. -1.
</event>
<event>
 8    1  0.1280925E-006  0.9118800E+02  0.7816164E-02  0.1184000E+00
        -11   -1    0    0    0    0  0.00000000000E+00  0.00000000000E+00  0.45593999997E+02  0.45594000000E+02  0.51100000000E-03 0.  1.
         11   -1    0    0    0    0 -0.00000000000E+00 -0.00000000000E+00 -0.45593999997E+02  0.45594000000E+02  0.51100000000E-03 0. -1.
         23    2    1    2    0    0  0.35527136788E-14  0.00000000000E+00  0.00000000000E+00  0.91188000000E+02  0.91188000000E+02 0.  0.
    9900012    2    3    3    0    0  0.27072291754E+02  0.20900281522E+02 -0.13639956789E+02  0.54367093307E+02  0.40000020812E+02 0.  0.
        -12    1    3    3    0    0 -0.27072291754E+02 -0.20900281522E+02  0.13639956789E+02  0.36820906693E+02  0.00000000000E+00 0.  1.
         11    1    4    4    0    0  0.13639636250E+02  0.10748593127E+02 -0.95083264410E+01  0.19798489923E+02  0.51100000000E-03 0. -1.
        -11    1    4    4    0    0  0.10073318314E+02  0.18292906296E+02  0.54214337784E+01  0.21575312444E+02  0.51100000000E-03 0.  1.
        -12    1    4    4    0    0  0.33593371893E+01 -0.81412179006E+01 -0.95530641259E+01  0.12993290940E+02  0.00000000000E+00 0.  1.
</event>
<event>
 8    1  0.1280925E-006  0.9118800E+02  0.7816164E-02  0.1184000E+00
        -11   -1    0    0    0    0  0.00000000000E+00  0.00000000000E+00  0.45593999997E+02  0.45594000000E+02  0.51100000000E-03 0.  1.
         11   -1    0    0    0    0 -0.00000000000E+00 -0.00000000000E+00 -0.45593999997E+02  0.45594000000E+02  0.51100000000E-03 0. -1.
         23    2    1    2    0    0  0.22204460493E-15 -0.17763568394E-14 -0.71054273576E-14  0.91188000000E+02  0.91188000000E+02 0.  0.
    9900012    2    3    3    0    0 -0.13209782297E+01  0.95441673500E+01  0.35537918790E+02  0.54367084941E+02  0.40000001740E+02 0.  0.
         12    1    3    3    0    0  0.13209782297E+01 -0.95441673500E+01 -0.35537918790E+02  0.36820915059E+02  0.00000000000E+00 0. -1.
         11    1    4    4    0    0 -0.38531680253E+00 -0.20221288566E+01 -0.57549142030E+01  0.61119973737E+01  0.51100000000E-03 0. -1.
        -11    1    4    4    0    0 -0.74730506258E+01  0.12433410176E+02  0.13940462879E+02  0.20118963189E+02  0.51100000000E-03 0.  1.
         12    1    4    4    0    0  0.65373891987E+01 -0.86711396962E+00  0.27352370114E+02  0.28136124378E+02  0.00000000000E+00 0. -1.
</event>
<event>
 8    1  0.1280925E-006  0.9118800E+02  0.7816164E-02  0.1184000E+00
        -11   -1    0    0    0    0  0.00000000000E+00  0.00000000000E+00  0.45593999997E+02  0.45594000000E+02  0.51100000000E-03 0.  1.
         11   -1    0    0    0    0 -0.00000000000E+00 -0.00000000000E+00 -0.45593999997E+02  0.45594000000E+02  0.51100000000E-03 0. -1.
         23    2    1    2    0    0 -0.35527136788E-14  0.35527136788E-14 -0.35527136788E-14  0.91188000000E+02  0.91188000000E+02 0.  0.
    9900012    2    3    3    0    0  0.19709509064E+02 -0.16613063917E+02 -0.26292953096E+02  0.54367108881E+02  0.40000056317E+02 0.  0.
         12    1    3    3    0    0 -0.19709509064E+02  0.16613063917E+02  0.26292953096E+02  0.36820891119E+02  0.00000000000E+00 0. -1.
         11    1    4    4    0    0  0.30547101122E+01 -0.14777106422E+02 -0.20602790286E+02  0.25537601609E+02  0.51100000000E-03 0. -1.
        -11    1    4    4    0    0  0.81542186143E+01  0.10430338778E+02 -0.14724281808E+01  0.13321084537E+02  0.51100000000E-03 0.  1.
        -12    1    4    4    0    0  0.85005803375E+01 -0.12266296273E+02 -0.42177346295E+01  0.15508422735E+02  0.00000000000E+00 0.  1.
</event>
<event>
 8    1  0.1280925E-006  0.9118800E+02  0.7816164E-02  0.1184000E+00
        -11   -1    0    0    0    0  0.00000000000E+00  0.00000000000E+00  0.45593999997E+02  0.45594000000E+02  0.51100000000E-03 0.  1.
         11   -1    0    0    0    0 -0.00000000000E+00 -0.00000000000E+00 -0.45593999997E+02  0.45594000000E+02  0.51100000000E-03 0. -1.
         23    2    1    2    0    0  0.13322676296E-14  0.00000000000E+00 -0.35527136788E-14  0.91188000000E+02  0.91188000000E+02 0.  0.
    9900012    2    3    3    0    0 -0.26498798595E+01 -0.34293497672E+02  0.13141776883E+02  0.54367188691E+02  0.40000238258E+02 0.  0.
         12    1    3    3    0    0  0.26498798595E+01  0.34293497672E+02 -0.13141776883E+02  0.36820811309E+02  0.00000000000E+00 0. -1.
         11    1    4    4    0    0 -0.38881451741E+00 -0.11932927364E+02  0.91124383351E+00  0.11973984207E+02  0.51100000000E-03 0. -1.
        -11    1    4    4    0    0 -0.11996647298E+02  0.12675851963E+01 -0.32772745719E+01  0.12500673882E+02  0.51100000000E-03 0.  1.
        -12    1    4    4    0    0  0.97355819562E+01 -0.23628155504E+02  0.15507807621E+02  0.29892530601E+02  0.00000000000E+00 0.  1.
</event>
<event>
 8    1  0.1280925E-006  0.9118800E+02  0.7816164E-02  0.1184000E+00
        -11   -1    0    0    0    0  0.00000000000E+00  0.00000000000E+00  0.45593999997E+02  0.45594000000E+02  0.51100000000E-03 0.  1.
         11   -1    0    0    0    0 -0.00000000000E+00 -0.00000000000E+00 -0.45593999997E+02  0.45594000000E+02  0.51100000000E-03 0. -1.
         23    2    1    2    0    0  0.00000000000E+00 -0.35527136788E-14 -0.71054273576E-14  0.91188000000E+02  0.91188000000E+02 0.  0.
    9900012    2    3    3    0    0  0.90609200248E+01 -0.30757497737E+02 -0.18101263041E+02  0.54367086616E+02  0.40000005558E+02 0.  0.
        -12    1    3    3    0    0 -0.90609200248E+01  0.30757497737E+02  0.18101263041E+02  0.36820913384E+02  0.00000000000E+00 0.  1.
         11    1    4    4    0    0  0.31384401532E-01 -0.16805686564E+02  0.57771333230E+00  0.16815642683E+02  0.51100000000E-03 0.  1.
        -11    1    4    4    0    0  0.39059603490E+01  0.10073400577E+01 -0.21164118655E+02  0.21545096402E+02  0.51100000000E-03 0. -1.
         12    1    4    4    0    0  0.51235752743E+01 -0.14959151231E+02  0.24851422817E+01  0.16006347532E+02  0.00000000000E+00 0. -1.
</event>
<event>
 8    1  0.1280925E-006  0.9118800E+02  0.7816164E-02  0.1184000E+00
        -11   -1    0    0    0    0  0.00000000000E+00  0.00000000000E+00  0.45593999997E+02  0.45594000000E+02  0.51100000000E-03 0.  1.
         11   -1    0    0    0    0 -0.00000000000E+00 -0.00000000000E+00 -0.45593999997E+02  0.45594000000E+02  0.51100000000E-03 0. -1.
         23    2    1    2    0    0  0.88817841970E-15  0.00000000000E+00  0.71054273576E-14  0.91188000000E+02  0.91188000000E+02 0.  0.
    9900012    2    3    3    0    0 -0.19958738900E+01  0.23266872867E+01  0.36693077495E+02  0.54367096666E+02  0.40000028469E+02 0.  0.
         12    1    3    3    0    0  0.19958738900E+01 -0.23266872867E+01 -0.36693077495E+02  0.36820903334E+02  0.00000000000E+00 0. -1.
         11    1    4    4    0    0  0.67826775106E+01 -0.51961310168E+01  0.91114450059E+01  0.12490913582E+02  0.51100000000E-03 0. -1.
        -11    1    4    4    0    0 -0.14355979086E+02 -0.67745848261E+01  0.11191228228E+02  0.19422479878E+02  0.51100000000E-03 0.  1.
        -12    1    4    4    0    0  0.55774276853E+01  0.14297403130E+02  0.16390404261E+02  0.22453703206E+02  0.00000000000E+00 0.  1.
</event>
<event>
 8    1  0.1280925E-006  0.9118800E+02  0.7816164E-02  0.1184000E+00
        -11   -1    0    0    0    0  0.00000000000E+00  0.00000000000E+00  0.45593999997E+02  0.45594000000E+02  0.51100000000E-03 0.  1.
         11   -1    0    0    0    0 -0.00000000000E+00 -0.00000000000E+00 -0.45593999997E+02  0.45594000000E+02  0.51100000000E-03 0. -1.
         23    2    1    2    0    0  0.35527136788E-14  0.35527136788E-14  0.00000000000E+00  0.91188000000E+02  0.91188000000E+02 0.  0.
    9900012    2    3    3    0    0  0.25618350508E+02  0.26407555342E+02  0.14551122751E+01  0.54367133449E+02  0.40000112323E+02 0.  0.
        -12    1    3    3    0    0 -0.25618350508E+02 -0.26407555342E+02 -0.14551122751E+01  0.36820866551E+02  0.00000000000E+00 0.  1.
         11    1    4    4    0    0  0.12351126967E+02 -0.13695559956E+01 -0.33534948270E+01  0.12871361575E+02  0.51100000000E-03 0. -1.
        -11    1    4    4    0    0 -0.37140193081E+01 -0.26706853415E+01  0.48027851318E+01  0.66327403762E+01  0.51100000000E-03 0.  1.
         12    1    4    4    0    0  0.16981242848E+02  0.30447796679E+02  0.58219702889E-02  0.34863031497E+02  0.00000000000E+00 0. -1.
</event>
<event>
 8    1  0.1280925E-006  0.9118800E+02  0.7816164E-02  0.1184000E+00
        -11   -1    0    0    0    0  0.00000000000E+00  0.00000000000E+00  0.45593999997E+02  0.45594000000E+02  0.51100000000E-03 0.  1.
         11   -1    0    0    0    0 -0.00000000000E+00 -0.00000000000E+00 -0.45593999997E+02  0.45594000000E+02  0.51100000000E-03 0. -1.
         23    2    1    2    0    0 -0.44408920985E-15 -0.26645352591E-14 -0.71054273576E-14  0.91188000000E+02  0.91188000000E+02 0.  0.
    9900012    2    3    3    0    0  0.25617269490E+01  0.45757144432E+01  0.36445583022E+02  0.54367080274E+02  0.39999991101E+02 0.  0.
         12    1    3    3    0    0 -0.25617269490E+01 -0.45757144432E+01 -0.36445583022E+02  0.36820919726E+02  0.00000000000E+00 0. -1.
         11    1    4    4    0    0  0.32527692299E+01  0.12648342425E+02 -0.14572818870E+01  0.13140956759E+02  0.51100000000E-03 0. -1.
        -11    1    4    4    0    0 -0.45952843133E+01  0.15113569715E+01  0.19718868252E+02  0.20303561343E+02  0.51100000000E-03 0.  1.
         12    1    4    4    0    0  0.39042420324E+01 -0.95839849537E+01  0.18183996658E+02  0.20922562173E+02  0.00000000000E+00 0. -1.
</event>
<event>
 8    1  0.1280925E-006  0.9118800E+02  0.7816164E-02  0.1184000E+00
        -11   -1    0    0    0    0  0.00000000000E+00  0.00000000000E+00  0.45593999997E+02  0.45594000000E+02  0.51100000000E-03 0. -1.
         11   -1    0    0    0    0 -0.00000000000E+00 -0.00000000000E+00 -0.45593999997E+02  0.45594000000E+02  0.51100000000E-03 0.  1.
         23    2    1    2    0    0 -0.35527136788E-14 -0.17763568394E-14 -0.35527136788E-14  0.91188000000E+02  0.91188000000E+02 0.  0.
    9900012    2    3    3    0    0 -0.13417957660E+02 -0.14472321652E+02 -0.31085234044E+02  0.54367062242E+02  0.39999949994E+02 0.  0.
        -12    1    3    3    0    0  0.13417957660E+02  0.14472321652E+02  0.31085234044E+02  0.36820937758E+02  0.00000000000E+00 0.  1.
         11    1    4    4    0    0 -0.15319421103E+01 -0.10353478343E+02 -0.12317762749E+01  0.10538436007E+02  0.51100000000E-03 0. -1.
        -11    1    4    4    0    0  0.26776914202E+01 -0.10532334851E+02 -0.24890267693E+02  0.27159262414E+02  0.51100000000E-03 0.  1.
        -12    1    4    4    0    0 -0.14563706970E+02  0.64134915417E+01 -0.49631900760E+01  0.16669363821E+02  0.00000000000E+00 0.  1.
</event>
<event>
 8    1  0.1280925E-006  0.9118800E+02  0.7816164E-02  0.1184000E+00
        -11   -1    0    0    0    0  0.00000000000E+00  0.00000000000E+00  0.45593999997E+02  0.45594000000E+02  0.51100000000E-03 0. -1.
         11   -1    0    0    0    0 -0.00000000000E+00 -0.00000000000E+00 -0.45593999997E+02  0.45594000000E+02  0.51100000000E-03 0.  1.
         23    2    1    2    0    0  0.00000000000E+00  0.17763568394E-14  0.00000000000E+00  0.91188000000E+02  0.91188000000E+02 0.  0.
    9900012    2    3    3    0    0 -0.22195338688E+02 -0.12565427080E+02 -0.26556652609E+02  0.54367098124E+02  0.40000031793E+02 0.  0.
        -12    1    3    3    0    0  0.22195338688E+02  0.12565427080E+02  0.26556652609E+02  0.36820901876E+02  0.00000000000E+00 0.  1.
         11    1    4    4    0    0  0.54348682421E+00 -0.20412922143E+01  0.72741952704E+00  0.22341421758E+01  0.51100000000E-03 0. -1.
        -11    1    4    4    0    0 -0.21739828617E+02 -0.18938142033E+02 -0.63130435473E+01  0.29514875759E+02  0.51100000000E-03 0.  1.
        -12    1    4    4    0    0 -0.99899689530E+00  0.84140071669E+01 -0.20971028588E+02  0.22618080190E+02  0.00000000000E+00 0.  1.
</event>
<event>
 8    1  0.1280925E-006  0.9118800E+02  0.7816164E-02  0.1184000E+00
        -11   -1    0    0    0    0  0.00000000000E+00  0.00000000000E+00  0.45593999997E+02  0.45594000000E+02  0.51100000000E-03 0.  1.
         11   -1    0    0    0    0 -0.00000000000E+00 -0.00000000000E+00 -0.45593999997E+02  0.45594000000E+02  0.51100000000E-03 0. -1.
         23    2    1    2    0    0 -0.11102230246E-15  0.17763568394E-14 -0.71054273576E-14  0.91188000000E+02  0.91188000000E+02 0.  0.
    9900012    2    3    3    0    0 -0.26494085253E+00  0.12095897522E+02  0.34776424225E+02  0.54367073716E+02  0.39999976151E+02 0.  0.
         12    1    3    3    0    0  0.26494085253E+00 -0.12095897522E+02 -0.34776424225E+02  0.36820926284E+02  0.00000000000E+00 0. -1.
         11    1    4    4    0    0  0.43489772268E+01  0.45273829114E+01  0.76355726643E+01  0.98849769408E+01  0.51100000000E-03 0.  1.
        -11    1    4    4    0    0 -0.59890269031E+01  0.17730064048E+02  0.28544529896E+02  0.34132298511E+02  0.51100000000E-03 0. -1.
        -12    1    4    4    0    0  0.13751088237E+01 -0.10161549438E+02 -0.14036783351E+01  0.10349798265E+02  0.00000000000E+00 0.  1.
</event>
<event>
 8    1  0.1280925E-006  0.9118800E+02  0.7816164E-02  0.1184000E+00
        -11   -1    0    0    0    0  0.00000000000E+00  0.00000000000E+00  0.45593999997E+02  0.45594000000E+02  0.51100000000E-03 0. -1.
         11   -1    0    0    0    0 -0.00000000000E+00 -0.00000000000E+00 -0.45593999997E+02  0.45594000000E+02  0.51100000000E-03 0.  1.
         23    2    1    2    0    0  0.00000000000E+00  0.00000000000E+00  0.35527136788E-14  0.91188000000E+02  0.91188000000E+02 0.  0.
    9900012    2    3    3    0    0 -0.22782385948E+02 -0.24745142065E+02  0.14980560170E+02  0.54367131620E+02  0.40000108153E+02 0.  0.
        -12    1    3    3    0    0  0.22782385948E+02  0.24745142065E+02 -0.14980560170E+02  0.36820868380E+02  0.00000000000E+00 0.  1.
         11    1    4    4    0    0 -0.74601527092E+01  0.30323495320E+01 -0.36229390629E+01  0.88303289771E+01  0.51100000000E-03 0. -1.
        -11    1    4    4    0    0 -0.10768463114E+02 -0.75190704587E+01 -0.50422079143E+01  0.14068407135E+02  0.51100000000E-03 0.  1.
         12    1    4    4    0    0 -0.45537701246E+01 -0.20258421138E+02  0.23645707147E+02  0.31468395508E+02  0.00000000000E+00 0. -1.
</event>
<event>
 8    1  0.1280925E-006  0.9118800E+02  0.7816164E-02  0.1184000E+00
        -11   -1    0    0    0    0  0.00000000000E+00  0.00000000000E+00  0.45593999997E+02  0.45594000000E+02  0.51100000000E-03 0. -1.
         11   -1    0    0    0    0 -0.00000000000E+00 -0.00000000000E+00 -0.45593999997E+02  0.45594000000E+02  0.51100000000E-03 0.  1.
         23    2    1    2    0    0  0.00000000000E+00 -0.88817841970E-15  0.00000000000E+00  0.91188000000E+02  0.91188000000E+02 0.  0.
    9900012    2    3    3    0    0  0.35288926018E+02  0.53531994362E+01  0.90451475176E+01  0.54367085599E+02  0.40000003240E+02 0.  0.
        -12    1    3    3    0    0 -0.35288926018E+02 -0.53531994362E+01 -0.90451475176E+01  0.36820914401E+02  0.00000000000E+00 0.  1.
         11    1    4    4    0    0  0.10198899970E+02  0.31832740884E+01  0.15656309776E+02  0.18954440920E+02  0.51100000000E-03 0. -1.
        -11    1    4    4    0    0  0.16323052774E+02  0.65928775935E+01  0.67304945928E+01  0.18846953190E+02  0.51100000000E-03 0.  1.
        -12    1    4    4    0    0  0.87669732743E+01 -0.44229522457E+01 -0.13341656852E+02  0.16565691489E+02  0.00000000000E+00 0.  1.
</event>
<event>
 8    1  0.1280925E-006  0.9118800E+02  0.7816164E-02  0.1184000E+00
        -11   -1    0    0    0    0  0.00000000000E+00  0.00000000000E+00  0.45593999997E+02  0.45594000000E+02  0.51100000000E-03 0.  1.
         11   -1    0    0    0    0 -0.00000000000E+00 -0.00000000000E+00 -0.45593999997E+02  0.45594000000E+02  0.51100000000E-03 0. -1.
         23    2    1    2    0    0  0.00000000000E+00  0.00000000000E+00  0.26645352591E-14  0.91188000000E+02  0.91188000000E+02 0.  0.
    9900012    2    3    3    0    0  0.55053870572E+01 -0.36158375273E+02  0.42476797026E+01  0.54367079698E+02  0.39999989789E+02 0.  0.
         12    1    3    3    0    0 -0.55053870572E+01  0.36158375273E+02 -0.42476797026E+01  0.36820920302E+02  0.00000000000E+00 0. -1.
         11    1    4    4    0    0 -0.11230342238E+01 -0.17141808612E+02 -0.10567665544E+02  0.20168747202E+02  0.51100000000E-03 0. -1.
        -11    1    4    4    0    0  0.19829446628E+01 -0.17748357507E+02 -0.78064587306E+00  0.17875840455E+02  0.51100000000E-03 0.  1.
        -12    1    4    4    0    0  0.46454766182E+01 -0.12682091531E+01  0.15595991119E+02  0.16322492042E+02  0.00000000000E+00 0.  1.
</event>
<event>
 8    1  0.1280925E-006  0.9118800E+02  0.7816164E-02  0.1184000E+00
        -11   -1    0    0    0    0  0.00000000000E+00  0.00000000000E+00  0.45593999997E+02  0.45594000000E+02  0.51100000000E-03 0. -1.
         11   -1    0    0    0    0 -0.00000000000E+00 -0.00000000000E+00 -0.45593999997E+02  0.45594000000E+02  0.51100000000E-03 0.  1.
         23    2    1    2    0    0 -0.88817841970E-15  0.17763568394E-14  0.00000000000E+00  0.91188000000E+02  0.91188000000E+02 0.  0.
    9900012    2    3    3    0    0  0.58232060454E+01 -0.90685628518E+01 -0.35208447760E+02  0.54367036480E+02  0.39999891264E+02 0.  0.
         12    1    3    3    0    0 -0.58232060454E+01  0.90685628518E+01  0.35208447760E+02  0.36820963520E+02  0.00000000000E+00 0. -1.
         11    1    4    4    0    0  0.11559276730E+02 -0.21170093155E+01  0.34170186772E+01  0.12238244313E+02  0.51100000000E-03 0. -1.
        -11    1    4    4    0    0  0.42976219289E+00  0.33230844216E+00  0.11247465002E+01  0.12490714127E+01  0.51100000000E-03 0.  1.
        -12    1    4    4    0    0 -0.61658328776E+01 -0.72838619784E+01 -0.39750212937E+02  0.40879720755E+02  0.00000000000E+00 0.  1.
</event>
<event>
 8    1  0.1280925E-006  0.9118800E+02  0.7816164E-02  0.1184000E+00
        -11   -1    0    0    0    0  0.00000000000E+00  0.00000000000E+00  0.45593999997E+02  0.45594000000E+02  0.51100000000E-03 0.  1.
         11   -1    0    0    0    0 -0.00000000000E+00 -0.00000000000E+00 -0.45593999997E+02  0.45594000000E+02  0.51100000000E-03 0. -1.
         23    2    1    2    0    0 -0.88817841970E-15  0.00000000000E+00  0.00000000000E+00  0.91188000000E+02  0.91188000000E+02 0.  0.
    9900012    2    3    3    0    0  0.55828496560E+01 -0.34611804459E+02 -0.11253201759E+02  0.54367085182E+02  0.40000002289E+02 0.  0.
        -12    1    3    3    0    0 -0.55828496560E+01  0.34611804459E+02  0.11253201759E+02  0.36820914818E+02  0.00000000000E+00 0.  1.
         11    1    4    4    0    0  0.32874473970E+01 -0.83139439758E+01 -0.16922741883E+02  0.19139178872E+02  0.51100000000E-03 0. -1.
        -11    1    4    4    0    0 -0.12081278484E+01  0.38360611919E+01  0.24771910174E+01  0.47234959473E+01  0.51100000000E-03 0.  1.
         12    1    4    4    0    0  0.35035301075E+01 -0.30133921675E+02  0.31923491059E+01  0.30504410362E+02  0.00000000000E+00 0. -1.
</event>
<event>
 8    1  0.1280925E-006  0.9118800E+02  0.7816164E-02  0.1184000E+00
        -11   -1    0    0    0    0  0.00000000000E+00  0.00000000000E+00  0.45593999997E+02  0.45594000000E+02  0.51100000000E-03 0.  1.
         11   -1    0    0    0    0 -0.00000000000E+00 -0.00000000000E+00 -0.45593999997E+02  0.45594000000E+02  0.51100000000E-03 0. -1.
         23    2    1    2    0    0  0.00000000000E+00 -0.88817841970E-15  0.00000000000E+00  0.91188000000E+02  0.91188000000E+02 0.  0.
    9900012    2    3    3    0    0  0.17749299760E+02  0.24816956923E+01 -0.32164931472E+02  0.54367091916E+02  0.40000017641E+02 0.  0.
        -12    1    3    3    0    0 -0.17749299760E+02 -0.24816956923E+01  0.32164931472E+02  0.36820908084E+02  0.00000000000E+00 0.  1.
         11    1    4    4    0    0  0.74658108572E+01  0.92423187650E+01 -0.25687541101E+02  0.28302094552E+02  0.51100000000E-03 0. -1.
        -11    1    4    4    0    0 -0.58941307518E+01  0.25925476532E+01 -0.27913830991E+01  0.70181123189E+01  0.51100000000E-03 0.  1.
         12    1    4    4    0    0  0.16177619655E+02 -0.93531707259E+01 -0.36860072719E+01  0.19046885046E+02  0.00000000000E+00 0. -1.
</event>
<event>
 8    1  0.1280925E-006  0.9118800E+02  0.7816164E-02  0.1184000E+00
        -11   -1    0    0    0    0  0.00000000000E+00  0.00000000000E+00  0.45593999997E+02  0.45594000000E+02  0.51100000000E-03 0.  1.
         11   -1    0    0    0    0 -0.00000000000E+00 -0.00000000000E+00 -0.45593999997E+02  0.45594000000E+02  0.51100000000E-03 0. -1.
         23    2    1    2    0    0  0.35527136788E-14 -0.17763568394E-14  0.35527136788E-14  0.91188000000E+02  0.91188000000E+02 0.  0.
    9900012    2    3    3    0    0  0.23879263923E+02  0.98970565700E+01  0.26222294067E+02  0.54367086372E+02  0.40000005002E+02 0.  0.
         12    1    3    3    0    0 -0.23879263923E+02 -0.98970565700E+01 -0.26222294067E+02  0.36820913628E+02  0.00000000000E+00 0. -1.
         11    1    4    4    0    0  0.84795424236E+01  0.23262592994E+02  0.17364782530E+02  0.30242131954E+02  0.51100000000E-03 0. -1.
        -11    1    4    4    0    0  0.12854207092E+02 -0.13191676241E+02  0.43189159061E+01  0.18918350797E+02  0.51100000000E-03 0.  1.
         12    1    4    4    0    0  0.25455144072E+01 -0.17386018317E+00  0.45385956311E+01  0.52066036207E+01  0.00000000000E+00 0. -1.
</event>
<event>
 8    1  0.1280925E-006  0.9118800E+02  0.7816164E-02  0.1184000E+00
        -11   -1    0    0    0    0  0.00000000000E+00  0.00000000000E+00  0.45593999997E+02  0.45594000000E+02  0.51100000000E-03 0. -1.
         11   -1    0    0    0    0 -0.00000000000E+00 -0.00000000000E+00 -0.45593999997E+02  0.45594000000E+02  0.51100000000E-03 0.  1.
         23    2    1    2    0    0  0.35527136788E-14 -0.35527136788E-14  0.35527136788E-14  0.91188000000E+02  0.91188000000E+02 0.  0.
    9900012    2    3    3    0    0 -0.17411947007E+02  0.17368703536E+02 -0.27403140134E+02  0.54367084065E+02  0.39999999743E+02 0.  0.
         12    1    3    3    0    0  0.17411947007E+02 -0.17368703536E+02  0.27403140134E+02  0.36820915935E+02  0.00000000000E+00 0. -1.
         11    1    4    4    0    0 -0.24000211860E+01  0.21476680809E+02 -0.18940738129E+01  0.21693211752E+02  0.51100000000E-03 0. -1.
        -11    1    4    4    0    0 -0.14011655784E+02  0.19471269391E+01 -0.19443254855E+02  0.24044915486E+02  0.51100000000E-03 0.  1.
        -12    1    4    4    0    0 -0.10002700372E+01 -0.60551042121E+01 -0.60658114668E+01  0.86289568267E+01  0.00000000000E+00 0.  1.
</event>
<event>
 8    1  0.1280925E-006  0.9118800E+02  0.7816164E-02  0.1184000E+00
        -11   -1    0    0    0    0  0.00000000000E+00  0.00000000000E+00  0.45593999997E+02  0.45594000000E+02  0.51100000000E-03 0. -1.
         11   -1    0    0    0    0 -0.00000000000E+00 -0.00000000000E+00 -0.45593999997E+02  0.45594000000E+02  0.51100000000E-03 0.  1.
         23    2    1    2    0    0  0.00000000000E+00  0.00000000000E+00  0.00000000000E+00  0.91188000000E+02  0.91188000000E+02 0.  0.
    9900012    2    3    3    0    0 -0.16942147501E+02 -0.27587965806E+02  0.17539925189E+02  0.54367065806E+02  0.39999958119E+02 0.  0.
        -12    1    3    3    0    0  0.16942147501E+02  0.27587965806E+02 -0.17539925189E+02  0.36820934194E+02  0.00000000000E+00 0.  1.
         11    1    4    4    0    0 -0.46060233685E+01 -0.22788467625E+02  0.13279705343E+02  0.26774620113E+02  0.51100000000E-03 0. -1.
        -11    1    4    4    0    0 -0.27529081157E+01 -0.48794704895E+01  0.13291490035E+02  0.14423988455E+02  0.51100000000E-03 0.  1.
         12    1    4    4    0    0 -0.95832160168E+01  0.79972308481E-01 -0.90312701888E+01  0.13168457238E+02  0.00000000000E+00 0. -1.
</event>
<event>
 8    1  0.1280925E-006  0.9118800E+02  0.7816164E-02  0.1184000E+00
        -11   -1    0    0    0    0  0.00000000000E+00  0.00000000000E+00  0.45593999997E+02  0.45594000000E+02  0.51100000000E-03 0. -1.
         11   -1    0    0    0    0 -0.00000000000E+00 -0.00000000000E+00 -0.45593999997E+02  0.45594000000E+02  0.51100000000E-03 0.  1.
         23    2    1    2    0    0  0.22204460493E-15 -0.35527136788E-14  0.71054273576E-14  0.91188000000E+02  0.91188000000E+02 0.  0.
    9900012    2    3    3    0    0 -0.12508812059E+01 -0.20924954659E+02  0.30271478949E+02  0.54367070231E+02  0.39999968206E+02 0.  0.
        -12    1    3    3    0    0  0.12508812059E+01  0.20924954659E+02 -0.30271478949E+02  0.36820929769E+02  0.00000000000E+00 0.  1.
         11    1    4    4    0    0  0.82901036968E+01 -0.55438385946E+01  0.29253434587E+02  0.30906688614E+02  0.51100000000E-03 0. -1.
        -11    1    4    4    0    0 -0.21854257941E+01  0.24388847169E+01  0.25074906342E+01  0.41245307740E+01  0.51100000000E-03 0.  1.
        -12    1    4    4    0    0 -0.73555591087E+01 -0.17820000781E+02 -0.14894462722E+01  0.19335850844E+02  0.00000000000E+00 0.  1.
</event>
<event>
 8    1  0.1280925E-006  0.9118800E+02  0.7816164E-02  0.1184000E+00
        -11   -1    0    0    0    0  0.00000000000E+00  0.00000000000E+00  0.45593999997E+02  0.45594000000E+02  0.51100000000E-03 0.  1.
         11   -1    0    0    0    0 -0.00000000000E+00 -0.00000000000E+00 -0.45593999997E+02  0.45594000000E+02  0.51100000000E-03 0. -1.
         23    2    1    2    0    0  0.00000000000E+00 -0.35527136788E-14 -0.17763568394E-14  0.91188000000E+02  0.91188000000E+02 0.  0.
    9900012    2    3    3    0    0 -0.22111822724E+02  0.25924469635E+02 -0.13955958240E+02  0.54367087458E+02  0.40000007478E+02 0.  0.
        -12    1    3    3    0    0  0.22111822724E+02 -0.25924469635E+02  0.13955958240E+02  0.36820912542E+02  0.00000000000E+00 0.  1.
         11    1    4    4    0    0 -0.23829770589E+02  0.72975157616E+01 -0.13502461152E+01  0.24958663174E+02  0.51100000000E-03 0. -1.
        -11    1    4    4    0    0  0.63709454788E+01  0.41001940978E+01  0.24631864533E+01  0.79666696743E+01  0.51100000000E-03 0.  1.
         12    1    4    4    0    0 -0.46529976137E+01  0.14526759776E+02 -0.15068898578E+02  0.21441754609E+02  0.00000000000E+00 0. -1.
</event>
<event>
 8    1  0.1280925E-006  0.9118800E+02  0.7816164E-02  0.1184000E+00
        -11   -1    0    0    0    0  0.00000000000E+00  0.00000000000E+00  0.45593999997E+02  0.45594000000E+02  0.51100000000E-03 0. -1.
         11   -1    0    0    0    0 -0.00000000000E+00 -0.00000000000E+00 -0.45593999997E+02  0.45594000000E+02  0.51100000000E-03 0.  1.
         23    2    1    2    0    0  0.00000000000E+00  0.00000000000E+00  0.22204460493E-14  0.91188000000E+02  0.91188000000E+02 0.  0.
    9900012    2    3    3    0    0 -0.33690801939E+02 -0.14468132445E+02  0.33760954248E+01  0.54366878180E+02  0.39999530385E+02 0.  0.
         12    1    3    3    0    0  0.33690801939E+02  0.14468132445E+02 -0.33760954248E+01  0.36821121820E+02  0.00000000000E+00 0. -1.
         11    1    4    4    0    0 -0.31100262803E+01 -0.25801809189E+01 -0.11238596381E+02  0.11943016617E+02  0.51100000000E-03 0. -1.
        -11    1    4    4    0    0 -0.11489187202E+02 -0.52440215998E+01 -0.56186622125E+01  0.13822827150E+02  0.51100000000E-03 0.  1.
         12    1    4    4    0    0 -0.19091588457E+02 -0.66439299259E+01  0.20233354018E+02  0.28601034413E+02  0.00000000000E+00 0. -1.
</event>
<event>
 8    1  0.1280925E-006  0.9118800E+02  0.7816164E-02  0.1184000E+00
        -11   -1    0    0    0    0  0.00000000000E+00  0.00000000000E+00  0.45593999997E+02  0.45594000000E+02  0.51100000000E-03 0. -1.
         11   -1    0    0    0    0 -0.00000000000E+00 -0.00000000000E+00 -0.45593999997E+02  0.45594000000E+02  0.51100000000E-03 0.  1.
         23    2    1    2    0    0  0.00000000000E+00 -0.88817841970E-15  0.00000000000E+00  0.91188000000E+02  0.91188000000E+02 0.  0.
    9900012    2    3    3    0    0  0.34634802133E+02 -0.84246375292E+00  0.12469977808E+02  0.54367087321E+02  0.40000007166E+02 0.  0.
         12    1    3    3    0    0 -0.34634802133E+02  0.84246375292E+00 -0.12469977808E+02  0.36820912679E+02  0.00000000000E+00 0. -1.
         11    1    4    4    0    0  0.11543414090E+02 -0.10021291659E+02 -0.48676719560E+00  0.15294235448E+02  0.51100000000E-03 0. -1.
        -11    1    4    4    0    0  0.19753068154E+02  0.34565642963E+01  0.20741794912E+02  0.28850538897E+02  0.51100000000E-03 0.  1.
         12    1    4    4    0    0  0.33383198885E+01  0.57222636101E+01 -0.77850499080E+01  0.10222312976E+02  0.00000000000E+00 0. -1.
</event>
<event>
 8    1  0.1280925E-006  0.9118800E+02  0.7816164E-02  0.1184000E+00
        -11   -1    0    0    0    0  0.00000000000E+00  0.00000000000E+00  0.45593999997E+02  0.45594000000E+02  0.51100000000E-03 0.  1.
         11   -1    0    0    0    0 -0.00000000000E+00 -0.00000000000E+00 -0.45593999997E+02  0.45594000000E+02  0.51100000000E-03 0. -1.
         23    2    1    2    0    0  0.00000000000E+00  0.35527136788E-14  0.00000000000E+00  0.91188000000E+02  0.91188000000E+02 0.  0.
    9900012    2    3    3    0    0 -0.18247555832E+02  0.31230595570E+02 -0.68882012450E+01  0.54367208184E+02  0.40000282697E+02 0.  0.
        -12    1    3    3    0    0  0.18247555832E+02 -0.31230595570E+02  0.68882012450E+01  0.36820791816E+02  0.00000000000E+00 0.  1.
         11    1    4    4    0    0  0.40693491747E+01  0.23102399800E+02 -0.94194119288E+01  0.25278564053E+02  0.51100000000E-03 0. -1.
        -11    1    4    4    0    0 -0.15983714360E+02 -0.23691932876E+01 -0.13872608868E+01  0.16217789449E+02  0.51100000000E-03 0.  1.
        -12    1    4    4    0    0 -0.63331906471E+01  0.10497389058E+02  0.39184715706E+01  0.12870854682E+02  0.00000000000E+00 0.  1.
</event>
<event>
 8    1  0.1280925E-006  0.9118800E+02  0.7816164E-02  0.1184000E+00
        -11   -1    0    0    0    0  0.00000000000E+00  0.00000000000E+00  0.45593999997E+02  0.45594000000E+02  0.51100000000E-03 0. -1.
         11   -1    0    0    0    0 -0.00000000000E+00 -0.00000000000E+00 -0.45593999997E+02  0.45594000000E+02  0.51100000000E-03 0.  1.
         23    2    1    2    0    0  0.00000000000E+00  0.00000000000E+00  0.00000000000E+00  0.91188000000E+02  0.91188000000E+02 0.  0.
    9900012    2    3    3    0    0 -0.36115829937E+02 -0.70880488083E+01  0.10877681984E+01  0.54367124839E+02  0.40000092695E+02 0.  0.
        -12    1    3    3    0    0  0.36115829937E+02  0.70880488083E+01 -0.10877681984E+01  0.36820875161E+02  0.00000000000E+00 0.  1.
         11    1    4    4    0    0 -0.33088159687E+02  0.18464033617E+01  0.12202980535E+02  0.35314986210E+02  0.51100000000E-03 0. -1.
        -11    1    4    4    0    0  0.25801857365E+01 -0.94850721783E+01 -0.67481064441E+01  0.11923124318E+02  0.51100000000E-03 0.  1.
         12    1    4    4    0    0 -0.56078559870E+01  0.55062000837E+00 -0.43671058926E+01  0.71290143106E+01  0.00000000000E+00 0. -1.
</event>
<event>
 8    1  0.1280925E-006  0.9118800E+02  0.7816164E-02  0.1184000E+00
        -11   -1    0    0    0    0  0.00000000000E+00  0.00000000000E+00  0.45593999997E+02  0.45594000000E+02  0.51100000000E-03 0.  1.
         11   -1    0    0    0    0 -0.00000000000E+00 -0.00000000000E+00 -0.45593999997E+02  0.45594000000E+02  0.51100000000E-03 0. -1.
         23    2    1    2    0    0 -0.71054273576E-14  0.00000000000E+00  0.53290705182E-14  0.91188000000E+02  0.91188000000E+02 0.  0.
    9900012    2    3    3    0    0 -0.33351072866E+02 -0.68146906132E+01  0.14037277608E+02  0.54367092460E+02  0.40000018880E+02 0.  0.
         12    1    3    3    0    0  0.33351072866E+02  0.68146906132E+01 -0.14037277608E+02  0.36820907540E+02  0.00000000000E+00 0. -1.
         11    1    4    4    0    0 -0.88664215987E+01 -0.60600924399E+01 -0.82505620447E+01  0.13542892108E+02  0.51100000000E-03 0. -1.
        -11    1    4    4    0    0 -0.26713087590E+02 -0.16663273610E+00  0.25460161396E+02  0.36903070789E+02  0.51100000000E-03 0.  1.
        -12    1    4    4    0    0  0.22284363231E+01 -0.58796543714E+00 -0.31723217432E+01  0.39211295623E+01  0.00000000000E+00 0.  1.
</event>
<event>
 8    1  0.1280925E-006  0.9118800E+02  0.7816164E-02  0.1184000E+00
        -11   -1    0    0    0    0  0.00000000000E+00  0.00000000000E+00  0.45593999997E+02  0.45594000000E+02  0.51100000000E-03 0.  1.
         11   -1    0    0    0    0 -0.00000000000E+00 -0.00000000000E+00 -0.45593999997E+02  0.45594000000E+02  0.51100000000E-03 0. -1.
         23    2    1    2    0    0  0.88817841970E-15  0.00000000000E+00 -0.88817841970E-15  0.91188000000E+02  0.91188000000E+02 0.  0.
    9900012    2    3    3    0    0  0.23849631318E+01  0.36192876328E+02 -0.63379476090E+01  0.54367055880E+02  0.39999935489E+02 0.  0.
         12    1    3    3    0    0 -0.23849631318E+01 -0.36192876328E+02  0.63379476090E+01  0.36820944120E+02  0.00000000000E+00 0. -1.
         11    1    4    4    0    0 -0.81765352941E+01  0.76103818510E+01 -0.93191678237E+01  0.14547182907E+02  0.51100000000E-03 0. -1.
        -11    1    4    4    0    0  0.86751882360E+01  0.29141005101E+01 -0.76940782892E+01  0.11956157982E+02  0.51100000000E-03 0.  1.
        -12    1    4    4    0    0  0.18863101899E+01  0.25668393966E+02  0.10675298504E+02  0.27863714991E+02  0.00000000000E+00 0.  1.
</event>
<event>
 8    1  0.1280925E-006  0.9118800E+02  0.7816164E-02  0.1184000E+00
        -11   -1    0    0    0    0  0.00000000000E+00  0.00000000000E+00  0.45593999997E+02  0.45594000000E+02  0.51100000000E-03 0.  1.
         11   -1    0    0    0    0 -0.00000000000E+00 -0.00000000000E+00 -0.45593999997E+02  0.45594000000E+02  0.51100000000E-03 0. -1.
         23    2    1    2    0    0  0.44408920985E-15  0.00000000000E+00 -0.35527136788E-14  0.91188000000E+02  0.91188000000E+02 0.  0.
    9900012    2    3    3    0    0 -0.24491536905E+01  0.19213911567E+02  0.31314652043E+02  0.54367079532E+02  0.39999989409E+02 0.  0.
         12    1    3    3    0    0  0.24491536905E+01 -0.19213911567E+02 -0.31314652043E+02  0.36820920468E+02  0.00000000000E+00 0. -1.
         11    1    4    4    0    0 -0.50854988460E+01 -0.50689133786E+01  0.11355464343E+02  0.13435131263E+02  0.51100000000E-03 0. -1.
        -11    1    4    4    0    0 -0.69946813832E+01  0.10343627851E+02  0.20474096020E+02  0.23981343016E+02  0.51100000000E-03 0.  1.
         12    1    4    4    0    0  0.96310265387E+01  0.13939197095E+02 -0.51490831976E+00  0.16950605252E+02  0.00000000000E+00 0. -1.
</event>
<event>
 8    1  0.1280925E-006  0.9118800E+02  0.7816164E-02  0.1184000E+00
        -11   -1    0    0    0    0  0.00000000000E+00  0.00000000000E+00  0.45593999997E+02  0.45594000000E+02  0.51100000000E-03 0.  1.
         11   -1    0    0    0    0 -0.00000000000E+00 -0.00000000000E+00 -0.45593999997E+02  0.45594000000E+02  0.51100000000E-03 0. -1.
         23    2    1    2    0    0  0.00000000000E+00  0.00000000000E+00  0.00000000000E+00  0.91188000000E+02  0.91188000000E+02 0.  0.
    9900012    2    3    3    0    0 -0.89900948993E+01  0.16036801976E+02 -0.31902656065E+02  0.54367078122E+02  0.39999986196E+02 0.  0.
        -12    1    3    3    0    0  0.89900948993E+01 -0.16036801976E+02  0.31902656065E+02  0.36820921878E+02  0.00000000000E+00 0.  1.
         11    1    4    4    0    0 -0.47209108633E+01  0.16967144003E+02 -0.33066489572E+02  0.37464165650E+02  0.51100000000E-03 0. -1.
        -11    1    4    4    0    0  0.40535584481E+01 -0.30915453883E+01  0.53062619362E+01  0.73583561328E+01  0.51100000000E-03 0.  1.
         12    1    4    4    0    0 -0.83227424841E+01  0.21612033619E+01 -0.41424284294E+01  0.95445563397E+01  0.00000000000E+00 0. -1.
</event>
<event>
 8    1  0.1280925E-006  0.9118800E+02  0.7816164E-02  0.1184000E+00
        -11   -1    0    0    0    0  0.00000000000E+00  0.00000000000E+00  0.45593999997E+02  0.45594000000E+02  0.51100000000E-03 0.  1.
         11   -1    0    0    0    0 -0.00000000000E+00 -0.00000000000E+00 -0.45593999997E+02  0.45594000000E+02  0.51100000000E-03 0. -1.
         23    2    1    2    0    0  0.00000000000E+00  0.00000000000E+00  0.35527136788E-14  0.91188000000E+02  0.91188000000E+02 0.  0.
    9900012    2    3    3    0    0  0.28627645587E+02  0.14407332354E+02  0.18129163849E+02  0.54367083400E+02  0.39999998226E+02 0.  0.
         12    1    3    3    0    0 -0.28627645587E+02 -0.14407332354E+02 -0.18129163849E+02  0.36820916600E+02  0.00000000000E+00 0. -1.
         11    1    4    4    0    0  0.75002830774E+01 -0.70049330868E+01 -0.50250429712E+01  0.11426915197E+02  0.51100000000E-03 0. -1.
        -11    1    4    4    0    0  0.66372791116E+01  0.20556600715E+02  0.12783360311E+02  0.25100629635E+02  0.51100000000E-03 0.  1.
        -12    1    4    4    0    0  0.14490083398E+02  0.85566472607E+00  0.10370846509E+02  0.17839538568E+02  0.00000000000E+00 0.  1.
</event>
<event>
 8    1  0.1280925E-006  0.9118800E+02  0.7816164E-02  0.1184000E+00
        -11   -1    0    0    0    0  0.00000000000E+00  0.00000000000E+00  0.45593999997E+02  0.45594000000E+02  0.51100000000E-03 0. -1.
         11   -1    0    0    0    0 -0.00000000000E+00 -0.00000000000E+00 -0.45593999997E+02  0.45594000000E+02  0.51100000000E-03 0.  1.
         23    2    1    2    0    0 -0.17763568394E-14  0.00000000000E+00  0.00000000000E+00  0.91188000000E+02  0.91188000000E+02 0.  0.
    9900012    2    3    3    0    0  0.15249828956E+02 -0.79213374838E+01 -0.32565003877E+02  0.54367022987E+02  0.39999860503E+02 0.  0.
         12    1    3    3    0    0 -0.15249828956E+02  0.79213374838E+01  0.32565003877E+02  0.36820977013E+02  0.00000000000E+00 0. -1.
         11    1    4    4    0    0  0.11911145188E+01  0.18339162336E+01 -0.13861777164E+02  0.14033205940E+02  0.51100000000E-03 0. -1.
        -11    1    4    4    0    0 -0.63458069425E+01 -0.11981883692E+02 -0.16698382070E+01  0.13661008838E+02  0.51100000000E-03 0.  1.
         12    1    4    4    0    0  0.20404521380E+02  0.22266299748E+01 -0.17033388506E+02  0.26672808209E+02  0.00000000000E+00 0. -1.
</event>
<event>
 8    1  0.1280925E-006  0.9118800E+02  0.7816164E-02  0.1184000E+00
        -11   -1    0    0    0    0  0.00000000000E+00  0.00000000000E+00  0.45593999997E+02  0.45594000000E+02  0.51100000000E-03 0.  1.
         11   -1    0    0    0    0 -0.00000000000E+00 -0.00000000000E+00 -0.45593999997E+02  0.45594000000E+02  0.51100000000E-03 0. -1.
         23    2    1    2    0    0  0.35527136788E-14  0.35527136788E-14  0.00000000000E+00  0.91188000000E+02  0.91188000000E+02 0.  0.
    9900012    2    3    3    0    0 -0.18793657991E+02  0.22359932362E+02  0.22419190229E+02  0.54366970052E+02  0.39999739827E+02 0.  0.
         12    1    3    3    0    0  0.18793657991E+02 -0.22359932362E+02 -0.22419190229E+02  0.36821029948E+02  0.00000000000E+00 0. -1.
         11    1    4    4    0    0 -0.33949472074E+01 -0.12209045751E+01 -0.25994444469E+01  0.44467275851E+01  0.51100000000E-03 0. -1.
        -11    1    4    4    0    0 -0.10590455227E+02  0.25959658602E+01 -0.57814928412E+01  0.12341897763E+02  0.51100000000E-03 0.  1.
        -12    1    4    4    0    0 -0.48082555566E+01  0.20984871077E+02  0.30800127517E+02  0.37578344704E+02  0.00000000000E+00 0.  1.
</event>
<event>
 8    1  0.1280925E-006  0.9118800E+02  0.7816164E-02  0.1184000E+00
        -11   -1    0    0    0    0  0.00000000000E+00  0.00000000000E+00  0.45593999997E+02  0.45594000000E+02  0.51100000000E-03 0. -1.
         11   -1    0    0    0    0 -0.00000000000E+00 -0.00000000000E+00 -0.45593999997E+02  0.45594000000E+02  0.51100000000E-03 0.  1.
         23    2    1    2    0    0  0.00000000000E+00  0.00000000000E+00 -0.35527136788E-14  0.91188000000E+02  0.91188000000E+02 0.  0.
    9900012    2    3    3    0    0  0.25459020303E+02 -0.16980704619E+02 -0.20476207630E+02  0.54367066782E+02  0.39999960343E+02 0.  0.
         12    1    3    3    0    0 -0.25459020303E+02  0.16980704619E+02  0.20476207630E+02  0.36820933218E+02  0.00000000000E+00 0. -1.
         11    1    4    4    0    0  0.38963783476E+01  0.64473173333E+00  0.46634259663E+01  0.61110543477E+01  0.51100000000E-03 0. -1.
        -11    1    4    4    0    0  0.16962694770E+02 -0.25683819392E+02 -0.14159781668E+02  0.33880540279E+02  0.51100000000E-03 0.  1.
         12    1    4    4    0    0  0.45999471852E+01  0.80583830403E+01 -0.10979851929E+02  0.14375472156E+02  0.00000000000E+00 0. -1.
</event>
<event>
 8    1  0.1280925E-006  0.9118800E+02  0.7816164E-02  0.1184000E+00
        -11   -1    0    0    0    0  0.00000000000E+00  0.00000000000E+00  0.45593999997E+02  0.45594000000E+02  0.51100000000E-03 0.  1.
         11   -1    0    0    0    0 -0.00000000000E+00 -0.00000000000E+00 -0.45593999997E+02  0.45594000000E+02  0.51100000000E-03 0. -1.
         23    2    1    2    0    0  0.17763568394E-14  0.35527136788E-14  0.00000000000E+00  0.91188000000E+02  0.91188000000E+02 0.  0.
    9900012    2    3    3    0    0  0.23222753366E+01  0.14919930614E+02 -0.33582474243E+02  0.54367083817E+02  0.39999999177E+02 0.  0.
        -12    1    3    3    0    0 -0.23222753366E+01 -0.14919930614E+02  0.33582474243E+02  0.36820916183E+02  0.00000000000E+00 0.  1.
         11    1    4    4    0    0  0.57167699264E+01  0.54942364056E+01 -0.38853289773E+01  0.88297153746E+01  0.51100000000E-03 0. -1.
        -11    1    4    4    0    0 -0.12464479808E+02 -0.80439351100E+01 -0.12468074434E+02  0.19378364980E+02  0.51100000000E-03 0.  1.
        -12    1    4    4    0    0  0.90699852183E+01  0.17469629319E+02 -0.17229070832E+02  0.26159003462E+02  0.00000000000E+00 0.  1.
</event>
<event>
 8    1  0.1280925E-006  0.9118800E+02  0.7816164E-02  0.1184000E+00
        -11   -1    0    0    0    0  0.00000000000E+00  0.00000000000E+00  0.45593999997E+02  0.45594000000E+02  0.51100000000E-03 0. -1.
         11   -1    0    0    0    0 -0.00000000000E+00 -0.00000000000E+00 -0.45593999997E+02  0.45594000000E+02  0.51100000000E-03 0.  1.
         23    2    1    2    0    0  0.88817841970E-15  0.17763568394E-14  0.71054273576E-14  0.91188000000E+02  0.91188000000E+02 0.  0.
    9900012    2    3    3    0    0 -0.49148625821E+01 -0.86633485414E+01 -0.35448138816E+02  0.54367081657E+02  0.39999994253E+02 0.  0.
         12    1    3    3    0    0  0.49148625821E+01  0.86633485414E+01  0.35448138816E+02  0.36820918343E+02  0.00000000000E+00 0. -1.
         11    1    4    4    0    0  0.33011559412E+01 -0.12712341255E+02 -0.11134615678E+02  0.17218621237E+02  0.51100000000E-03 0. -1.
        -11    1    4    4    0    0 -0.74767439531E+01  0.25629836050E+00 -0.29639134361E+02  0.30568704175E+02  0.51100000000E-03 0.  1.
        -12    1    4    4    0    0 -0.73927457022E+00  0.37926943533E+01  0.53256112231E+01  0.65797562453E+01  0.00000000000E+00 0.  1.
</event>
<event>
 8    1  0.1280925E-006  0.9118800E+02  0.7816164E-02  0.1184000E+00
        -11   -1    0    0    0    0  0.00000000000E+00  0.00000000000E+00  0.45593999997E+02  0.45594000000E+02  0.51100000000E-03 0. -1.
         11   -1    0    0    0    0 -0.00000000000E+00 -0.00000000000E+00 -0.45593999997E+02  0.45594000000E+02  0.51100000000E-03 0.  1.
         23    2    1    2    0    0  0.00000000000E+00  0.17763568394E-14 -0.35527136788E-14  0.91188000000E+02  0.91188000000E+02 0.  0.
    9900012    2    3    3    0    0 -0.19281800003E+02 -0.12679251984E+02  0.28692052440E+02  0.54367012568E+02  0.39999836750E+02 0.  0.
        -12    1    3    3    0    0  0.19281800003E+02  0.12679251984E+02 -0.28692052440E+02  0.36820987432E+02  0.00000000000E+00 0.  1.
         11    1    4    4    0    0 -0.99373148918E+01 -0.17036140420E+02  0.25956223860E+02  0.32599169698E+02  0.51100000000E-03 0. -1.
        -11    1    4    4    0    0  0.19589264204E+01  0.79520276886E+01  0.51347402275E+01  0.96663175277E+01  0.51100000000E-03 0.  1.
        -12    1    4    4    0    0 -0.11303411532E+02 -0.35951392526E+01 -0.23989116473E+01  0.12101525342E+02  0.00000000000E+00 0.  1.
</event>
<event>
 8    1  0.1280925E-006  0.9118800E+02  0.7816164E-02  0.1184000E+00
        -11   -1    0    0    0    0  0.00000000000E+00  0.00000000000E+00  0.45593999997E+02  0.45594000000E+02  0.51100000000E-03 0.  1.
         11   -1    0    0    0    0 -0.00000000000E+00 -0.00000000000E+00 -0.45593999997E+02  0.45594000000E+02  0.51100000000E-03 0. -1.
         23    2    1    2    0    0  0.00000000000E+00  0.00000000000E+00 -0.22204460493E-15  0.91188000000E+02  0.91188000000E+02 0.  0.
    9900012    2    3    3    0    0  0.87034916213E+01  0.35748755945E+02 -0.14338900557E+01  0.54367077161E+02  0.39999984003E+02 0.  0.
         12    1    3    3    0    0 -0.87034916213E+01 -0.35748755945E+02  0.14338900557E+01  0.36820922839E+02  0.00000000000E+00 0. -1.
         11    1    4    4    0    0  0.12801296551E+02  0.11494057287E+02 -0.39213340199E-01  0.17204304236E+02  0.51100000000E-03 0. -1.
        -11    1    4    4    0    0  0.54882992311E+01  0.18205991781E+02  0.96612429172E+01  0.21328834477E+02  0.51100000000E-03 0.  1.
         12    1    4    4    0    0 -0.95861041602E+01  0.60487068781E+01 -0.11055919633E+02  0.15833938449E+02  0.00000000000E+00 0. -1.
</event>
<event>
 8    1  0.1280925E-006  0.9118800E+02  0.7816164E-02  0.1184000E+00
        -11   -1    0    0    0    0  0.00000000000E+00  0.00000000000E+00  0.45593999997E+02  0.45594000000E+02  0.51100000000E-03 0. -1.
         11   -1    0    0    0    0 -0.00000000000E+00 -0.00000000000E+00 -0.45593999997E+02  0.45594000000E+02  0.51100000000E-03 0.  1.
         23    2    1    2    0    0  0.00000000000E+00  0.17763568394E-14  0.00000000000E+00  0.91188000000E+02  0.91188000000E+02 0.  0.
    9900012    2    3    3    0    0 -0.11736034269E+02  0.15069691171E+02 -0.31479356494E+02  0.54367082336E+02  0.39999995802E+02 0.  0.
         12    1    3    3    0    0  0.11736034269E+02 -0.15069691171E+02  0.31479356494E+02  0.36820917664E+02  0.00000000000E+00 0. -1.
         11    1    4    4    0    0  0.46536241628E+01 -0.61446760046E+01 -0.17346148359E+02  0.18981625964E+02  0.51100000000E-03 0. -1.
        -11    1    4    4    0    0  0.19946669600E+01  0.11391461969E+02 -0.57960846435E+01  0.12935946024E+02  0.51100000000E-03 0.  1.
         12    1    4    4    0    0 -0.18384325391E+02  0.98229052064E+01 -0.83371234909E+01  0.22449510349E+02  0.00000000000E+00 0. -1.
</event>
<event>
 8    1  0.1280925E-006  0.9118800E+02  0.7816164E-02  0.1184000E+00
        -11   -1    0    0    0    0  0.00000000000E+00  0.00000000000E+00  0.45593999997E+02  0.45594000000E+02  0.51100000000E-03 0. -1.
         11   -1    0    0    0    0 -0.00000000000E+00 -0.00000000000E+00 -0.45593999997E+02  0.45594000000E+02  0.51100000000E-03 0.  1.
         23    2    1    2    0    0  0.00000000000E+00 -0.35527136788E-14 -0.17763568394E-14  0.91188000000E+02  0.91188000000E+02 0.  0.
    9900012    2    3    3    0    0 -0.18606300237E+02 -0.29214239553E+02 -0.12494072353E+02  0.54367244370E+02  0.40000365188E+02 0.  0.
        -12    1    3    3    0    0  0.18606300237E+02  0.29214239553E+02  0.12494072353E+02  0.36820755630E+02  0.00000000000E+00 0.  1.
         11    1    4    4    0    0 -0.14422284951E+02 -0.19922575738E+02 -0.28942933697E+01  0.24764657511E+02  0.51100000000E-03 0. -1.
        -11    1    4    4    0    0  0.15653147493E+01 -0.75142554019E+01  0.79494472560E+01  0.11050246895E+02  0.51100000000E-03 0.  1.
        -12    1    4    4    0    0 -0.57493300354E+01 -0.17774084132E+01 -0.17549226240E+02  0.18552339964E+02  0.00000000000E+00 0.  1.
</event>
<event>
 8    1  0.1280925E-006  0.9118800E+02  0.7816164E-02  0.1184000E+00
        -11   -1    0    0    0    0  0.00000000000E+00  0.00000000000E+00  0.45593999997E+02  0.45594000000E+02  0.51100000000E-03 0. -1.
         11   -1    0    0    0    0 -0.00000000000E+00 -0.00000000000E+00 -0.45593999997E+02  0.45594000000E+02  0.51100000000E-03 0.  1.
         23    2    1    2    0    0 -0.88817841970E-15  0.35527136788E-14 -0.35527136788E-14  0.91188000000E+02  0.91188000000E+02 0.  0.
    9900012    2    3    3    0    0 -0.66188819636E+01  0.24781387502E+02 -0.26416915408E+02  0.54367079525E+02  0.39999989394E+02 0.  0.
         12    1    3    3    0    0  0.66188819636E+01 -0.24781387502E+02  0.26416915408E+02  0.36820920475E+02  0.00000000000E+00 0. -1.
         11    1    4    4    0    0  0.21021746873E+01  0.58835325132E+01 -0.10994392189E+02  0.12645621895E+02  0.51100000000E-03 0. -1.
        -11    1    4    4    0    0  0.37496361195E+01  0.21512531344E+02 -0.18492428089E+02  0.28615007823E+02  0.51100000000E-03 0.  1.
         12    1    4    4    0    0 -0.12470692770E+02 -0.26146763554E+01  0.30699048705E+01  0.13106449806E+02  0.00000000000E+00 0. -1.
</event>
<event>
 8    1  0.1280925E-006  0.9118800E+02  0.7816164E-02  0.1184000E+00
        -11   -1    0    0    0    0  0.00000000000E+00  0.00000000000E+00  0.45593999997E+02  0.45594000000E+02  0.51100000000E-03 0. -1.
         11   -1    0    0    0    0 -0.00000000000E+00 -0.00000000000E+00 -0.45593999997E+02  0.45594000000E+02  0.51100000000E-03 0.  1.
         23    2    1    2    0    0 -0.35527136788E-14  0.00000000000E+00  0.00000000000E+00  0.91188000000E+02  0.91188000000E+02 0.  0.
    9900012    2    3    3    0    0  0.27417465957E+02 -0.88231422785E+01 -0.22939398114E+02  0.54367064855E+02  0.39999955949E+02 0.  0.
         12    1    3    3    0    0 -0.27417465957E+02  0.88231422785E+01  0.22939398114E+02  0.36820935145E+02  0.00000000000E+00 0. -1.
         11    1    4    4    0    0  0.10419567921E+02 -0.10900913255E+02 -0.49967918543E+01  0.15886007508E+02  0.51100000000E-03 0. -1.
        -11    1    4    4    0    0 -0.20772723635E+01 -0.87065972757E+01  0.16320552209E+01  0.90985438999E+01  0.51100000000E-03 0.  1.
         12    1    4    4    0    0  0.19075170399E+02  0.10784368252E+02 -0.19574661480E+02  0.29382513446E+02  0.00000000000E+00 0. -1.
</event>
<event>
 8    1  0.1280925E-006  0.9118800E+02  0.7816164E-02  0.1184000E+00
        -11   -1    0    0    0    0  0.00000000000E+00  0.00000000000E+00  0.45593999997E+02  0.45594000000E+02  0.51100000000E-03 0. -1.
         11   -1    0    0    0    0 -0.00000000000E+00 -0.00000000000E+00 -0.45593999997E+02  0.45594000000E+02  0.51100000000E-03 0.  1.
         23    2    1    2    0    0  0.17763568394E-14  0.35527136788E-14 -0.71054273576E-14  0.91188000000E+02  0.91188000000E+02 0.  0.
    9900012    2    3    3    0    0 -0.13084900018E+02  0.18168925008E+02 -0.29231075148E+02  0.54367079334E+02  0.39999988957E+02 0.  0.
         12    1    3    3    0    0  0.13084900018E+02 -0.18168925008E+02  0.29231075148E+02  0.36820920666E+02  0.00000000000E+00 0. -1.
         11    1    4    4    0    0  0.86870664375E+01  0.30656279698E+01 -0.34119435616E+00  0.92184386958E+01  0.51100000000E-03 0. -1.
        -11    1    4    4    0    0 -0.16401686602E+02  0.16445728657E+01 -0.50319175238E+01  0.17234852408E+02  0.51100000000E-03 0.  1.
        -12    1    4    4    0    0 -0.53702798533E+01  0.13458724173E+02 -0.23857963268E+02  0.27913788230E+02  0.00000000000E+00 0.  1.
</event>
<event>
 8    1  0.1280925E-006  0.9118800E+02  0.7816164E-02  0.1184000E+00
        -11   -1    0    0    0    0  0.00000000000E+00  0.00000000000E+00  0.45593999997E+02  0.45594000000E+02  0.51100000000E-03 0. -1.
         11   -1    0    0    0    0 -0.00000000000E+00 -0.00000000000E+00 -0.45593999997E+02  0.45594000000E+02  0.51100000000E-03 0.  1.
         23    2    1    2    0    0  0.88817841970E-15 -0.17763568394E-14  0.00000000000E+00  0.91188000000E+02  0.91188000000E+02 0.  0.
    9900012    2    3    3    0    0 -0.67944905418E+01  0.20076716873E+01 -0.36132884520E+02  0.54367065859E+02  0.39999958238E+02 0.  0.
         12    1    3    3    0    0  0.67944905418E+01 -0.20076716873E+01  0.36132884520E+02  0.36820934141E+02  0.00000000000E+00 0. -1.
         11    1    4    4    0    0 -0.59191168302E+01  0.17620882368E+02 -0.88559925870E+01  0.20590290053E+02  0.51100000000E-03 0. -1.
        -11    1    4    4    0    0 -0.35236701150E+01 -0.83481137357E+01 -0.53419548184E+01  0.10518732603E+02  0.51100000000E-03 0.  1.
        -12    1    4    4    0    0  0.26482964035E+01 -0.72650969452E+01 -0.21934937114E+02  0.23258043204E+02  0.00000000000E+00 0.  1.
</event>
<event>
 8    1  0.1280925E-006  0.9118800E+02  0.7816164E-02  0.1184000E+00
        -11   -1    0    0    0    0  0.00000000000E+00  0.00000000000E+00  0.45593999997E+02  0.45594000000E+02  0.51100000000E-03 0.  1.
         11   -1    0    0    0    0 -0.00000000000E+00 -0.00000000000E+00 -0.45593999997E+02  0.45594000000E+02  0.51100000000E-03 0. -1.
         23    2    1    2    0    0  0.00000000000E+00  0.00000000000E+00 -0.35527136788E-14  0.91188000000E+02  0.91188000000E+02 0.  0.
    9900012    2    3    3    0    0 -0.20746273370E+02 -0.20429114365E+02 -0.22539339051E+02  0.54367104067E+02  0.40000045341E+02 0.  0.
        -12    1    3    3    0    0  0.20746273370E+02  0.20429114365E+02  0.22539339051E+02  0.36820895933E+02  0.00000000000E+00 0.  1.
         11    1    4    4    0    0  0.61830367203E+01 -0.45422168909E+01 -0.12569814602E+02  0.14726232266E+02  0.51100000000E-03 0. -1.
        -11    1    4    4    0    0  0.88354701842E+00 -0.87181637992E+01  0.11575867634E+01  0.88389503188E+01  0.51100000000E-03 0.  1.
         12    1    4    4    0    0 -0.27812857108E+02 -0.71687336747E+01 -0.11127111213E+02  0.30801921482E+02  0.00000000000E+00 0. -1.
</event>
<event>
 8    1  0.1280925E-006  0.9118800E+02  0.7816164E-02  0.1184000E+00
        -11   -1    0    0    0    0  0.00000000000E+00  0.00000000000E+00  0.45593999997E+02  0.45594000000E+02  0.51100000000E-03 0. -1.
         11   -1    0    0    0    0 -0.00000000000E+00 -0.00000000000E+00 -0.45593999997E+02  0.45594000000E+02  0.51100000000E-03 0.  1.
         23    2    1    2    0    0  0.35527136788E-14  0.35527136788E-14  0.00000000000E+00  0.91188000000E+02  0.91188000000E+02 0.  0.
    9900012    2    3    3    0    0  0.23876085007E+02  0.22028275012E+02 -0.17333849920E+02  0.54367154161E+02  0.40000159540E+02 0.  0.
         12    1    3    3    0    0 -0.23876085007E+02 -0.22028275012E+02  0.17333849920E+02  0.36820845839E+02  0.00000000000E+00 0. -1.
         11    1    4    4    0    0  0.94073221234E+01 -0.81475485042E+01 -0.15512684076E+02  0.19887775734E+02  0.51100000000E-03 0. -1.
        -11    1    4    4    0    0  0.72774075791E+01  0.17498481509E+02 -0.49176327943E+01  0.19579086515E+02  0.51100000000E-03 0.  1.
         12    1    4    4    0    0  0.71913553043E+01  0.12677342007E+02  0.30964669497E+01  0.14900291912E+02  0.00000000000E+00 0. -1.
</event>
<event>
 8    1  0.1280925E-006  0.9118800E+02  0.7816164E-02  0.1184000E+00
        -11   -1    0    0    0    0  0.00000000000E+00  0.00000000000E+00  0.45593999997E+02  0.45594000000E+02  0.51100000000E-03 0. -1.
         11   -1    0    0    0    0 -0.00000000000E+00 -0.00000000000E+00 -0.45593999997E+02  0.45594000000E+02  0.51100000000E-03 0.  1.
         23    2    1    2    0    0  0.00000000000E+00  0.00000000000E+00  0.00000000000E+00  0.91188000000E+02  0.91188000000E+02 0.  0.
    9900012    2    3    3    0    0 -0.20164594404E+02 -0.19631087203E+02 -0.23744162393E+02  0.54367140423E+02  0.40000128223E+02 0.  0.
         12    1    3    3    0    0  0.20164594404E+02  0.19631087203E+02  0.23744162393E+02  0.36820859577E+02  0.00000000000E+00 0. -1.
         11    1    4    4    0    0 -0.11634342506E+01 -0.87858778173E+01 -0.55302064237E+00  0.88798119557E+01  0.51100000000E-03 0. -1.
        -11    1    4    4    0    0 -0.46400826459E+01 -0.12240474846E+02 -0.27476693835E+02  0.30435641866E+02  0.51100000000E-03 0.  1.
         12    1    4    4    0    0 -0.14361077507E+02  0.13952654608E+01  0.42855520849E+01  0.15051686601E+02  0.00000000000E+00 0. -1.
</event>
<event>
 8    1  0.1280925E-006  0.9118800E+02  0.7816164E-02  0.1184000E+00
        -11   -1    0    0    0    0  0.00000000000E+00  0.00000000000E+00  0.45593999997E+02  0.45594000000E+02  0.51100000000E-03 0. -1.
         11   -1    0    0    0    0 -0.00000000000E+00 -0.00000000000E+00 -0.45593999997E+02  0.45594000000E+02  0.51100000000E-03 0.  1.
         23    2    1    2    0    0 -0.26645352591E-14 -0.17763568394E-14  0.00000000000E+00  0.91188000000E+02  0.91188000000E+02 0.  0.
    9900012    2    3    3    0    0  0.65735826414E+01 -0.10243280211E+02  0.34751145201E+02  0.54367097363E+02  0.40000030058E+02 0.  0.
        -12    1    3    3    0    0 -0.65735826414E+01  0.10243280211E+02 -0.34751145201E+02  0.36820902637E+02  0.00000000000E+00 0.  1.
         11    1    4    4    0    0  0.21478265328E+02  0.26218749900E+01  0.14306070993E+02  0.25939425158E+02  0.51100000000E-03 0. -1.
        -11    1    4    4    0    0 -0.13956681182E+02 -0.12498033310E+02  0.19351395630E+02  0.26934481605E+02  0.51100000000E-03 0.  1.
         12    1    4    4    0    0 -0.94800150508E+00 -0.36712189106E+00  0.10936785778E+01  0.14931906001E+01  0.00000000000E+00 0. -1.
</event>
<event>
 8    1  0.1280925E-006  0.9118800E+02  0.7816164E-02  0.1184000E+00
        -11   -1    0    0    0    0  0.00000000000E+00  0.00000000000E+00  0.45593999997E+02  0.45594000000E+02  0.51100000000E-03 0. -1.
         11   -1    0    0    0    0 -0.00000000000E+00 -0.00000000000E+00 -0.45593999997E+02  0.45594000000E+02  0.51100000000E-03 0.  1.
         23    2    1    2    0    0  0.00000000000E+00  0.00000000000E+00  0.35527136788E-14  0.91188000000E+02  0.91188000000E+02 0.  0.
    9900012    2    3    3    0    0  0.15470455520E+02  0.28579049762E+02 -0.17311334665E+02  0.54367090354E+02  0.40000014080E+02 0.  0.
         12    1    3    3    0    0 -0.15470455520E+02 -0.28579049762E+02  0.17311334665E+02  0.36820909646E+02  0.00000000000E+00 0. -1.
         11    1    4    4    0    0 -0.74005762888E+01  0.60551418210E+01  0.50476308652E+01  0.10812578300E+02  0.51100000000E-03 0. -1.
        -11    1    4    4    0    0  0.11287770669E+01  0.80283250842E+00  0.32610662077E+01  0.35430538770E+01  0.51100000000E-03 0.  1.
        -12    1    4    4    0    0  0.21742254741E+02  0.21721075432E+02 -0.25620031738E+02  0.40011458177E+02  0.00000000000E+00 0.  1.
</event>
<event>
 8    1  0.1280925E-006  0.9118800E+02  0.7816164E-02  0.1184000E+00
        -11   -1    0    0    0    0  0.00000000000E+00  0.00000000000E+00  0.45593999997E+02  0.45594000000E+02  0.51100000000E-03 0.  1.
         11   -1    0    0    0    0 -0.00000000000E+00 -0.00000000000E+00 -0.45593999997E+02  0.45594000000E+02  0.51100000000E-03 0. -1.
         23    2    1    2    0    0  0.88817841970E-15  0.00000000000E+00 -0.71054273576E-14  0.91188000000E+02  0.91188000000E+02 0.  0.
    9900012    2    3    3    0    0 -0.17499847443E+01 -0.13469105452E+02  0.34224274940E+02  0.54367078727E+02  0.39999987573E+02 0.  0.
         12    1    3    3    0    0  0.17499847443E+01  0.13469105452E+02 -0.34224274940E+02  0.36820921273E+02  0.00000000000E+00 0. -1.
         11    1    4    4    0    0  0.22083078726E+01  0.90289748359E+01  0.19643376019E+02  0.21731572238E+02  0.51100000000E-03 0. -1.
        -11    1    4    4    0    0  0.67957882110E+01 -0.13288690890E+02  0.89156364932E+01  0.17385644000E+02  0.51100000000E-03 0.  1.
        -12    1    4    4    0    0 -0.10754080828E+02 -0.92093893984E+01  0.56652624275E+01  0.15249862488E+02  0.00000000000E+00 0.  1.
</event>
<event>
 8    1  0.1280925E-006  0.9118800E+02  0.7816164E-02  0.1184000E+00
        -11   -1    0    0    0    0  0.00000000000E+00  0.00000000000E+00  0.45593999997E+02  0.45594000000E+02  0.51100000000E-03 0.  1.
         11   -1    0    0    0    0 -0.00000000000E+00 -0.00000000000E+00 -0.45593999997E+02  0.45594000000E+02  0.51100000000E-03 0. -1.
         23    2    1    2    0    0  0.00000000000E+00  0.00000000000E+00  0.00000000000E+00  0.91188000000E+02  0.91188000000E+02 0.  0.
    9900012    2    3    3    0    0  0.19167406851E+02 -0.11089819567E+02  0.29417794991E+02  0.54367078697E+02  0.39999987505E+02 0.  0.
         12    1    3    3    0    0 -0.19167406851E+02  0.11089819567E+02 -0.29417794991E+02  0.36820921303E+02  0.00000000000E+00 0. -1.
         11    1    4    4    0    0 -0.23433868454E+01 -0.10010009509E+02 -0.41536635010E+01  0.11088041892E+02  0.51100000000E-03 0. -1.
        -11    1    4    4    0    0  0.17245092900E+02 -0.26848931463E+01  0.11876479057E+02  0.21110486385E+02  0.51100000000E-03 0.  1.
         12    1    4    4    0    0  0.42657007964E+01  0.16050830874E+01  0.21694979436E+02  0.22168550420E+02  0.00000000000E+00 0. -1.
</event>
<event>
 8    1  0.1280925E-006  0.9118800E+02  0.7816164E-02  0.1184000E+00
        -11   -1    0    0    0    0  0.00000000000E+00  0.00000000000E+00  0.45593999997E+02  0.45594000000E+02  0.51100000000E-03 0.  1.
         11   -1    0    0    0    0 -0.00000000000E+00 -0.00000000000E+00 -0.45593999997E+02  0.45594000000E+02  0.51100000000E-03 0. -1.
         23    2    1    2    0    0  0.00000000000E+00  0.00000000000E+00 -0.35527136788E-14  0.91188000000E+02  0.91188000000E+02 0.  0.
    9900012    2    3    3    0    0 -0.20601220785E+01 -0.20039073548E+02  0.30821603224E+02  0.54367084790E+02  0.40000001395E+02 0.  0.
         12    1    3    3    0    0  0.20601220785E+01  0.20039073548E+02 -0.30821603224E+02  0.36820915210E+02  0.00000000000E+00 0. -1.
         11    1    4    4    0    0 -0.98224867240E+01 -0.95475422314E+01  0.49340316009E+01  0.14559583655E+02  0.51100000000E-03 0. -1.
        -11    1    4    4    0    0  0.69362458345E+01 -0.79108738631E+00 -0.42250769541E+01  0.81601838863E+01  0.51100000000E-03 0.  1.
        -12    1    4    4    0    0  0.82611881098E+00 -0.97004439302E+01  0.30112648577E+02  0.31647317249E+02  0.00000000000E+00 0.  1.
</event>
<event>
 8    1  0.1280925E-006  0.9118800E+02  0.7816164E-02  0.1184000E+00
        -11   -1    0    0    0    0  0.00000000000E+00  0.00000000000E+00  0.45593999997E+02  0.45594000000E+02  0.51100000000E-03 0.  1.
         11   -1    0    0    0    0 -0.00000000000E+00 -0.00000000000E+00 -0.45593999997E+02  0.45594000000E+02  0.51100000000E-03 0. -1.
         23    2    1    2    0    0  0.00000000000E+00  0.22204460493E-15  0.00000000000E+00  0.91188000000E+02  0.91188000000E+02 0.  0.
    9900012    2    3    3    0    0 -0.89797417161E+01 -0.14868464164E+01 -0.35678185200E+02  0.54367090550E+02  0.40000014526E+02 0.  0.
        -12    1    3    3    0    0  0.89797417161E+01  0.14868464164E+01  0.35678185200E+02  0.36820909450E+02  0.00000000000E+00 0.  1.
         11    1    4    4    0    0 -0.13915570833E+02  0.19622505404E+01 -0.17720365823E+01  0.14164520914E+02  0.51100000000E-03 0. -1.
        -11    1    4    4    0    0  0.34410992070E+01  0.87024215345E+01 -0.14777917440E+02  0.17491716566E+02  0.51100000000E-03 0.  1.
         12    1    4    4    0    0  0.14947299104E+01 -0.12151518491E+02 -0.19128231179E+02  0.22710853070E+02  0.00000000000E+00 0. -1.
</event>
<event>
 8    1  0.1280925E-006  0.9118800E+02  0.7816164E-02  0.1184000E+00
        -11   -1    0    0    0    0  0.00000000000E+00  0.00000000000E+00  0.45593999997E+02  0.45594000000E+02  0.51100000000E-03 0.  1.
         11   -1    0    0    0    0 -0.00000000000E+00 -0.00000000000E+00 -0.45593999997E+02  0.45594000000E+02  0.51100000000E-03 0. -1.
         23    2    1    2    0    0  0.00000000000E+00  0.35527136788E-14  0.00000000000E+00  0.91188000000E+02  0.91188000000E+02 0.  0.
    9900012    2    3    3    0    0 -0.24861619349E+02 -0.23642266459E+02  0.13368701156E+02  0.54367094924E+02  0.40000024498E+02 0.  0.
        -12    1    3    3    0    0  0.24861619349E+02  0.23642266459E+02 -0.13368701156E+02  0.36820905076E+02  0.00000000000E+00 0.  1.
         11    1    4    4    0    0 -0.73799825054E+01  0.10216220779E+02  0.32701694665E+01  0.13020342445E+02  0.51100000000E-03 0. -1.
        -11    1    4    4    0    0 -0.29358849184E+01 -0.14721591402E+02  0.85123259805E+01  0.17257009229E+02  0.51100000000E-03 0.  1.
         12    1    4    4    0    0 -0.14545751926E+02 -0.19136895836E+02  0.15862057094E+01  0.24089743250E+02  0.00000000000E+00 0. -1.
</event>
<event>
 8    1  0.1280925E-006  0.9118800E+02  0.7816164E-02  0.1184000E+00
        -11   -1    0    0    0    0  0.00000000000E+00  0.00000000000E+00  0.45593999997E+02  0.45594000000E+02  0.51100000000E-03 0.  1.
         11   -1    0    0    0    0 -0.00000000000E+00 -0.00000000000E+00 -0.45593999997E+02  0.45594000000E+02  0.51100000000E-03 0. -1.
         23    2    1    2    0    0 -0.35527136788E-14  0.44408920985E-15  0.00000000000E+00  0.91188000000E+02  0.91188000000E+02 0.  0.
    9900012    2    3    3    0    0 -0.26889075104E+02 -0.38824028340E+01  0.24853245478E+02  0.54367092590E+02  0.40000019177E+02 0.  0.
         12    1    3    3    0    0  0.26889075104E+02  0.38824028340E+01 -0.24853245478E+02  0.36820907410E+02  0.00000000000E+00 0. -1.
         11    1    4    4    0    0  0.10041632438E+02  0.24954473639E+01  0.63415073004E+01  0.12135746976E+02  0.51100000000E-03 0. -1.
        -11    1    4    4    0    0 -0.22845824241E+02 -0.65482367994E+01  0.13136118936E+02  0.27154533901E+02  0.51100000000E-03 0.  1.
         12    1    4    4    0    0 -0.14084883301E+02  0.17038660145E+00  0.53756192419E+01  0.15076811713E+02  0.00000000000E+00 0. -1.
</event>
<event>
 8    1  0.1280925E-006  0.9118800E+02  0.7816164E-02  0.1184000E+00
        -11   -1    0    0    0    0  0.00000000000E+00  0.00000000000E+00  0.45593999997E+02  0.45594000000E+02  0.51100000000E-03 0.  1.
         11   -1    0    0    0    0 -0.00000000000E+00 -0.00000000000E+00 -0.45593999997E+02  0.45594000000E+02  0.51100000000E-03 0. -1.
         23    2    1    2    0    0  0.00000000000E+00 -0.35527136788E-14 -0.71054273576E-14  0.91188000000E+02  0.91188000000E+02 0.  0.
    9900012    2    3    3    0    0 -0.20987794088E+02  0.19735428928E+02  0.22930439582E+02  0.54367085901E+02  0.40000003928E+02 0.  0.
         12    1    3    3    0    0  0.20987794088E+02 -0.19735428928E+02 -0.22930439582E+02  0.36820914099E+02  0.00000000000E+00 0. -1.
         11    1    4    4    0    0 -0.22316697836E+02  0.27758126550E+02  0.19298573286E+02  0.40509054828E+02  0.51100000000E-03 0.  1.
        -11    1    4    4    0    0 -0.89907733170E-01 -0.10495986927E+02  0.24981221532E+01  0.10789552332E+02  0.51100000000E-03 0. -1.
        -12    1    4    4    0    0  0.14188114812E+01  0.24732893048E+01  0.11337441430E+01  0.30684787413E+01  0.00000000000E+00 0.  1.
</event>
<event>
 8    1  0.1280925E-006  0.9118800E+02  0.7816164E-02  0.1184000E+00
        -11   -1    0    0    0    0  0.00000000000E+00  0.00000000000E+00  0.45593999997E+02  0.45594000000E+02  0.51100000000E-03 0.  1.
         11   -1    0    0    0    0 -0.00000000000E+00 -0.00000000000E+00 -0.45593999997E+02  0.45594000000E+02  0.51100000000E-03 0. -1.
         23    2    1    2    0    0  0.00000000000E+00 -0.17763568394E-14  0.88817841970E-15  0.91188000000E+02  0.91188000000E+02 0.  0.
    9900012    2    3    3    0    0  0.35803916044E+02 -0.72751525641E+01  0.45751459130E+01  0.54367079193E+02  0.39999988637E+02 0.  0.
         12    1    3    3    0    0 -0.35803916044E+02  0.72751525641E+01 -0.45751459130E+01  0.36820920807E+02  0.00000000000E+00 0. -1.
         11    1    4    4    0    0  0.43472923922E+01 -0.11509856509E+02  0.13021264009E+02  0.17914493146E+02  0.51100000000E-03 0. -1.
        -11    1    4    4    0    0  0.32415212294E+01 -0.28188370381E+01  0.29553801024E+01  0.52141704938E+01  0.51100000000E-03 0.  1.
         12    1    4    4    0    0  0.28215102422E+02  0.70535409834E+01 -0.11401498199E+02  0.31238415554E+02  0.00000000000E+00 0. -1.
</event>
<event>
 8    1  0.1280925E-006  0.9118800E+02  0.7816164E-02  0.1184000E+00
        -11   -1    0    0    0    0  0.00000000000E+00  0.00000000000E+00  0.45593999997E+02  0.45594000000E+02  0.51100000000E-03 0. -1.
         11   -1    0    0    0    0 -0.00000000000E+00 -0.00000000000E+00 -0.45593999997E+02  0.45594000000E+02  0.51100000000E-03 0.  1.
         23    2    1    2    0    0 -0.35527136788E-14 -0.61062266354E-15  0.00000000000E+00  0.91188000000E+02  0.91188000000E+02 0.  0.
    9900012    2    3    3    0    0  0.19792440798E+02  0.36671745106E+00 -0.31046790616E+02  0.54367103732E+02  0.40000044577E+02 0.  0.
         12    1    3    3    0    0 -0.19792440798E+02 -0.36671745106E+00  0.31046790616E+02  0.36820896268E+02  0.00000000000E+00 0. -1.
         11    1    4    4    0    0  0.31073839186E+01 -0.38433605576E+01 -0.26693870062E+01  0.56171952471E+01  0.51100000000E-03 0. -1.
        -11    1    4    4    0    0 -0.41902616477E+01 -0.11005538615E+02 -0.16617095757E+02  0.20366836881E+02  0.51100000000E-03 0.  1.
         12    1    4    4    0    0  0.20875318527E+02  0.15215616624E+02 -0.11760307853E+02  0.28383071603E+02  0.00000000000E+00 0. -1.
</event>
<event>
 8    1  0.1280925E-006  0.9118800E+02  0.7816164E-02  0.1184000E+00
        -11   -1    0    0    0    0  0.00000000000E+00  0.00000000000E+00  0.45593999997E+02  0.45594000000E+02  0.51100000000E-03 0. -1.
         11   -1    0    0    0    0 -0.00000000000E+00 -0.00000000000E+00 -0.45593999997E+02  0.45594000000E+02  0.51100000000E-03 0.  1.
         23    2    1    2    0    0  0.00000000000E+00  0.00000000000E+00  0.35527136788E-14  0.91188000000E+02  0.91188000000E+02 0.  0.
    9900012    2    3    3    0    0 -0.23790330570E+02  0.21105653370E+02 -0.18556740879E+02  0.54367067573E+02  0.39999962145E+02 0.  0.
         12    1    3    3    0    0  0.23790330570E+02 -0.21105653370E+02  0.18556740879E+02  0.36820932427E+02  0.00000000000E+00 0. -1.
         11    1    4    4    0    0 -0.68267889078E+01  0.45546270357E+01  0.84127524025E+01  0.11752620026E+02  0.51100000000E-03 0. -1.
        -11    1    4    4    0    0 -0.14873237662E+02  0.21296069949E+01 -0.42344705765E+01  0.15610226322E+02  0.51100000000E-03 0.  1.
         12    1    4    4    0    0 -0.20903040001E+01  0.14421419339E+02 -0.22735022705E+02  0.27004221225E+02  0.00000000000E+00 0. -1.
</event>
<event>
 8    1  0.1280925E-006  0.9118800E+02  0.7816164E-02  0.1184000E+00
        -11   -1    0    0    0    0  0.00000000000E+00  0.00000000000E+00  0.45593999997E+02  0.45594000000E+02  0.51100000000E-03 0.  1.
         11   -1    0    0    0    0 -0.00000000000E+00 -0.00000000000E+00 -0.45593999997E+02  0.45594000000E+02  0.51100000000E-03 0. -1.
         23    2    1    2    0    0  0.00000000000E+00  0.00000000000E+00  0.00000000000E+00  0.91188000000E+02  0.91188000000E+02 0.  0.
    9900012    2    3    3    0    0 -0.19395442018E+02 -0.11771879935E+02 -0.29000276771E+02  0.54367131174E+02  0.40000107138E+02 0.  0.
        -12    1    3    3    0    0  0.19395442018E+02  0.11771879935E+02  0.29000276771E+02  0.36820868826E+02  0.00000000000E+00 0.  1.
         11    1    4    4    0    0 -0.10878400835E+02  0.56881329438E+01 -0.21124832584E+02  0.24432621903E+02  0.51100000000E-03 0. -1.
        -11    1    4    4    0    0 -0.54742912975E+01 -0.15150377082E+02  0.47088596152E+01  0.16783180571E+02  0.51100000000E-03 0.  1.
        -12    1    4    4    0    0 -0.30427498855E+01 -0.23096357961E+01 -0.12584303802E+02  0.13151328700E+02  0.00000000000E+00 0.  1.
</event>
<event>
 8    1  0.1280925E-006  0.9118800E+02  0.7816164E-02  0.1184000E+00
        -11   -1    0    0    0    0  0.00000000000E+00  0.00000000000E+00  0.45593999997E+02  0.45594000000E+02  0.51100000000E-03 0. -1.
         11   -1    0    0    0    0 -0.00000000000E+00 -0.00000000000E+00 -0.45593999997E+02  0.45594000000E+02  0.51100000000E-03 0.  1.
         23    2    1    2    0    0  0.17763568394E-14  0.00000000000E+00 -0.71054273576E-14  0.91188000000E+02  0.91188000000E+02 0.  0.
    9900012    2    3    3    0    0 -0.90954229222E+01 -0.10484517704E+02  0.34104663752E+02  0.54367083129E+02  0.39999997609E+02 0.  0.
        -12    1    3    3    0    0  0.90954229222E+01  0.10484517704E+02 -0.34104663752E+02  0.36820916871E+02  0.00000000000E+00 0.  1.
         11    1    4    4    0    0  0.63483786613E+01  0.76680533876E+01  0.15613832053E+02  0.18517362286E+02  0.51100000000E-03 0.  1.
        -11    1    4    4    0    0 -0.15663379627E+02 -0.20165739064E+02  0.20686837776E+02  0.32862497634E+02  0.51100000000E-03 0. -1.
         12    1    4    4    0    0  0.21957804338E+00  0.20131679726E+01 -0.21960060779E+01  0.29872232085E+01  0.00000000000E+00 0. -1.
</event>
<event>
 8    1  0.1280925E-006  0.9118800E+02  0.7816164E-02  0.1184000E+00
        -11   -1    0    0    0    0  0.00000000000E+00  0.00000000000E+00  0.45593999997E+02  0.45594000000E+02  0.51100000000E-03 0. -1.
         11   -1    0    0    0    0 -0.00000000000E+00 -0.00000000000E+00 -0.45593999997E+02  0.45594000000E+02  0.51100000000E-03 0.  1.
         23    2    1    2    0    0  0.00000000000E+00  0.00000000000E+00  0.00000000000E+00  0.91188000000E+02  0.91188000000E+02 0.  0.
    9900012    2    3    3    0    0  0.71042914033E+01 -0.30430977732E+02 -0.19474553536E+02  0.54367168973E+02  0.40000193307E+02 0.  0.
         12    1    3    3    0    0 -0.71042914033E+01  0.30430977732E+02  0.19474553536E+02  0.36820831027E+02  0.00000000000E+00 0. -1.
         11    1    4    4    0    0  0.10280724066E+02 -0.89938711362E+00 -0.19473249730E+02  0.22038821199E+02  0.51100000000E-03 0. -1.
        -11    1    4    4    0    0 -0.38308344234E+01 -0.30421208765E+01 -0.28771520339E+01  0.56751912650E+01  0.51100000000E-03 0.  1.
         12    1    4    4    0    0  0.65440176038E+00 -0.26489469742E+02  0.28758482280E+01  0.26653156509E+02  0.00000000000E+00 0. -1.
</event>
<event>
 8    1  0.1280925E-006  0.9118800E+02  0.7816164E-02  0.1184000E+00
        -11   -1    0    0    0    0  0.00000000000E+00  0.00000000000E+00  0.45593999997E+02  0.45594000000E+02  0.51100000000E-03 0.  1.
         11   -1    0    0    0    0 -0.00000000000E+00 -0.00000000000E+00 -0.45593999997E+02  0.45594000000E+02  0.51100000000E-03 0. -1.
         23    2    1    2    0    0  0.00000000000E+00  0.88817841970E-15  0.17763568394E-14  0.91188000000E+02  0.91188000000E+02 0.  0.
    9900012    2    3    3    0    0 -0.36627754305E+02 -0.12048584452E+01  0.35686892791E+01  0.54367087295E+02  0.40000007105E+02 0.  0.
         12    1    3    3    0    0  0.36627754305E+02  0.12048584452E+01 -0.35686892791E+01  0.36820912705E+02  0.00000000000E+00 0. -1.
         11    1    4    4    0    0 -0.70360043768E+01  0.82316149083E+01 -0.27348697183E+01  0.11168901209E+02  0.51100000000E-03 0.  1.
        -11    1    4    4    0    0 -0.13412322333E+02  0.75940838875E+01  0.11387784851E+02  0.19163562939E+02  0.51100000000E-03 0. -1.
         12    1    4    4    0    0 -0.16179427595E+02 -0.17030557241E+02 -0.50842258534E+01  0.24034623146E+02  0.00000000000E+00 0. -1.
</event>
<event>
 8    1  0.1280925E-006  0.9118800E+02  0.7816164E-02  0.1184000E+00
        -11   -1    0    0    0    0  0.00000000000E+00  0.00000000000E+00  0.45593999997E+02  0.45594000000E+02  0.51100000000E-03 0. -1.
         11   -1    0    0    0    0 -0.00000000000E+00 -0.00000000000E+00 -0.45593999997E+02  0.45594000000E+02  0.51100000000E-03 0.  1.
         23    2    1    2    0    0 -0.35527136788E-14  0.17763568394E-14 -0.17763568394E-14  0.91188000000E+02  0.91188000000E+02 0.  0.
    9900012    2    3    3    0    0  0.31396973243E+02 -0.14520350211E+02  0.12616265898E+02  0.54367073012E+02  0.39999974545E+02 0.  0.
        -12    1    3    3    0    0 -0.31396973243E+02  0.14520350211E+02 -0.12616265898E+02  0.36820926988E+02  0.00000000000E+00 0.  1.
         11    1    4    4    0    0  0.40453258849E+00 -0.62178064434E+01  0.34107019630E+00  0.62402798593E+01  0.51100000000E-03 0. -1.
        -11    1    4    4    0    0 -0.36104430684E+00  0.83730182996E+01 -0.37313755909E+01  0.91739278664E+01  0.51100000000E-03 0.  1.
         12    1    4    4    0    0  0.31353484961E+02 -0.16675562067E+02  0.16006571292E+02  0.38952865286E+02  0.00000000000E+00 0. -1.
</event>
<event>
 8    1  0.1280925E-006  0.9118800E+02  0.7816164E-02  0.1184000E+00
        -11   -1    0    0    0    0  0.00000000000E+00  0.00000000000E+00  0.45593999997E+02  0.45594000000E+02  0.51100000000E-03 0. -1.
         11   -1    0    0    0    0 -0.00000000000E+00 -0.00000000000E+00 -0.45593999997E+02  0.45594000000E+02  0.51100000000E-03 0.  1.
         23    2    1    2    0    0  0.17763568394E-14 -0.71054273576E-14  0.00000000000E+00  0.91188000000E+02  0.91188000000E+02 0.  0.
    9900012    2    3    3    0    0  0.12123024095E+02 -0.34454490043E+02  0.46583291939E+01  0.54367087081E+02  0.40000006619E+02 0.  0.
        -12    1    3    3    0    0 -0.12123024095E+02  0.34454490043E+02 -0.46583291939E+01  0.36820912919E+02  0.00000000000E+00 0.  1.
         11    1    4    4    0    0 -0.72120061783E+01 -0.17572250855E+02  0.61729264503E+01  0.19972532500E+02  0.51100000000E-03 0. -1.
        -11    1    4    4    0    0  0.96573193727E+01 -0.20413190353E+01 -0.10599331961E+02  0.14483668015E+02  0.51100000000E-03 0.  1.
        -12    1    4    4    0    0  0.96777109002E+01 -0.14840920152E+02  0.90847347048E+01  0.19910886567E+02  0.00000000000E+00 0.  1.
</event>
<event>
 8    1  0.1280925E-006  0.9118800E+02  0.7816164E-02  0.1184000E+00
        -11   -1    0    0    0    0  0.00000000000E+00  0.00000000000E+00  0.45593999997E+02  0.45594000000E+02  0.51100000000E-03 0.  1.
         11   -1    0    0    0    0 -0.00000000000E+00 -0.00000000000E+00 -0.45593999997E+02  0.45594000000E+02  0.51100000000E-03 0. -1.
         23    2    1    2    0    0 -0.17763568394E-14 -0.35527136788E-14  0.71054273576E-14  0.91188000000E+02  0.91188000000E+02 0.  0.
    9900012    2    3    3    0    0  0.13760838686E+02 -0.10368411827E+02 -0.32541001506E+02  0.54367062692E+02  0.39999951020E+02 0.  0.
        -12    1    3    3    0    0 -0.13760838686E+02  0.10368411827E+02  0.32541001506E+02  0.36820937308E+02  0.00000000000E+00 0.  1.
         11    1    4    4    0    0  0.16203541317E+01  0.26243132206E+01 -0.15400128401E+02  0.15705939081E+02  0.51100000000E-03 0. -1.
        -11    1    4    4    0    0 -0.71365108155E+01  0.43891143908E+01 -0.65186187389E+01  0.10615389879E+02  0.51100000000E-03 0.  1.
         12    1    4    4    0    0  0.19276995370E+02 -0.17381839439E+02 -0.10622254367E+02  0.28045733733E+02  0.00000000000E+00 0. -1.
</event>
<event>
 8    1  0.1280925E-006  0.9118800E+02  0.7816164E-02  0.1184000E+00
        -11   -1    0    0    0    0  0.00000000000E+00  0.00000000000E+00  0.45593999997E+02  0.45594000000E+02  0.51100000000E-03 0.  1.
         11   -1    0    0    0    0 -0.00000000000E+00 -0.00000000000E+00 -0.45593999997E+02  0.45594000000E+02  0.51100000000E-03 0. -1.
         23    2    1    2    0    0 -0.35527136788E-14  0.00000000000E+00 -0.22204460493E-15  0.91188000000E+02  0.91188000000E+02 0.  0.
    9900012    2    3    3    0    0  0.28871643970E+02 -0.22842127672E+02  0.66683932473E+00  0.54367091581E+02  0.40000016877E+02 0.  0.
         12    1    3    3    0    0 -0.28871643970E+02  0.22842127672E+02 -0.66683932473E+00  0.36820908419E+02  0.00000000000E+00 0. -1.
         11    1    4    4    0    0  0.10814438104E+02  0.98957239885E+01 -0.64996686918E+01  0.16035059031E+02  0.51100000000E-03 0. -1.
        -11    1    4    4    0    0  0.13051468890E+02 -0.23026858542E+02  0.29943145092E+01  0.26637247871E+02  0.51100000000E-03 0.  1.
         12    1    4    4    0    0  0.50057369754E+01 -0.97109931183E+01  0.41721935072E+01  0.11694784678E+02  0.00000000000E+00 0. -1.
</event>
<event>
 8    1  0.1280925E-006  0.9118800E+02  0.7816164E-02  0.1184000E+00
        -11   -1    0    0    0    0  0.00000000000E+00  0.00000000000E+00  0.45593999997E+02  0.45594000000E+02  0.51100000000E-03 0.  1.
         11   -1    0    0    0    0 -0.00000000000E+00 -0.00000000000E+00 -0.45593999997E+02  0.45594000000E+02  0.51100000000E-03 0. -1.
         23    2    1    2    0    0  0.00000000000E+00  0.17763568394E-14  0.00000000000E+00  0.91188000000E+02  0.91188000000E+02 0.  0.
    9900012    2    3    3    0    0 -0.86801292947E+01  0.12668764156E+02  0.33465471836E+02  0.54367081556E+02  0.39999994024E+02 0.  0.
         12    1    3    3    0    0  0.86801292947E+01 -0.12668764156E+02 -0.33465471836E+02  0.36820918444E+02  0.00000000000E+00 0. -1.
         11    1    4    4    0    0 -0.68093258408E+01 -0.16677287351E+01 -0.15254615945E+01  0.71746268807E+01  0.51100000000E-03 0. -1.
        -11    1    4    4    0    0  0.65050052024E+01 -0.11455235352E+01 -0.14144611580E+01  0.67548514034E+01  0.51100000000E-03 0.  1.
         12    1    4    4    0    0 -0.83758086563E+01  0.15482016426E+02  0.36405394589E+02  0.40437603272E+02  0.00000000000E+00 0. -1.
</event>
<event>
 8    1  0.1280925E-006  0.9118800E+02  0.7816164E-02  0.1184000E+00
        -11   -1    0    0    0    0  0.00000000000E+00  0.00000000000E+00  0.45593999997E+02  0.45594000000E+02  0.51100000000E-03 0. -1.
         11   -1    0    0    0    0 -0.00000000000E+00 -0.00000000000E+00 -0.45593999997E+02  0.45594000000E+02  0.51100000000E-03 0.  1.
         23    2    1    2    0    0  0.00000000000E+00  0.00000000000E+00  0.17763568394E-14  0.91188000000E+02  0.91188000000E+02 0.  0.
    9900012    2    3    3    0    0  0.62780956391E+01  0.33384299234E+02 -0.14207403066E+02  0.54367133334E+02  0.40000112061E+02 0.  0.
        -12    1    3    3    0    0 -0.62780956391E+01 -0.33384299234E+02  0.14207403066E+02  0.36820866666E+02  0.00000000000E+00 0.  1.
         11    1    4    4    0    0  0.66856462181E+01 -0.39976648955E+01  0.32245230718E+01  0.84307021814E+01  0.51100000000E-03 0. -1.
        -11    1    4    4    0    0  0.28524367700E+01  0.13713832809E+00 -0.63161757332E+01  0.69317586947E+01  0.51100000000E-03 0.  1.
         12    1    4    4    0    0 -0.32599873489E+01  0.37244825801E+02 -0.11115750405E+02  0.39004672458E+02  0.00000000000E+00 0. -1.
</event>
<event>
 8    1  0.1280925E-006  0.9118800E+02  0.7816164E-02  0.1184000E+00
        -11   -1    0    0    0    0  0.00000000000E+00  0.00000000000E+00  0.45593999997E+02  0.45594000000E+02  0.51100000000E-03 0. -1.
         11   -1    0    0    0    0 -0.00000000000E+00 -0.00000000000E+00 -0.45593999997E+02  0.45594000000E+02  0.51100000000E-03 0.  1.
         23    2    1    2    0    0  0.35527136788E-14  0.88817841970E-15  0.00000000000E+00  0.91188000000E+02  0.91188000000E+02 0.  0.
    9900012    2    3    3    0    0 -0.21501780206E+02 -0.78531836304E+01  0.28840610619E+02  0.54367083851E+02  0.39999999255E+02 0.  0.
        -12    1    3    3    0    0  0.21501780206E+02  0.78531836304E+01 -0.28840610619E+02  0.36820916149E+02  0.00000000000E+00 0.  1.
         11    1    4    4    0    0 -0.43803108005E+01  0.19691799802E+01  0.20419278388E+02  0.20976456389E+02  0.51100000000E-03 0. -1.
        -11    1    4    4    0    0 -0.10228048452E+02 -0.17180714111E+02 -0.39240131070E+00  0.19998597239E+02  0.51100000000E-03 0.  1.
         12    1    4    4    0    0 -0.68934209540E+01  0.73583505001E+01  0.88137335420E+01  0.13392030222E+02  0.00000000000E+00 0. -1.
</event>
<event>
 8    1  0.1280925E-006  0.9118800E+02  0.7816164E-02  0.1184000E+00
        -11   -1    0    0    0    0  0.00000000000E+00  0.00000000000E+00  0.45593999997E+02  0.45594000000E+02  0.51100000000E-03 0.  1.
         11   -1    0    0    0    0 -0.00000000000E+00 -0.00000000000E+00 -0.45593999997E+02  0.45594000000E+02  0.51100000000E-03 0. -1.
         23    2    1    2    0    0  0.00000000000E+00 -0.35527136788E-14  0.35527136788E-14  0.91188000000E+02  0.91188000000E+02 0.  0.
    9900012    2    3    3    0    0 -0.46462772284E+01 -0.27960839029E+02  0.23502979843E+02  0.54366994136E+02  0.39999794732E+02 0.  0.
         12    1    3    3    0    0  0.46462772284E+01  0.27960839029E+02 -0.23502979843E+02  0.36821005864E+02  0.00000000000E+00 0. -1.
         11    1    4    4    0    0  0.23312650430E+01 -0.11303061881E+02  0.22051301486E+01  0.11749749096E+02  0.51100000000E-03 0. -1.
        -11    1    4    4    0    0 -0.55340132343E+00  0.95352731119E+01  0.84124263666E+01  0.12727788652E+02  0.51100000000E-03 0.  1.
        -12    1    4    4    0    0 -0.64241409479E+01 -0.26193050260E+02  0.12885423328E+02  0.29889456388E+02  0.00000000000E+00 0.  1.
</event>
<event>
 8    1  0.1280925E-006  0.9118800E+02  0.7816164E-02  0.1184000E+00
        -11   -1    0    0    0    0  0.00000000000E+00  0.00000000000E+00  0.45593999997E+02  0.45594000000E+02  0.51100000000E-03 0.  1.
         11   -1    0    0    0    0 -0.00000000000E+00 -0.00000000000E+00 -0.45593999997E+02  0.45594000000E+02  0.51100000000E-03 0. -1.
         23    2    1    2    0    0 -0.71054273576E-14 -0.17763568394E-14  0.00000000000E+00  0.91188000000E+02  0.91188000000E+02 0.  0.
    9900012    2    3    3    0    0 -0.24008168572E+02 -0.15817733335E+02 -0.23003997628E+02  0.54367126125E+02  0.40000095628E+02 0.  0.
        -12    1    3    3    0    0  0.24008168572E+02  0.15817733335E+02  0.23003997628E+02  0.36820873875E+02  0.00000000000E+00 0.  1.
         11    1    4    4    0    0 -0.32385772113E+02 -0.12253068739E+02 -0.22638349400E+02  0.41369926187E+02  0.51100000000E-03 0. -1.
        -11    1    4    4    0    0  0.46693802292E+00 -0.29173524158E+01 -0.33959719555E+01  0.45012889286E+01  0.51100000000E-03 0.  1.
        -12    1    4    4    0    0  0.79106655181E+01 -0.64731217942E+00  0.30303237271E+01  0.84959110099E+01  0.00000000000E+00 0.  1.
</event>
<event>
 8    1  0.1280925E-006  0.9118800E+02  0.7816164E-02  0.1184000E+00
        -11   -1    0    0    0    0  0.00000000000E+00  0.00000000000E+00  0.45593999997E+02  0.45594000000E+02  0.51100000000E-03 0.  1.
         11   -1    0    0    0    0 -0.00000000000E+00 -0.00000000000E+00 -0.45593999997E+02  0.45594000000E+02  0.51100000000E-03 0. -1.
         23    2    1    2    0    0  0.00000000000E+00  0.00000000000E+00  0.71054273576E-14  0.91188000000E+02  0.91188000000E+02 0.  0.
    9900012    2    3    3    0    0  0.32745858378E+01 -0.18701732194E+02  0.31548390660E+02  0.54367100327E+02  0.40000036817E+02 0.  0.
         12    1    3    3    0    0 -0.32745858378E+01  0.18701732194E+02 -0.31548390660E+02  0.36820899673E+02  0.00000000000E+00 0. -1.
         11    1    4    4    0    0 -0.88127536078E+01 -0.24157189148E+01  0.99087798571E+01  0.13479029733E+02  0.51100000000E-03 0. -1.
        -11    1    4    4    0    0 -0.41239631781E+01 -0.11575552729E+02 -0.13540329898E+01  0.12362600814E+02  0.51100000000E-03 0.  1.
        -12    1    4    4    0    0  0.16211302624E+02 -0.47104605502E+01  0.22993643792E+02  0.28525469781E+02  0.00000000000E+00 0.  1.
</event>
<event>
 8    1  0.1280925E-006  0.9118800E+02  0.7816164E-02  0.1184000E+00
        -11   -1    0    0    0    0  0.00000000000E+00  0.00000000000E+00  0.45593999997E+02  0.45594000000E+02  0.51100000000E-03 0. -1.
         11   -1    0    0    0    0 -0.00000000000E+00 -0.00000000000E+00 -0.45593999997E+02  0.45594000000E+02  0.51100000000E-03 0.  1.
         23    2    1    2    0    0  0.00000000000E+00  0.00000000000E+00  0.00000000000E+00  0.91188000000E+02  0.91188000000E+02 0.  0.
    9900012    2    3    3    0    0 -0.35548548775E+02  0.92756387766E+01 -0.24598785691E+01  0.54366976151E+02  0.39999753731E+02 0.  0.
        -12    1    3    3    0    0  0.35548548775E+02 -0.92756387766E+01  0.24598785691E+01  0.36821023849E+02  0.00000000000E+00 0.  1.
         11    1    4    4    0    0 -0.77878189188E+01  0.53304676227E+01 -0.28545199060E+01  0.98596294425E+01  0.51100000000E-03 0. -1.
        -11    1    4    4    0    0 -0.35172551832E+02 -0.16548326748E+01  0.51611400896E-01  0.35211497236E+02  0.51100000000E-03 0.  1.
         12    1    4    4    0    0  0.74118219762E+01  0.56000038287E+01  0.34302993605E+00  0.92958494730E+01  0.00000000000E+00 0. -1.
</event>
<event>
 8    1  0.1280925E-006  0.9118800E+02  0.7816164E-02  0.1184000E+00
        -11   -1    0    0    0    0  0.00000000000E+00  0.00000000000E+00  0.45593999997E+02  0.45594000000E+02  0.51100000000E-03 0. -1.
         11   -1    0    0    0    0 -0.00000000000E+00 -0.00000000000E+00 -0.45593999997E+02  0.45594000000E+02  0.51100000000E-03 0.  1.
         23    2    1    2    0    0  0.35527136788E-14  0.00000000000E+00  0.00000000000E+00  0.91188000000E+02  0.91188000000E+02 0.  0.
    9900012    2    3    3    0    0 -0.26302354622E+02 -0.22473442349E+02  0.12605940207E+02  0.54367092920E+02  0.40000019930E+02 0.  0.
         12    1    3    3    0    0  0.26302354622E+02  0.22473442349E+02 -0.12605940207E+02  0.36820907080E+02  0.00000000000E+00 0. -1.
         11    1    4    4    0    0 -0.66600523561E+01  0.82879387129E+01 -0.36565407813E+01  0.11243509961E+02  0.51100000000E-03 0. -1.
        -11    1    4    4    0    0 -0.70760662161E+01 -0.34800160595E+01 -0.17812478329E+01  0.80841863519E+01  0.51100000000E-03 0.  1.
        -12    1    4    4    0    0 -0.12566236050E+02 -0.27281365002E+02  0.18043728822E+02  0.35039396607E+02  0.00000000000E+00 0.  1.
</event>
<event>
 8    1  0.1280925E-006  0.9118800E+02  0.7816164E-02  0.1184000E+00
        -11   -1    0    0    0    0  0.00000000000E+00  0.00000000000E+00  0.45593999997E+02  0.45594000000E+02  0.51100000000E-03 0. -1.
         11   -1    0    0    0    0 -0.00000000000E+00 -0.00000000000E+00 -0.45593999997E+02  0.45594000000E+02  0.51100000000E-03 0.  1.
         23    2    1    2    0    0  0.35527136788E-14  0.00000000000E+00  0.00000000000E+00  0.91188000000E+02  0.91188000000E+02 0.  0.
    9900012    2    3    3    0    0  0.22857792452E+02  0.21966847231E+02  0.18728584946E+02  0.54367069171E+02  0.39999965789E+02 0.  0.
        -12    1    3    3    0    0 -0.22857792452E+02 -0.21966847231E+02 -0.18728584946E+02  0.36820930829E+02  0.00000000000E+00 0.  1.
         11    1    4    4    0    0  0.86149515190E+01  0.54141754101E+01  0.12834110085E+02  0.16378188758E+02  0.51100000000E-03 0. -1.
        -11    1    4    4    0    0  0.21254870382E+02  0.99112702583E+01  0.12218932923E+02  0.26444377760E+02  0.51100000000E-03 0.  1.
        -12    1    4    4    0    0 -0.70120294490E+01  0.66414015624E+01 -0.63244580624E+01  0.11544502652E+02  0.00000000000E+00 0.  1.
</event>
<event>
 8    1  0.1280925E-006  0.9118800E+02  0.7816164E-02  0.1184000E+00
        -11   -1    0    0    0    0  0.00000000000E+00  0.00000000000E+00  0.45593999997E+02  0.45594000000E+02  0.51100000000E-03 0.  1.
         11   -1    0    0    0    0 -0.00000000000E+00 -0.00000000000E+00 -0.45593999997E+02  0.45594000000E+02  0.51100000000E-03 0. -1.
         23    2    1    2    0    0 -0.17763568394E-14  0.00000000000E+00  0.88817841970E-15  0.91188000000E+02  0.91188000000E+02 0.  0.
    9900012    2    3    3    0    0  0.10629767728E+02 -0.34933825306E+02  0.47342757540E+01  0.54367116260E+02  0.40000073138E+02 0.  0.
         12    1    3    3    0    0 -0.10629767728E+02  0.34933825306E+02 -0.47342757540E+01  0.36820883740E+02  0.00000000000E+00 0. -1.
         11    1    4    4    0    0 -0.86893235386E+01 -0.23301119093E+02  0.11135119610E+02  0.27247704188E+02  0.51100000000E-03 0.  1.
        -11    1    4    4    0    0  0.20252098674E+01  0.30540028231E+01 -0.87939375296E+00  0.37685198533E+01  0.51100000000E-03 0. -1.
         12    1    4    4    0    0  0.17293881399E+02 -0.14686709036E+02 -0.55214501029E+01  0.23350892219E+02  0.00000000000E+00 0. -1.
</event>
<event>
 8    1  0.1280925E-006  0.9118800E+02  0.7816164E-02  0.1184000E+00
        -11   -1    0    0    0    0  0.00000000000E+00  0.00000000000E+00  0.45593999997E+02  0.45594000000E+02  0.51100000000E-03 0. -1.
         11   -1    0    0    0    0 -0.00000000000E+00 -0.00000000000E+00 -0.45593999997E+02  0.45594000000E+02  0.51100000000E-03 0.  1.
         23    2    1    2    0    0  0.17763568394E-14  0.35527136788E-14  0.17763568394E-14  0.91188000000E+02  0.91188000000E+02 0.  0.
    9900012    2    3    3    0    0  0.11863429840E+02 -0.31856591264E+02 -0.14149034070E+02  0.54367101863E+02  0.40000040316E+02 0.  0.
        -12    1    3    3    0    0 -0.11863429840E+02  0.31856591264E+02  0.14149034070E+02  0.36820898137E+02  0.00000000000E+00 0.  1.
         11    1    4    4    0    0  0.14904775947E+02 -0.10589395487E+02  0.87980927837E+01  0.20290245925E+02  0.51100000000E-03 0. -1.
        -11    1    4    4    0    0 -0.87538518676E+00 -0.10800054125E+02 -0.20383995237E+02  0.23084945969E+02  0.51100000000E-03 0.  1.
         12    1    4    4    0    0 -0.21659609202E+01 -0.10467141652E+02 -0.25631316170E+01  0.10991909969E+02  0.00000000000E+00 0. -1.
</event>
<event>
 8    1  0.1280925E-006  0.9118800E+02  0.7816164E-02  0.1184000E+00
        -11   -1    0    0    0    0  0.00000000000E+00  0.00000000000E+00  0.45593999997E+02  0.45594000000E+02  0.51100000000E-03 0. -1.
         11   -1    0    0    0    0 -0.00000000000E+00 -0.00000000000E+00 -0.45593999997E+02  0.45594000000E+02  0.51100000000E-03 0.  1.
         23    2    1    2    0    0  0.00000000000E+00  0.41980308119E-15 -0.71054273576E-14  0.91188000000E+02  0.91188000000E+02 0.  0.
    9900012    2    3    3    0    0 -0.10068306064E+02 -0.91464093473E-02 -0.35417610526E+02  0.54367109109E+02  0.40000056836E+02 0.  0.
         12    1    3    3    0    0  0.10068306064E+02  0.91464093473E-02  0.35417610526E+02  0.36820890891E+02  0.00000000000E+00 0. -1.
         11    1    4    4    0    0  0.76007607823E+01 -0.71900489198E+01 -0.83778254906E+01  0.13403593852E+02  0.51100000000E-03 0. -1.
        -11    1    4    4    0    0 -0.12473217668E+01  0.11626345763E+02 -0.18605370080E+02  0.21974701897E+02  0.51100000000E-03 0.  1.
        -12    1    4    4    0    0 -0.16421745080E+02 -0.44454432526E+01 -0.84344149555E+01  0.18988813360E+02  0.00000000000E+00 0.  1.
</event>
<event>
 8    1  0.1280925E-006  0.9118800E+02  0.7816164E-02  0.1184000E+00
        -11   -1    0    0    0    0  0.00000000000E+00  0.00000000000E+00  0.45593999997E+02  0.45594000000E+02  0.51100000000E-03 0.  1.
         11   -1    0    0    0    0 -0.00000000000E+00 -0.00000000000E+00 -0.45593999997E+02  0.45594000000E+02  0.51100000000E-03 0. -1.
         23    2    1    2    0    0  0.17763568394E-14  0.00000000000E+00  0.00000000000E+00  0.91188000000E+02  0.91188000000E+02 0.  0.
    9900012    2    3    3    0    0 -0.11255900140E+02 -0.34633321210E+02  0.54427117838E+01  0.54367009553E+02  0.39999829877E+02 0.  0.
         12    1    3    3    0    0  0.11255900140E+02  0.34633321210E+02 -0.54427117838E+01  0.36820990447E+02  0.00000000000E+00 0. -1.
         11    1    4    4    0    0 -0.30257571151E+00 -0.11264990652E+02 -0.56610170687E-01  0.11269195686E+02  0.51100000000E-03 0. -1.
        -11    1    4    4    0    0 -0.81323237868E+01  0.51886100466E+01 -0.68768062274E+01  0.11846806681E+02  0.51100000000E-03 0.  1.
         12    1    4    4    0    0 -0.28210006415E+01 -0.28556940605E+02  0.12376128182E+02  0.31251007185E+02  0.00000000000E+00 0. -1.
</event>
<event>
 8    1  0.1280925E-006  0.9118800E+02  0.7816164E-02  0.1184000E+00
        -11   -1    0    0    0    0  0.00000000000E+00  0.00000000000E+00  0.45593999997E+02  0.45594000000E+02  0.51100000000E-03 0. -1.
         11   -1    0    0    0    0 -0.00000000000E+00 -0.00000000000E+00 -0.45593999997E+02  0.45594000000E+02  0.51100000000E-03 0.  1.
         23    2    1    2    0    0 -0.35527136788E-14 -0.35527136788E-14 -0.88817841970E-15  0.91188000000E+02  0.91188000000E+02 0.  0.
    9900012    2    3    3    0    0  0.30215822467E+02  0.20671597835E+02  0.39331389489E+01  0.54367075699E+02  0.39999980670E+02 0.  0.
         12    1    3    3    0    0 -0.30215822467E+02 -0.20671597835E+02 -0.39331389489E+01  0.36820924301E+02  0.00000000000E+00 0. -1.
         11    1    4    4    0    0 -0.27451360522E+01 -0.11542400061E+01  0.37974252566E+00  0.30020404034E+01  0.51100000000E-03 0. -1.
        -11    1    4    4    0    0  0.12020480356E+02 -0.99105694834E+00 -0.11734386829E+02  0.16827655106E+02  0.51100000000E-03 0.  1.
         12    1    4    4    0    0  0.20940478164E+02  0.22816894789E+02  0.15287783252E+02  0.34537380189E+02  0.00000000000E+00 0. -1.
</event>
<event>
 8    1  0.1280925E-006  0.9118800E+02  0.7816164E-02  0.1184000E+00
        -11   -1    0    0    0    0  0.00000000000E+00  0.00000000000E+00  0.45593999997E+02  0.45594000000E+02  0.51100000000E-03 0.  1.
         11   -1    0    0    0    0 -0.00000000000E+00 -0.00000000000E+00 -0.45593999997E+02  0.45594000000E+02  0.51100000000E-03 0. -1.
         23    2    1    2    0    0  0.00000000000E+00  0.00000000000E+00  0.35527136788E-14  0.91188000000E+02  0.91188000000E+02 0.  0.
    9900012    2    3    3    0    0  0.11928317044E+02 -0.32131199528E+02  0.13456629071E+02  0.54367087510E+02  0.40000007597E+02 0.  0.
         12    1    3    3    0    0 -0.11928317044E+02  0.32131199528E+02 -0.13456629071E+02  0.36820912490E+02  0.00000000000E+00 0. -1.
         11    1    4    4    0    0  0.15196425003E+02 -0.14416928990E+02 -0.43479861386E+01  0.21393554125E+02  0.51100000000E-03 0. -1.
        -11    1    4    4    0    0  0.86132018224E+01 -0.59917729012E+01  0.37139060985E+01  0.11130215043E+02  0.51100000000E-03 0.  1.
         12    1    4    4    0    0 -0.11881309781E+02 -0.11722497637E+02  0.14090709111E+02  0.21843318343E+02  0.00000000000E+00 0. -1.
</event>
<event>
 8    1  0.1280925E-006  0.9118800E+02  0.7816164E-02  0.1184000E+00
        -11   -1    0    0    0    0  0.00000000000E+00  0.00000000000E+00  0.45593999997E+02  0.45594000000E+02  0.51100000000E-03 0.  1.
         11   -1    0    0    0    0 -0.00000000000E+00 -0.00000000000E+00 -0.45593999997E+02  0.45594000000E+02  0.51100000000E-03 0. -1.
         23    2    1    2    0    0  0.88817841970E-15  0.35527136788E-14 -0.35527136788E-14  0.91188000000E+02  0.91188000000E+02 0.  0.
    9900012    2    3    3    0    0  0.70859003854E+01  0.21038467405E+02 -0.29376012224E+02  0.54367120200E+02  0.40000082121E+02 0.  0.
         12    1    3    3    0    0 -0.70859003854E+01 -0.21038467405E+02  0.29376012224E+02  0.36820879800E+02  0.00000000000E+00 0. -1.
         11    1    4    4    0    0 -0.57230573023E+00  0.17739805519E+02 -0.27672087906E+02  0.32875107347E+02  0.51100000000E-03 0. -1.
        -11    1    4    4    0    0  0.88104142740E+00 -0.78857173539E+01 -0.26876234933E+01  0.83775946718E+01  0.51100000000E-03 0.  1.
         12    1    4    4    0    0  0.67771646882E+01  0.11184379239E+02  0.98369917522E+00  0.13114418182E+02  0.00000000000E+00 0. -1.
</event>
<event>
 8    1  0.1280925E-006  0.9118800E+02  0.7816164E-02  0.1184000E+00
        -11   -1    0    0    0    0  0.00000000000E+00  0.00000000000E+00  0.45593999997E+02  0.45594000000E+02  0.51100000000E-03 0. -1.
         11   -1    0    0    0    0 -0.00000000000E+00 -0.00000000000E+00 -0.45593999997E+02  0.45594000000E+02  0.51100000000E-03 0.  1.
         23    2    1    2    0    0 -0.71054273576E-14 -0.13322676296E-14 -0.88817841970E-15  0.91188000000E+02  0.91188000000E+02 0.  0.
    9900012    2    3    3    0    0 -0.35921843210E+02  0.16699027493E+01 -0.79127140489E+01  0.54367103238E+02  0.40000043451E+02 0.  0.
        -12    1    3    3    0    0  0.35921843210E+02 -0.16699027493E+01  0.79127140489E+01  0.36820896762E+02  0.00000000000E+00 0.  1.
         11    1    4    4    0    0 -0.13382946158E+02  0.67079599312E+01 -0.93838692962E+01  0.17667964725E+02  0.51100000000E-03 0. -1.
        -11    1    4    4    0    0 -0.22364174878E+02 -0.14623677880E+02 -0.11964890728E+01  0.26747707548E+02  0.51100000000E-03 0.  1.
         12    1    4    4    0    0 -0.17472217377E+00  0.95856206986E+01  0.26676443201E+01  0.99514309641E+01  0.00000000000E+00 0. -1.
</event>
<event>
 8    1  0.1280925E-006  0.9118800E+02  0.7816164E-02  0.1184000E+00
        -11   -1    0    0    0    0  0.00000000000E+00  0.00000000000E+00  0.45593999997E+02  0.45594000000E+02  0.51100000000E-03 0. -1.
         11   -1    0    0    0    0 -0.00000000000E+00 -0.00000000000E+00 -0.45593999997E+02  0.45594000000E+02  0.51100000000E-03 0.  1.
         23    2    1    2    0    0  0.17763568394E-14 -0.71054273576E-14  0.35527136788E-14  0.91188000000E+02  0.91188000000E+02 0.  0.
    9900012    2    3    3    0    0 -0.83498737210E+01  0.32075551769E+02 -0.16038075844E+02  0.54367064526E+02  0.39999955199E+02 0.  0.
         12    1    3    3    0    0  0.83498737210E+01 -0.32075551769E+02  0.16038075844E+02  0.36820935474E+02  0.00000000000E+00 0. -1.
         11    1    4    4    0    0 -0.18497857875E+02  0.80475970958E+01  0.19315041260E+01  0.20264877829E+02  0.51100000000E-03 0. -1.
        -11    1    4    4    0    0 -0.10464170872E+01  0.26752015153E+01 -0.70939447094E+01  0.76534791872E+01  0.51100000000E-03 0.  1.
         12    1    4    4    0    0  0.11194401242E+02  0.21352753158E+02 -0.10875635261E+02  0.26448707509E+02  0.00000000000E+00 0. -1.
</event>
<event>
 8    1  0.1280925E-006  0.9118800E+02  0.7816164E-02  0.1184000E+00
        -11   -1    0    0    0    0  0.00000000000E+00  0.00000000000E+00  0.45593999997E+02  0.45594000000E+02  0.51100000000E-03 0. -1.
         11   -1    0    0    0    0 -0.00000000000E+00 -0.00000000000E+00 -0.45593999997E+02  0.45594000000E+02  0.51100000000E-03 0.  1.
         23    2    1    2    0    0  0.17763568394E-14  0.71054273576E-14  0.35527136788E-14  0.91188000000E+02  0.91188000000E+02 0.  0.
    9900012    2    3    3    0    0 -0.10008416667E+02 -0.26285811524E+02 -0.23762734106E+02  0.54367084424E+02  0.40000000561E+02 0.  0.
         12    1    3    3    0    0  0.10008416667E+02  0.26285811524E+02  0.23762734106E+02  0.36820915576E+02  0.00000000000E+00 0. -1.
         11    1    4    4    0    0  0.38462877005E+01 -0.93894049090E+01 -0.37524438817E+01  0.10818303424E+02  0.51100000000E-03 0. -1.
        -11    1    4    4    0    0 -0.81925011768E+01 -0.26368894087E+02 -0.13499092305E+02  0.30735340314E+02  0.51100000000E-03 0.  1.
         12    1    4    4    0    0 -0.56622031908E+01  0.94724874718E+01 -0.65111979195E+01  0.12813440686E+02  0.00000000000E+00 0. -1.
</event>
<event>
 8    1  0.1280925E-006  0.9118800E+02  0.7816164E-02  0.1184000E+00
        -11   -1    0    0    0    0  0.00000000000E+00  0.00000000000E+00  0.45593999997E+02  0.45594000000E+02  0.51100000000E-03 0. -1.
         11   -1    0    0    0    0 -0.00000000000E+00 -0.00000000000E+00 -0.45593999997E+02  0.45594000000E+02  0.51100000000E-03 0.  1.
         23    2    1    2    0    0  0.35527136788E-14  0.00000000000E+00  0.00000000000E+00  0.91188000000E+02  0.91188000000E+02 0.  0.
    9900012    2    3    3    0    0 -0.22657372295E+02  0.28681576885E+02 -0.44487065354E+01  0.54367077120E+02  0.39999983911E+02 0.  0.
         12    1    3    3    0    0  0.22657372295E+02 -0.28681576885E+02  0.44487065354E+01  0.36820922880E+02  0.00000000000E+00 0. -1.
         11    1    4    4    0    0 -0.73302292297E+01  0.36587930203E+01  0.75542848415E+01  0.11143888309E+02  0.51100000000E-03 0. -1.
        -11    1    4    4    0    0 -0.22506985260E+02  0.24885950559E+02 -0.12977447799E+02  0.35976229268E+02  0.51100000000E-03 0.  1.
        -12    1    4    4    0    0  0.71798421947E+01  0.13683330471E+00  0.97445642213E+00  0.72469595426E+01  0.00000000000E+00 0.  1.
</event>
<event>
 8    1  0.1280925E-006  0.9118800E+02  0.7816164E-02  0.1184000E+00
        -11   -1    0    0    0    0  0.00000000000E+00  0.00000000000E+00  0.45593999997E+02  0.45594000000E+02  0.51100000000E-03 0.  1.
         11   -1    0    0    0    0 -0.00000000000E+00 -0.00000000000E+00 -0.45593999997E+02  0.45594000000E+02  0.51100000000E-03 0. -1.
         23    2    1    2    0    0  0.00000000000E+00 -0.44408920985E-15  0.00000000000E+00  0.91188000000E+02  0.91188000000E+02 0.  0.
    9900012    2    3    3    0    0 -0.33447143827E+02 -0.18218241660E+01  0.15288868025E+02  0.54367082589E+02  0.39999996379E+02 0.  0.
         12    1    3    3    0    0  0.33447143827E+02  0.18218241660E+01 -0.15288868025E+02  0.36820917411E+02  0.00000000000E+00 0. -1.
         11    1    4    4    0    0  0.29674563914E+01 -0.22813558626E+00 -0.14455219973E+01  0.33086821223E+01  0.51100000000E-03 0. -1.
        -11    1    4    4    0    0 -0.38132666074E+02  0.30176151448E+01  0.53092730009E+01  0.38618578471E+02  0.51100000000E-03 0.  1.
        -12    1    4    4    0    0  0.17180658557E+01 -0.46113037245E+01  0.11425117022E+02  0.12439821996E+02  0.00000000000E+00 0.  1.
</event>
<event>
 8    1  0.1280925E-006  0.9118800E+02  0.7816164E-02  0.1184000E+00
        -11   -1    0    0    0    0  0.00000000000E+00  0.00000000000E+00  0.45593999997E+02  0.45594000000E+02  0.51100000000E-03 0. -1.
         11   -1    0    0    0    0 -0.00000000000E+00 -0.00000000000E+00 -0.45593999997E+02  0.45594000000E+02  0.51100000000E-03 0.  1.
         23    2    1    2    0    0  0.88817841970E-15  0.00000000000E+00  0.00000000000E+00  0.91188000000E+02  0.91188000000E+02 0.  0.
    9900012    2    3    3    0    0 -0.24648069464E+01  0.29810125054E+02 -0.21472317654E+02  0.54367092157E+02  0.40000018190E+02 0.  0.
         12    1    3    3    0    0  0.24648069464E+01 -0.29810125054E+02  0.21472317654E+02  0.36820907843E+02  0.00000000000E+00 0. -1.
         11    1    4    4    0    0 -0.95103808126E+01  0.14350365150E+01 -0.16455657054E+02  0.19060307509E+02  0.51100000000E-03 0. -1.
        -11    1    4    4    0    0  0.11933420117E+02  0.90942276197E+01 -0.11860571366E+01  0.15050522366E+02  0.51100000000E-03 0.  1.
         12    1    4    4    0    0 -0.48878462512E+01  0.19280860919E+02 -0.38306034634E+01  0.20256262282E+02  0.00000000000E+00 0. -1.
</event>
<event>
 8    1  0.1280925E-006  0.9118800E+02  0.7816164E-02  0.1184000E+00
        -11   -1    0    0    0    0  0.00000000000E+00  0.00000000000E+00  0.45593999997E+02  0.45594000000E+02  0.51100000000E-03 0.  1.
         11   -1    0    0    0    0 -0.00000000000E+00 -0.00000000000E+00 -0.45593999997E+02  0.45594000000E+02  0.51100000000E-03 0. -1.
         23    2    1    2    0    0  0.00000000000E+00  0.00000000000E+00 -0.71054273576E-14  0.91188000000E+02  0.91188000000E+02 0.  0.
    9900012    2    3    3    0    0  0.34909066388E+01 -0.92385364173E+01 -0.35471727199E+02  0.54367076400E+02  0.39999982268E+02 0.  0.
        -12    1    3    3    0    0 -0.34909066388E+01  0.92385364173E+01  0.35471727199E+02  0.36820923600E+02  0.00000000000E+00 0.  1.
         11    1    4    4    0    0  0.66449953375E+01  0.20129088719E+01 -0.10261102113E+01  0.70185944169E+01  0.51100000000E-03 0. -1.
        -11    1    4    4    0    0 -0.15035081181E+02 -0.12298171792E+02 -0.15021821996E+02  0.24555118242E+02  0.51100000000E-03 0.  1.
        -12    1    4    4    0    0  0.11880992482E+02  0.10467265025E+01 -0.19423794991E+02  0.22793363740E+02  0.00000000000E+00 0.  1.
</event>
<event>
 8    1  0.1280925E-006  0.9118800E+02  0.7816164E-02  0.1184000E+00
        -11   -1    0    0    0    0  0.00000000000E+00  0.00000000000E+00  0.45593999997E+02  0.45594000000E+02  0.51100000000E-03 0. -1.
         11   -1    0    0    0    0 -0.00000000000E+00 -0.00000000000E+00 -0.45593999997E+02  0.45594000000E+02  0.51100000000E-03 0.  1.
         23    2    1    2    0    0  0.35527136788E-14  0.00000000000E+00 -0.31086244690E-14  0.91188000000E+02  0.91188000000E+02 0.  0.
    9900012    2    3    3    0    0 -0.30398278703E+02 -0.20772694251E+02 -0.46662585443E+00  0.54367110355E+02  0.40000059677E+02 0.  0.
        -12    1    3    3    0    0  0.30398278703E+02  0.20772694251E+02  0.46662585443E+00  0.36820889645E+02  0.00000000000E+00 0.  1.
         11    1    4    4    0    0 -0.16777097048E+02  0.28789810719E+00 -0.10681398309E+02  0.19890855708E+02  0.51100000000E-03 0. -1.
        -11    1    4    4    0    0 -0.16643493100E+02 -0.16483305346E+02  0.62993130655E+00  0.23432926224E+02  0.51100000000E-03 0.  1.
         12    1    4    4    0    0  0.30223114451E+01 -0.45772870118E+01  0.95848411477E+01  0.11043328424E+02  0.00000000000E+00 0. -1.
</event>
<event>
 8    1  0.1280925E-006  0.9118800E+02  0.7816164E-02  0.1184000E+00
        -11   -1    0    0    0    0  0.00000000000E+00  0.00000000000E+00  0.45593999997E+02  0.45594000000E+02  0.51100000000E-03 0. -1.
         11   -1    0    0    0    0 -0.00000000000E+00 -0.00000000000E+00 -0.45593999997E+02  0.45594000000E+02  0.51100000000E-03 0.  1.
         23    2    1    2    0    0  0.17763568394E-14 -0.71054273576E-14  0.00000000000E+00  0.91188000000E+02  0.91188000000E+02 0.  0.
    9900012    2    3    3    0    0 -0.11895550683E+02 -0.21409100145E+02 -0.27493900817E+02  0.54367241219E+02  0.40000358006E+02 0.  0.
         12    1    3    3    0    0  0.11895550683E+02  0.21409100145E+02  0.27493900817E+02  0.36820758781E+02  0.00000000000E+00 0. -1.
         11    1    4    4    0    0  0.16918001199E+01  0.27428475460E+01 -0.43340870596E+01  0.54008991111E+01  0.51100000000E-03 0. -1.
        -11    1    4    4    0    0  0.10758426822E+02 -0.46314355556E+01 -0.86023949665E+01  0.14532554573E+02  0.51100000000E-03 0.  1.
        -12    1    4    4    0    0 -0.24345777625E+02 -0.19520512136E+02 -0.14557418791E+02  0.34433787535E+02  0.00000000000E+00 0.  1.
</event>
<event>
 8    1  0.1280925E-006  0.9118800E+02  0.7816164E-02  0.1184000E+00
        -11   -1    0    0    0    0  0.00000000000E+00  0.00000000000E+00  0.45593999997E+02  0.45594000000E+02  0.51100000000E-03 0.  1.
         11   -1    0    0    0    0 -0.00000000000E+00 -0.00000000000E+00 -0.45593999997E+02  0.45594000000E+02  0.51100000000E-03 0. -1.
         23    2    1    2    0    0  0.00000000000E+00  0.35527136788E-14  0.00000000000E+00  0.91188000000E+02  0.91188000000E+02 0.  0.
    9900012    2    3    3    0    0 -0.17988773416E+02 -0.27416125075E+02 -0.16749307576E+02  0.54367093067E+02  0.40000020264E+02 0.  0.
        -12    1    3    3    0    0  0.17988773416E+02  0.27416125075E+02  0.16749307576E+02  0.36820906933E+02  0.00000000000E+00 0.  1.
         11    1    4    4    0    0 -0.10301495593E+02 -0.21396292582E+02 -0.14586168813E+02  0.27868951695E+02  0.51100000000E-03 0. -1.
        -11    1    4    4    0    0  0.40515490923E+01 -0.75831762327E+01  0.73474406467E+01  0.11309486997E+02  0.51100000000E-03 0.  1.
        -12    1    4    4    0    0 -0.11738826915E+02  0.15633437395E+01 -0.95105794098E+01  0.15188654374E+02  0.00000000000E+00 0.  1.
</event>
<event>
 8    1  0.1280925E-006  0.9118800E+02  0.7816164E-02  0.1184000E+00
        -11   -1    0    0    0    0  0.00000000000E+00  0.00000000000E+00  0.45593999997E+02  0.45594000000E+02  0.51100000000E-03 0.  1.
         11   -1    0    0    0    0 -0.00000000000E+00 -0.00000000000E+00 -0.45593999997E+02  0.45594000000E+02  0.51100000000E-03 0. -1.
         23    2    1    2    0    0 -0.71054273576E-14  0.00000000000E+00  0.17763568394E-14  0.91188000000E+02  0.91188000000E+02 0.  0.
    9900012    2    3    3    0    0 -0.33003460827E+02  0.10435247033E+02  0.12556212950E+02  0.54367064503E+02  0.39999955148E+02 0.  0.
         12    1    3    3    0    0  0.33003460827E+02 -0.10435247033E+02 -0.12556212950E+02  0.36820935497E+02  0.00000000000E+00 0. -1.
         11    1    4    4    0    0  0.12648988826E+01  0.76274177408E+01  0.11868666691E+02  0.14164840976E+02  0.51100000000E-03 0.  1.
        -11    1    4    4    0    0 -0.11693839913E-01 -0.50288841878E+01  0.56366372821E+00  0.50603883230E+01  0.51100000000E-03 0. -1.
        -12    1    4    4    0    0 -0.34256665870E+02  0.78367134804E+01  0.12388253040E+00  0.35141835205E+02  0.00000000000E+00 0.  1.
</event>
<event>
 8    1  0.1280925E-006  0.9118800E+02  0.7816164E-02  0.1184000E+00
        -11   -1    0    0    0    0  0.00000000000E+00  0.00000000000E+00  0.45593999997E+02  0.45594000000E+02  0.51100000000E-03 0.  1.
         11   -1    0    0    0    0 -0.00000000000E+00 -0.00000000000E+00 -0.45593999997E+02  0.45594000000E+02  0.51100000000E-03 0. -1.
         23    2    1    2    0    0  0.00000000000E+00 -0.35527136788E-14 -0.17763568394E-14  0.91188000000E+02  0.91188000000E+02 0.  0.
    9900012    2    3    3    0    0  0.20783896939E+02  0.26090806730E+02 -0.15591001588E+02  0.54367083413E+02  0.39999998256E+02 0.  0.
        -12    1    3    3    0    0 -0.20783896939E+02 -0.26090806730E+02  0.15591001588E+02  0.36820916587E+02  0.00000000000E+00 0.  1.
         11    1    4    4    0    0 -0.29487969516E+01  0.15045203535E+02 -0.17892609011E+02  0.23562661359E+02  0.51100000000E-03 0. -1.
        -11    1    4    4    0    0  0.20935917526E+02  0.17661011557E+01  0.20400429665E+01  0.21109086468E+02  0.51100000000E-03 0.  1.
        -12    1    4    4    0    0  0.27967763647E+01  0.92795020400E+01  0.26156445620E+00  0.96953355852E+01  0.00000000000E+00 0.  1.
</event>
<event>
 8    1  0.1280925E-006  0.9118800E+02  0.7816164E-02  0.1184000E+00
        -11   -1    0    0    0    0  0.00000000000E+00  0.00000000000E+00  0.45593999997E+02  0.45594000000E+02  0.51100000000E-03 0.  1.
         11   -1    0    0    0    0 -0.00000000000E+00 -0.00000000000E+00 -0.45593999997E+02  0.45594000000E+02  0.51100000000E-03 0. -1.
         23    2    1    2    0    0  0.35527136788E-14  0.00000000000E+00  0.00000000000E+00  0.91188000000E+02  0.91188000000E+02 0.  0.
    9900012    2    3    3    0    0  0.93579301899E+01 -0.16095738919E+02 -0.31766895697E+02  0.54367091116E+02  0.40000015818E+02 0.  0.
        -12    1    3    3    0    0 -0.93579301899E+01  0.16095738919E+02  0.31766895697E+02  0.36820908884E+02  0.00000000000E+00 0.  1.
         11    1    4    4    0    0 -0.93272775365E+01 -0.17107550805E+02 -0.11614384350E+02  0.22683922167E+02  0.51100000000E-03 0. -1.
        -11    1    4    4    0    0 -0.13208569501E+01  0.37310520984E+01 -0.53180777089E+01  0.66292807772E+01  0.51100000000E-03 0.  1.
        -12    1    4    4    0    0  0.20006064676E+02 -0.27192402118E+01 -0.14834433639E+02  0.25053888172E+02  0.00000000000E+00 0.  1.
</event>
<event>
 8    1  0.1280925E-006  0.9118800E+02  0.7816164E-02  0.1184000E+00
        -11   -1    0    0    0    0  0.00000000000E+00  0.00000000000E+00  0.45593999997E+02  0.45594000000E+02  0.51100000000E-03 0.  1.
         11   -1    0    0    0    0 -0.00000000000E+00 -0.00000000000E+00 -0.45593999997E+02  0.45594000000E+02  0.51100000000E-03 0. -1.
         23    2    1    2    0    0  0.88817841970E-15  0.00000000000E+00 -0.88817841970E-15  0.91188000000E+02  0.91188000000E+02 0.  0.
    9900012    2    3    3    0    0 -0.33792863316E+01 -0.36154151851E+02 -0.61022697330E+01  0.54367082466E+02  0.39999996098E+02 0.  0.
        -12    1    3    3    0    0  0.33792863316E+01  0.36154151851E+02  0.61022697330E+01  0.36820917534E+02  0.00000000000E+00 0.  1.
         11    1    4    4    0    0 -0.63425544299E+01 -0.67493155308E+01 -0.99952439264E+01  0.13626670842E+02  0.51100000000E-03 0. -1.
        -11    1    4    4    0    0  0.97798619767E+01 -0.11187055608E+02 -0.90297220887E+01  0.17387690897E+02  0.51100000000E-03 0.  1.
        -12    1    4    4    0    0 -0.68165938784E+01 -0.18217780712E+02  0.12922696282E+02  0.23352720727E+02  0.00000000000E+00 0.  1.
</event>
<event>
 8    1  0.1280925E-006  0.9118800E+02  0.7816164E-02  0.1184000E+00
        -11   -1    0    0    0    0  0.00000000000E+00  0.00000000000E+00  0.45593999997E+02  0.45594000000E+02  0.51100000000E-03 0.  1.
         11   -1    0    0    0    0 -0.00000000000E+00 -0.00000000000E+00 -0.45593999997E+02  0.45594000000E+02  0.51100000000E-03 0. -1.
         23    2    1    2    0    0  0.00000000000E+00  0.35527136788E-14  0.00000000000E+00  0.91188000000E+02  0.91188000000E+02 0.  0.
    9900012    2    3    3    0    0  0.15805994073E+02 -0.17240952617E+02 -0.28437655158E+02  0.54367080312E+02  0.39999991187E+02 0.  0.
        -12    1    3    3    0    0 -0.15805994073E+02  0.17240952617E+02  0.28437655158E+02  0.36820919688E+02  0.00000000000E+00 0.  1.
         11    1    4    4    0    0  0.22638306338E+02 -0.19676795437E+02 -0.12592019949E+02  0.32530418982E+02  0.51100000000E-03 0. -1.
        -11    1    4    4    0    0  0.19003567310E+01 -0.94298011463E+00 -0.11171812257E+02  0.11371453582E+02  0.51100000000E-03 0.  1.
         12    1    4    4    0    0 -0.87326689955E+01  0.33788229346E+01 -0.46738229520E+01  0.10465207747E+02  0.00000000000E+00 0. -1.
</event>
<event>
 8    1  0.1280925E-006  0.9118800E+02  0.7816164E-02  0.1184000E+00
        -11   -1    0    0    0    0  0.00000000000E+00  0.00000000000E+00  0.45593999997E+02  0.45594000000E+02  0.51100000000E-03 0.  1.
         11   -1    0    0    0    0 -0.00000000000E+00 -0.00000000000E+00 -0.45593999997E+02  0.45594000000E+02  0.51100000000E-03 0. -1.
         23    2    1    2    0    0  0.35527136788E-14  0.35527136788E-14 -0.17763568394E-14  0.91188000000E+02  0.91188000000E+02 0.  0.
    9900012    2    3    3    0    0  0.16361867288E+02  0.30984733354E+02 -0.11314409720E+02  0.54367078373E+02  0.39999986768E+02 0.  0.
        -12    1    3    3    0    0 -0.16361867288E+02 -0.30984733354E+02  0.11314409720E+02  0.36820921627E+02  0.00000000000E+00 0.  1.
         11    1    4    4    0    0  0.14324952980E+01  0.12718087768E+01 -0.47848757073E+01  0.51540834431E+01  0.51100000000E-03 0. -1.
        -11    1    4    4    0    0  0.17496574951E+02  0.37040801926E+02 -0.62851683207E+01  0.41444595347E+02  0.51100000000E-03 0.  1.
        -12    1    4    4    0    0 -0.25672029614E+01 -0.73278773497E+01 -0.24436569183E+00  0.77683995835E+01  0.00000000000E+00 0.  1.
</event>
<event>
 8    1  0.1280925E-006  0.9118800E+02  0.7816164E-02  0.1184000E+00
        -11   -1    0    0    0    0  0.00000000000E+00  0.00000000000E+00  0.45593999997E+02  0.45594000000E+02  0.51100000000E-03 0.  1.
         11   -1    0    0    0    0 -0.00000000000E+00 -0.00000000000E+00 -0.45593999997E+02  0.45594000000E+02  0.51100000000E-03 0. -1.
         23    2    1    2    0    0 -0.88817841970E-15 -0.71054273576E-14 -0.35527136788E-14  0.91188000000E+02  0.91188000000E+02 0.  0.
    9900012    2    3    3    0    0  0.60895152354E+01 -0.30178140523E+02 -0.20198486067E+02  0.54367065729E+02  0.39999957942E+02 0.  0.
        -12    1    3    3    0    0 -0.60895152354E+01  0.30178140523E+02  0.20198486067E+02  0.36820934271E+02  0.00000000000E+00 0.  1.
         11    1    4    4    0    0  0.87832479052E+01 -0.10504279163E+02 -0.16219317369E+02  0.21226200335E+02  0.51100000000E-03 0. -1.
        -11    1    4    4    0    0 -0.23451044334E+01 -0.62111328968E+01 -0.14567875780E+02  0.16009393857E+02  0.51100000000E-03 0.  1.
        -12    1    4    4    0    0 -0.34862823637E+00 -0.13462728463E+02  0.10588707082E+02  0.17131471536E+02  0.00000000000E+00 0.  1.
</event>
<event>
 8    1  0.1280925E-006  0.9118800E+02  0.7816164E-02  0.1184000E+00
        -11   -1    0    0    0    0  0.00000000000E+00  0.00000000000E+00  0.45593999997E+02  0.45594000000E+02  0.51100000000E-03 0. -1.
         11   -1    0    0    0    0 -0.00000000000E+00 -0.00000000000E+00 -0.45593999997E+02  0.45594000000E+02  0.51100000000E-03 0.  1.
         23    2    1    2    0    0  0.00000000000E+00 -0.35527136788E-14  0.00000000000E+00  0.91188000000E+02  0.91188000000E+02 0.  0.
    9900012    2    3    3    0    0  0.15070096850E+02 -0.22112586012E+02  0.25292401769E+02  0.54367083846E+02  0.39999999243E+02 0.  0.
        -12    1    3    3    0    0 -0.15070096850E+02  0.22112586012E+02 -0.25292401769E+02  0.36820916154E+02  0.00000000000E+00 0.  1.
         11    1    4    4    0    0  0.19106775364E+02 -0.43851583750E+01  0.15427475250E+02  0.24946051224E+02  0.51100000000E-03 0. -1.
        -11    1    4    4    0    0 -0.91324359739E+01 -0.19152833931E+02  0.11158519532E+02  0.23973839760E+02  0.51100000000E-03 0.  1.
         12    1    4    4    0    0  0.50957574599E+01  0.14254062947E+01 -0.12935930138E+01  0.54471928624E+01  0.00000000000E+00 0. -1.
</event>
<event>
 8    1  0.1280925E-006  0.9118800E+02  0.7816164E-02  0.1184000E+00
        -11   -1    0    0    0    0  0.00000000000E+00  0.00000000000E+00  0.45593999997E+02  0.45594000000E+02  0.51100000000E-03 0. -1.
         11   -1    0    0    0    0 -0.00000000000E+00 -0.00000000000E+00 -0.45593999997E+02  0.45594000000E+02  0.51100000000E-03 0.  1.
         23    2    1    2    0    0  0.00000000000E+00  0.00000000000E+00  0.00000000000E+00  0.91188000000E+02  0.91188000000E+02 0.  0.
    9900012    2    3    3    0    0 -0.10598214820E+02 -0.94860886453E+01  0.33962803852E+02  0.54367080937E+02  0.39999992612E+02 0.  0.
        -12    1    3    3    0    0  0.10598214820E+02  0.94860886453E+01 -0.33962803852E+02  0.36820919063E+02  0.00000000000E+00 0.  1.
         11    1    4    4    0    0 -0.71021417633E+01 -0.36985059899E+01  0.88050435964E+01  0.11901603135E+02  0.51100000000E-03 0. -1.
        -11    1    4    4    0    0  0.74519648756E+01  0.28122547340E+01  0.27247418230E+02  0.28387714907E+02  0.51100000000E-03 0.  1.
        -12    1    4    4    0    0 -0.10948037932E+02 -0.85998373894E+01 -0.20896579741E+01  0.14077762895E+02  0.00000000000E+00 0.  1.
</event>
<event>
 8    1  0.1280925E-006  0.9118800E+02  0.7816164E-02  0.1184000E+00
        -11   -1    0    0    0    0  0.00000000000E+00  0.00000000000E+00  0.45593999997E+02  0.45594000000E+02  0.51100000000E-03 0.  1.
         11   -1    0    0    0    0 -0.00000000000E+00 -0.00000000000E+00 -0.45593999997E+02  0.45594000000E+02  0.51100000000E-03 0. -1.
         23    2    1    2    0    0  0.00000000000E+00  0.00000000000E+00  0.00000000000E+00  0.91188000000E+02  0.91188000000E+02 0.  0.
    9900012    2    3    3    0    0 -0.32566856769E+02  0.16621329964E+02  0.43482607827E+01  0.54367134429E+02  0.40000114557E+02 0.  0.
         12    1    3    3    0    0  0.32566856769E+02 -0.16621329964E+02 -0.43482607827E+01  0.36820865571E+02  0.00000000000E+00 0. -1.
         11    1    4    4    0    0 -0.19899307900E+02  0.89583839446E+01 -0.71128122094E+01  0.22952716519E+02  0.51100000000E-03 0. -1.
        -11    1    4    4    0    0 -0.64126188790E+01 -0.90003042612E+01  0.19094133177E+01  0.11214856983E+02  0.51100000000E-03 0.  1.
         12    1    4    4    0    0 -0.62549299902E+01  0.16663250280E+02  0.95516596744E+01  0.20199560927E+02  0.00000000000E+00 0. -1.
</event>
<event>
 8    1  0.1280925E-006  0.9118800E+02  0.7816164E-02  0.1184000E+00
        -11   -1    0    0    0    0  0.00000000000E+00  0.00000000000E+00  0.45593999997E+02  0.45594000000E+02  0.51100000000E-03 0.  1.
         11   -1    0    0    0    0 -0.00000000000E+00 -0.00000000000E+00 -0.45593999997E+02  0.45594000000E+02  0.51100000000E-03 0. -1.
         23    2    1    2    0    0  0.88817841970E-15 -0.88817841970E-15  0.00000000000E+00  0.91188000000E+02  0.91188000000E+02 0.  0.
    9900012    2    3    3    0    0 -0.75754018288E+01 -0.43056066330E+01 -0.35775064437E+02  0.54367079359E+02  0.39999989015E+02 0.  0.
        -12    1    3    3    0    0  0.75754018288E+01  0.43056066330E+01  0.35775064437E+02  0.36820920641E+02  0.00000000000E+00 0.  1.
         11    1    4    4    0    0  0.70993604972E+01 -0.77765820827E+01 -0.17677220769E+02  0.20575720710E+02  0.51100000000E-03 0. -1.
        -11    1    4    4    0    0 -0.96876228068E+00 -0.92885785980E+01 -0.32331436829E+01  0.98827835685E+01  0.51100000000E-03 0.  1.
        -12    1    4    4    0    0 -0.13706000045E+02  0.12759554048E+02 -0.14864699986E+02  0.23908575081E+02  0.00000000000E+00 0.  1.
</event>
<event>
 8    1  0.1280925E-006  0.9118800E+02  0.7816164E-02  0.1184000E+00
        -11   -1    0    0    0    0  0.00000000000E+00  0.00000000000E+00  0.45593999997E+02  0.45594000000E+02  0.51100000000E-03 0. -1.
         11   -1    0    0    0    0 -0.00000000000E+00 -0.00000000000E+00 -0.45593999997E+02  0.45594000000E+02  0.51100000000E-03 0.  1.
         23    2    1    2    0    0  0.00000000000E+00  0.00000000000E+00 -0.17763568394E-14  0.91188000000E+02  0.91188000000E+02 0.  0.
    9900012    2    3    3    0    0 -0.18565104319E+02 -0.28767763965E+02  0.13547523841E+02  0.54367044768E+02  0.39999910159E+02 0.  0.
        -12    1    3    3    0    0  0.18565104319E+02  0.28767763965E+02 -0.13547523841E+02  0.36820955232E+02  0.00000000000E+00 0.  1.
         11    1    4    4    0    0 -0.11992611372E+02 -0.28207680989E+01 -0.11918151044E+02  0.17141230549E+02  0.51100000000E-03 0.  1.
        -11    1    4    4    0    0 -0.65615718437E+01 -0.17665269136E+02  0.16926966452E+02  0.25330577416E+02  0.51100000000E-03 0. -1.
        -12    1    4    4    0    0 -0.10921103639E-01 -0.82817267309E+01  0.85387084318E+01  0.11895236803E+02  0.00000000000E+00 0.  1.
</event>
<event>
 8    1  0.1280925E-006  0.9118800E+02  0.7816164E-02  0.1184000E+00
        -11   -1    0    0    0    0  0.00000000000E+00  0.00000000000E+00  0.45593999997E+02  0.45594000000E+02  0.51100000000E-03 0.  1.
         11   -1    0    0    0    0 -0.00000000000E+00 -0.00000000000E+00 -0.45593999997E+02  0.45594000000E+02  0.51100000000E-03 0. -1.
         23    2    1    2    0    0  0.00000000000E+00  0.00000000000E+00  0.00000000000E+00  0.91188000000E+02  0.91188000000E+02 0.  0.
    9900012    2    3    3    0    0 -0.18807750387E+02 -0.28513878702E+02 -0.13747988237E+02  0.54367082931E+02  0.39999997159E+02 0.  0.
         12    1    3    3    0    0  0.18807750387E+02  0.28513878702E+02  0.13747988237E+02  0.36820917069E+02  0.00000000000E+00 0. -1.
         11    1    4    4    0    0  0.32970739091E+01 -0.58456428163E+01 -0.14809809639E+02  0.16259541756E+02  0.51100000000E-03 0. -1.
        -11    1    4    4    0    0 -0.11364342622E+02 -0.23724683297E+02  0.46916467579E+01  0.26721160722E+02  0.51100000000E-03 0.  1.
        -12    1    4    4    0    0 -0.10740481674E+02  0.10564474117E+01 -0.36298253556E+01  0.11386380454E+02  0.00000000000E+00 0.  1.
</event>
<event>
 8    1  0.1280925E-006  0.9118800E+02  0.7816164E-02  0.1184000E+00
        -11   -1    0    0    0    0  0.00000000000E+00  0.00000000000E+00  0.45593999997E+02  0.45594000000E+02  0.51100000000E-03 0.  1.
         11   -1    0    0    0    0 -0.00000000000E+00 -0.00000000000E+00 -0.45593999997E+02  0.45594000000E+02  0.51100000000E-03 0. -1.
         23    2    1    2    0    0  0.00000000000E+00  0.00000000000E+00  0.35527136788E-14  0.91188000000E+02  0.91188000000E+02 0.  0.
    9900012    2    3    3    0    0 -0.95477559716E+01 -0.23995305319E+02 -0.26245853217E+02  0.54367093812E+02  0.40000021963E+02 0.  0.
        -12    1    3    3    0    0  0.95477559716E+01  0.23995305319E+02  0.26245853217E+02  0.36820906188E+02  0.00000000000E+00 0.  1.
         11    1    4    4    0    0  0.10829560071E+02 -0.20941419755E+02 -0.19950746239E+02  0.30884538340E+02  0.51100000000E-03 0. -1.
        -11    1    4    4    0    0 -0.22611122168E+01  0.88440858573E+00  0.20252780158E+01  0.31617334337E+01  0.51100000000E-03 0.  1.
         12    1    4    4    0    0 -0.18116203826E+02 -0.39382941493E+01 -0.83203849939E+01  0.20320822039E+02  0.00000000000E+00 0. -1.
</event>
<event>
 8    1  0.1280925E-006  0.9118800E+02  0.7816164E-02  0.1184000E+00
        -11   -1    0    0    0    0  0.00000000000E+00  0.00000000000E+00  0.45593999997E+02  0.45594000000E+02  0.51100000000E-03 0. -1.
         11   -1    0    0    0    0 -0.00000000000E+00 -0.00000000000E+00 -0.45593999997E+02  0.45594000000E+02  0.51100000000E-03 0.  1.
         23    2    1    2    0    0  0.00000000000E+00  0.00000000000E+00  0.71054273576E-14  0.91188000000E+02  0.91188000000E+02 0.  0.
    9900012    2    3    3    0    0  0.12856802351E+02  0.11336716789E+02  0.32587757721E+02  0.54367075684E+02  0.39999980636E+02 0.  0.
         12    1    3    3    0    0 -0.12856802351E+02 -0.11336716789E+02 -0.32587757721E+02  0.36820924316E+02  0.00000000000E+00 0. -1.
         11    1    4    4    0    0 -0.44043780697E+01 -0.26409612564E+01  0.18186690220E+02  0.18897855010E+02  0.51100000000E-03 0. -1.
        -11    1    4    4    0    0  0.19048157358E+02  0.25427685020E+01  0.34277758679E+01  0.19520441031E+02  0.51100000000E-03 0.  1.
        -12    1    4    4    0    0 -0.17869769370E+01  0.11434909544E+02  0.10973291633E+02  0.15948779643E+02  0.00000000000E+00 0.  1.
</event>
<event>
 8    1  0.1280925E-006  0.9118800E+02  0.7816164E-02  0.1184000E+00
        -11   -1    0    0    0    0  0.00000000000E+00  0.00000000000E+00  0.45593999997E+02  0.45594000000E+02  0.51100000000E-03 0. -1.
         11   -1    0    0    0    0 -0.00000000000E+00 -0.00000000000E+00 -0.45593999997E+02  0.45594000000E+02  0.51100000000E-03 0.  1.
         23    2    1    2    0    0  0.00000000000E+00 -0.17763568394E-14  0.66613381478E-15  0.91188000000E+02  0.91188000000E+02 0.  0.
    9900012    2    3    3    0    0  0.34376848684E+02 -0.13108779771E+02 -0.14735303986E+01  0.54367093923E+02  0.40000022217E+02 0.  0.
        -12    1    3    3    0    0 -0.34376848684E+02  0.13108779771E+02  0.14735303986E+01  0.36820906077E+02  0.00000000000E+00 0.  1.
         11    1    4    4    0    0  0.11324299638E+02  0.27484106066E+01 -0.12060395047E+02  0.16770410016E+02  0.51100000000E-03 0. -1.
        -11    1    4    4    0    0 -0.74873480302E+00 -0.68673865521E+01 -0.42824741593E+01  0.81278033347E+01  0.51100000000E-03 0.  1.
        -12    1    4    4    0    0  0.23801283848E+02 -0.89898038251E+01  0.14869338807E+02  0.29468880573E+02  0.00000000000E+00 0.  1.
</event>
<event>
 8    1  0.1280925E-006  0.9118800E+02  0.7816164E-02  0.1184000E+00
        -11   -1    0    0    0    0  0.00000000000E+00  0.00000000000E+00  0.45593999997E+02  0.45594000000E+02  0.51100000000E-03 0. -1.
         11   -1    0    0    0    0 -0.00000000000E+00 -0.00000000000E+00 -0.45593999997E+02  0.45594000000E+02  0.51100000000E-03 0.  1.
         23    2    1    2    0    0 -0.35527136788E-14  0.00000000000E+00  0.00000000000E+00  0.91188000000E+02  0.91188000000E+02 0.  0.
    9900012    2    3    3    0    0 -0.30287981918E+02 -0.17556800531E+02 -0.11409526250E+02  0.54367076834E+02  0.39999983259E+02 0.  0.
         12    1    3    3    0    0  0.30287981918E+02  0.17556800531E+02  0.11409526250E+02  0.36820923166E+02  0.00000000000E+00 0. -1.
         11    1    4    4    0    0  0.25915290459E+01 -0.70822298738E+01  0.54116953449E+01  0.92822653242E+01  0.51100000000E-03 0. -1.
        -11    1    4    4    0    0 -0.31877674902E+02 -0.10602324778E+01 -0.10036100693E+02  0.33437008949E+02  0.51100000000E-03 0.  1.
        -12    1    4    4    0    0 -0.10018360616E+01 -0.94143381792E+01 -0.67851209024E+01  0.11647802561E+02  0.00000000000E+00 0.  1.
</event>
<event>
 8    1  0.1280925E-006  0.9118800E+02  0.7816164E-02  0.1184000E+00
        -11   -1    0    0    0    0  0.00000000000E+00  0.00000000000E+00  0.45593999997E+02  0.45594000000E+02  0.51100000000E-03 0.  1.
         11   -1    0    0    0    0 -0.00000000000E+00 -0.00000000000E+00 -0.45593999997E+02  0.45594000000E+02  0.51100000000E-03 0. -1.
         23    2    1    2    0    0 -0.35527136788E-14 -0.17763568394E-14  0.00000000000E+00  0.91188000000E+02  0.91188000000E+02 0.  0.
    9900012    2    3    3    0    0 -0.27580023416E+02 -0.84190679534E+01  0.22896344888E+02  0.54367068370E+02  0.39999963963E+02 0.  0.
         12    1    3    3    0    0  0.27580023416E+02  0.84190679534E+01 -0.22896344888E+02  0.36820931630E+02  0.00000000000E+00 0. -1.
         11    1    4    4    0    0  0.68486029987E+01 -0.92566853714E+01  0.14043425220E+02  0.18160599639E+02  0.51100000000E-03 0.  1.
        -11    1    4    4    0    0 -0.21528600531E+02  0.17087670793E+01  0.23207211636E+01  0.21720641628E+02  0.51100000000E-03 0. -1.
        -12    1    4    4    0    0 -0.12900025884E+02 -0.87114966137E+00  0.65321985050E+01  0.14485827102E+02  0.00000000000E+00 0.  1.
</event>
<event>
 8    1  0.1280925E-006  0.9118800E+02  0.7816164E-02  0.1184000E+00
        -11   -1    0    0    0    0  0.00000000000E+00  0.00000000000E+00  0.45593999997E+02  0.45594000000E+02  0.51100000000E-03 0. -1.
         11   -1    0    0    0    0 -0.00000000000E+00 -0.00000000000E+00 -0.45593999997E+02  0.45594000000E+02  0.51100000000E-03 0.  1.
         23    2    1    2    0    0  0.00000000000E+00 -0.35527136788E-14 -0.88817841970E-15  0.91188000000E+02  0.91188000000E+02 0.  0.
    9900012    2    3    3    0    0 -0.18634996199E+02 -0.31162116073E+02 -0.61187238570E+01  0.54367090952E+02  0.40000015443E+02 0.  0.
         12    1    3    3    0    0  0.18634996199E+02  0.31162116073E+02  0.61187238570E+01  0.36820909048E+02  0.00000000000E+00 0. -1.
         11    1    4    4    0    0 -0.25911421946E+01  0.67901852856E+01 -0.60359576279E+01  0.94474027559E+01  0.51100000000E-03 0.  1.
        -11    1    4    4    0    0  0.18551587728E+01 -0.18078423314E+02 -0.11474431845E+00  0.18173721966E+02  0.51100000000E-03 0. -1.
        -12    1    4    4    0    0 -0.17899012778E+02 -0.19873878045E+02  0.31978089402E-01  0.26745966229E+02  0.00000000000E+00 0.  1.
</event>
<event>
 8    1  0.1280925E-006  0.9118800E+02  0.7816164E-02  0.1184000E+00
        -11   -1    0    0    0    0  0.00000000000E+00  0.00000000000E+00  0.45593999997E+02  0.45594000000E+02  0.51100000000E-03 0. -1.
         11   -1    0    0    0    0 -0.00000000000E+00 -0.00000000000E+00 -0.45593999997E+02  0.45594000000E+02  0.51100000000E-03 0.  1.
         23    2    1    2    0    0  0.17763568394E-14 -0.44408920985E-15  0.00000000000E+00  0.91188000000E+02  0.91188000000E+02 0.  0.
    9900012    2    3    3    0    0  0.58489769813E+01  0.26148675180E+01  0.36259221087E+02  0.54367093199E+02  0.40000020565E+02 0.  0.
        -12    1    3    3    0    0 -0.58489769813E+01 -0.26148675180E+01 -0.36259221087E+02  0.36820906801E+02  0.00000000000E+00 0.  1.
         11    1    4    4    0    0  0.12921003148E+02  0.10620065352E+02  0.20603908534E+02  0.26537881558E+02  0.51100000000E-03 0.  1.
        -11    1    4    4    0    0 -0.13853506881E+02 -0.38807974089E+01  0.13189619586E+02  0.19517845847E+02  0.51100000000E-03 0. -1.
        -12    1    4    4    0    0  0.67814807140E+01 -0.41244004250E+01  0.24656929664E+01  0.83113657930E+01  0.00000000000E+00 0.  1.
</event>
<event>
 8    1  0.1280925E-006  0.9118800E+02  0.7816164E-02  0.1184000E+00
        -11   -1    0    0    0    0  0.00000000000E+00  0.00000000000E+00  0.45593999997E+02  0.45594000000E+02  0.51100000000E-03 0. -1.
         11   -1    0    0    0    0 -0.00000000000E+00 -0.00000000000E+00 -0.45593999997E+02  0.45594000000E+02  0.51100000000E-03 0.  1.
         23    2    1    2    0    0 -0.66613381478E-15  0.00000000000E+00  0.00000000000E+00  0.91188000000E+02  0.91188000000E+02 0.  0.
    9900012    2    3    3    0    0 -0.18053703601E+01  0.19569757336E+02 -0.31137519213E+02  0.54367083837E+02  0.39999999224E+02 0.  0.
         12    1    3    3    0    0  0.18053703601E+01 -0.19569757336E+02  0.31137519213E+02  0.36820916163E+02  0.00000000000E+00 0. -1.
         11    1    4    4    0    0  0.17531986294E+01  0.44838540383E+01 -0.18101160465E+02  0.18730474177E+02  0.51100000000E-03 0. -1.
        -11    1    4    4    0    0  0.71671502099E+01 -0.55426506439E+01 -0.74365995622E+01  0.11721434707E+02  0.51100000000E-03 0.  1.
         12    1    4    4    0    0 -0.10725719199E+02  0.20628553941E+02 -0.55997591859E+01  0.23915174952E+02  0.00000000000E+00 0. -1.
</event>
<event>
 8    1  0.1280925E-006  0.9118800E+02  0.7816164E-02  0.1184000E+00
        -11   -1    0    0    0    0  0.00000000000E+00  0.00000000000E+00  0.45593999997E+02  0.45594000000E+02  0.51100000000E-03 0.  1.
         11   -1    0    0    0    0 -0.00000000000E+00 -0.00000000000E+00 -0.45593999997E+02  0.45594000000E+02  0.51100000000E-03 0. -1.
         23    2    1    2    0    0  0.00000000000E+00  0.35527136788E-14  0.35527136788E-14  0.91188000000E+02  0.91188000000E+02 0.  0.
    9900012    2    3    3    0    0  0.14061690789E+02  0.26623823178E+02  0.21194822899E+02  0.54367087108E+02  0.40000006680E+02 0.  0.
         12    1    3    3    0    0 -0.14061690789E+02 -0.26623823178E+02 -0.21194822899E+02  0.36820912892E+02  0.00000000000E+00 0. -1.
         11    1    4    4    0    0  0.49718352542E-01 -0.35464184921E+01 -0.32846193737E+01  0.48340749608E+01  0.51100000000E-03 0. -1.
        -11    1    4    4    0    0  0.98114832043E+01  0.16378336581E+02 -0.21885408801E+01  0.19217305307E+02  0.51100000000E-03 0.  1.
        -12    1    4    4    0    0  0.42004892322E+01  0.13791905090E+02  0.26667983153E+02  0.30315706840E+02  0.00000000000E+00 0.  1.
</event>
<event>
 8    1  0.1280925E-006  0.9118800E+02  0.7816164E-02  0.1184000E+00
        -11   -1    0    0    0    0  0.00000000000E+00  0.00000000000E+00  0.45593999997E+02  0.45594000000E+02  0.51100000000E-03 0.  1.
         11   -1    0    0    0    0 -0.00000000000E+00 -0.00000000000E+00 -0.45593999997E+02  0.45594000000E+02  0.51100000000E-03 0. -1.
         23    2    1    2    0    0  0.00000000000E+00  0.00000000000E+00  0.35527136788E-14  0.91188000000E+02  0.91188000000E+02 0.  0.
    9900012    2    3    3    0    0 -0.44116027283E+01 -0.22024788891E+02 -0.29175590128E+02  0.54367236514E+02  0.40000347280E+02 0.  0.
        -12    1    3    3    0    0  0.44116027283E+01  0.22024788891E+02  0.29175590128E+02  0.36820763486E+02  0.00000000000E+00 0.  1.
         11    1    4    4    0    0  0.38407890526E+01 -0.28344280291E+01 -0.79491378093E+01  0.92722400191E+01  0.51100000000E-03 0. -1.
        -11    1    4    4    0    0 -0.25264739611E+01 -0.28469990827E+02 -0.12813188737E+02  0.31322535885E+02  0.51100000000E-03 0.  1.
        -12    1    4    4    0    0 -0.57259178198E+01  0.92796299650E+01 -0.84132635818E+01  0.13772460610E+02  0.00000000000E+00 0.  1.
</event>
<event>
 8    1  0.1280925E-006  0.9118800E+02  0.7816164E-02  0.1184000E+00
        -11   -1    0    0    0    0  0.00000000000E+00  0.00000000000E+00  0.45593999997E+02  0.45594000000E+02  0.51100000000E-03 0. -1.
         11   -1    0    0    0    0 -0.00000000000E+00 -0.00000000000E+00 -0.45593999997E+02  0.45594000000E+02  0.51100000000E-03 0.  1.
         23    2    1    2    0    0 -0.35527136788E-14  0.17763568394E-14  0.00000000000E+00  0.91188000000E+02  0.91188000000E+02 0.  0.
    9900012    2    3    3    0    0  0.27015101296E+02 -0.11314760385E+02  0.22314560971E+02  0.54367093820E+02  0.40000021981E+02 0.  0.
        -12    1    3    3    0    0 -0.27015101296E+02  0.11314760385E+02 -0.22314560971E+02  0.36820906180E+02  0.00000000000E+00 0.  1.
         11    1    4    4    0    0  0.10921464630E+01  0.18630676800E+01  0.86901425337E+01  0.89544616027E+01  0.51100000000E-03 0. -1.
        -11    1    4    4    0    0  0.23001368962E+02 -0.23020091589E+02  0.13258525479E+02  0.35139380885E+02  0.51100000000E-03 0.  1.
        -12    1    4    4    0    0  0.29215858714E+01  0.98422635233E+01  0.36589295805E+00  0.10273251332E+02  0.00000000000E+00 0.  1.
</event>
<event>
 8    1  0.1280925E-006  0.9118800E+02  0.7816164E-02  0.1184000E+00
        -11   -1    0    0    0    0  0.00000000000E+00  0.00000000000E+00  0.45593999997E+02  0.45594000000E+02  0.51100000000E-03 0.  1.
         11   -1    0    0    0    0 -0.00000000000E+00 -0.00000000000E+00 -0.45593999997E+02  0.45594000000E+02  0.51100000000E-03 0. -1.
         23    2    1    2    0    0  0.17763568394E-14  0.17763568394E-14 -0.71054273576E-14  0.91188000000E+02  0.91188000000E+02 0.  0.
    9900012    2    3    3    0    0 -0.10091920337E+02 -0.75594568727E+01  0.34594626913E+02  0.54367075846E+02  0.39999981006E+02 0.  0.
         12    1    3    3    0    0  0.10091920337E+02  0.75594568727E+01 -0.34594626913E+02  0.36820924154E+02  0.00000000000E+00 0. -1.
         11    1    4    4    0    0  0.72338048736E+01  0.85546725675E+00  0.62339959370E+01  0.95876202876E+01  0.51100000000E-03 0. -1.
        -11    1    4    4    0    0 -0.11931067541E+02  0.37429478962E+01 -0.10022069700E+01  0.12544498822E+02  0.51100000000E-03 0.  1.
         12    1    4    4    0    0 -0.53946576695E+01 -0.12157872026E+02  0.29362837946E+02  0.32234956736E+02  0.00000000000E+00 0. -1.
</event>
<event>
 8    1  0.1280925E-006  0.9118800E+02  0.7816164E-02  0.1184000E+00
        -11   -1    0    0    0    0  0.00000000000E+00  0.00000000000E+00  0.45593999997E+02  0.45594000000E+02  0.51100000000E-03 0.  1.
         11   -1    0    0    0    0 -0.00000000000E+00 -0.00000000000E+00 -0.45593999997E+02  0.45594000000E+02  0.51100000000E-03 0. -1.
         23    2    1    2    0    0  0.00000000000E+00  0.17763568394E-14  0.00000000000E+00  0.91188000000E+02  0.91188000000E+02 0.  0.
    9900012    2    3    3    0    0  0.18102891461E+02  0.14596934805E+02 -0.28548117163E+02  0.54367079608E+02  0.39999989582E+02 0.  0.
        -12    1    3    3    0    0 -0.18102891461E+02 -0.14596934805E+02  0.28548117163E+02  0.36820920392E+02  0.00000000000E+00 0.  1.
         11    1    4    4    0    0  0.39669333172E+00  0.48546195274E+01 -0.19123950882E+02  0.19734492493E+02  0.51100000000E-03 0. -1.
        -11    1    4    4    0    0  0.85269476902E+01  0.17009930254E+02 -0.12196420700E+02  0.22600868176E+02  0.51100000000E-03 0.  1.
        -12    1    4    4    0    0  0.91792504394E+01 -0.72676149762E+01  0.27722544189E+01  0.12031718939E+02  0.00000000000E+00 0.  1.
</event>
<event>
 8    1  0.1280925E-006  0.9118800E+02  0.7816164E-02  0.1184000E+00
        -11   -1    0    0    0    0  0.00000000000E+00  0.00000000000E+00  0.45593999997E+02  0.45594000000E+02  0.51100000000E-03 0. -1.
         11   -1    0    0    0    0 -0.00000000000E+00 -0.00000000000E+00 -0.45593999997E+02  0.45594000000E+02  0.51100000000E-03 0.  1.
         23    2    1    2    0    0  0.00000000000E+00  0.17763568394E-14  0.00000000000E+00  0.91188000000E+02  0.91188000000E+02 0.  0.
    9900012    2    3    3    0    0  0.16140958073E+02  0.12637409989E+02  0.30586701064E+02  0.54367069258E+02  0.39999965987E+02 0.  0.
        -12    1    3    3    0    0 -0.16140958073E+02 -0.12637409989E+02 -0.30586701064E+02  0.36820930742E+02  0.00000000000E+00 0.  1.
         11    1    4    4    0    0  0.66060139537E+01  0.12077807028E+02 -0.34437607944E+01  0.14190571927E+02  0.51100000000E-03 0. -1.
        -11    1    4    4    0    0 -0.17830429506E+01 -0.10740448523E+01  0.26279714907E+02  0.26362022501E+02  0.51100000000E-03 0.  1.
         12    1    4    4    0    0  0.11317987070E+02  0.16336478134E+01  0.77507469516E+01  0.13814474829E+02  0.00000000000E+00 0. -1.
</event>
<event>
 8    1  0.1280925E-006  0.9118800E+02  0.7816164E-02  0.1184000E+00
        -11   -1    0    0    0    0  0.00000000000E+00  0.00000000000E+00  0.45593999997E+02  0.45594000000E+02  0.51100000000E-03 0.  1.
         11   -1    0    0    0    0 -0.00000000000E+00 -0.00000000000E+00 -0.45593999997E+02  0.45594000000E+02  0.51100000000E-03 0. -1.
         23    2    1    2    0    0  0.55511151231E-16  0.71054273576E-14  0.00000000000E+00  0.91188000000E+02  0.91188000000E+02 0.  0.
    9900012    2    3    3    0    0  0.17427346635E+00 -0.36278405384E+02  0.62949756847E+01  0.54367084920E+02  0.40000001693E+02 0.  0.
        -12    1    3    3    0    0 -0.17427346635E+00  0.36278405384E+02 -0.62949756847E+01  0.36820915080E+02  0.00000000000E+00 0.  1.
         11    1    4    4    0    0 -0.57517436718E+01 -0.25894589531E+02  0.14930954326E+01  0.26567680676E+02  0.51100000000E-03 0. -1.
        -11    1    4    4    0    0 -0.34580595964E-01  0.80260281678E+01  0.16425932329E+01  0.81924621914E+01  0.51100000000E-03 0.  1.
        -12    1    4    4    0    0  0.59605977341E+01 -0.18409844020E+02  0.31592870192E+01  0.19606942053E+02  0.00000000000E+00 0.  1.
</event>
<event>
 8    1  0.1280925E-006  0.9118800E+02  0.7816164E-02  0.1184000E+00
        -11   -1    0    0    0    0  0.00000000000E+00  0.00000000000E+00  0.45593999997E+02  0.45594000000E+02  0.51100000000E-03 0.  1.
         11   -1    0    0    0    0 -0.00000000000E+00 -0.00000000000E+00 -0.45593999997E+02  0.45594000000E+02  0.51100000000E-03 0. -1.
         23    2    1    2    0    0  0.00000000000E+00  0.44408920985E-15 -0.35527136788E-14  0.91188000000E+02  0.91188000000E+02 0.  0.
    9900012    2    3    3    0    0 -0.30626231877E+02  0.37324877498E+01  0.20096817542E+02  0.54367087204E+02  0.40000006898E+02 0.  0.
        -12    1    3    3    0    0  0.30626231877E+02 -0.37324877498E+01 -0.20096817542E+02  0.36820912796E+02  0.00000000000E+00 0.  1.
         11    1    4    4    0    0 -0.69185894446E+01 -0.42888237381E+01 -0.91420771932E+01  0.12240852284E+02  0.51100000000E-03 0. -1.
        -11    1    4    4    0    0 -0.62889979198E+01  0.90667009652E+01  0.46486219409E+01  0.11973564525E+02  0.51100000000E-03 0.  1.
        -12    1    4    4    0    0 -0.17418644513E+02 -0.10453894773E+01  0.24590272795E+02  0.30152670395E+02  0.00000000000E+00 0.  1.
</event>
<event>
 8    1  0.1280925E-006  0.9118800E+02  0.7816164E-02  0.1184000E+00
        -11   -1    0    0    0    0  0.00000000000E+00  0.00000000000E+00  0.45593999997E+02  0.45594000000E+02  0.51100000000E-03 0. -1.
         11   -1    0    0    0    0 -0.00000000000E+00 -0.00000000000E+00 -0.45593999997E+02  0.45594000000E+02  0.51100000000E-03 0.  1.
         23    2    1    2    0    0  0.35527136788E-14  0.88817841970E-15 -0.71054273576E-14  0.91188000000E+02  0.91188000000E+02 0.  0.
    9900012    2    3    3    0    0 -0.16494956046E+02 -0.23264170338E+01  0.32837237121E+02  0.54367082943E+02  0.39999997184E+02 0.  0.
        -12    1    3    3    0    0  0.16494956046E+02  0.23264170338E+01 -0.32837237121E+02  0.36820917057E+02  0.00000000000E+00 0.  1.
         11    1    4    4    0    0 -0.40000767818E+00  0.85927886663E+01 -0.33100038334E+00  0.86084600668E+01  0.51100000000E-03 0.  1.
        -11    1    4    4    0    0 -0.19531994118E+02 -0.14687410014E+02  0.19806519063E+02  0.31456589211E+02  0.51100000000E-03 0. -1.
         12    1    4    4    0    0  0.34370457500E+01  0.37682043138E+01  0.13361718441E+02  0.14302033664E+02  0.00000000000E+00 0. -1.
</event>
<event>
 8    1  0.1280925E-006  0.9118800E+02  0.7816164E-02  0.1184000E+00
        -11   -1    0    0    0    0  0.00000000000E+00  0.00000000000E+00  0.45593999997E+02  0.45594000000E+02  0.51100000000E-03 0.  1.
         11   -1    0    0    0    0 -0.00000000000E+00 -0.00000000000E+00 -0.45593999997E+02  0.45594000000E+02  0.51100000000E-03 0. -1.
         23    2    1    2    0    0  0.00000000000E+00  0.00000000000E+00  0.00000000000E+00  0.91188000000E+02  0.91188000000E+02 0.  0.
    9900012    2    3    3    0    0  0.90139180992E+01  0.85722963927E+01 -0.34656091953E+02  0.54367086182E+02  0.40000004569E+02 0.  0.
        -12    1    3    3    0    0 -0.90139180992E+01 -0.85722963927E+01  0.34656091953E+02  0.36820913818E+02  0.00000000000E+00 0.  1.
         11    1    4    4    0    0  0.19463274024E+02  0.10599635315E+02 -0.17852439101E+02  0.28458406257E+02  0.51100000000E-03 0. -1.
        -11    1    4    4    0    0 -0.34902005376E+01 -0.12601360329E+01  0.30837741600E+01  0.48248425824E+01  0.51100000000E-03 0.  1.
         12    1    4    4    0    0 -0.69591553871E+01 -0.76720288905E+00 -0.19887427011E+02  0.21083837343E+02  0.00000000000E+00 0. -1.
</event>
<event>
 8    1  0.1280925E-006  0.9118800E+02  0.7816164E-02  0.1184000E+00
        -11   -1    0    0    0    0  0.00000000000E+00  0.00000000000E+00  0.45593999997E+02  0.45594000000E+02  0.51100000000E-03 0. -1.
         11   -1    0    0    0    0 -0.00000000000E+00 -0.00000000000E+00 -0.45593999997E+02  0.45594000000E+02  0.51100000000E-03 0.  1.
         23    2    1    2    0    0  0.00000000000E+00 -0.17763568394E-14 -0.22204460493E-14  0.91188000000E+02  0.91188000000E+02 0.  0.
    9900012    2    3    3    0    0  0.35412960330E+02 -0.94968430369E+01 -0.33929060426E+01  0.54367087485E+02  0.40000007540E+02 0.  0.
        -12    1    3    3    0    0 -0.35412960330E+02  0.94968430369E+01  0.33929060426E+01  0.36820912515E+02  0.00000000000E+00 0.  1.
         11    1    4    4    0    0  0.12826057981E+02  0.11176222776E+02  0.58922489183E+01  0.18003730626E+02  0.51100000000E-03 0. -1.
        -11    1    4    4    0    0  0.95175766167E+01 -0.14810929174E+02 -0.12613994799E+02  0.21657810432E+02  0.51100000000E-03 0.  1.
         12    1    4    4    0    0  0.13069325732E+02 -0.58621366384E+01  0.33288398382E+01  0.14705546428E+02  0.00000000000E+00 0. -1.
</event>
<event>
 8    1  0.1280925E-006  0.9118800E+02  0.7816164E-02  0.1184000E+00
        -11   -1    0    0    0    0  0.00000000000E+00  0.00000000000E+00  0.45593999997E+02  0.45594000000E+02  0.51100000000E-03 0.  1.
         11   -1    0    0    0    0 -0.00000000000E+00 -0.00000000000E+00 -0.45593999997E+02  0.45594000000E+02  0.51100000000E-03 0. -1.
         23    2    1    2    0    0  0.00000000000E+00 -0.17763568394E-14  0.71054273576E-14  0.91188000000E+02  0.91188000000E+02 0.  0.
    9900012    2    3    3    0    0 -0.16964758314E+02  0.10950191227E+02  0.30790763229E+02  0.54367070995E+02  0.39999969948E+02 0.  0.
         12    1    3    3    0    0  0.16964758314E+02 -0.10950191227E+02 -0.30790763229E+02  0.36820929005E+02  0.00000000000E+00 0. -1.
         11    1    4    4    0    0 -0.12052072898E+02  0.13736524996E+01 -0.31489344156E+01  0.12532165437E+02  0.51100000000E-03 0. -1.
        -11    1    4    4    0    0 -0.44203821980E+01 -0.66104219882E+01  0.81857414381E+01  0.11412441491E+02  0.51100000000E-03 0.  1.
         12    1    4    4    0    0 -0.49230321793E+00  0.16186960715E+02  0.25753956206E+02  0.30422464068E+02  0.00000000000E+00 0. -1.
</event>
<event>
 8    1  0.1280925E-006  0.9118800E+02  0.7816164E-02  0.1184000E+00
        -11   -1    0    0    0    0  0.00000000000E+00  0.00000000000E+00  0.45593999997E+02  0.45594000000E+02  0.51100000000E-03 0. -1.
         11   -1    0    0    0    0 -0.00000000000E+00 -0.00000000000E+00 -0.45593999997E+02  0.45594000000E+02  0.51100000000E-03 0.  1.
         23    2    1    2    0    0 -0.17763568394E-14  0.00000000000E+00 -0.35527136788E-14  0.91188000000E+02  0.91188000000E+02 0.  0.
    9900012    2    3    3    0    0  0.14189915897E+02  0.19959760485E+02  0.27496099577E+02  0.54367065143E+02  0.39999956606E+02 0.  0.
        -12    1    3    3    0    0 -0.14189915897E+02 -0.19959760485E+02 -0.27496099577E+02  0.36820934857E+02  0.00000000000E+00 0.  1.
         11    1    4    4    0    0  0.51117104763E+00 -0.11281862656E+02  0.10144066529E+02  0.15180375715E+02  0.51100000000E-03 0. -1.
        -11    1    4    4    0    0  0.29816216560E+00  0.70774763283E+01  0.11864108594E+01  0.71824190105E+01  0.51100000000E-03 0.  1.
         12    1    4    4    0    0  0.13380582684E+02  0.24164146814E+02  0.16165622189E+02  0.32004270417E+02  0.00000000000E+00 0. -1.
</event>
<event>
 8    1  0.1280925E-006  0.9118800E+02  0.7816164E-02  0.1184000E+00
        -11   -1    0    0    0    0  0.00000000000E+00  0.00000000000E+00  0.45593999997E+02  0.45594000000E+02  0.51100000000E-03 0. -1.
         11   -1    0    0    0    0 -0.00000000000E+00 -0.00000000000E+00 -0.45593999997E+02  0.45594000000E+02  0.51100000000E-03 0.  1.
         23    2    1    2    0    0 -0.35527136788E-14  0.00000000000E+00  0.88817841970E-15  0.91188000000E+02  0.91188000000E+02 0.  0.
    9900012    2    3    3    0    0  0.28476256935E+02  0.22882961370E+02 -0.46100934526E+01  0.54367080787E+02  0.39999992269E+02 0.  0.
         12    1    3    3    0    0 -0.28476256935E+02 -0.22882961370E+02  0.46100934526E+01  0.36820919213E+02  0.00000000000E+00 0. -1.
         11    1    4    4    0    0  0.25190997418E-01  0.67861534162E+01 -0.10009108499E+02  0.12092756757E+02  0.51100000000E-03 0. -1.
        -11    1    4    4    0    0  0.30199330895E+02  0.54148575094E+01  0.66032042994E+01  0.31383476156E+02  0.51100000000E-03 0.  1.
        -12    1    4    4    0    0 -0.17482649572E+01  0.10681950444E+02 -0.12041892528E+01  0.10890847874E+02  0.00000000000E+00 0.  1.
</event>
<event>
 8    1  0.1280925E-006  0.9118800E+02  0.7816164E-02  0.1184000E+00
        -11   -1    0    0    0    0  0.00000000000E+00  0.00000000000E+00  0.45593999997E+02  0.45594000000E+02  0.51100000000E-03 0.  1.
         11   -1    0    0    0    0 -0.00000000000E+00 -0.00000000000E+00 -0.45593999997E+02  0.45594000000E+02  0.51100000000E-03 0. -1.
         23    2    1    2    0    0 -0.88817841970E-15  0.88817841970E-15  0.00000000000E+00  0.91188000000E+02  0.91188000000E+02 0.  0.
    9900012    2    3    3    0    0  0.59081166658E+01 -0.20057628007E+01 -0.36288420931E+02  0.54367103479E+02  0.40000044001E+02 0.  0.
        -12    1    3    3    0    0 -0.59081166658E+01  0.20057628007E+01  0.36288420931E+02  0.36820896521E+02  0.00000000000E+00 0.  1.
         11    1    4    4    0    0 -0.84458447486E+01  0.35779465372E+01 -0.10740172895E+02  0.14123926827E+02  0.51100000000E-03 0. -1.
        -11    1    4    4    0    0 -0.10819601249E+01 -0.80531554481E+01  0.21792628407E+01  0.84126771703E+01  0.51100000000E-03 0.  1.
        -12    1    4    4    0    0  0.15435921539E+02  0.24694461102E+01 -0.27727510876E+02  0.31830499481E+02  0.00000000000E+00 0.  1.
</event>
<event>
 8    1  0.1280925E-006  0.9118800E+02  0.7816164E-02  0.1184000E+00
        -11   -1    0    0    0    0  0.00000000000E+00  0.00000000000E+00  0.45593999997E+02  0.45594000000E+02  0.51100000000E-03 0.  1.
         11   -1    0    0    0    0 -0.00000000000E+00 -0.00000000000E+00 -0.45593999997E+02  0.45594000000E+02  0.51100000000E-03 0. -1.
         23    2    1    2    0    0 -0.35527136788E-14  0.35527136788E-14  0.00000000000E+00  0.91188000000E+02  0.91188000000E+02 0.  0.
    9900012    2    3    3    0    0  0.29289874328E+02 -0.12674999284E+02 -0.18363759409E+02  0.54367081969E+02  0.39999994965E+02 0.  0.
        -12    1    3    3    0    0 -0.29289874328E+02  0.12674999284E+02  0.18363759409E+02  0.36820918031E+02  0.00000000000E+00 0.  1.
         11    1    4    4    0    0  0.16596510468E+02  0.49765627293E+01 -0.13499418200E+02  0.21964622199E+02  0.51100000000E-03 0. -1.
        -11    1    4    4    0    0  0.59381397752E+00  0.56342446728E+01 -0.19855279764E+01  0.60033032307E+01  0.51100000000E-03 0.  1.
         12    1    4    4    0    0  0.12099549883E+02 -0.23285806686E+02 -0.28788132317E+01  0.26399156540E+02  0.00000000000E+00 0. -1.
</event>
<event>
 8    1  0.1280925E-006  0.9118800E+02  0.7816164E-02  0.1184000E+00
        -11   -1    0    0    0    0  0.00000000000E+00  0.00000000000E+00  0.45593999997E+02  0.45594000000E+02  0.51100000000E-03 0. -1.
         11   -1    0    0    0    0 -0.00000000000E+00 -0.00000000000E+00 -0.45593999997E+02  0.45594000000E+02  0.51100000000E-03 0.  1.
         23    2    1    2    0    0  0.00000000000E+00  0.00000000000E+00  0.00000000000E+00  0.91188000000E+02  0.91188000000E+02 0.  0.
    9900012    2    3    3    0    0 -0.24286752258E+02 -0.84834406631E+01 -0.26343225920E+02  0.54367073170E+02  0.39999974906E+02 0.  0.
         12    1    3    3    0    0  0.24286752258E+02  0.84834406631E+01  0.26343225920E+02  0.36820926830E+02  0.00000000000E+00 0. -1.
         11    1    4    4    0    0 -0.46435438262E+01 -0.12714925150E+02 -0.17464555353E+02  0.22096210417E+02  0.51100000000E-03 0. -1.
        -11    1    4    4    0    0 -0.69073649451E+01  0.86864476667E+01 -0.13977019569E+02  0.17847216585E+02  0.51100000000E-03 0.  1.
         12    1    4    4    0    0 -0.12735843487E+02 -0.44549631797E+01  0.50983490019E+01  0.14423646168E+02  0.00000000000E+00 0. -1.
</event>
<event>
 8    1  0.1280925E-006  0.9118800E+02  0.7816164E-02  0.1184000E+00
        -11   -1    0    0    0    0  0.00000000000E+00  0.00000000000E+00  0.45593999997E+02  0.45594000000E+02  0.51100000000E-03 0. -1.
         11   -1    0    0    0    0 -0.00000000000E+00 -0.00000000000E+00 -0.45593999997E+02  0.45594000000E+02  0.51100000000E-03 0.  1.
         23    2    1    2    0    0  0.00000000000E+00 -0.17763568394E-14  0.00000000000E+00  0.91188000000E+02  0.91188000000E+02 0.  0.
    9900012    2    3    3    0    0  0.22236323730E+02  0.54727808014E+01  0.28833562660E+02  0.54367085313E+02  0.40000002587E+02 0.  0.
        -12    1    3    3    0    0 -0.22236323730E+02 -0.54727808014E+01 -0.28833562660E+02  0.36820914687E+02  0.00000000000E+00 0.  1.
         11    1    4    4    0    0  0.59401421209E+01 -0.79324988585E+01  0.20128246981E+02  0.22435600133E+02  0.51100000000E-03 0. -1.
        -11    1    4    4    0    0  0.15654071590E+02  0.16570258127E+02  0.13242290895E+02  0.26362505194E+02  0.51100000000E-03 0.  1.
         12    1    4    4    0    0  0.64211001970E+00 -0.31649784667E+01 -0.45369752153E+01  0.55689799853E+01  0.00000000000E+00 0. -1.
</event>
<event>
 8    1  0.1280925E-006  0.9118800E+02  0.7816164E-02  0.1184000E+00
        -11   -1    0    0    0    0  0.00000000000E+00  0.00000000000E+00  0.45593999997E+02  0.45594000000E+02  0.51100000000E-03 0.  1.
         11   -1    0    0    0    0 -0.00000000000E+00 -0.00000000000E+00 -0.45593999997E+02  0.45594000000E+02  0.51100000000E-03 0. -1.
         23    2    1    2    0    0  0.88817841970E-15  0.00000000000E+00  0.00000000000E+00  0.91188000000E+02  0.91188000000E+02 0.  0.
    9900012    2    3    3    0    0 -0.61956118497E+01  0.64834168322E+01  0.35712141354E+02  0.54367118152E+02  0.40000077450E+02 0.  0.
         12    1    3    3    0    0  0.61956118497E+01 -0.64834168322E+01 -0.35712141354E+02  0.36820881848E+02  0.00000000000E+00 0. -1.
         11    1    4    4    0    0  0.28528793288E+01 -0.87360473829E+01  0.21512602219E+02  0.23393364419E+02  0.51100000000E-03 0. -1.
        -11    1    4    4    0    0 -0.10974248374E+02  0.27134310292E+01  0.14414247148E+02  0.18318497657E+02  0.51100000000E-03 0.  1.
        -12    1    4    4    0    0  0.19257571951E+01  0.12506033186E+02 -0.21470801256E+00  0.12655256076E+02  0.00000000000E+00 0.  1.
</event>
<event>
 8    1  0.1280925E-006  0.9118800E+02  0.7816164E-02  0.1184000E+00
        -11   -1    0    0    0    0  0.00000000000E+00  0.00000000000E+00  0.45593999997E+02  0.45594000000E+02  0.51100000000E-03 0.  1.
         11   -1    0    0    0    0 -0.00000000000E+00 -0.00000000000E+00 -0.45593999997E+02  0.45594000000E+02  0.51100000000E-03 0. -1.
         23    2    1    2    0    0  0.17763568394E-14  0.00000000000E+00 -0.17763568394E-14  0.91188000000E+02  0.91188000000E+02 0.  0.
    9900012    2    3    3    0    0 -0.94460852808E+01  0.34032117026E+02 -0.10409892032E+02  0.54367090607E+02  0.40000014657E+02 0.  0.
         12    1    3    3    0    0  0.94460852808E+01 -0.34032117026E+02  0.10409892032E+02  0.36820909393E+02  0.00000000000E+00 0. -1.
         11    1    4    4    0    0  0.76800814825E+01  0.74587990705E+01  0.60264343359E+01  0.12285570651E+02  0.51100000000E-03 0. -1.
        -11    1    4    4    0    0 -0.17777446306E+02  0.15090299332E+02 -0.16892654351E+01  0.23379656736E+02  0.51100000000E-03 0.  1.
         12    1    4    4    0    0  0.65127954303E+00  0.11483018624E+02 -0.14747060933E+02  0.18701863220E+02  0.00000000000E+00 0. -1.
</event>
<event>
 8    1  0.1280925E-006  0.9118800E+02  0.7816164E-02  0.1184000E+00
        -11   -1    0    0    0    0  0.00000000000E+00  0.00000000000E+00  0.45593999997E+02  0.45594000000E+02  0.51100000000E-03 0. -1.
         11   -1    0    0    0    0 -0.00000000000E+00 -0.00000000000E+00 -0.45593999997E+02  0.45594000000E+02  0.51100000000E-03 0.  1.
         23    2    1    2    0    0  0.00000000000E+00  0.00000000000E+00  0.35527136788E-14  0.91188000000E+02  0.91188000000E+02 0.  0.
    9900012    2    3    3    0    0  0.18387330191E+02  0.11649429392E+02 -0.29698046182E+02  0.54367121904E+02  0.40000086005E+02 0.  0.
         12    1    3    3    0    0 -0.18387330191E+02 -0.11649429392E+02  0.29698046182E+02  0.36820878096E+02  0.00000000000E+00 0. -1.
         11    1    4    4    0    0  0.84576470452E+01  0.11998675481E+02  0.27573795816E+01  0.14936637816E+02  0.51100000000E-03 0. -1.
        -11    1    4    4    0    0  0.76330383511E+01 -0.76630987471E+01 -0.70917866419E+01  0.12933669043E+02  0.51100000000E-03 0.  1.
         12    1    4    4    0    0  0.22966447949E+01  0.73138526584E+01 -0.25363639122E+02  0.26496815045E+02  0.00000000000E+00 0. -1.
</event>
<event>
 8    1  0.1280925E-006  0.9118800E+02  0.7816164E-02  0.1184000E+00
        -11   -1    0    0    0    0  0.00000000000E+00  0.00000000000E+00  0.45593999997E+02  0.45594000000E+02  0.51100000000E-03 0.  1.
         11   -1    0    0    0    0 -0.00000000000E+00 -0.00000000000E+00 -0.45593999997E+02  0.45594000000E+02  0.51100000000E-03 0. -1.
         23    2    1    2    0    0  0.00000000000E+00 -0.71054273576E-14  0.00000000000E+00  0.91188000000E+02  0.91188000000E+02 0.  0.
    9900012    2    3    3    0    0  0.28763333909E+01  0.26186419036E+02 -0.25725077303E+02  0.54367062506E+02  0.39999950595E+02 0.  0.
        -12    1    3    3    0    0 -0.28763333909E+01 -0.26186419036E+02  0.25725077303E+02  0.36820937494E+02  0.00000000000E+00 0.  1.
         11    1    4    4    0    0  0.47017292890E+00  0.25179927792E+02 -0.75074079669E+01  0.26279478702E+02  0.51100000000E-03 0. -1.
        -11    1    4    4    0    0  0.42287779940E+01 -0.44620935964E+01  0.24599791364E+01  0.66215058860E+01  0.51100000000E-03 0.  1.
        -12    1    4    4    0    0 -0.18226175319E+01  0.54685848396E+01 -0.20677648473E+02  0.21466077918E+02  0.00000000000E+00 0.  1.
</event>
<event>
 8    1  0.1280925E-006  0.9118800E+02  0.7816164E-02  0.1184000E+00
        -11   -1    0    0    0    0  0.00000000000E+00  0.00000000000E+00  0.45593999997E+02  0.45594000000E+02  0.51100000000E-03 0.  1.
         11   -1    0    0    0    0 -0.00000000000E+00 -0.00000000000E+00 -0.45593999997E+02  0.45594000000E+02  0.51100000000E-03 0. -1.
         23    2    1    2    0    0 -0.17763568394E-14  0.00000000000E+00  0.00000000000E+00  0.91188000000E+02  0.91188000000E+02 0.  0.
    9900012    2    3    3    0    0  0.56760743576E+01 -0.13702696030E+02  0.33701614649E+02  0.54367074855E+02  0.39999978747E+02 0.  0.
         12    1    3    3    0    0 -0.56760743576E+01  0.13702696030E+02 -0.33701614649E+02  0.36820925145E+02  0.00000000000E+00 0. -1.
         11    1    4    4    0    0  0.87118004363E+01  0.38173300737E+01  0.53932631009E+01  0.10934110063E+02  0.51100000000E-03 0. -1.
        -11    1    4    4    0    0 -0.47809564551E+01 -0.62959028021E+01  0.30804681892E+02  0.31802898664E+02  0.51100000000E-03 0.  1.
        -12    1    4    4    0    0  0.17452303763E+01 -0.11224123301E+02 -0.24963303438E+01  0.11630066128E+02  0.00000000000E+00 0.  1.
</event>
<event>
 8    1  0.1280925E-006  0.9118800E+02  0.7816164E-02  0.1184000E+00
        -11   -1    0    0    0    0  0.00000000000E+00  0.00000000000E+00  0.45593999997E+02  0.45594000000E+02  0.51100000000E-03 0.  1.
         11   -1    0    0    0    0 -0.00000000000E+00 -0.00000000000E+00 -0.45593999997E+02  0.45594000000E+02  0.51100000000E-03 0. -1.
         23    2    1    2    0    0  0.00000000000E+00  0.00000000000E+00  0.00000000000E+00  0.91188000000E+02  0.91188000000E+02 0.  0.
    9900012    2    3    3    0    0  0.16457059295E+02 -0.61795801178E+01 -0.32353628498E+02  0.54367091700E+02  0.40000017148E+02 0.  0.
        -12    1    3    3    0    0 -0.16457059295E+02  0.61795801178E+01  0.32353628498E+02  0.36820908300E+02  0.00000000000E+00 0.  1.
         11    1    4    4    0    0 -0.84134119646E+01 -0.38282846640E+01 -0.56527120687E+01  0.10834870481E+02  0.51100000000E-03 0. -1.
        -11    1    4    4    0    0  0.84648365219E+01 -0.14499698563E+01  0.34019094359E+01  0.92373620692E+01  0.51100000000E-03 0.  1.
        -12    1    4    4    0    0  0.16405634738E+02 -0.90132559750E+00 -0.30102825865E+02  0.34294859149E+02  0.00000000000E+00 0.  1.
</event>
<event>
 8    1  0.1280925E-006  0.9118800E+02  0.7816164E-02  0.1184000E+00
        -11   -1    0    0    0    0  0.00000000000E+00  0.00000000000E+00  0.45593999997E+02  0.45594000000E+02  0.51100000000E-03 0.  1.
         11   -1    0    0    0    0 -0.00000000000E+00 -0.00000000000E+00 -0.45593999997E+02  0.45594000000E+02  0.51100000000E-03 0. -1.
         23    2    1    2    0    0  0.00000000000E+00  0.26645352591E-14  0.35527136788E-14  0.91188000000E+02  0.91188000000E+02 0.  0.
    9900012    2    3    3    0    0 -0.19715841109E+02  0.29915622711E+01 -0.30953436613E+02  0.54367094611E+02  0.40000023786E+02 0.  0.
        -12    1    3    3    0    0  0.19715841109E+02 -0.29915622711E+01  0.30953436613E+02  0.36820905389E+02  0.00000000000E+00 0.  1.
         11    1    4    4    0    0 -0.56651985946E+01 -0.13867541937E+02 -0.20674019036E+02  0.25530731636E+02  0.51100000000E-03 0.  1.
        -11    1    4    4    0    0 -0.10213321187E+02  0.12242002496E+02 -0.14457522094E+02  0.21522046839E+02  0.51100000000E-03 0. -1.
         12    1    4    4    0    0 -0.38373213271E+01  0.46171017121E+01  0.41781045172E+01  0.73143161365E+01  0.00000000000E+00 0. -1.
</event>
<event>
 8    1  0.1280925E-006  0.9118800E+02  0.7816164E-02  0.1184000E+00
        -11   -1    0    0    0    0  0.00000000000E+00  0.00000000000E+00  0.45593999997E+02  0.45594000000E+02  0.51100000000E-03 0. -1.
         11   -1    0    0    0    0 -0.00000000000E+00 -0.00000000000E+00 -0.45593999997E+02  0.45594000000E+02  0.51100000000E-03 0.  1.
         23    2    1    2    0    0  0.00000000000E+00  0.00000000000E+00 -0.35527136788E-14  0.91188000000E+02  0.91188000000E+02 0.  0.
    9900012    2    3    3    0    0  0.11365891651E+02 -0.15902323167E+02 -0.31204367624E+02  0.54367082929E+02  0.39999997154E+02 0.  0.
         12    1    3    3    0    0 -0.11365891651E+02  0.15902323167E+02  0.31204367624E+02  0.36820917071E+02  0.00000000000E+00 0. -1.
         11    1    4    4    0    0  0.13864978251E+02 -0.73014983438E+01  0.22301467821E+01  0.15827920107E+02  0.51100000000E-03 0. -1.
        -11    1    4    4    0    0  0.47778060918E+01 -0.20488754489E+01 -0.19255047894E+01  0.55437253369E+01  0.51100000000E-03 0.  1.
        -12    1    4    4    0    0 -0.72768926920E+01 -0.65519493746E+01 -0.31509009616E+02  0.32995437485E+02  0.00000000000E+00 0.  1.
</event>
<event>
 8    1  0.1280925E-006  0.9118800E+02  0.7816164E-02  0.1184000E+00
        -11   -1    0    0    0    0  0.00000000000E+00  0.00000000000E+00  0.45593999997E+02  0.45594000000E+02  0.51100000000E-03 0. -1.
         11   -1    0    0    0    0 -0.00000000000E+00 -0.00000000000E+00 -0.45593999997E+02  0.45594000000E+02  0.51100000000E-03 0.  1.
         23    2    1    2    0    0  0.00000000000E+00 -0.15265566589E-15  0.00000000000E+00  0.91188000000E+02  0.91188000000E+02 0.  0.
    9900012    2    3    3    0    0  0.14280742650E+02  0.70797807939E-01 -0.33938715391E+02  0.54367068108E+02  0.39999963366E+02 0.  0.
         12    1    3    3    0    0 -0.14280742650E+02 -0.70797807939E-01  0.33938715391E+02  0.36820931892E+02  0.00000000000E+00 0. -1.
         11    1    4    4    0    0  0.18055235464E+01  0.12738064614E+01  0.57149208992E+01  0.61272195426E+01  0.51100000000E-03 0. -1.
        -11    1    4    4    0    0  0.18099010905E+02  0.10987959988E+01 -0.37738537984E+02  0.41868589632E+02  0.51100000000E-03 0.  1.
        -12    1    4    4    0    0 -0.56237918006E+01 -0.23018046523E+01 -0.19150983070E+01  0.63712589336E+01  0.00000000000E+00 0.  1.
</event>
<event>
 8    1  0.1280925E-006  0.9118800E+02  0.7816164E-02  0.1184000E+00
        -11   -1    0    0    0    0  0.00000000000E+00  0.00000000000E+00  0.45593999997E+02  0.45594000000E+02  0.51100000000E-03 0. -1.
         11   -1    0    0    0    0 -0.00000000000E+00 -0.00000000000E+00 -0.45593999997E+02  0.45594000000E+02  0.51100000000E-03 0.  1.
         23    2    1    2    0    0  0.00000000000E+00 -0.17763568394E-14  0.26645352591E-14  0.91188000000E+02  0.91188000000E+02 0.  0.
    9900012    2    3    3    0    0  0.34613314808E+02  0.11870696751E+02 -0.40969369509E+01  0.54367083448E+02  0.39999998336E+02 0.  0.
         12    1    3    3    0    0 -0.34613314808E+02 -0.11870696751E+02  0.40969369509E+01  0.36820916552E+02  0.00000000000E+00 0. -1.
         11    1    4    4    0    0  0.10882831463E+02  0.92600391644E+01  0.42516370808E+01  0.14908412528E+02  0.51100000000E-03 0.  1.
        -11    1    4    4    0    0  0.86046723906E+01  0.18345168388E+00  0.11513717424E+02  0.14374968892E+02  0.51100000000E-03 0. -1.
        -12    1    4    4    0    0  0.15125810955E+02  0.24272059022E+01 -0.19862291456E+02  0.25083702027E+02  0.00000000000E+00 0.  1.
</event>
<event>
 8    1  0.1280925E-006  0.9118800E+02  0.7816164E-02  0.1184000E+00
        -11   -1    0    0    0    0  0.00000000000E+00  0.00000000000E+00  0.45593999997E+02  0.45594000000E+02  0.51100000000E-03 0. -1.
         11   -1    0    0    0    0 -0.00000000000E+00 -0.00000000000E+00 -0.45593999997E+02  0.45594000000E+02  0.51100000000E-03 0.  1.
         23    2    1    2    0    0  0.00000000000E+00  0.00000000000E+00  0.00000000000E+00  0.91188000000E+02  0.91188000000E+02 0.  0.
    9900012    2    3    3    0    0  0.20537877778E+02  0.12855023890E+02  0.27725865755E+02  0.54367086178E+02  0.40000004560E+02 0.  0.
        -12    1    3    3    0    0 -0.20537877778E+02 -0.12855023890E+02 -0.27725865755E+02  0.36820913822E+02  0.00000000000E+00 0.  1.
         11    1    4    4    0    0  0.19202309494E+02 -0.36084111961E+01  0.20303153967E+02  0.28177426826E+02  0.51100000000E-03 0. -1.
        -11    1    4    4    0    0 -0.71000398397E+01  0.92363411457E+01  0.93218375608E+01  0.14920362571E+02  0.51100000000E-03 0.  1.
         12    1    4    4    0    0  0.84356081236E+01  0.72270939407E+01 -0.18991257725E+01  0.11269296781E+02  0.00000000000E+00 0. -1.
</event>
<event>
 8    1  0.1280925E-006  0.9118800E+02  0.7816164E-02  0.1184000E+00
        -11   -1    0    0    0    0  0.00000000000E+00  0.00000000000E+00  0.45593999997E+02  0.45594000000E+02  0.51100000000E-03 0. -1.
         11   -1    0    0    0    0 -0.00000000000E+00 -0.00000000000E+00 -0.45593999997E+02  0.45594000000E+02  0.51100000000E-03 0.  1.
         23    2    1    2    0    0  0.00000000000E+00 -0.17763568394E-14  0.00000000000E+00  0.91188000000E+02  0.91188000000E+02 0.  0.
    9900012    2    3    3    0    0 -0.26042920593E+02 -0.11202498203E+02  0.23495744669E+02  0.54367086153E+02  0.40000004502E+02 0.  0.
        -12    1    3    3    0    0  0.26042920593E+02  0.11202498203E+02 -0.23495744669E+02  0.36820913847E+02  0.00000000000E+00 0.  1.
         11    1    4    4    0    0  0.87674046862E+00 -0.28469286431E+01 -0.37648956310E+01  0.48008453341E+01  0.51100000000E-03 0. -1.
        -11    1    4    4    0    0 -0.12525732991E+02 -0.55363295554E+01 -0.46365878099E+01  0.14458315209E+02  0.51100000000E-03 0.  1.
         12    1    4    4    0    0 -0.14393928071E+02 -0.28192400047E+01  0.31897228110E+02  0.35107925610E+02  0.00000000000E+00 0. -1.
</event>
<event>
 8    1  0.1280925E-006  0.9118800E+02  0.7816164E-02  0.1184000E+00
        -11   -1    0    0    0    0  0.00000000000E+00  0.00000000000E+00  0.45593999997E+02  0.45594000000E+02  0.51100000000E-03 0.  1.
         11   -1    0    0    0    0 -0.00000000000E+00 -0.00000000000E+00 -0.45593999997E+02  0.45594000000E+02  0.51100000000E-03 0. -1.
         23    2    1    2    0    0  0.00000000000E+00 -0.12212453271E-14  0.00000000000E+00  0.91188000000E+02  0.91188000000E+02 0.  0.
    9900012    2    3    3    0    0  0.29266460236E+02 -0.94476845742E+00 -0.22324009297E+02  0.54367086469E+02  0.40000005223E+02 0.  0.
        -12    1    3    3    0    0 -0.29266460236E+02  0.94476845742E+00  0.22324009297E+02  0.36820913531E+02  0.00000000000E+00 0.  1.
         11    1    4    4    0    0  0.15530457551E+02 -0.66246756903E+01 -0.33895791825E+00  0.16887756881E+02  0.51100000000E-03 0. -1.
        -11    1    4    4    0    0  0.12599157293E+02 -0.63641778472E+01 -0.21955821421E+01  0.14285030815E+02  0.51100000000E-03 0.  1.
         12    1    4    4    0    0  0.11368453909E+01  0.12044085080E+02 -0.19789469237E+02  0.23194298772E+02  0.00000000000E+00 0. -1.
</event>
<event>
 8    1  0.1280925E-006  0.9118800E+02  0.7816164E-02  0.1184000E+00
        -11   -1    0    0    0    0  0.00000000000E+00  0.00000000000E+00  0.45593999997E+02  0.45594000000E+02  0.51100000000E-03 0.  1.
         11   -1    0    0    0    0 -0.00000000000E+00 -0.00000000000E+00 -0.45593999997E+02  0.45594000000E+02  0.51100000000E-03 0. -1.
         23    2    1    2    0    0  0.00000000000E+00 -0.17763568394E-14  0.00000000000E+00  0.91188000000E+02  0.91188000000E+02 0.  0.
    9900012    2    3    3    0    0 -0.32805656123E+02  0.14554016664E+02 -0.82310099573E+01  0.54367082037E+02  0.39999995120E+02 0.  0.
        -12    1    3    3    0    0  0.32805656123E+02 -0.14554016664E+02  0.82310099573E+01  0.36820917963E+02  0.00000000000E+00 0.  1.
         11    1    4    4    0    0 -0.30427486121E+02  0.14720129039E+02 -0.77500823524E+01  0.34678204788E+02  0.51100000000E-03 0. -1.
        -11    1    4    4    0    0  0.95064466869E-01 -0.94445412508E+01  0.22427991707E+01  0.97076539428E+01  0.51100000000E-03 0.  1.
         12    1    4    4    0    0 -0.24732344683E+01  0.92784288760E+01 -0.27237267756E+01  0.99812233063E+01  0.00000000000E+00 0. -1.
</event>
<event>
 8    1  0.1280925E-006  0.9118800E+02  0.7816164E-02  0.1184000E+00
        -11   -1    0    0    0    0  0.00000000000E+00  0.00000000000E+00  0.45593999997E+02  0.45594000000E+02  0.51100000000E-03 0.  1.
         11   -1    0    0    0    0 -0.00000000000E+00 -0.00000000000E+00 -0.45593999997E+02  0.45594000000E+02  0.51100000000E-03 0. -1.
         23    2    1    2    0    0  0.00000000000E+00  0.00000000000E+00  0.00000000000E+00  0.91188000000E+02  0.91188000000E+02 0.  0.
    9900012    2    3    3    0    0  0.11818052063E+02 -0.15998199221E+02 -0.30986633383E+02  0.54367079571E+02  0.39999989497E+02 0.  0.
        -12    1    3    3    0    0 -0.11818052063E+02  0.15998199221E+02  0.30986633383E+02  0.36820920429E+02  0.00000000000E+00 0.  1.
         11    1    4    4    0    0  0.98324351819E+01 -0.15786917283E+01 -0.11262662042E+01  0.10021852374E+02  0.51100000000E-03 0. -1.
        -11    1    4    4    0    0 -0.30552485052E+01  0.86344317710E+01 -0.75466543593E+01  0.11867600757E+02  0.51100000000E-03 0.  1.
         12    1    4    4    0    0  0.50408653859E+01 -0.23053939263E+02 -0.22313712820E+02  0.32477626440E+02  0.00000000000E+00 0. -1.
</event>
<event>
 8    1  0.1280925E-006  0.9118800E+02  0.7816164E-02  0.1184000E+00
        -11   -1    0    0    0    0  0.00000000000E+00  0.00000000000E+00  0.45593999997E+02  0.45594000000E+02  0.51100000000E-03 0.  1.
         11   -1    0    0    0    0 -0.00000000000E+00 -0.00000000000E+00 -0.45593999997E+02  0.45594000000E+02  0.51100000000E-03 0. -1.
         23    2    1    2    0    0  0.00000000000E+00  0.00000000000E+00  0.88817841970E-15  0.91188000000E+02  0.91188000000E+02 0.  0.
    9900012    2    3    3    0    0  0.49742247639E+01 -0.36249495639E+02  0.41245807716E+01  0.54367068282E+02  0.39999963762E+02 0.  0.
         12    1    3    3    0    0 -0.49742247639E+01  0.36249495639E+02 -0.41245807716E+01  0.36820931718E+02  0.00000000000E+00 0. -1.
         11    1    4    4    0    0  0.74279663284E+01 -0.16836751512E+02 -0.81015565900E+01  0.20106867103E+02  0.51100000000E-03 0. -1.
        -11    1    4    4    0    0 -0.33985262813E+01  0.51547592571E+01 -0.11362078723E+01  0.62779369600E+01  0.51100000000E-03 0.  1.
         12    1    4    4    0    0  0.94478471683E+00 -0.24567503384E+02  0.13362345234E+02  0.27982264219E+02  0.00000000000E+00 0. -1.
</event>
<event>
 8    1  0.1280925E-006  0.9118800E+02  0.7816164E-02  0.1184000E+00
        -11   -1    0    0    0    0  0.00000000000E+00  0.00000000000E+00  0.45593999997E+02  0.45594000000E+02  0.51100000000E-03 0. -1.
         11   -1    0    0    0    0 -0.00000000000E+00 -0.00000000000E+00 -0.45593999997E+02  0.45594000000E+02  0.51100000000E-03 0.  1.
         23    2    1    2    0    0  0.21649348980E-14  0.00000000000E+00  0.00000000000E+00  0.91188000000E+02  0.91188000000E+02 0.  0.
    9900012    2    3    3    0    0 -0.35958857799E+00 -0.16009954954E+02  0.33156179152E+02  0.54367079621E+02  0.39999989613E+02 0.  0.
        -12    1    3    3    0    0  0.35958857799E+00  0.16009954954E+02 -0.33156179152E+02  0.36820920379E+02  0.00000000000E+00 0.  1.
         11    1    4    4    0    0 -0.15866759534E+02 -0.10791236722E+02  0.30525847801E+02  0.36055959734E+02  0.51100000000E-03 0. -1.
        -11    1    4    4    0    0  0.14561602203E+02 -0.38774660379E+01 -0.16473468612E+00  0.15069908407E+02  0.51100000000E-03 0.  1.
        -12    1    4    4    0    0  0.94556875279E+00 -0.13412521944E+01  0.27950660365E+01  0.32412114809E+01  0.00000000000E+00 0.  1.
</event>
<event>
 8    1  0.1280925E-006  0.9118800E+02  0.7816164E-02  0.1184000E+00
        -11   -1    0    0    0    0  0.00000000000E+00  0.00000000000E+00  0.45593999997E+02  0.45594000000E+02  0.51100000000E-03 0. -1.
         11   -1    0    0    0    0 -0.00000000000E+00 -0.00000000000E+00 -0.45593999997E+02  0.45594000000E+02  0.51100000000E-03 0.  1.
         23    2    1    2    0    0 -0.55511151231E-15  0.17763568394E-14  0.00000000000E+00  0.91188000000E+02  0.91188000000E+02 0.  0.
    9900012    2    3    3    0    0 -0.39715243384E+00  0.10167567779E+02 -0.35387040133E+02  0.54367085102E+02  0.40000002106E+02 0.  0.
         12    1    3    3    0    0  0.39715243384E+00 -0.10167567779E+02  0.35387040133E+02  0.36820914898E+02  0.00000000000E+00 0. -1.
         11    1    4    4    0    0  0.27722405587E+01 -0.61348225009E+01  0.23463129255E+01  0.71292741172E+01  0.51100000000E-03 0. -1.
        -11    1    4    4    0    0 -0.65309933754E+01  0.21343630870E+02 -0.28637792323E+02  0.36308781343E+02  0.51100000000E-03 0.  1.
        -12    1    4    4    0    0  0.33616003828E+01 -0.50412405902E+01 -0.90955607350E+01  0.10929029642E+02  0.00000000000E+00 0.  1.
</event>
<event>
 8    1  0.1280925E-006  0.9118800E+02  0.7816164E-02  0.1184000E+00
        -11   -1    0    0    0    0  0.00000000000E+00  0.00000000000E+00  0.45593999997E+02  0.45594000000E+02  0.51100000000E-03 0.  1.
         11   -1    0    0    0    0 -0.00000000000E+00 -0.00000000000E+00 -0.45593999997E+02  0.45594000000E+02  0.51100000000E-03 0. -1.
         23    2    1    2    0    0  0.71054273576E-14 -0.17763568394E-14  0.71054273576E-14  0.91188000000E+02  0.91188000000E+02 0.  0.
    9900012    2    3    3    0    0 -0.21321179396E+02  0.14129804194E+02 -0.26486506018E+02  0.54367094818E+02  0.40000024256E+02 0.  0.
        -12    1    3    3    0    0  0.21321179396E+02 -0.14129804194E+02  0.26486506018E+02  0.36820905182E+02  0.00000000000E+00 0.  1.
         11    1    4    4    0    0 -0.17501533236E+02  0.69438563927E+01 -0.30293425953E+02  0.35668087465E+02  0.51100000000E-03 0. -1.
        -11    1    4    4    0    0  0.43092843855E+01  0.34074238757E+01 -0.40130132036E+01  0.68032892498E+01  0.51100000000E-03 0.  1.
        -12    1    4    4    0    0 -0.81289305463E+01  0.37785239258E+01  0.78199331388E+01  0.11895718103E+02  0.00000000000E+00 0.  1.
</event>
<event>
 8    1  0.1280925E-006  0.9118800E+02  0.7816164E-02  0.1184000E+00
        -11   -1    0    0    0    0  0.00000000000E+00  0.00000000000E+00  0.45593999997E+02  0.45594000000E+02  0.51100000000E-03 0. -1.
         11   -1    0    0    0    0 -0.00000000000E+00 -0.00000000000E+00 -0.45593999997E+02  0.45594000000E+02  0.51100000000E-03 0.  1.
         23    2    1    2    0    0 -0.88817841970E-15  0.00000000000E+00  0.88817841970E-15  0.91188000000E+02  0.91188000000E+02 0.  0.
    9900012    2    3    3    0    0 -0.77962473654E+01  0.35663092870E+02  0.48105911013E+01  0.54367089463E+02  0.40000012049E+02 0.  0.
         12    1    3    3    0    0  0.77962473654E+01 -0.35663092870E+02 -0.48105911013E+01  0.36820910537E+02  0.00000000000E+00 0. -1.
         11    1    4    4    0    0 -0.14228926463E+02 -0.11900675249E+00 -0.21800685394E+00  0.14231094060E+02  0.51100000000E-03 0. -1.
        -11    1    4    4    0    0 -0.46982211533E+01  0.88174076403E+01 -0.18582535814E+01  0.10162335663E+02  0.51100000000E-03 0.  1.
        -12    1    4    4    0    0  0.11130900251E+02  0.26964691982E+02  0.68868515366E+01  0.29973659739E+02  0.00000000000E+00 0.  1.
</event>
<event>
 8    1  0.1280925E-006  0.9118800E+02  0.7816164E-02  0.1184000E+00
        -11   -1    0    0    0    0  0.00000000000E+00  0.00000000000E+00  0.45593999997E+02  0.45594000000E+02  0.51100000000E-03 0.  1.
         11   -1    0    0    0    0 -0.00000000000E+00 -0.00000000000E+00 -0.45593999997E+02  0.45594000000E+02  0.51100000000E-03 0. -1.
         23    2    1    2    0    0 -0.35527136788E-14  0.00000000000E+00  0.00000000000E+00  0.91188000000E+02  0.91188000000E+02 0.  0.
    9900012    2    3    3    0    0 -0.13208638687E+02  0.49140841162E+01  0.34017106329E+02  0.54367083639E+02  0.39999998772E+02 0.  0.
         12    1    3    3    0    0  0.13208638687E+02 -0.49140841162E+01 -0.34017106329E+02  0.36820916361E+02  0.00000000000E+00 0. -1.
         11    1    4    4    0    0  0.55566778000E+01 -0.47193698130E+01  0.61613241855E+01  0.95452100860E+01  0.51100000000E-03 0. -1.
        -11    1    4    4    0    0 -0.47999754460E+01 -0.53553417535E+01  0.22536448784E+02  0.23656098023E+02  0.51100000000E-03 0.  1.
        -12    1    4    4    0    0 -0.13965341041E+02  0.14988795683E+02  0.53193333591E+01  0.21165775530E+02  0.00000000000E+00 0.  1.
</event>
<event>
 8    1  0.1280925E-006  0.9118800E+02  0.7816164E-02  0.1184000E+00
        -11   -1    0    0    0    0  0.00000000000E+00  0.00000000000E+00  0.45593999997E+02  0.45594000000E+02  0.51100000000E-03 0.  1.
         11   -1    0    0    0    0 -0.00000000000E+00 -0.00000000000E+00 -0.45593999997E+02  0.45594000000E+02  0.51100000000E-03 0. -1.
         23    2    1    2    0    0 -0.17763568394E-14  0.00000000000E+00  0.00000000000E+00  0.91188000000E+02  0.91188000000E+02 0.  0.
    9900012    2    3    3    0    0  0.10711526983E+02 -0.12390820024E+02 -0.32977417477E+02  0.54367091610E+02  0.40000016944E+02 0.  0.
        -12    1    3    3    0    0 -0.10711526983E+02  0.12390820024E+02  0.32977417477E+02  0.36820908390E+02  0.00000000000E+00 0.  1.
         11    1    4    4    0    0  0.59985995703E+01 -0.16399072555E+02 -0.86864698420E+01  0.19503013512E+02  0.51100000000E-03 0. -1.
        -11    1    4    4    0    0 -0.59047608824E+01  0.10595648738E+02 -0.89279667330E+01  0.15061293553E+02  0.51100000000E-03 0.  1.
         12    1    4    4    0    0  0.10617688295E+02 -0.65873962061E+01 -0.15362980902E+02  0.19802784545E+02  0.00000000000E+00 0. -1.
</event>
<event>
 8    1  0.1280925E-006  0.9118800E+02  0.7816164E-02  0.1184000E+00
        -11   -1    0    0    0    0  0.00000000000E+00  0.00000000000E+00  0.45593999997E+02  0.45594000000E+02  0.51100000000E-03 0. -1.
         11   -1    0    0    0    0 -0.00000000000E+00 -0.00000000000E+00 -0.45593999997E+02  0.45594000000E+02  0.51100000000E-03 0.  1.
         23    2    1    2    0    0  0.35527136788E-14  0.17763568394E-14 -0.35527136788E-14  0.91188000000E+02  0.91188000000E+02 0.  0.
    9900012    2    3    3    0    0 -0.21895406991E+02 -0.11022615696E+02  0.27474998220E+02  0.54367049017E+02  0.39999919844E+02 0.  0.
        -12    1    3    3    0    0  0.21895406991E+02  0.11022615696E+02 -0.27474998220E+02  0.36820950983E+02  0.00000000000E+00 0.  1.
         11    1    4    4    0    0  0.25348986826E+01  0.88193998196E+01  0.11941200141E+02  0.15059873358E+02  0.51100000000E-03 0. -1.
        -11    1    4    4    0    0 -0.23669684202E+01 -0.99025860672E+01 -0.63882376772E+00  0.10201560978E+02  0.51100000000E-03 0.  1.
         12    1    4    4    0    0 -0.22063337254E+02 -0.99394294483E+01  0.16172621847E+02  0.29105614681E+02  0.00000000000E+00 0. -1.
</event>
<event>
 8    1  0.1280925E-006  0.9118800E+02  0.7816164E-02  0.1184000E+00
        -11   -1    0    0    0    0  0.00000000000E+00  0.00000000000E+00  0.45593999997E+02  0.45594000000E+02  0.51100000000E-03 0. -1.
         11   -1    0    0    0    0 -0.00000000000E+00 -0.00000000000E+00 -0.45593999997E+02  0.45594000000E+02  0.51100000000E-03 0.  1.
         23    2    1    2    0    0 -0.35527136788E-14  0.00000000000E+00  0.00000000000E+00  0.91188000000E+02  0.91188000000E+02 0.  0.
    9900012    2    3    3    0    0  0.21598927884E+02 -0.16968890925E+02 -0.24521894499E+02  0.54367078572E+02  0.39999987221E+02 0.  0.
         12    1    3    3    0    0 -0.21598927884E+02  0.16968890925E+02  0.24521894499E+02  0.36820921428E+02  0.00000000000E+00 0. -1.
         11    1    4    4    0    0  0.33562445282E+01 -0.13139087998E+01 -0.21195370304E+02  0.21499638515E+02  0.51100000000E-03 0. -1.
        -11    1    4    4    0    0  0.21009634529E+02 -0.91718972574E+01 -0.81457581649E+01  0.24328621389E+02  0.51100000000E-03 0.  1.
         12    1    4    4    0    0 -0.27669511729E+01 -0.64830848678E+01  0.48192339702E+01  0.85388186686E+01  0.00000000000E+00 0. -1.
</event>
<event>
 8    1  0.1280925E-006  0.9118800E+02  0.7816164E-02  0.1184000E+00
        -11   -1    0    0    0    0  0.00000000000E+00  0.00000000000E+00  0.45593999997E+02  0.45594000000E+02  0.51100000000E-03 0.  1.
         11   -1    0    0    0    0 -0.00000000000E+00 -0.00000000000E+00 -0.45593999997E+02  0.45594000000E+02  0.51100000000E-03 0. -1.
         23    2    1    2    0    0  0.00000000000E+00  0.00000000000E+00  0.00000000000E+00  0.91188000000E+02  0.91188000000E+02 0.  0.
    9900012    2    3    3    0    0 -0.19489566044E+02 -0.12056714801E+02  0.28819656731E+02  0.54367079718E+02  0.39999989832E+02 0.  0.
         12    1    3    3    0    0  0.19489566044E+02  0.12056714801E+02 -0.28819656731E+02  0.36820920282E+02  0.00000000000E+00 0. -1.
         11    1    4    4    0    0  0.87768903260E+01 -0.37988007464E+00  0.81078118829E+01  0.11954694745E+02  0.51100000000E-03 0. -1.
        -11    1    4    4    0    0 -0.72745237000E+01 -0.13232565987E+02  0.13219433757E+02  0.20069203442E+02  0.51100000000E-03 0.  1.
         12    1    4    4    0    0 -0.20991932670E+02  0.15557312606E+01  0.74924110904E+01  0.22343181531E+02  0.00000000000E+00 0. -1.
</event>
<event>
 8    1  0.1280925E-006  0.9118800E+02  0.7816164E-02  0.1184000E+00
        -11   -1    0    0    0    0  0.00000000000E+00  0.00000000000E+00  0.45593999997E+02  0.45594000000E+02  0.51100000000E-03 0. -1.
         11   -1    0    0    0    0 -0.00000000000E+00 -0.00000000000E+00 -0.45593999997E+02  0.45594000000E+02  0.51100000000E-03 0.  1.
         23    2    1    2    0    0  0.17763568394E-14 -0.35527136788E-14  0.00000000000E+00  0.91188000000E+02  0.91188000000E+02 0.  0.
    9900012    2    3    3    0    0  0.12130928013E+02 -0.28739431097E+02  0.19561819089E+02  0.54367094521E+02  0.40000023579E+02 0.  0.
        -12    1    3    3    0    0 -0.12130928013E+02  0.28739431097E+02 -0.19561819089E+02  0.36820905479E+02  0.00000000000E+00 0.  1.
         11    1    4    4    0    0  0.21456598495E+01 -0.20192633456E+02  0.69470504945E+01  0.21461775624E+02  0.51100000000E-03 0. -1.
        -11    1    4    4    0    0  0.12259933487E+02 -0.12852585526E+02  0.18243704692E+02  0.25462279650E+02  0.51100000000E-03 0.  1.
         12    1    4    4    0    0 -0.22746653234E+01  0.43057878855E+01 -0.56289360976E+01  0.74430392474E+01  0.00000000000E+00 0. -1.
</event>
<event>
 8    1  0.1280925E-006  0.9118800E+02  0.7816164E-02  0.1184000E+00
        -11   -1    0    0    0    0  0.00000000000E+00  0.00000000000E+00  0.45593999997E+02  0.45594000000E+02  0.51100000000E-03 0.  1.
         11   -1    0    0    0    0 -0.00000000000E+00 -0.00000000000E+00 -0.45593999997E+02  0.45594000000E+02  0.51100000000E-03 0. -1.
         23    2    1    2    0    0  0.00000000000E+00 -0.35527136788E-14  0.22204460493E-15  0.91188000000E+02  0.91188000000E+02 0.  0.
    9900012    2    3    3    0    0 -0.29636452876E+02  0.21817534478E+02 -0.12065920051E+01  0.54367081842E+02  0.39999994675E+02 0.  0.
         12    1    3    3    0    0  0.29636452876E+02 -0.21817534478E+02  0.12065920051E+01  0.36820918158E+02  0.00000000000E+00 0. -1.
         11    1    4    4    0    0  0.36732611670E+01  0.55446950344E+00  0.51949256610E+01  0.63865121088E+01  0.51100000000E-03 0. -1.
        -11    1    4    4    0    0 -0.35611763960E+02  0.11897964535E+02 -0.74536886314E+01  0.38279456199E+02  0.51100000000E-03 0.  1.
        -12    1    4    4    0    0  0.23020499171E+01  0.93651004392E+01  0.10521709654E+01  0.97011135339E+01  0.00000000000E+00 0.  1.
</event>
<event>
 8    1  0.1280925E-006  0.9118800E+02  0.7816164E-02  0.1184000E+00
        -11   -1    0    0    0    0  0.00000000000E+00  0.00000000000E+00  0.45593999997E+02  0.45594000000E+02  0.51100000000E-03 0.  1.
         11   -1    0    0    0    0 -0.00000000000E+00 -0.00000000000E+00 -0.45593999997E+02  0.45594000000E+02  0.51100000000E-03 0. -1.
         23    2    1    2    0    0  0.35527136788E-14  0.00000000000E+00 -0.35527136788E-14  0.91188000000E+02  0.91188000000E+02 0.  0.
    9900012    2    3    3    0    0 -0.28138313839E+02 -0.43559112914E+01  0.23346168205E+02  0.54367051632E+02  0.39999925806E+02 0.  0.
         12    1    3    3    0    0  0.28138313839E+02  0.43559112914E+01 -0.23346168205E+02  0.36820948368E+02  0.00000000000E+00 0. -1.
         11    1    4    4    0    0 -0.60507086114E+01  0.11325549515E+02  0.14745528009E+02  0.19552742597E+02  0.51100000000E-03 0. -1.
        -11    1    4    4    0    0 -0.69152760700E+01 -0.37257462121E+01 -0.65794808917E+01  0.10246550494E+02  0.51100000000E-03 0.  1.
        -12    1    4    4    0    0 -0.15172329157E+02 -0.11955714595E+02  0.15180121087E+02  0.24567758541E+02  0.00000000000E+00 0.  1.
</event>
<event>
 8    1  0.1280925E-006  0.9118800E+02  0.7816164E-02  0.1184000E+00
        -11   -1    0    0    0    0  0.00000000000E+00  0.00000000000E+00  0.45593999997E+02  0.45594000000E+02  0.51100000000E-03 0. -1.
         11   -1    0    0    0    0 -0.00000000000E+00 -0.00000000000E+00 -0.45593999997E+02  0.45594000000E+02  0.51100000000E-03 0.  1.
         23    2    1    2    0    0  0.00000000000E+00 -0.35527136788E-14  0.35527136788E-14  0.91188000000E+02  0.91188000000E+02 0.  0.
    9900012    2    3    3    0    0  0.19116568784E+02  0.26215074052E+02 -0.17409956565E+02  0.54367083427E+02  0.39999998289E+02 0.  0.
         12    1    3    3    0    0 -0.19116568784E+02 -0.26215074052E+02  0.17409956565E+02  0.36820916573E+02  0.00000000000E+00 0. -1.
         11    1    4    4    0    0 -0.92807094496E+01  0.98617641977E+01 -0.10596215354E+02  0.17194933587E+02  0.51100000000E-03 0. -1.
        -11    1    4    4    0    0  0.10872833430E+02  0.15547889498E+02 -0.28276648550E+01  0.19182050554E+02  0.51100000000E-03 0.  1.
         12    1    4    4    0    0  0.17524444803E+02  0.80542035628E+00 -0.39860763557E+01  0.17990099286E+02  0.00000000000E+00 0. -1.
</event>
<event>
 8    1  0.1280925E-006  0.9118800E+02  0.7816164E-02  0.1184000E+00
        -11   -1    0    0    0    0  0.00000000000E+00  0.00000000000E+00  0.45593999997E+02  0.45594000000E+02  0.51100000000E-03 0.  1.
         11   -1    0    0    0    0 -0.00000000000E+00 -0.00000000000E+00 -0.45593999997E+02  0.45594000000E+02  0.51100000000E-03 0. -1.
         23    2    1    2    0    0  0.33306690739E-15  0.00000000000E+00  0.44408920985E-15  0.91188000000E+02  0.91188000000E+02 0.  0.
    9900012    2    3    3    0    0 -0.87466983661E+00  0.36765408184E+02 -0.18225435971E+01  0.54367055533E+02  0.39999934699E+02 0.  0.
         12    1    3    3    0    0  0.87466983661E+00 -0.36765408184E+02  0.18225435971E+01  0.36820944467E+02  0.00000000000E+00 0. -1.
         11    1    4    4    0    0 -0.90725072763E+00  0.34536291106E+02  0.43669736810E+01  0.34823109663E+02  0.51100000000E-03 0. -1.
        -11    1    4    4    0    0 -0.30035599237E+01 -0.33167854682E+00  0.60030661028E+01  0.67207280684E+01  0.51100000000E-03 0.  1.
         12    1    4    4    0    0  0.30361408147E+01  0.25607956250E+01 -0.12192583381E+02  0.12823217801E+02  0.00000000000E+00 0. -1.
</event>
<event>
 8    1  0.1280925E-006  0.9118800E+02  0.7816164E-02  0.1184000E+00
        -11   -1    0    0    0    0  0.00000000000E+00  0.00000000000E+00  0.45593999997E+02  0.45594000000E+02  0.51100000000E-03 0. -1.
         11   -1    0    0    0    0 -0.00000000000E+00 -0.00000000000E+00 -0.45593999997E+02  0.45594000000E+02  0.51100000000E-03 0.  1.
         23    2    1    2    0    0  0.11102230246E-15 -0.88817841970E-15  0.00000000000E+00  0.91188000000E+02  0.91188000000E+02 0.  0.
    9900012    2    3    3    0    0 -0.98534237285E+00 -0.69357472930E+01  0.36148356153E+02  0.54367093674E+02  0.40000021648E+02 0.  0.
        -12    1    3    3    0    0  0.98534237285E+00  0.69357472930E+01 -0.36148356153E+02  0.36820906326E+02  0.00000000000E+00 0.  1.
         11    1    4    4    0    0  0.75447062520E+01 -0.15401854058E+02  0.40828961461E+01  0.17629796994E+02  0.51100000000E-03 0. -1.
        -11    1    4    4    0    0 -0.53140221531E+01  0.11403408093E+02  0.17626515215E+02  0.21655728722E+02  0.51100000000E-03 0.  1.
         12    1    4    4    0    0 -0.32160264718E+01 -0.29373013276E+01  0.14438944792E+02  0.15081567958E+02  0.00000000000E+00 0. -1.
</event>
<event>
 8    1  0.1280925E-006  0.9118800E+02  0.7816164E-02  0.1184000E+00
        -11   -1    0    0    0    0  0.00000000000E+00  0.00000000000E+00  0.45593999997E+02  0.45594000000E+02  0.51100000000E-03 0. -1.
         11   -1    0    0    0    0 -0.00000000000E+00 -0.00000000000E+00 -0.45593999997E+02  0.45594000000E+02  0.51100000000E-03 0.  1.
         23    2    1    2    0    0  0.00000000000E+00  0.00000000000E+00  0.88817841970E-15  0.91188000000E+02  0.91188000000E+02 0.  0.
    9900012    2    3    3    0    0  0.35394893255E+02  0.66588395167E+01 -0.76578606011E+01  0.54367062462E+02  0.39999950494E+02 0.  0.
         12    1    3    3    0    0 -0.35394893255E+02 -0.66588395167E+01  0.76578606011E+01  0.36820937538E+02  0.00000000000E+00 0. -1.
         11    1    4    4    0    0  0.28506626804E+02  0.15715344578E+02 -0.12251254951E+02  0.34780642247E+02  0.51100000000E-03 0. -1.
        -11    1    4    4    0    0  0.27093933938E+01  0.42257071068E+01  0.35811358279E+00  0.50324605030E+01  0.51100000000E-03 0.  1.
         12    1    4    4    0    0  0.41788730569E+01 -0.13282212168E+02  0.42352807675E+01  0.14553959712E+02  0.00000000000E+00 0. -1.
</event>
<event>
 8    1  0.1280925E-006  0.9118800E+02  0.7816164E-02  0.1184000E+00
        -11   -1    0    0    0    0  0.00000000000E+00  0.00000000000E+00  0.45593999997E+02  0.45594000000E+02  0.51100000000E-03 0.  1.
         11   -1    0    0    0    0 -0.00000000000E+00 -0.00000000000E+00 -0.45593999997E+02  0.45594000000E+02  0.51100000000E-03 0. -1.
         23    2    1    2    0    0  0.00000000000E+00 -0.35527136788E-14  0.00000000000E+00  0.91188000000E+02  0.91188000000E+02 0.  0.
    9900012    2    3    3    0    0  0.13149535932E+02  0.28623538490E+02  0.19067321314E+02  0.54367082128E+02  0.39999995326E+02 0.  0.
         12    1    3    3    0    0 -0.13149535932E+02 -0.28623538490E+02 -0.19067321314E+02  0.36820917872E+02  0.00000000000E+00 0. -1.
         11    1    4    4    0    0  0.95083104163E+01  0.14028344200E+02 -0.29694610253E+01  0.17205234872E+02  0.51100000000E-03 0. -1.
        -11    1    4    4    0    0  0.85331651986E+01  0.16735740828E+02  0.51904562282E+01  0.19489503982E+02  0.51100000000E-03 0.  1.
        -12    1    4    4    0    0 -0.48919396832E+01 -0.21405465376E+01  0.16846326111E+02  0.17672343273E+02  0.00000000000E+00 0.  1.
</event>
<event>
 8    1  0.1280925E-006  0.9118800E+02  0.7816164E-02  0.1184000E+00
        -11   -1    0    0    0    0  0.00000000000E+00  0.00000000000E+00  0.45593999997E+02  0.45594000000E+02  0.51100000000E-03 0.  1.
         11   -1    0    0    0    0 -0.00000000000E+00 -0.00000000000E+00 -0.45593999997E+02  0.45594000000E+02  0.51100000000E-03 0. -1.
         23    2    1    2    0    0 -0.35527136788E-14 -0.88817841970E-15  0.00000000000E+00  0.91188000000E+02  0.91188000000E+02 0.  0.
    9900012    2    3    3    0    0  0.24128064537E+02  0.72384761649E+01  0.26855564684E+02  0.54367076737E+02  0.39999983037E+02 0.  0.
         12    1    3    3    0    0 -0.24128064537E+02 -0.72384761649E+01 -0.26855564684E+02  0.36820923263E+02  0.00000000000E+00 0. -1.
         11    1    4    4    0    0 -0.18377267207E+01 -0.70974634169E+01  0.20392554815E+01  0.76098482004E+01  0.51100000000E-03 0. -1.
        -11    1    4    4    0    0  0.21041243373E+02  0.44202076199E+00  0.42776104682E+01  0.21476202099E+02  0.51100000000E-03 0.  1.
         12    1    4    4    0    0  0.49245478845E+01  0.13893918820E+02  0.20538698734E+02  0.25281026437E+02  0.00000000000E+00 0. -1.
</event>
<event>
 8    1  0.1280925E-006  0.9118800E+02  0.7816164E-02  0.1184000E+00
        -11   -1    0    0    0    0  0.00000000000E+00  0.00000000000E+00  0.45593999997E+02  0.45594000000E+02  0.51100000000E-03 0.  1.
         11   -1    0    0    0    0 -0.00000000000E+00 -0.00000000000E+00 -0.45593999997E+02  0.45594000000E+02  0.51100000000E-03 0. -1.
         23    2    1    2    0    0  0.35527136788E-14  0.35527136788E-14  0.00000000000E+00  0.91188000000E+02  0.91188000000E+02 0.  0.
    9900012    2    3    3    0    0  0.16606209177E+02  0.23160231430E+02 -0.23315590799E+02  0.54367091844E+02  0.40000017477E+02 0.  0.
        -12    1    3    3    0    0 -0.16606209177E+02 -0.23160231430E+02  0.23315590799E+02  0.36820908156E+02  0.00000000000E+00 0.  1.
         11    1    4    4    0    0  0.46973973073E+01  0.18838640073E+02 -0.25872496720E+02  0.32347271726E+02  0.51100000000E-03 0. -1.
        -11    1    4    4    0    0 -0.32303965007E+01  0.39177220981E+00 -0.39167260003E+01  0.50921203676E+01  0.51100000000E-03 0.  1.
        -12    1    4    4    0    0  0.15139208370E+02  0.39298191464E+01  0.64736319215E+01  0.16927699751E+02  0.00000000000E+00 0.  1.
</event>
<event>
 8    1  0.1280925E-006  0.9118800E+02  0.7816164E-02  0.1184000E+00
        -11   -1    0    0    0    0  0.00000000000E+00  0.00000000000E+00  0.45593999997E+02  0.45594000000E+02  0.51100000000E-03 0.  1.
         11   -1    0    0    0    0 -0.00000000000E+00 -0.00000000000E+00 -0.45593999997E+02  0.45594000000E+02  0.51100000000E-03 0. -1.
         23    2    1    2    0    0  0.17763568394E-14  0.66613381478E-15  0.00000000000E+00  0.91188000000E+02  0.91188000000E+02 0.  0.
    9900012    2    3    3    0    0  0.15002629625E+02  0.30657971152E+00  0.33624506726E+02  0.54367077424E+02  0.39999984604E+02 0.  0.
         12    1    3    3    0    0 -0.15002629625E+02 -0.30657971152E+00 -0.33624506726E+02  0.36820922576E+02  0.00000000000E+00 0. -1.
         11    1    4    4    0    0  0.10080689179E+01 -0.61294366135E+00  0.13354934970E+02  0.13406945633E+02  0.51100000000E-03 0. -1.
        -11    1    4    4    0    0  0.12302716762E+02 -0.81204980238E+01  0.26167884225E+02  0.30034271973E+02  0.51100000000E-03 0.  1.
         12    1    4    4    0    0  0.16918439453E+01  0.90400213966E+01 -0.58983124695E+01  0.10925859819E+02  0.00000000000E+00 0. -1.
</event>
<event>
 8    1  0.1280925E-006  0.9118800E+02  0.7816164E-02  0.1184000E+00
        -11   -1    0    0    0    0  0.00000000000E+00  0.00000000000E+00  0.45593999997E+02  0.45594000000E+02  0.51100000000E-03 0.  1.
         11   -1    0    0    0    0 -0.00000000000E+00 -0.00000000000E+00 -0.45593999997E+02  0.45594000000E+02  0.51100000000E-03 0. -1.
         23    2    1    2    0    0 -0.17763568394E-14  0.71054273576E-14  0.44408920985E-15  0.91188000000E+02  0.91188000000E+02 0.  0.
    9900012    2    3    3    0    0 -0.11802162250E+02 -0.34786916556E+02  0.25215185959E+01  0.54367100320E+02  0.40000036798E+02 0.  0.
         12    1    3    3    0    0  0.11802162250E+02  0.34786916556E+02 -0.25215185959E+01  0.36820899680E+02  0.00000000000E+00 0. -1.
         11    1    4    4    0    0  0.66199726970E+01 -0.96087080708E+01 -0.85779916675E+01  0.14482170093E+02  0.51100000000E-03 0. -1.
        -11    1    4    4    0    0 -0.56409271310E+01 -0.23728908628E+02  0.11608346491E+02  0.27011754332E+02  0.51100000000E-03 0.  1.
         12    1    4    4    0    0 -0.12781207816E+02 -0.14492998570E+01 -0.50883622720E+00  0.12873175894E+02  0.00000000000E+00 0. -1.
</event>
<event>
 8    1  0.1280925E-006  0.9118800E+02  0.7816164E-02  0.1184000E+00
        -11   -1    0    0    0    0  0.00000000000E+00  0.00000000000E+00  0.45593999997E+02  0.45594000000E+02  0.51100000000E-03 0.  1.
         11   -1    0    0    0    0 -0.00000000000E+00 -0.00000000000E+00 -0.45593999997E+02  0.45594000000E+02  0.51100000000E-03 0. -1.
         23    2    1    2    0    0  0.00000000000E+00 -0.66613381478E-15  0.00000000000E+00  0.91188000000E+02  0.91188000000E+02 0.  0.
    9900012    2    3    3    0    0  0.53530132485E+01  0.80157715658E+00 -0.36420904242E+02  0.54367088243E+02  0.40000009269E+02 0.  0.
        -12    1    3    3    0    0 -0.53530132485E+01 -0.80157715658E+00  0.36420904242E+02  0.36820911757E+02  0.00000000000E+00 0.  1.
         11    1    4    4    0    0  0.29008175232E+00 -0.96238299518E+01 -0.22941304125E+02  0.24879824871E+02  0.51100000000E-03 0. -1.
        -11    1    4    4    0    0  0.12197931774E+02  0.89380378782E+01 -0.11515275154E+01  0.15165885288E+02  0.51100000000E-03 0.  1.
        -12    1    4    4    0    0 -0.71350002779E+01  0.14873692302E+01 -0.12328072601E+02  0.14321378085E+02  0.00000000000E+00 0.  1.
</event>
<event>
 8    1  0.1280925E-006  0.9118800E+02  0.7816164E-02  0.1184000E+00
        -11   -1    0    0    0    0  0.00000000000E+00  0.00000000000E+00  0.45593999997E+02  0.45594000000E+02  0.51100000000E-03 0. -1.
         11   -1    0    0    0    0 -0.00000000000E+00 -0.00000000000E+00 -0.45593999997E+02  0.45594000000E+02  0.51100000000E-03 0.  1.
         23    2    1    2    0    0  0.00000000000E+00 -0.35527136788E-14 -0.71054273576E-14  0.91188000000E+02  0.91188000000E+02 0.  0.
    9900012    2    3    3    0    0 -0.42474151828E+01 -0.22324463438E+02 -0.28971660393E+02  0.54367091409E+02  0.40000016485E+02 0.  0.
         12    1    3    3    0    0  0.42474151828E+01  0.22324463438E+02  0.28971660393E+02  0.36820908591E+02  0.00000000000E+00 0. -1.
         11    1    4    4    0    0  0.82340413653E+00  0.35804033816E+01  0.29070538314E+01  0.46848954083E+01  0.51100000000E-03 0. -1.
        -11    1    4    4    0    0  0.53449673520E+00  0.33187314889E+01 -0.15206340385E+02  0.15573453490E+02  0.51100000000E-03 0.  1.
         12    1    4    4    0    0 -0.56053160545E+01 -0.29223598309E+02 -0.16672373840E+02  0.34108742510E+02  0.00000000000E+00 0. -1.
</event>
<event>
 8    1  0.1280925E-006  0.9118800E+02  0.7816164E-02  0.1184000E+00
        -11   -1    0    0    0    0  0.00000000000E+00  0.00000000000E+00  0.45593999997E+02  0.45594000000E+02  0.51100000000E-03 0. -1.
         11   -1    0    0    0    0 -0.00000000000E+00 -0.00000000000E+00 -0.45593999997E+02  0.45594000000E+02  0.51100000000E-03 0.  1.
         23    2    1    2    0    0  0.00000000000E+00  0.35527136788E-14  0.00000000000E+00  0.91188000000E+02  0.91188000000E+02 0.  0.
    9900012    2    3    3    0    0  0.18404344080E+02 -0.30346182944E+02  0.98066299357E+01  0.54367072649E+02  0.39999973718E+02 0.  0.
        -12    1    3    3    0    0 -0.18404344080E+02  0.30346182944E+02 -0.98066299357E+01  0.36820927351E+02  0.00000000000E+00 0.  1.
         11    1    4    4    0    0 -0.34134594842E+01 -0.11296537499E+02  0.49300338439E+00  0.11811287725E+02  0.51100000000E-03 0. -1.
        -11    1    4    4    0    0 -0.37608454134E+01 -0.79301259930E+01 -0.61006314606E+01  0.10688711848E+02  0.51100000000E-03 0.  1.
         12    1    4    4    0    0  0.25578648978E+02 -0.11119519452E+02  0.15414258012E+02  0.31867073076E+02  0.00000000000E+00 0. -1.
</event>
<event>
 8    1  0.1280925E-006  0.9118800E+02  0.7816164E-02  0.1184000E+00
        -11   -1    0    0    0    0  0.00000000000E+00  0.00000000000E+00  0.45593999997E+02  0.45594000000E+02  0.51100000000E-03 0.  1.
         11   -1    0    0    0    0 -0.00000000000E+00 -0.00000000000E+00 -0.45593999997E+02  0.45594000000E+02  0.51100000000E-03 0. -1.
         23    2    1    2    0    0  0.00000000000E+00 -0.71054273576E-14  0.13322676296E-14  0.91188000000E+02  0.91188000000E+02 0.  0.
    9900012    2    3    3    0    0  0.96446858990E+01 -0.35462126019E+02  0.22796894518E+01  0.54367091105E+02  0.40000015792E+02 0.  0.
        -12    1    3    3    0    0 -0.96446858990E+01  0.35462126019E+02 -0.22796894518E+01  0.36820908895E+02  0.00000000000E+00 0.  1.
         11    1    4    4    0    0  0.90009969212E+01 -0.13128085022E+02  0.10679106690E+02  0.19167886735E+02  0.51100000000E-03 0. -1.
        -11    1    4    4    0    0 -0.69166009333E+01 -0.23837354405E+01  0.59985226314E+01  0.94606467613E+01  0.51100000000E-03 0.  1.
         12    1    4    4    0    0  0.75602899112E+01 -0.19950305556E+02 -0.14397939869E+02  0.25738557609E+02  0.00000000000E+00 0. -1.
</event>
<event>
 8    1  0.1280925E-006  0.9118800E+02  0.7816164E-02  0.1184000E+00
        -11   -1    0    0    0    0  0.00000000000E+00  0.00000000000E+00  0.45593999997E+02  0.45594000000E+02  0.51100000000E-03 0. -1.
         11   -1    0    0    0    0 -0.00000000000E+00 -0.00000000000E+00 -0.45593999997E+02  0.45594000000E+02  0.51100000000E-03 0.  1.
         23    2    1    2    0    0  0.35527136788E-14 -0.17763568394E-14 -0.35527136788E-14  0.91188000000E+02  0.91188000000E+02 0.  0.
    9900012    2    3    3    0    0  0.21629121859E+02 -0.13107281823E+02 -0.26761202110E+02  0.54367059117E+02  0.39999942868E+02 0.  0.
        -12    1    3    3    0    0 -0.21629121859E+02  0.13107281823E+02  0.26761202110E+02  0.36820940883E+02  0.00000000000E+00 0.  1.
         11    1    4    4    0    0  0.15663740277E+02 -0.85502752089E+00 -0.13875559843E+01  0.15748306048E+02  0.51100000000E-03 0. -1.
        -11    1    4    4    0    0 -0.29819636335E+01  0.57444735280E+01 -0.14242096153E+02  0.15643797055E+02  0.51100000000E-03 0.  1.
         12    1    4    4    0    0  0.89473452154E+01 -0.17996727830E+02 -0.11131549973E+02  0.22974956013E+02  0.00000000000E+00 0. -1.
</event>
<event>
 8    1  0.1280925E-006  0.9118800E+02  0.7816164E-02  0.1184000E+00
        -11   -1    0    0    0    0  0.00000000000E+00  0.00000000000E+00  0.45593999997E+02  0.45594000000E+02  0.51100000000E-03 0.  1.
         11   -1    0    0    0    0 -0.00000000000E+00 -0.00000000000E+00 -0.45593999997E+02  0.45594000000E+02  0.51100000000E-03 0. -1.
         23    2    1    2    0    0  0.44408920985E-15  0.00000000000E+00  0.00000000000E+00  0.91188000000E+02  0.91188000000E+02 0.  0.
    9900012    2    3    3    0    0  0.34597038223E+01  0.19442404762E+02  0.31077435414E+02  0.54367032531E+02  0.39999882261E+02 0.  0.
         12    1    3    3    0    0 -0.34597038223E+01 -0.19442404762E+02 -0.31077435414E+02  0.36820967469E+02  0.00000000000E+00 0. -1.
         11    1    4    4    0    0  0.36927273884E+01  0.18610257095E+02  0.24439197227E+01  0.19129836606E+02  0.51100000000E-03 0. -1.
        -11    1    4    4    0    0  0.53589215214E+01  0.90816370318E+01  0.13828291848E+02  0.17390107152E+02  0.51100000000E-03 0.  1.
        -12    1    4    4    0    0 -0.55919450875E+01 -0.82494893647E+01  0.14805223843E+02  0.17847088773E+02  0.00000000000E+00 0.  1.
</event>
<event>
 8    1  0.1280925E-006  0.9118800E+02  0.7816164E-02  0.1184000E+00
        -11   -1    0    0    0    0  0.00000000000E+00  0.00000000000E+00  0.45593999997E+02  0.45594000000E+02  0.51100000000E-03 0.  1.
         11   -1    0    0    0    0 -0.00000000000E+00 -0.00000000000E+00 -0.45593999997E+02  0.45594000000E+02  0.51100000000E-03 0. -1.
         23    2    1    2    0    0  0.00000000000E+00  0.00000000000E+00  0.00000000000E+00  0.91188000000E+02  0.91188000000E+02 0.  0.
    9900012    2    3    3    0    0  0.30833410068E+02  0.17123771245E+02  0.10576186163E+02  0.54367103327E+02  0.40000043653E+02 0.  0.
         12    1    3    3    0    0 -0.30833410068E+02 -0.17123771245E+02 -0.10576186163E+02  0.36820896673E+02  0.00000000000E+00 0. -1.
         11    1    4    4    0    0  0.21066838603E+01 -0.18512530338E+01 -0.13001718891E+01  0.30912298337E+01  0.51100000000E-03 0. -1.
        -11    1    4    4    0    0 -0.55924974093E+00  0.19589225099E+02  0.97973227683E+01  0.21909770285E+02  0.51100000000E-03 0.  1.
        -12    1    4    4    0    0  0.29285975949E+02 -0.61420082010E+00  0.20790352842E+01  0.29366103208E+02  0.00000000000E+00 0.  1.
</event>
<event>
 8    1  0.1280925E-006  0.9118800E+02  0.7816164E-02  0.1184000E+00
        -11   -1    0    0    0    0  0.00000000000E+00  0.00000000000E+00  0.45593999997E+02  0.45594000000E+02  0.51100000000E-03 0.  1.
         11   -1    0    0    0    0 -0.00000000000E+00 -0.00000000000E+00 -0.45593999997E+02  0.45594000000E+02  0.51100000000E-03 0. -1.
         23    2    1    2    0    0  0.35527136788E-14 -0.77715611724E-15  0.00000000000E+00  0.91188000000E+02  0.91188000000E+02 0.  0.
    9900012    2    3    3    0    0 -0.25125079458E+02 -0.84625387617E+00  0.26903424739E+02  0.54367081678E+02  0.39999994301E+02 0.  0.
         12    1    3    3    0    0  0.25125079458E+02  0.84625387617E+00 -0.26903424739E+02  0.36820918322E+02  0.00000000000E+00 0. -1.
         11    1    4    4    0    0  0.19043903682E+01  0.99355255783E+00 -0.12147445765E+01  0.24676819096E+01  0.51100000000E-03 0. -1.
        -11    1    4    4    0    0 -0.18748956843E+02 -0.14140552969E+02  0.28671098642E+02  0.37060902830E+02  0.51100000000E-03 0.  1.
         12    1    4    4    0    0 -0.82805129826E+01  0.12300746535E+02 -0.55292932554E+00  0.14838496939E+02  0.00000000000E+00 0. -1.
</event>
<event>
 8    1  0.1280925E-006  0.9118800E+02  0.7816164E-02  0.1184000E+00
        -11   -1    0    0    0    0  0.00000000000E+00  0.00000000000E+00  0.45593999997E+02  0.45594000000E+02  0.51100000000E-03 0.  1.
         11   -1    0    0    0    0 -0.00000000000E+00 -0.00000000000E+00 -0.45593999997E+02  0.45594000000E+02  0.51100000000E-03 0. -1.
         23    2    1    2    0    0 -0.71054273576E-14  0.88817841970E-15 -0.17763568394E-14  0.91188000000E+02  0.91188000000E+02 0.  0.
    9900012    2    3    3    0    0  0.32936243155E+02  0.49973623021E+01  0.15684704685E+02  0.54367086049E+02  0.40000004266E+02 0.  0.
         12    1    3    3    0    0 -0.32936243155E+02 -0.49973623021E+01 -0.15684704685E+02  0.36820913951E+02  0.00000000000E+00 0. -1.
         11    1    4    4    0    0  0.21539863028E+02  0.14904427767E+01  0.23543139718E+02  0.31944742087E+02  0.51100000000E-03 0. -1.
        -11    1    4    4    0    0  0.14219673074E+02  0.74931611740E+01 -0.66196328356E+01  0.17382925699E+02  0.51100000000E-03 0.  1.
         12    1    4    4    0    0 -0.28232929476E+01 -0.39862416486E+01 -0.12388021974E+01  0.50394182634E+01  0.00000000000E+00 0. -1.
</event>
<event>
 8    1  0.1280925E-006  0.9118800E+02  0.7816164E-02  0.1184000E+00
        -11   -1    0    0    0    0  0.00000000000E+00  0.00000000000E+00  0.45593999997E+02  0.45594000000E+02  0.51100000000E-03 0. -1.
         11   -1    0    0    0    0 -0.00000000000E+00 -0.00000000000E+00 -0.45593999997E+02  0.45594000000E+02  0.51100000000E-03 0.  1.
         23    2    1    2    0    0 -0.88817841970E-15  0.00000000000E+00  0.00000000000E+00  0.91188000000E+02  0.91188000000E+02 0.  0.
    9900012    2    3    3    0    0  0.77591157881E+01  0.19541741346E+02 -0.30227414331E+02  0.54367080541E+02  0.39999991710E+02 0.  0.
         12    1    3    3    0    0 -0.77591157881E+01 -0.19541741346E+02  0.30227414331E+02  0.36820919459E+02  0.00000000000E+00 0. -1.
         11    1    4    4    0    0  0.59599773364E+01  0.11239091749E+02  0.44841020466E+01  0.13488724351E+02  0.51100000000E-03 0. -1.
        -11    1    4    4    0    0 -0.56252575344E+01  0.11555407842E+02 -0.25851785212E+02  0.28870153648E+02  0.51100000000E-03 0.  1.
        -12    1    4    4    0    0  0.74243959861E+01 -0.32527582456E+01 -0.88597311656E+01  0.12008202542E+02  0.00000000000E+00 0.  1.
</event>
<event>
 8    1  0.1280925E-006  0.9118800E+02  0.7816164E-02  0.1184000E+00
        -11   -1    0    0    0    0  0.00000000000E+00  0.00000000000E+00  0.45593999997E+02  0.45594000000E+02  0.51100000000E-03 0.  1.
         11   -1    0    0    0    0 -0.00000000000E+00 -0.00000000000E+00 -0.45593999997E+02  0.45594000000E+02  0.51100000000E-03 0. -1.
         23    2    1    2    0    0 -0.35527136788E-14 -0.35527136788E-14  0.00000000000E+00  0.91188000000E+02  0.91188000000E+02 0.  0.
    9900012    2    3    3    0    0 -0.30322448088E+02 -0.13154279546E+02  0.16226342910E+02  0.54367080230E+02  0.39999991001E+02 0.  0.
         12    1    3    3    0    0  0.30322448088E+02  0.13154279546E+02 -0.16226342910E+02  0.36820919770E+02  0.00000000000E+00 0. -1.
         11    1    4    4    0    0 -0.48847408173E+01  0.97399989733E+01  0.11662455287E+02  0.15960612032E+02  0.51100000000E-03 0. -1.
        -11    1    4    4    0    0 -0.23473466808E+02 -0.15452909007E+02  0.90173965268E+01  0.29514563882E+02  0.51100000000E-03 0.  1.
         12    1    4    4    0    0 -0.19642404627E+01 -0.74413695120E+01 -0.44535089037E+01  0.88919043160E+01  0.00000000000E+00 0. -1.
</event>
<event>
 8    1  0.1280925E-006  0.9118800E+02  0.7816164E-02  0.1184000E+00
        -11   -1    0    0    0    0  0.00000000000E+00  0.00000000000E+00  0.45593999997E+02  0.45594000000E+02  0.51100000000E-03 0.  1.
         11   -1    0    0    0    0 -0.00000000000E+00 -0.00000000000E+00 -0.45593999997E+02  0.45594000000E+02  0.51100000000E-03 0. -1.
         23    2    1    2    0    0  0.71054273576E-14  0.00000000000E+00  0.17763568394E-14  0.91188000000E+02  0.91188000000E+02 0.  0.
    9900012    2    3    3    0    0  0.35312091354E+02 -0.65242154210E+01  0.81410159493E+01  0.54367009745E+02  0.39999830316E+02 0.  0.
         12    1    3    3    0    0 -0.35312091354E+02  0.65242154210E+01 -0.81410159493E+01  0.36820990255E+02  0.00000000000E+00 0. -1.
         11    1    4    4    0    0 -0.34170790001E+01 -0.77214321342E+01  0.25623580854E+01  0.88239799589E+01  0.51100000000E-03 0. -1.
        -11    1    4    4    0    0  0.21228768832E+02 -0.69186182024E+01  0.11825639563E+02  0.25266057375E+02  0.51100000000E-03 0.  1.
        -12    1    4    4    0    0  0.17500401522E+02  0.81158349156E+01 -0.62469816993E+01  0.20276972411E+02  0.00000000000E+00 0.  1.
</event>
<event>
 8    1  0.1280925E-006  0.9118800E+02  0.7816164E-02  0.1184000E+00
        -11   -1    0    0    0    0  0.00000000000E+00  0.00000000000E+00  0.45593999997E+02  0.45594000000E+02  0.51100000000E-03 0. -1.
         11   -1    0    0    0    0 -0.00000000000E+00 -0.00000000000E+00 -0.45593999997E+02  0.45594000000E+02  0.51100000000E-03 0.  1.
         23    2    1    2    0    0 -0.35527136788E-14  0.00000000000E+00  0.00000000000E+00  0.91188000000E+02  0.91188000000E+02 0.  0.
    9900012    2    3    3    0    0  0.17527050813E+02  0.30611276245E+02  0.10561105827E+02  0.54367018212E+02  0.39999849619E+02 0.  0.
         12    1    3    3    0    0 -0.17527050813E+02 -0.30611276245E+02 -0.10561105827E+02  0.36820981788E+02  0.00000000000E+00 0. -1.
         11    1    4    4    0    0  0.15215128253E+02  0.15950632746E+02  0.11746389131E+02  0.24977999733E+02  0.51100000000E-03 0. -1.
        -11    1    4    4    0    0  0.57654514174E+01  0.17707597365E+02  0.70834326471E+01  0.19924217746E+02  0.51100000000E-03 0.  1.
        -12    1    4    4    0    0 -0.34535288576E+01 -0.30469538665E+01 -0.82687159515E+01  0.94648007333E+01  0.00000000000E+00 0.  1.
</event>
<event>
 8    1  0.1280925E-006  0.9118800E+02  0.7816164E-02  0.1184000E+00
        -11   -1    0    0    0    0  0.00000000000E+00  0.00000000000E+00  0.45593999997E+02  0.45594000000E+02  0.51100000000E-03 0.  1.
         11   -1    0    0    0    0 -0.00000000000E+00 -0.00000000000E+00 -0.45593999997E+02  0.45594000000E+02  0.51100000000E-03 0. -1.
         23    2    1    2    0    0 -0.35527136788E-14  0.00000000000E+00  0.35527136788E-14  0.91188000000E+02  0.91188000000E+02 0.  0.
    9900012    2    3    3    0    0  0.16937841075E+02  0.15741109521E+02 -0.28654978846E+02  0.54367071143E+02  0.39999970285E+02 0.  0.
        -12    1    3    3    0    0 -0.16937841075E+02 -0.15741109521E+02  0.28654978846E+02  0.36820928857E+02  0.00000000000E+00 0.  1.
         11    1    4    4    0    0 -0.94119901682E+00 -0.60245896967E+01 -0.13017481669E+02  0.14374851856E+02  0.51100000000E-03 0. -1.
        -11    1    4    4    0    0  0.66972168359E+01  0.86555905155E+01  0.58816894544E+01  0.12424420776E+02  0.51100000000E-03 0.  1.
         12    1    4    4    0    0  0.11181823256E+02  0.13110108702E+02 -0.21519186631E+02  0.27567798511E+02  0.00000000000E+00 0. -1.
</event>
<event>
 8    1  0.1280925E-006  0.9118800E+02  0.7816164E-02  0.1184000E+00
        -11   -1    0    0    0    0  0.00000000000E+00  0.00000000000E+00  0.45593999997E+02  0.45594000000E+02  0.51100000000E-03 0. -1.
         11   -1    0    0    0    0 -0.00000000000E+00 -0.00000000000E+00 -0.45593999997E+02  0.45594000000E+02  0.51100000000E-03 0.  1.
         23    2    1    2    0    0  0.35527136788E-14  0.00000000000E+00  0.00000000000E+00  0.91188000000E+02  0.91188000000E+02 0.  0.
    9900012    2    3    3    0    0 -0.28756478114E+02 -0.18552864806E+02 -0.13588113899E+02  0.54367072997E+02  0.39999974511E+02 0.  0.
        -12    1    3    3    0    0  0.28756478114E+02  0.18552864806E+02  0.13588113899E+02  0.36820927003E+02  0.00000000000E+00 0.  1.
         11    1    4    4    0    0  0.15332861107E+00  0.47512805162E+01  0.40597906286E+01  0.62514059551E+01  0.51100000000E-03 0. -1.
        -11    1    4    4    0    0 -0.13089705650E+02  0.89405924681E+00 -0.13644434165E+02  0.18929086609E+02  0.51100000000E-03 0.  1.
         12    1    4    4    0    0 -0.15820101075E+02 -0.24198204569E+02 -0.40034703627E+01  0.29186580432E+02  0.00000000000E+00 0. -1.
</event>
<event>
 8    1  0.1280925E-006  0.9118800E+02  0.7816164E-02  0.1184000E+00
        -11   -1    0    0    0    0  0.00000000000E+00  0.00000000000E+00  0.45593999997E+02  0.45594000000E+02  0.51100000000E-03 0.  1.
         11   -1    0    0    0    0 -0.00000000000E+00 -0.00000000000E+00 -0.45593999997E+02  0.45594000000E+02  0.51100000000E-03 0. -1.
         23    2    1    2    0    0  0.00000000000E+00 -0.35527136788E-14  0.22204460493E-15  0.91188000000E+02  0.91188000000E+02 0.  0.
    9900012    2    3    3    0    0  0.19698396735E+02  0.31062602765E+02 -0.16935516792E+01  0.54367078749E+02  0.39999987624E+02 0.  0.
        -12    1    3    3    0    0 -0.19698396735E+02 -0.31062602765E+02  0.16935516792E+01  0.36820921251E+02  0.00000000000E+00 0.  1.
         11    1    4    4    0    0  0.60393683548E+01  0.73703783389E+01  0.10577436024E+02  0.14236523455E+02  0.51100000000E-03 0. -1.
        -11    1    4    4    0    0 -0.51228924577E+01  0.13038527114E+02  0.21384337979E+01  0.14171101433E+02  0.51100000000E-03 0.  1.
        -12    1    4    4    0    0  0.18781920838E+02  0.10653697312E+02 -0.14409421501E+02  0.25959453861E+02  0.00000000000E+00 0.  1.
</event>
<event>
 8    1  0.1280925E-006  0.9118800E+02  0.7816164E-02  0.1184000E+00
        -11   -1    0    0    0    0  0.00000000000E+00  0.00000000000E+00  0.45593999997E+02  0.45594000000E+02  0.51100000000E-03 0. -1.
         11   -1    0    0    0    0 -0.00000000000E+00 -0.00000000000E+00 -0.45593999997E+02  0.45594000000E+02  0.51100000000E-03 0.  1.
         23    2    1    2    0    0  0.35527136788E-14 -0.71054273576E-14  0.76327832943E-16  0.91188000000E+02  0.91188000000E+02 0.  0.
    9900012    2    3    3    0    0  0.18844713211E+02 -0.31633124511E+02  0.55229927188E-01  0.54367070726E+02  0.39999969333E+02 0.  0.
        -12    1    3    3    0    0 -0.18844713211E+02  0.31633124511E+02 -0.55229927188E-01  0.36820929274E+02  0.00000000000E+00 0.  1.
         11    1    4    4    0    0 -0.27387516210E+01 -0.16845162706E+02  0.28583933314E+00  0.17068742526E+02  0.51100000000E-03 0. -1.
        -11    1    4    4    0    0 -0.54962326144E+01 -0.73998233796E+01 -0.43805757125E+00  0.92281013051E+01  0.51100000000E-03 0.  1.
        -12    1    4    4    0    0  0.27079697446E+02 -0.73881384245E+01  0.20744816530E+00  0.28070226894E+02  0.00000000000E+00 0.  1.
</event>
<event>
 8    1  0.1280925E-006  0.9118800E+02  0.7816164E-02  0.1184000E+00
        -11   -1    0    0    0    0  0.00000000000E+00  0.00000000000E+00  0.45593999997E+02  0.45594000000E+02  0.51100000000E-03 0.  1.
         11   -1    0    0    0    0 -0.00000000000E+00 -0.00000000000E+00 -0.45593999997E+02  0.45594000000E+02  0.51100000000E-03 0. -1.
         23    2    1    2    0    0  0.00000000000E+00  0.00000000000E+00  0.00000000000E+00  0.91188000000E+02  0.91188000000E+02 0.  0.
    9900012    2    3    3    0    0  0.96509144623E+01  0.29270612070E+02  0.20146198573E+02  0.54367106504E+02  0.40000050896E+02 0.  0.
         12    1    3    3    0    0 -0.96509144623E+01 -0.29270612070E+02 -0.20146198573E+02  0.36820893496E+02  0.00000000000E+00 0. -1.
         11    1    4    4    0    0 -0.40631399553E+01  0.18358075710E+01 -0.73996908310E+01  0.86391388685E+01  0.51100000000E-03 0. -1.
        -11    1    4    4    0    0  0.14070974448E+02  0.19159098625E+02  0.90026807599E+01  0.25418726230E+02  0.51100000000E-03 0.  1.
        -12    1    4    4    0    0 -0.35692003012E+00  0.82757058739E+01  0.18543208644E+02  0.20309241405E+02  0.00000000000E+00 0.  1.
</event>
<event>
 8    1  0.1280925E-006  0.9118800E+02  0.7816164E-02  0.1184000E+00
        -11   -1    0    0    0    0  0.00000000000E+00  0.00000000000E+00  0.45593999997E+02  0.45594000000E+02  0.51100000000E-03 0.  1.
         11   -1    0    0    0    0 -0.00000000000E+00 -0.00000000000E+00 -0.45593999997E+02  0.45594000000E+02  0.51100000000E-03 0. -1.
         23    2    1    2    0    0  0.35527136788E-14 -0.17763568394E-14  0.00000000000E+00  0.91188000000E+02  0.91188000000E+02 0.  0.
    9900012    2    3    3    0    0  0.27788159536E+02  0.10637315530E+02  0.21689825538E+02  0.54367043684E+02  0.39999907687E+02 0.  0.
        -12    1    3    3    0    0 -0.27788159536E+02 -0.10637315530E+02 -0.21689825538E+02  0.36820956316E+02  0.00000000000E+00 0.  1.
         11    1    4    4    0    0 -0.10222326533E+02  0.13756346073E+01  0.57933500706E+01  0.11830098716E+02  0.51100000000E-03 0.  1.
        -11    1    4    4    0    0  0.18613305350E+02  0.48035445006E+01  0.50723225320E+01  0.19881087293E+02  0.51100000000E-03 0. -1.
         12    1    4    4    0    0  0.19397180720E+02  0.44581364224E+01  0.10824152936E+02  0.22655857676E+02  0.00000000000E+00 0. -1.
</event>
<event>
 8    1  0.1280925E-006  0.9118800E+02  0.7816164E-02  0.1184000E+00
        -11   -1    0    0    0    0  0.00000000000E+00  0.00000000000E+00  0.45593999997E+02  0.45594000000E+02  0.51100000000E-03 0.  1.
         11   -1    0    0    0    0 -0.00000000000E+00 -0.00000000000E+00 -0.45593999997E+02  0.45594000000E+02  0.51100000000E-03 0. -1.
         23    2    1    2    0    0  0.35527136788E-14  0.00000000000E+00  0.00000000000E+00  0.91188000000E+02  0.91188000000E+02 0.  0.
    9900012    2    3    3    0    0 -0.31059209151E+02  0.12669437136E+02 -0.15185206790E+02  0.54367087251E+02  0.40000007005E+02 0.  0.
        -12    1    3    3    0    0  0.31059209151E+02 -0.12669437136E+02  0.15185206790E+02  0.36820912749E+02  0.00000000000E+00 0.  1.
         11    1    4    4    0    0 -0.97472816364E+01  0.37577388990E+01 -0.11029355236E+02  0.15191338918E+02  0.51100000000E-03 0. -1.
        -11    1    4    4    0    0  0.63622864694E+01 -0.18065192610E+01  0.48051608185E+01  0.81750701350E+01  0.51100000000E-03 0.  1.
        -12    1    4    4    0    0 -0.27674213984E+02  0.10718217498E+02 -0.89610123718E+01  0.31000678198E+02  0.00000000000E+00 0.  1.
</event>
<event>
 8    1  0.1280925E-006  0.9118800E+02  0.7816164E-02  0.1184000E+00
        -11   -1    0    0    0    0  0.00000000000E+00  0.00000000000E+00  0.45593999997E+02  0.45594000000E+02  0.51100000000E-03 0. -1.
         11   -1    0    0    0    0 -0.00000000000E+00 -0.00000000000E+00 -0.45593999997E+02  0.45594000000E+02  0.51100000000E-03 0.  1.
         23    2    1    2    0    0  0.00000000000E+00 -0.35527136788E-14  0.00000000000E+00  0.91188000000E+02  0.91188000000E+02 0.  0.
    9900012    2    3    3    0    0 -0.14004183060E+02  0.26750812071E+02  0.21072610888E+02  0.54367108929E+02  0.40000056425E+02 0.  0.
        -12    1    3    3    0    0  0.14004183060E+02 -0.26750812071E+02 -0.21072610888E+02  0.36820891071E+02  0.00000000000E+00 0.  1.
         11    1    4    4    0    0 -0.31795050689E+01  0.18553071684E+02  0.17966949109E+02  0.26021855851E+02  0.51100000000E-03 0. -1.
        -11    1    4    4    0    0 -0.17189806899E+02  0.27264248313E+01  0.74053346118E+01  0.18914593164E+02  0.51100000000E-03 0.  1.
        -12    1    4    4    0    0  0.63651289082E+01  0.54713155555E+01 -0.42996728329E+01  0.94306599131E+01  0.00000000000E+00 0.  1.
</event>
<event>
 8    1  0.1280925E-006  0.9118800E+02  0.7816164E-02  0.1184000E+00
        -11   -1    0    0    0    0  0.00000000000E+00  0.00000000000E+00  0.45593999997E+02  0.45594000000E+02  0.51100000000E-03 0. -1.
         11   -1    0    0    0    0 -0.00000000000E+00 -0.00000000000E+00 -0.45593999997E+02  0.45594000000E+02  0.51100000000E-03 0.  1.
         23    2    1    2    0    0  0.71054273576E-14  0.00000000000E+00  0.00000000000E+00  0.91188000000E+02  0.91188000000E+02 0.  0.
    9900012    2    3    3    0    0 -0.29471432683E+02  0.21707004235E+02 -0.40027361271E+01  0.54367064736E+02  0.39999955678E+02 0.  0.
         12    1    3    3    0    0  0.29471432683E+02 -0.21707004235E+02  0.40027361271E+01  0.36820935264E+02  0.00000000000E+00 0. -1.
         11    1    4    4    0    0 -0.57471482786E+00  0.12678234552E+02 -0.81333561137E+01  0.15073798805E+02  0.51100000000E-03 0. -1.
        -11    1    4    4    0    0 -0.14358677631E+01  0.11255479185E+02 -0.49112414539E+00  0.11357320595E+02  0.51100000000E-03 0.  1.
         12    1    4    4    0    0 -0.27460850092E+02 -0.22267095013E+01  0.46217441321E+01  0.27935945335E+02  0.00000000000E+00 0. -1.
</event>
<event>
 8    1  0.1280925E-006  0.9118800E+02  0.7816164E-02  0.1184000E+00
        -11   -1    0    0    0    0  0.00000000000E+00  0.00000000000E+00  0.45593999997E+02  0.45594000000E+02  0.51100000000E-03 0. -1.
         11   -1    0    0    0    0 -0.00000000000E+00 -0.00000000000E+00 -0.45593999997E+02  0.45594000000E+02  0.51100000000E-03 0.  1.
         23    2    1    2    0    0  0.00000000000E+00 -0.66613381478E-15 -0.88817841970E-15  0.91188000000E+02  0.91188000000E+02 0.  0.
    9900012    2    3    3    0    0  0.36495468332E+02 -0.73413042266E+00  0.48292675288E+01  0.54367082289E+02  0.39999995693E+02 0.  0.
        -12    1    3    3    0    0 -0.36495468332E+02  0.73413042266E+00 -0.48292675288E+01  0.36820917711E+02  0.00000000000E+00 0.  1.
         11    1    4    4    0    0  0.11287705339E+02 -0.58520263594E+01  0.12225088393E+02  0.17638347168E+02  0.51100000000E-03 0. -1.
        -11    1    4    4    0    0  0.23190407769E+02  0.85956478212E+01 -0.14424637245E+02  0.28631282435E+02  0.51100000000E-03 0.  1.
        -12    1    4    4    0    0  0.20173552231E+01 -0.34777518845E+01  0.70288163816E+01  0.80974526854E+01  0.00000000000E+00 0.  1.
</event>
<event>
 8    1  0.1280925E-006  0.9118800E+02  0.7816164E-02  0.1184000E+00
        -11   -1    0    0    0    0  0.00000000000E+00  0.00000000000E+00  0.45593999997E+02  0.45594000000E+02  0.51100000000E-03 0.  1.
         11   -1    0    0    0    0 -0.00000000000E+00 -0.00000000000E+00 -0.45593999997E+02  0.45594000000E+02  0.51100000000E-03 0. -1.
         23    2    1    2    0    0  0.00000000000E+00  0.35527136788E-14  0.00000000000E+00  0.91188000000E+02  0.91188000000E+02 0.  0.
    9900012    2    3    3    0    0 -0.11954619225E+02  0.17395513627E+02 -0.30170586527E+02  0.54367067006E+02  0.39999960854E+02 0.  0.
        -12    1    3    3    0    0  0.11954619225E+02 -0.17395513627E+02  0.30170586527E+02  0.36820932994E+02  0.00000000000E+00 0.  1.
         11    1    4    4    0    0  0.14151823832E+01 -0.49649476048E+01 -0.12377446252E+02  0.13410988848E+02  0.51100000000E-03 0. -1.
        -11    1    4    4    0    0 -0.18450783472E+02  0.22325768750E+02 -0.20222076623E+02  0.35324265657E+02  0.51100000000E-03 0.  1.
         12    1    4    4    0    0  0.50809818637E+01  0.34692481324E-01  0.24289363475E+01  0.56318125011E+01  0.00000000000E+00 0. -1.
</event>
<event>
 8    1  0.1280925E-006  0.9118800E+02  0.7816164E-02  0.1184000E+00
        -11   -1    0    0    0    0  0.00000000000E+00  0.00000000000E+00  0.45593999997E+02  0.45594000000E+02  0.51100000000E-03 0. -1.
         11   -1    0    0    0    0 -0.00000000000E+00 -0.00000000000E+00 -0.45593999997E+02  0.45594000000E+02  0.51100000000E-03 0.  1.
         23    2    1    2    0    0  0.35527136788E-14  0.35527136788E-14  0.00000000000E+00  0.91188000000E+02  0.91188000000E+02 0.  0.
    9900012    2    3    3    0    0  0.29559143960E+02  0.13852830845E+02  0.17033401965E+02  0.54367072573E+02  0.39999973545E+02 0.  0.
        -12    1    3    3    0    0 -0.29559143960E+02 -0.13852830845E+02 -0.17033401965E+02  0.36820927427E+02  0.00000000000E+00 0.  1.
         11    1    4    4    0    0  0.10944199228E+02  0.47202726913E+01 -0.69579400383E+01  0.13801065208E+02  0.51100000000E-03 0. -1.
        -11    1    4    4    0    0 -0.58050985970E+01 -0.14979513138E+01  0.55619085795E+01  0.81778881851E+01  0.51100000000E-03 0.  1.
         12    1    4    4    0    0  0.24420043328E+02  0.10630509468E+02  0.18429433424E+02  0.32388119180E+02  0.00000000000E+00 0. -1.
</event>
<event>
 8    1  0.1280925E-006  0.9118800E+02  0.7816164E-02  0.1184000E+00
        -11   -1    0    0    0    0  0.00000000000E+00  0.00000000000E+00  0.45593999997E+02  0.45594000000E+02  0.51100000000E-03 0.  1.
         11   -1    0    0    0    0 -0.00000000000E+00 -0.00000000000E+00 -0.45593999997E+02  0.45594000000E+02  0.51100000000E-03 0. -1.
         23    2    1    2    0    0  0.00000000000E+00  0.00000000000E+00  0.13322676296E-14  0.91188000000E+02  0.91188000000E+02 0.  0.
    9900012    2    3    3    0    0 -0.34129412626E+02  0.13612789956E+02  0.23780727161E+01  0.54367080859E+02  0.39999992434E+02 0.  0.
        -12    1    3    3    0    0  0.34129412626E+02 -0.13612789956E+02 -0.23780727161E+01  0.36820919141E+02  0.00000000000E+00 0.  1.
         11    1    4    4    0    0  0.30732259439E+01 -0.15998498488E+01 -0.85243155654E+01  0.92015321203E+01  0.51100000000E-03 0. -1.
        -11    1    4    4    0    0 -0.15313701849E+02  0.88074053894E+01  0.13469013159E+02  0.22214728667E+02  0.51100000000E-03 0.  1.
         12    1    4    4    0    0 -0.21888936721E+02  0.64052344156E+01 -0.25666248777E+01  0.22950820071E+02  0.00000000000E+00 0. -1.
</event>
<event>
 8    1  0.1280925E-006  0.9118800E+02  0.7816164E-02  0.1184000E+00
        -11   -1    0    0    0    0  0.00000000000E+00  0.00000000000E+00  0.45593999997E+02  0.45594000000E+02  0.51100000000E-03 0.  1.
         11   -1    0    0    0    0 -0.00000000000E+00 -0.00000000000E+00 -0.45593999997E+02  0.45594000000E+02  0.51100000000E-03 0. -1.
         23    2    1    2    0    0 -0.53290705182E-14 -0.35527136788E-14  0.00000000000E+00  0.91188000000E+02  0.91188000000E+02 0.  0.
    9900012    2    3    3    0    0  0.48384110531E+01  0.31513803006E+02  0.18418753596E+02  0.54367075440E+02  0.39999980081E+02 0.  0.
         12    1    3    3    0    0 -0.48384110531E+01 -0.31513803006E+02 -0.18418753596E+02  0.36820924560E+02  0.00000000000E+00 0. -1.
         11    1    4    4    0    0 -0.13075267491E+02  0.11355220659E+02  0.82745050540E+01  0.19192995866E+02  0.51100000000E-03 0. -1.
        -11    1    4    4    0    0 -0.20992260541E+01  0.41962209734E+01  0.82676939597E+01  0.95063023388E+01  0.51100000000E-03 0.  1.
         12    1    4    4    0    0  0.20012904598E+02  0.15962361374E+02  0.18765545823E+01  0.25667777235E+02  0.00000000000E+00 0. -1.
</event>
<event>
 8    1  0.1280925E-006  0.9118800E+02  0.7816164E-02  0.1184000E+00
        -11   -1    0    0    0    0  0.00000000000E+00  0.00000000000E+00  0.45593999997E+02  0.45594000000E+02  0.51100000000E-03 0.  1.
         11   -1    0    0    0    0 -0.00000000000E+00 -0.00000000000E+00 -0.45593999997E+02  0.45594000000E+02  0.51100000000E-03 0. -1.
         23    2    1    2    0    0 -0.13322676296E-14  0.17763568394E-14 -0.71054273576E-14  0.91188000000E+02  0.91188000000E+02 0.  0.
    9900012    2    3    3    0    0  0.31860113381E+01 -0.11829505450E+02  0.34723054820E+02  0.54367103712E+02  0.40000044531E+02 0.  0.
         12    1    3    3    0    0 -0.31860113381E+01  0.11829505450E+02 -0.34723054820E+02  0.36820896288E+02  0.00000000000E+00 0. -1.
         11    1    4    4    0    0  0.49545799108E+01 -0.98542066976E+01 -0.15478448770E+01  0.11137732074E+02  0.51100000000E-03 0. -1.
        -11    1    4    4    0    0 -0.39285206135E+01  0.10806881830E+01 -0.21634897764E+01  0.46132254913E+01  0.51100000000E-03 0.  1.
        -12    1    4    4    0    0  0.21599520408E+01 -0.30559869355E+01  0.38434389474E+02  0.38616146146E+02  0.00000000000E+00 0.  1.
</event>
<event>
 8    1  0.1280925E-006  0.9118800E+02  0.7816164E-02  0.1184000E+00
        -11   -1    0    0    0    0  0.00000000000E+00  0.00000000000E+00  0.45593999997E+02  0.45594000000E+02  0.51100000000E-03 0.  1.
         11   -1    0    0    0    0 -0.00000000000E+00 -0.00000000000E+00 -0.45593999997E+02  0.45594000000E+02  0.51100000000E-03 0. -1.
         23    2    1    2    0    0  0.00000000000E+00 -0.88817841970E-15  0.71054273576E-14  0.91188000000E+02  0.91188000000E+02 0.  0.
    9900012    2    3    3    0    0  0.11887011199E+02  0.50810292621E+01 -0.34476980570E+02  0.54367080908E+02  0.39999992545E+02 0.  0.
        -12    1    3    3    0    0 -0.11887011199E+02 -0.50810292621E+01  0.34476980570E+02  0.36820919092E+02  0.00000000000E+00 0.  1.
         11    1    4    4    0    0 -0.13666460950E+01  0.92751619372E+01 -0.17715920290E+02  0.20043706806E+02  0.51100000000E-03 0. -1.
        -11    1    4    4    0    0 -0.76003374649E+01 -0.20698733966E+01 -0.90258775195E+01  0.11979815137E+02  0.51100000000E-03 0.  1.
        -12    1    4    4    0    0  0.20853994759E+02 -0.21242592784E+01 -0.77351827597E+01  0.22343558965E+02  0.00000000000E+00 0.  1.
</event>
<event>
 8    1  0.1280925E-006  0.9118800E+02  0.7816164E-02  0.1184000E+00
        -11   -1    0    0    0    0  0.00000000000E+00  0.00000000000E+00  0.45593999997E+02  0.45594000000E+02  0.51100000000E-03 0.  1.
         11   -1    0    0    0    0 -0.00000000000E+00 -0.00000000000E+00 -0.45593999997E+02  0.45594000000E+02  0.51100000000E-03 0. -1.
         23    2    1    2    0    0 -0.17763568394E-14 -0.17763568394E-14  0.00000000000E+00  0.91188000000E+02  0.91188000000E+02 0.  0.
    9900012    2    3    3    0    0 -0.13144547202E+02  0.13953807194E+02 -0.31437104292E+02  0.54367090416E+02  0.40000014222E+02 0.  0.
         12    1    3    3    0    0  0.13144547202E+02 -0.13953807194E+02  0.31437104292E+02  0.36820909584E+02  0.00000000000E+00 0. -1.
         11    1    4    4    0    0  0.75723967974E+00  0.55015639526E+01 -0.20088602780E+01  0.59056022331E+01  0.51100000000E-03 0. -1.
        -11    1    4    4    0    0 -0.45444530883E+01  0.28221662087E+01  0.79155637338E+01  0.95536812521E+01  0.51100000000E-03 0.  1.
         12    1    4    4    0    0 -0.93573337930E+01  0.56300770329E+01 -0.37343807747E+02  0.38907806931E+02  0.00000000000E+00 0. -1.
</event>
<event>
 8    1  0.1280925E-006  0.9118800E+02  0.7816164E-02  0.1184000E+00
        -11   -1    0    0    0    0  0.00000000000E+00  0.00000000000E+00  0.45593999997E+02  0.45594000000E+02  0.51100000000E-03 0.  1.
         11   -1    0    0    0    0 -0.00000000000E+00 -0.00000000000E+00 -0.45593999997E+02  0.45594000000E+02  0.51100000000E-03 0. -1.
         23    2    1    2    0    0  0.17763568394E-14 -0.35527136788E-14  0.00000000000E+00  0.91188000000E+02  0.91188000000E+02 0.  0.
    9900012    2    3    3    0    0 -0.64537274287E+01 -0.26144522109E+02  0.25111615677E+02  0.54367083717E+02  0.39999998949E+02 0.  0.
         12    1    3    3    0    0  0.64537274287E+01  0.26144522109E+02 -0.25111615677E+02  0.36820916283E+02  0.00000000000E+00 0. -1.
         11    1    4    4    0    0  0.15478311331E+01  0.83766193596E+01  0.71031411617E+01  0.11091354639E+02  0.51100000000E-03 0. -1.
        -11    1    4    4    0    0  0.52977364415E+01 -0.12862859723E+02  0.56498264586E+01  0.15014649877E+02  0.51100000000E-03 0.  1.
        -12    1    4    4    0    0 -0.13299295003E+02 -0.21658281746E+02  0.12358648057E+02  0.28261079200E+02  0.00000000000E+00 0.  1.
</event>
<event>
 8    1  0.1280925E-006  0.9118800E+02  0.7816164E-02  0.1184000E+00
        -11   -1    0    0    0    0  0.00000000000E+00  0.00000000000E+00  0.45593999997E+02  0.45594000000E+02  0.51100000000E-03 0.  1.
         11   -1    0    0    0    0 -0.00000000000E+00 -0.00000000000E+00 -0.45593999997E+02  0.45594000000E+02  0.51100000000E-03 0. -1.
         23    2    1    2    0    0  0.88817841970E-15  0.00000000000E+00  0.00000000000E+00  0.91188000000E+02  0.91188000000E+02 0.  0.
    9900012    2    3    3    0    0  0.56525616926E+01 -0.54400235596E+01  0.35975470899E+02  0.54367084525E+02  0.40000000791E+02 0.  0.
         12    1    3    3    0    0 -0.56525616926E+01  0.54400235596E+01 -0.35975470899E+02  0.36820915475E+02  0.00000000000E+00 0. -1.
         11    1    4    4    0    0 -0.11699967736E+02 -0.64517796784E+01  0.17743688949E+02  0.22211555637E+02  0.51100000000E-03 0. -1.
        -11    1    4    4    0    0  0.32552415041E+01  0.26389260134E+01  0.17446741904E+02  0.17942946555E+02  0.51100000000E-03 0.  1.
         12    1    4    4    0    0  0.14097287924E+02 -0.16271698946E+01  0.78504004623E+00  0.14212582333E+02  0.00000000000E+00 0. -1.
</event>
<event>
 8    1  0.1280925E-006  0.9118800E+02  0.7816164E-02  0.1184000E+00
        -11   -1    0    0    0    0  0.00000000000E+00  0.00000000000E+00  0.45593999997E+02  0.45594000000E+02  0.51100000000E-03 0. -1.
         11   -1    0    0    0    0 -0.00000000000E+00 -0.00000000000E+00 -0.45593999997E+02  0.45594000000E+02  0.51100000000E-03 0.  1.
         23    2    1    2    0    0 -0.17763568394E-14  0.71054273576E-14 -0.35527136788E-14  0.91188000000E+02  0.91188000000E+02 0.  0.
    9900012    2    3    3    0    0 -0.92063276245E+00  0.32479240744E+02 -0.17321439597E+02  0.54367069625E+02  0.39999966823E+02 0.  0.
        -12    1    3    3    0    0  0.92063276245E+00 -0.32479240744E+02  0.17321439597E+02  0.36820930375E+02  0.00000000000E+00 0.  1.
         11    1    4    4    0    0 -0.48304420111E+00  0.36102933477E+01  0.31650047311E+01  0.48254331377E+01  0.51100000000E-03 0. -1.
        -11    1    4    4    0    0 -0.16695409680E+02  0.76195086425E+01 -0.83496429567E+01  0.20162096967E+02  0.51100000000E-03 0.  1.
        -12    1    4    4    0    0  0.16257821119E+02  0.21249438754E+02 -0.12136801371E+02  0.29379539520E+02  0.00000000000E+00 0.  1.
</event>
<event>
 8    1  0.1280925E-006  0.9118800E+02  0.7816164E-02  0.1184000E+00
        -11   -1    0    0    0    0  0.00000000000E+00  0.00000000000E+00  0.45593999997E+02  0.45594000000E+02  0.51100000000E-03 0.  1.
         11   -1    0    0    0    0 -0.00000000000E+00 -0.00000000000E+00 -0.45593999997E+02  0.45594000000E+02  0.51100000000E-03 0. -1.
         23    2    1    2    0    0  0.00000000000E+00  0.71054273576E-14  0.88817841970E-15  0.91188000000E+02  0.91188000000E+02 0.  0.
    9900012    2    3    3    0    0  0.57018255556E+01  0.36035601273E+02 -0.49704077674E+01  0.54367077590E+02  0.39999984981E+02 0.  0.
        -12    1    3    3    0    0 -0.57018255556E+01 -0.36035601273E+02  0.49704077674E+01  0.36820922410E+02  0.00000000000E+00 0.  1.
         11    1    4    4    0    0  0.68754144645E+01 -0.56882873519E+01  0.18458438379E+01  0.91123584648E+01  0.51100000000E-03 0. -1.
        -11    1    4    4    0    0 -0.10121209225E+01 -0.94859059609E+00  0.12015980100E+01  0.18352250324E+01  0.51100000000E-03 0.  1.
        -12    1    4    4    0    0 -0.16146798646E+00  0.42672479221E+02 -0.80178496153E+01  0.43419494092E+02  0.00000000000E+00 0.  1.
</event>
<event>
 8    1  0.1280925E-006  0.9118800E+02  0.7816164E-02  0.1184000E+00
        -11   -1    0    0    0    0  0.00000000000E+00  0.00000000000E+00  0.45593999997E+02  0.45594000000E+02  0.51100000000E-03 0. -1.
         11   -1    0    0    0    0 -0.00000000000E+00 -0.00000000000E+00 -0.45593999997E+02  0.45594000000E+02  0.51100000000E-03 0.  1.
         23    2    1    2    0    0  0.00000000000E+00  0.44408920985E-15 -0.35527136788E-14  0.91188000000E+02  0.91188000000E+02 0.  0.
    9900012    2    3    3    0    0 -0.27827265426E+02  0.17548366580E+01 -0.24048786435E+02  0.54367078205E+02  0.39999986385E+02 0.  0.
         12    1    3    3    0    0  0.27827265426E+02 -0.17548366580E+01  0.24048786435E+02  0.36820921795E+02  0.00000000000E+00 0. -1.
         11    1    4    4    0    0  0.45422918676E+01  0.10037033854E+01  0.36375265235E+01  0.59052040919E+01  0.51100000000E-03 0. -1.
        -11    1    4    4    0    0 -0.31393856316E+02 -0.55988112567E+01 -0.27378909818E+02  0.42030055971E+02  0.51100000000E-03 0.  1.
        -12    1    4    4    0    0 -0.97570097830E+00  0.63499445293E+01 -0.30740314056E+00  0.64318181423E+01  0.00000000000E+00 0.  1.
</event>
<event>
 8    1  0.1280925E-006  0.9118800E+02  0.7816164E-02  0.1184000E+00
        -11   -1    0    0    0    0  0.00000000000E+00  0.00000000000E+00  0.45593999997E+02  0.45594000000E+02  0.51100000000E-03 0. -1.
         11   -1    0    0    0    0 -0.00000000000E+00 -0.00000000000E+00 -0.45593999997E+02  0.45594000000E+02  0.51100000000E-03 0.  1.
         23    2    1    2    0    0  0.26645352591E-14 -0.88817841970E-15  0.00000000000E+00  0.91188000000E+02  0.91188000000E+02 0.  0.
    9900012    2    3    3    0    0 -0.79957412868E+01 -0.78585642719E+01 -0.35072659073E+02  0.54367077611E+02  0.39999985030E+02 0.  0.
        -12    1    3    3    0    0  0.79957412868E+01  0.78585642719E+01  0.35072659073E+02  0.36820922389E+02  0.00000000000E+00 0.  1.
         11    1    4    4    0    0  0.45661956191E+01  0.10448902035E+02 -0.18562646133E+02  0.21785351223E+02  0.51100000000E-03 0. -1.
        -11    1    4    4    0    0  0.29581255449E+01 -0.80714495848E+01 -0.92365996691E+01  0.12617986323E+02  0.51100000000E-03 0.  1.
         12    1    4    4    0    0 -0.15520062451E+02 -0.10236016722E+02 -0.72734132702E+01  0.19963740065E+02  0.00000000000E+00 0. -1.
</event>
<event>
 8    1  0.1280925E-006  0.9118800E+02  0.7816164E-02  0.1184000E+00
        -11   -1    0    0    0    0  0.00000000000E+00  0.00000000000E+00  0.45593999997E+02  0.45594000000E+02  0.51100000000E-03 0. -1.
         11   -1    0    0    0    0 -0.00000000000E+00 -0.00000000000E+00 -0.45593999997E+02  0.45594000000E+02  0.51100000000E-03 0.  1.
         23    2    1    2    0    0 -0.35527136788E-14  0.00000000000E+00  0.00000000000E+00  0.91188000000E+02  0.91188000000E+02 0.  0.
    9900012    2    3    3    0    0 -0.22032611406E+02 -0.21684845848E+02  0.20002755046E+02  0.54367099492E+02  0.40000034912E+02 0.  0.
        -12    1    3    3    0    0  0.22032611406E+02  0.21684845848E+02 -0.20002755046E+02  0.36820900508E+02  0.00000000000E+00 0.  1.
         11    1    4    4    0    0 -0.17349757372E+02 -0.13127589678E+02  0.43976381949E+00  0.21760999152E+02  0.51100000000E-03 0. -1.
        -11    1    4    4    0    0 -0.50557311442E+01  0.39904067840E+01 -0.27507836561E+01  0.70036115460E+01  0.51100000000E-03 0.  1.
         12    1    4    4    0    0  0.37287711028E+00 -0.12547662954E+02  0.22313774882E+02  0.25602488794E+02  0.00000000000E+00 0. -1.
</event>
<event>
 8    1  0.1280925E-006  0.9118800E+02  0.7816164E-02  0.1184000E+00
        -11   -1    0    0    0    0  0.00000000000E+00  0.00000000000E+00  0.45593999997E+02  0.45594000000E+02  0.51100000000E-03 0.  1.
         11   -1    0    0    0    0 -0.00000000000E+00 -0.00000000000E+00 -0.45593999997E+02  0.45594000000E+02  0.51100000000E-03 0. -1.
         23    2    1    2    0    0 -0.22204460493E-15  0.00000000000E+00  0.00000000000E+00  0.91188000000E+02  0.91188000000E+02 0.  0.
    9900012    2    3    3    0    0  0.59740028928E+00  0.33240997210E+02  0.15825919056E+02  0.54367075289E+02  0.39999979736E+02 0.  0.
        -12    1    3    3    0    0 -0.59740028928E+00 -0.33240997210E+02 -0.15825919056E+02  0.36820924711E+02  0.00000000000E+00 0.  1.
         11    1    4    4    0    0  0.12272128174E+02 -0.77532678602E+00  0.11929065064E+01  0.12354322634E+02  0.51100000000E-03 0. -1.
        -11    1    4    4    0    0 -0.92701971695E+01  0.55910806839E+01  0.47572004538E+01  0.11824876117E+02  0.51100000000E-03 0.  1.
         12    1    4    4    0    0 -0.24045307152E+01  0.28425243312E+02  0.98758120960E+01  0.30187876538E+02  0.00000000000E+00 0. -1.
</event>
<event>
 8    1  0.1280925E-006  0.9118800E+02  0.7816164E-02  0.1184000E+00
        -11   -1    0    0    0    0  0.00000000000E+00  0.00000000000E+00  0.45593999997E+02  0.45594000000E+02  0.51100000000E-03 0. -1.
         11   -1    0    0    0    0 -0.00000000000E+00 -0.00000000000E+00 -0.45593999997E+02  0.45594000000E+02  0.51100000000E-03 0.  1.
         23    2    1    2    0    0  0.17763568394E-14  0.00000000000E+00 -0.35527136788E-14  0.91188000000E+02  0.91188000000E+02 0.  0.
    9900012    2    3    3    0    0  0.15998483334E+02 -0.18555052890E+02 -0.27487065769E+02  0.54367078755E+02  0.39999987638E+02 0.  0.
         12    1    3    3    0    0 -0.15998483334E+02  0.18555052890E+02  0.27487065769E+02  0.36820921245E+02  0.00000000000E+00 0. -1.
         11    1    4    4    0    0 -0.66814043814E+01 -0.70771376156E+01 -0.52700849632E+01  0.11068009628E+02  0.51100000000E-03 0. -1.
        -11    1    4    4    0    0  0.38979031597E+01  0.84669988169E+01 -0.86964113914E+01  0.12747991581E+02  0.51100000000E-03 0.  1.
        -12    1    4    4    0    0  0.18781984555E+02 -0.19944914091E+02 -0.13520569415E+02  0.30551077546E+02  0.00000000000E+00 0.  1.
</event>
<event>
 8    1  0.1280925E-006  0.9118800E+02  0.7816164E-02  0.1184000E+00
        -11   -1    0    0    0    0  0.00000000000E+00  0.00000000000E+00  0.45593999997E+02  0.45594000000E+02  0.51100000000E-03 0.  1.
         11   -1    0    0    0    0 -0.00000000000E+00 -0.00000000000E+00 -0.45593999997E+02  0.45594000000E+02  0.51100000000E-03 0. -1.
         23    2    1    2    0    0  0.17763568394E-14 -0.17763568394E-14 -0.71054273576E-14  0.91188000000E+02  0.91188000000E+02 0.  0.
    9900012    2    3    3    0    0  0.59861706934E+01  0.13450325798E+02 -0.33749603335E+02  0.54367065344E+02  0.39999957066E+02 0.  0.
        -12    1    3    3    0    0 -0.59861706934E+01 -0.13450325798E+02  0.33749603335E+02  0.36820934656E+02  0.00000000000E+00 0.  1.
         11    1    4    4    0    0 -0.71146143653E+01  0.28659491443E+01 -0.13375458652E+02  0.15418634715E+02  0.51100000000E-03 0. -1.
        -11    1    4    4    0    0  0.11436875953E+02 -0.65761422100E+01 -0.16765594290E+02  0.21333844710E+02  0.51100000000E-03 0.  1.
        -12    1    4    4    0    0  0.16639091054E+01  0.17160518864E+02 -0.36085503931E+01  0.17614585920E+02  0.00000000000E+00 0.  1.
</event>
<event>
 8    1  0.1280925E-006  0.9118800E+02  0.7816164E-02  0.1184000E+00
        -11   -1    0    0    0    0  0.00000000000E+00  0.00000000000E+00  0.45593999997E+02  0.45594000000E+02  0.51100000000E-03 0.  1.
         11   -1    0    0    0    0 -0.00000000000E+00 -0.00000000000E+00 -0.45593999997E+02  0.45594000000E+02  0.51100000000E-03 0. -1.
         23    2    1    2    0    0  0.00000000000E+00 -0.88817841970E-15  0.00000000000E+00  0.91188000000E+02  0.91188000000E+02 0.  0.
    9900012    2    3    3    0    0  0.36345492463E+02  0.18511982415E+01  0.55998677119E+01  0.54367078288E+02  0.39999986573E+02 0.  0.
         12    1    3    3    0    0 -0.36345492463E+02 -0.18511982415E+01 -0.55998677119E+01  0.36820921712E+02  0.00000000000E+00 0. -1.
         11    1    4    4    0    0  0.80954932200E+00  0.11474492892E+02  0.26104958681E+01  0.11795509577E+02  0.51100000000E-03 0. -1.
        -11    1    4    4    0    0  0.10231566898E+02 -0.10902829673E+02  0.76728449747E+01  0.16805630197E+02  0.51100000000E-03 0.  1.
         12    1    4    4    0    0  0.25304376243E+02  0.12795350220E+01 -0.46834731309E+01  0.25765938514E+02  0.00000000000E+00 0. -1.
</event>
<event>
 8    1  0.1280925E-006  0.9118800E+02  0.7816164E-02  0.1184000E+00
        -11   -1    0    0    0    0  0.00000000000E+00  0.00000000000E+00  0.45593999997E+02  0.45594000000E+02  0.51100000000E-03 0.  1.
         11   -1    0    0    0    0 -0.00000000000E+00 -0.00000000000E+00 -0.45593999997E+02  0.45594000000E+02  0.51100000000E-03 0. -1.
         23    2    1    2    0    0  0.00000000000E+00 -0.18873791419E-14 -0.71054273576E-14  0.91188000000E+02  0.91188000000E+02 0.  0.
    9900012    2    3    3    0    0 -0.16666183795E+02  0.60498547852E+00 -0.32827618720E+02  0.54367078765E+02  0.39999987662E+02 0.  0.
        -12    1    3    3    0    0  0.16666183795E+02 -0.60498547852E+00  0.32827618720E+02  0.36820921235E+02  0.00000000000E+00 0.  1.
         11    1    4    4    0    0 -0.21119156402E+02 -0.11014328345E+02 -0.17107260461E+02  0.29325629691E+02  0.51100000000E-03 0. -1.
        -11    1    4    4    0    0  0.14703534343E+01 -0.34601156585E+01 -0.13378352579E+01  0.39905066132E+01  0.51100000000E-03 0.  1.
         12    1    4    4    0    0  0.29826191718E+01  0.15079429482E+02 -0.14382523001E+02  0.21050942462E+02  0.00000000000E+00 0. -1.
</event>
<event>
 8    1  0.1280925E-006  0.9118800E+02  0.7816164E-02  0.1184000E+00
        -11   -1    0    0    0    0  0.00000000000E+00  0.00000000000E+00  0.45593999997E+02  0.45594000000E+02  0.51100000000E-03 0.  1.
         11   -1    0    0    0    0 -0.00000000000E+00 -0.00000000000E+00 -0.45593999997E+02  0.45594000000E+02  0.51100000000E-03 0. -1.
         23    2    1    2    0    0  0.35527136788E-14  0.17763568394E-14  0.00000000000E+00  0.91188000000E+02  0.91188000000E+02 0.  0.
    9900012    2    3    3    0    0  0.18567230291E+02  0.11266955165E+02  0.29733694709E+02  0.54367096692E+02  0.40000028529E+02 0.  0.
         12    1    3    3    0    0 -0.18567230291E+02 -0.11266955165E+02 -0.29733694709E+02  0.36820903308E+02  0.00000000000E+00 0. -1.
         11    1    4    4    0    0  0.12051778253E+02  0.10555047878E+02  0.11616395296E+02  0.19788760312E+02  0.51100000000E-03 0. -1.
        -11    1    4    4    0    0  0.56909328805E+01  0.14317438042E+02  0.67119316318E+01  0.16805528127E+02  0.51100000000E-03 0.  1.
        -12    1    4    4    0    0  0.82451915723E+00 -0.13605530755E+02  0.11405367781E+02  0.17772808253E+02  0.00000000000E+00 0.  1.
</event>
<event>
 8    1  0.1280925E-006  0.9118800E+02  0.7816164E-02  0.1184000E+00
        -11   -1    0    0    0    0  0.00000000000E+00  0.00000000000E+00  0.45593999997E+02  0.45594000000E+02  0.51100000000E-03 0.  1.
         11   -1    0    0    0    0 -0.00000000000E+00 -0.00000000000E+00 -0.45593999997E+02  0.45594000000E+02  0.51100000000E-03 0. -1.
         23    2    1    2    0    0  0.00000000000E+00  0.00000000000E+00 -0.22204460493E-15  0.91188000000E+02  0.91188000000E+02 0.  0.
    9900012    2    3    3    0    0  0.14388910831E+02  0.33887838643E+02  0.59523920123E+00  0.54367072901E+02  0.39999974291E+02 0.  0.
         12    1    3    3    0    0 -0.14388910831E+02 -0.33887838643E+02 -0.59523920123E+00  0.36820927099E+02  0.00000000000E+00 0. -1.
         11    1    4    4    0    0 -0.11247574855E+01  0.45337465188E+00  0.10969861861E+01  0.16352391048E+01  0.51100000000E-03 0. -1.
        -11    1    4    4    0    0  0.23713833006E+02  0.99169602753E+01 -0.76535940868E+01  0.26819199832E+02  0.51100000000E-03 0.  1.
        -12    1    4    4    0    0 -0.82001646899E+01  0.23517503715E+02  0.71518471020E+01  0.25912633963E+02  0.00000000000E+00 0.  1.
</event>
<event>
 8    1  0.1280925E-006  0.9118800E+02  0.7816164E-02  0.1184000E+00
        -11   -1    0    0    0    0  0.00000000000E+00  0.00000000000E+00  0.45593999997E+02  0.45594000000E+02  0.51100000000E-03 0. -1.
         11   -1    0    0    0    0 -0.00000000000E+00 -0.00000000000E+00 -0.45593999997E+02  0.45594000000E+02  0.51100000000E-03 0.  1.
         23    2    1    2    0    0  0.00000000000E+00  0.00000000000E+00  0.00000000000E+00  0.91188000000E+02  0.91188000000E+02 0.  0.
    9900012    2    3    3    0    0  0.30689386167E+02  0.16860688812E+02  0.11386782872E+02  0.54367081018E+02  0.39999992796E+02 0.  0.
        -12    1    3    3    0    0 -0.30689386167E+02 -0.16860688812E+02 -0.11386782872E+02  0.36820918982E+02  0.00000000000E+00 0.  1.
         11    1    4    4    0    0  0.11971241801E+02 -0.31382152464E+01  0.54787940668E+01  0.13534260596E+02  0.51100000000E-03 0. -1.
        -11    1    4    4    0    0  0.15551397931E+02  0.82768465935E+00 -0.74394997777E+01  0.17259119233E+02  0.51100000000E-03 0.  1.
         12    1    4    4    0    0  0.31667464341E+01  0.19171219399E+02  0.13347488583E+02  0.23573701188E+02  0.00000000000E+00 0. -1.
</event>
<event>
 8    1  0.1280925E-006  0.9118800E+02  0.7816164E-02  0.1184000E+00
        -11   -1    0    0    0    0  0.00000000000E+00  0.00000000000E+00  0.45593999997E+02  0.45594000000E+02  0.51100000000E-03 0.  1.
         11   -1    0    0    0    0 -0.00000000000E+00 -0.00000000000E+00 -0.45593999997E+02  0.45594000000E+02  0.51100000000E-03 0. -1.
         23    2    1    2    0    0  0.00000000000E+00  0.00000000000E+00 -0.17763568394E-14  0.91188000000E+02  0.91188000000E+02 0.  0.
    9900012    2    3    3    0    0  0.20038846923E+02  0.29591974881E+02 -0.88618984573E+01  0.54367168836E+02  0.40000192995E+02 0.  0.
        -12    1    3    3    0    0 -0.20038846923E+02 -0.29591974881E+02  0.88618984573E+01  0.36820831164E+02  0.00000000000E+00 0.  1.
         11    1    4    4    0    0  0.70338020043E+01  0.76614319732E+01 -0.17838479602E+01  0.10552441628E+02  0.51100000000E-03 0. -1.
        -11    1    4    4    0    0 -0.62320124375E+00  0.18665488476E+02  0.10428298748E+02  0.21390143872E+02  0.51100000000E-03 0.  1.
        -12    1    4    4    0    0  0.13628246162E+02  0.32650544316E+01 -0.17506349245E+02  0.22424583336E+02  0.00000000000E+00 0.  1.
</event>
<event>
 8    1  0.1280925E-006  0.9118800E+02  0.7816164E-02  0.1184000E+00
        -11   -1    0    0    0    0  0.00000000000E+00  0.00000000000E+00  0.45593999997E+02  0.45594000000E+02  0.51100000000E-03 0.  1.
         11   -1    0    0    0    0 -0.00000000000E+00 -0.00000000000E+00 -0.45593999997E+02  0.45594000000E+02  0.51100000000E-03 0. -1.
         23    2    1    2    0    0 -0.35527136788E-14 -0.88817841970E-15  0.00000000000E+00  0.91188000000E+02  0.91188000000E+02 0.  0.
    9900012    2    3    3    0    0  0.25921929581E+02 -0.55399351445E+01 -0.25556645730E+02  0.54367089425E+02  0.40000011962E+02 0.  0.
        -12    1    3    3    0    0 -0.25921929581E+02  0.55399351445E+01  0.25556645730E+02  0.36820910575E+02  0.00000000000E+00 0.  1.
         11    1    4    4    0    0  0.11054245082E+02  0.50767655220E+01 -0.54807242315E+01  0.13341972151E+02  0.51100000000E-03 0. -1.
        -11    1    4    4    0    0  0.40091453668E+01  0.71316647403E+01 -0.18417154665E+02  0.20152555043E+02  0.51100000000E-03 0.  1.
        -12    1    4    4    0    0  0.10858539132E+02 -0.17748365407E+02 -0.16587668333E+01  0.20872562231E+02  0.00000000000E+00 0.  1.
</event>
<event>
 8    1  0.1280925E-006  0.9118800E+02  0.7816164E-02  0.1184000E+00
        -11   -1    0    0    0    0  0.00000000000E+00  0.00000000000E+00  0.45593999997E+02  0.45594000000E+02  0.51100000000E-03 0.  1.
         11   -1    0    0    0    0 -0.00000000000E+00 -0.00000000000E+00 -0.45593999997E+02  0.45594000000E+02  0.51100000000E-03 0. -1.
         23    2    1    2    0    0 -0.35527136788E-14  0.00000000000E+00  0.00000000000E+00  0.91188000000E+02  0.91188000000E+02 0.  0.
    9900012    2    3    3    0    0 -0.29135039258E+02 -0.17412036323E+02 -0.14274115369E+02  0.54367083512E+02  0.39999998482E+02 0.  0.
        -12    1    3    3    0    0  0.29135039258E+02  0.17412036323E+02  0.14274115369E+02  0.36820916488E+02  0.00000000000E+00 0.  1.
         11    1    4    4    0    0 -0.89228022249E+01  0.52328013895E+01 -0.12947749257E+02  0.16572351101E+02  0.51100000000E-03 0. -1.
        -11    1    4    4    0    0 -0.51019728679E+01 -0.10360955376E+02  0.99915288233E+01  0.15271220382E+02  0.51100000000E-03 0.  1.
         12    1    4    4    0    0 -0.15110264165E+02 -0.12283882336E+02 -0.11317894936E+02  0.22523512030E+02  0.00000000000E+00 0. -1.
</event>
<event>
 8    1  0.1280925E-006  0.9118800E+02  0.7816164E-02  0.1184000E+00
        -11   -1    0    0    0    0  0.00000000000E+00  0.00000000000E+00  0.45593999997E+02  0.45594000000E+02  0.51100000000E-03 0.  1.
         11   -1    0    0    0    0 -0.00000000000E+00 -0.00000000000E+00 -0.45593999997E+02  0.45594000000E+02  0.51100000000E-03 0. -1.
         23    2    1    2    0    0  0.00000000000E+00 -0.17763568394E-14  0.00000000000E+00  0.91188000000E+02  0.91188000000E+02 0.  0.
    9900012    2    3    3    0    0 -0.27902483152E+02  0.10964461263E+02 -0.21377826169E+02  0.54367089792E+02  0.40000012799E+02 0.  0.
        -12    1    3    3    0    0  0.27902483152E+02 -0.10964461263E+02  0.21377826169E+02  0.36820910208E+02  0.00000000000E+00 0.  1.
         11    1    4    4    0    0 -0.26809526500E+01  0.21587460013E+01  0.10066681392E+01  0.35862337365E+01  0.51100000000E-03 0.  1.
        -11    1    4    4    0    0 -0.24171823248E+02  0.21582153868E+02 -0.13100576178E+02  0.34952703774E+02  0.51100000000E-03 0. -1.
         12    1    4    4    0    0 -0.10497072540E+01 -0.12776438606E+02 -0.92839181307E+01  0.15828152281E+02  0.00000000000E+00 0. -1.
</event>
<event>
 8    1  0.1280925E-006  0.9118800E+02  0.7816164E-02  0.1184000E+00
        -11   -1    0    0    0    0  0.00000000000E+00  0.00000000000E+00  0.45593999997E+02  0.45594000000E+02  0.51100000000E-03 0.  1.
         11   -1    0    0    0    0 -0.00000000000E+00 -0.00000000000E+00 -0.45593999997E+02  0.45594000000E+02  0.51100000000E-03 0. -1.
         23    2    1    2    0    0  0.00000000000E+00 -0.44408920985E-15  0.00000000000E+00  0.91188000000E+02  0.91188000000E+02 0.  0.
    9900012    2    3    3    0    0  0.56775244150E+00 -0.18059440088E+01 -0.36772214144E+02  0.54367088691E+02  0.40000010289E+02 0.  0.
        -12    1    3    3    0    0 -0.56775244150E+00  0.18059440088E+01  0.36772214144E+02  0.36820911309E+02  0.00000000000E+00 0.  1.
         11    1    4    4    0    0  0.47772237393E+01 -0.46100303987E+01 -0.22424018555E+02  0.23386125274E+02  0.51100000000E-03 0. -1.
        -11    1    4    4    0    0  0.18166812212E+01  0.12945365396E+02 -0.91631757334E+00  0.13104291437E+02  0.51100000000E-03 0.  1.
         12    1    4    4    0    0 -0.60261525190E+01 -0.10141279006E+02 -0.13431878016E+02  0.17876671980E+02  0.00000000000E+00 0. -1.
</event>
<event>
 8    1  0.1280925E-006  0.9118800E+02  0.7816164E-02  0.1184000E+00
        -11   -1    0    0    0    0  0.00000000000E+00  0.00000000000E+00  0.45593999997E+02  0.45594000000E+02  0.51100000000E-03 0. -1.
         11   -1    0    0    0    0 -0.00000000000E+00 -0.00000000000E+00 -0.45593999997E+02  0.45594000000E+02  0.51100000000E-03 0.  1.
         23    2    1    2    0    0 -0.71054273576E-14  0.17763568394E-14  0.17763568394E-14  0.91188000000E+02  0.91188000000E+02 0.  0.
    9900012    2    3    3    0    0 -0.34536986589E+02  0.92348754091E+01  0.88143108331E+01  0.54367103190E+02  0.40000043341E+02 0.  0.
         12    1    3    3    0    0  0.34536986589E+02 -0.92348754091E+01 -0.88143108331E+01  0.36820896810E+02  0.00000000000E+00 0. -1.
         11    1    4    4    0    0  0.19900046657E+01  0.90411800998E+00  0.53020840856E+01  0.57349493335E+01  0.51100000000E-03 0.  1.
        -11    1    4    4    0    0  0.23454726336E+01 -0.14422681299E+01 -0.67219873216E+01  0.72640548626E+01  0.51100000000E-03 0. -1.
        -12    1    4    4    0    0 -0.38872463888E+02  0.97730255291E+01  0.10234214069E+02  0.41368098994E+02  0.00000000000E+00 0.  1.
</event>
<event>
 8    1  0.1280925E-006  0.9118800E+02  0.7816164E-02  0.1184000E+00
        -11   -1    0    0    0    0  0.00000000000E+00  0.00000000000E+00  0.45593999997E+02  0.45594000000E+02  0.51100000000E-03 0.  1.
         11   -1    0    0    0    0 -0.00000000000E+00 -0.00000000000E+00 -0.45593999997E+02  0.45594000000E+02  0.51100000000E-03 0. -1.
         23    2    1    2    0    0 -0.88817841970E-15 -0.17763568394E-14  0.00000000000E+00  0.91188000000E+02  0.91188000000E+02 0.  0.
    9900012    2    3    3    0    0  0.53902146739E+01  0.74039084987E+01 -0.35663788668E+02  0.54367107867E+02  0.40000054005E+02 0.  0.
        -12    1    3    3    0    0 -0.53902146739E+01 -0.74039084987E+01  0.35663788668E+02  0.36820892133E+02  0.00000000000E+00 0.  1.
         11    1    4    4    0    0 -0.80777593666E+00  0.18265037039E+02 -0.16918890790E+02  0.24910097267E+02  0.51100000000E-03 0. -1.
        -11    1    4    4    0    0  0.75641330170E+01 -0.80630346208E+01 -0.22203211423E+02  0.24803452045E+02  0.51100000000E-03 0.  1.
        -12    1    4    4    0    0 -0.13661424065E+01 -0.27980939199E+01  0.34583135444E+01  0.46535585556E+01  0.00000000000E+00 0.  1.
</event>
<event>
 8    1  0.1280925E-006  0.9118800E+02  0.7816164E-02  0.1184000E+00
        -11   -1    0    0    0    0  0.00000000000E+00  0.00000000000E+00  0.45593999997E+02  0.45594000000E+02  0.51100000000E-03 0.  1.
         11   -1    0    0    0    0 -0.00000000000E+00 -0.00000000000E+00 -0.45593999997E+02  0.45594000000E+02  0.51100000000E-03 0. -1.
         23    2    1    2    0    0 -0.88817841970E-15  0.00000000000E+00  0.00000000000E+00  0.91188000000E+02  0.91188000000E+02 0.  0.
    9900012    2    3    3    0    0 -0.56712064952E+01 -0.31090333497E+02 -0.18894697766E+02  0.54367068131E+02  0.39999963419E+02 0.  0.
        -12    1    3    3    0    0  0.56712064952E+01  0.31090333497E+02  0.18894697766E+02  0.36820931869E+02  0.00000000000E+00 0.  1.
         11    1    4    4    0    0 -0.60812983189E+01 -0.29438271825E+02 -0.35439320222E+01  0.30268027549E+02  0.51100000000E-03 0. -1.
        -11    1    4    4    0    0  0.69618286788E+01 -0.58803003468E+01 -0.31940806980E+01  0.96564560004E+01  0.51100000000E-03 0.  1.
        -12    1    4    4    0    0 -0.65517368551E+01  0.42282386749E+01 -0.12156685045E+02  0.14442584582E+02  0.00000000000E+00 0.  1.
</event>
<event>
 8    1  0.1280925E-006  0.9118800E+02  0.7816164E-02  0.1184000E+00
        -11   -1    0    0    0    0  0.00000000000E+00  0.00000000000E+00  0.45593999997E+02  0.45594000000E+02  0.51100000000E-03 0. -1.
         11   -1    0    0    0    0 -0.00000000000E+00 -0.00000000000E+00 -0.45593999997E+02  0.45594000000E+02  0.51100000000E-03 0.  1.
         23    2    1    2    0    0  0.11102230246E-15  0.71054273576E-14 -0.88817841970E-15  0.91188000000E+02  0.91188000000E+02 0.  0.
    9900012    2    3    3    0    0  0.69289337196E+00 -0.36725276732E+02  0.25600279225E+01  0.54367084813E+02  0.40000001449E+02 0.  0.
         12    1    3    3    0    0 -0.69289337196E+00  0.36725276732E+02 -0.25600279225E+01  0.36820915187E+02  0.00000000000E+00 0. -1.
         11    1    4    4    0    0 -0.70020310517E+01  0.33673822153E+01 -0.26162743391E+01  0.81983287023E+01  0.51100000000E-03 0. -1.
        -11    1    4    4    0    0  0.45081399424E+01 -0.10857769884E+01 -0.38239080755E+01  0.60103669305E+01  0.51100000000E-03 0.  1.
        -12    1    4    4    0    0  0.31867844813E+01 -0.39006881958E+02  0.90002103371E+01  0.40158389180E+02  0.00000000000E+00 0.  1.
</event>
<event>
 8    1  0.1280925E-006  0.9118800E+02  0.7816164E-02  0.1184000E+00
        -11   -1    0    0    0    0  0.00000000000E+00  0.00000000000E+00  0.45593999997E+02  0.45594000000E+02  0.51100000000E-03 0.  1.
         11   -1    0    0    0    0 -0.00000000000E+00 -0.00000000000E+00 -0.45593999997E+02  0.45594000000E+02  0.51100000000E-03 0. -1.
         23    2    1    2    0    0 -0.71054273576E-14  0.44408920985E-15  0.00000000000E+00  0.91188000000E+02  0.91188000000E+02 0.  0.
    9900012    2    3    3    0    0  0.36571107926E+02 -0.14137165421E+01  0.40397557328E+01  0.54367297186E+02  0.40000485591E+02 0.  0.
        -12    1    3    3    0    0 -0.36571107926E+02  0.14137165421E+01 -0.40397557328E+01  0.36820702814E+02  0.00000000000E+00 0.  1.
         11    1    4    4    0    0  0.87433010760E+01 -0.88878540749E+01 -0.52745664847E-01  0.12467639958E+02  0.51100000000E-03 0. -1.
        -11    1    4    4    0    0  0.32997612085E+02  0.50007932823E+00  0.37200030639E+01  0.33210403576E+02  0.51100000000E-03 0.  1.
        -12    1    4    4    0    0 -0.51698052351E+01  0.69740582046E+01  0.37249833377E+00  0.86892536514E+01  0.00000000000E+00 0.  1.
</event>
<event>
 8    1  0.1280925E-006  0.9118800E+02  0.7816164E-02  0.1184000E+00
        -11   -1    0    0    0    0  0.00000000000E+00  0.00000000000E+00  0.45593999997E+02  0.45594000000E+02  0.51100000000E-03 0. -1.
         11   -1    0    0    0    0 -0.00000000000E+00 -0.00000000000E+00 -0.45593999997E+02  0.45594000000E+02  0.51100000000E-03 0.  1.
         23    2    1    2    0    0  0.17763568394E-14 -0.88817841970E-15  0.00000000000E+00  0.91188000000E+02  0.91188000000E+02 0.  0.
    9900012    2    3    3    0    0  0.15840051621E+02 -0.62202026341E+01  0.32652410761E+02  0.54367108041E+02  0.40000054402E+02 0.  0.
        -12    1    3    3    0    0 -0.15840051621E+02  0.62202026341E+01 -0.32652410761E+02  0.36820891959E+02  0.00000000000E+00 0.  1.
         11    1    4    4    0    0  0.11975051864E+02 -0.57053540358E+01  0.14320181063E+02  0.19519746867E+02  0.51100000000E-03 0. -1.
        -11    1    4    4    0    0  0.43748249118E+01 -0.14607267363E+02  0.71059452623E+01  0.16822776559E+02  0.51100000000E-03 0.  1.
         12    1    4    4    0    0 -0.50982515477E+00  0.14092418765E+02  0.11226284435E+02  0.18024584615E+02  0.00000000000E+00 0. -1.
</event>
<event>
 8    1  0.1280925E-006  0.9118800E+02  0.7816164E-02  0.1184000E+00
        -11   -1    0    0    0    0  0.00000000000E+00  0.00000000000E+00  0.45593999997E+02  0.45594000000E+02  0.51100000000E-03 0.  1.
         11   -1    0    0    0    0 -0.00000000000E+00 -0.00000000000E+00 -0.45593999997E+02  0.45594000000E+02  0.51100000000E-03 0. -1.
         23    2    1    2    0    0 -0.17763568394E-14  0.00000000000E+00  0.00000000000E+00  0.91188000000E+02  0.91188000000E+02 0.  0.
    9900012    2    3    3    0    0  0.13337087934E+02 -0.33075418646E+02  0.91606542725E+01  0.54367098058E+02  0.40000031642E+02 0.  0.
         12    1    3    3    0    0 -0.13337087934E+02  0.33075418646E+02 -0.91606542725E+01  0.36820901942E+02  0.00000000000E+00 0. -1.
         11    1    4    4    0    0 -0.41072014133E+01 -0.14373626144E+02 -0.12007679952E+01  0.14997068914E+02  0.51100000000E-03 0. -1.
        -11    1    4    4    0    0  0.14791472644E+02  0.37082070274E+01  0.59932691070E+01  0.16384679953E+02  0.51100000000E-03 0.  1.
        -12    1    4    4    0    0  0.26528167031E+01 -0.22409999529E+02  0.43681531607E+01  0.22985349190E+02  0.00000000000E+00 0.  1.
</event>
<event>
 8    1  0.1280925E-006  0.9118800E+02  0.7816164E-02  0.1184000E+00
        -11   -1    0    0    0    0  0.00000000000E+00  0.00000000000E+00  0.45593999997E+02  0.45594000000E+02  0.51100000000E-03 0. -1.
         11   -1    0    0    0    0 -0.00000000000E+00 -0.00000000000E+00 -0.45593999997E+02  0.45594000000E+02  0.51100000000E-03 0.  1.
         23    2    1    2    0    0  0.00000000000E+00 -0.35527136788E-14 -0.35527136788E-14  0.91188000000E+02  0.91188000000E+02 0.  0.
    9900012    2    3    3    0    0  0.27187784427E+02  0.18668713248E+02  0.16373239281E+02  0.54367089623E+02  0.40000012414E+02 0.  0.
        -12    1    3    3    0    0 -0.27187784427E+02 -0.18668713248E+02 -0.16373239281E+02  0.36820910377E+02  0.00000000000E+00 0.  1.
         11    1    4    4    0    0  0.17598497816E+01  0.40789772074E+01  0.10368360670E+02  0.11279983579E+02  0.51100000000E-03 0. -1.
        -11    1    4    4    0    0  0.19684012072E+02  0.24239973776E+02  0.62917250007E+01  0.31853138992E+02  0.51100000000E-03 0.  1.
         12    1    4    4    0    0  0.57439225736E+01 -0.96502377350E+01 -0.28684638920E+00  0.11233967052E+02  0.00000000000E+00 0. -1.
</event>
<event>
 8    1  0.1280925E-006  0.9118800E+02  0.7816164E-02  0.1184000E+00
        -11   -1    0    0    0    0  0.00000000000E+00  0.00000000000E+00  0.45593999997E+02  0.45594000000E+02  0.51100000000E-03 0. -1.
         11   -1    0    0    0    0 -0.00000000000E+00 -0.00000000000E+00 -0.45593999997E+02  0.45594000000E+02  0.51100000000E-03 0.  1.
         23    2    1    2    0    0  0.00000000000E+00  0.88817841970E-15  0.00000000000E+00  0.91188000000E+02  0.91188000000E+02 0.  0.
    9900012    2    3    3    0    0  0.22899635636E+02 -0.39020608585E+01 -0.28568527099E+02  0.54367080242E+02  0.39999991028E+02 0.  0.
         12    1    3    3    0    0 -0.22899635636E+02  0.39020608585E+01  0.28568527099E+02  0.36820919758E+02  0.00000000000E+00 0. -1.
         11    1    4    4    0    0 -0.69387865429E+01  0.18557519907E+01 -0.33811071160E+00  0.71906114659E+01  0.51100000000E-03 0. -1.
        -11    1    4    4    0    0  0.28547978396E+02  0.26675095702E+01 -0.25066769409E+02  0.38084716182E+02  0.51100000000E-03 0.  1.
        -12    1    4    4    0    0  0.12904437827E+01 -0.84253224195E+01 -0.31636469781E+01  0.90917525940E+01  0.00000000000E+00 0.  1.
</event>
<event>
 8    1  0.1280925E-006  0.9118800E+02  0.7816164E-02  0.1184000E+00
        -11   -1    0    0    0    0  0.00000000000E+00  0.00000000000E+00  0.45593999997E+02  0.45594000000E+02  0.51100000000E-03 0.  1.
         11   -1    0    0    0    0 -0.00000000000E+00 -0.00000000000E+00 -0.45593999997E+02  0.45594000000E+02  0.51100000000E-03 0. -1.
         23    2    1    2    0    0  0.00000000000E+00 -0.71054273576E-14  0.88817841970E-15  0.91188000000E+02  0.91188000000E+02 0.  0.
    9900012    2    3    3    0    0 -0.11221990692E+02 -0.34766816451E+02 -0.45951374916E+01  0.54367083528E+02  0.39999998519E+02 0.  0.
        -12    1    3    3    0    0  0.11221990692E+02  0.34766816451E+02  0.45951374916E+01  0.36820916472E+02  0.00000000000E+00 0.  1.
         11    1    4    4    0    0 -0.14281888455E+02 -0.54848066851E+01 -0.80905013640E+01  0.17306405022E+02  0.51100000000E-03 0. -1.
        -11    1    4    4    0    0  0.66017818507E+01 -0.33195776926E+01  0.75287180406E+01  0.10549157088E+02  0.51100000000E-03 0.  1.
         12    1    4    4    0    0 -0.35418840878E+01 -0.25962432074E+02 -0.40333541682E+01  0.26511521418E+02  0.00000000000E+00 0. -1.
</event>
<event>
 8    1  0.1280925E-006  0.9118800E+02  0.7816164E-02  0.1184000E+00
        -11   -1    0    0    0    0  0.00000000000E+00  0.00000000000E+00  0.45593999997E+02  0.45594000000E+02  0.51100000000E-03 0. -1.
         11   -1    0    0    0    0 -0.00000000000E+00 -0.00000000000E+00 -0.45593999997E+02  0.45594000000E+02  0.51100000000E-03 0.  1.
         23    2    1    2    0    0 -0.88817841970E-15  0.00000000000E+00  0.35527136788E-14  0.91188000000E+02  0.91188000000E+02 0.  0.
    9900012    2    3    3    0    0 -0.40806606721E+01  0.27435090416E+02 -0.24216603783E+02  0.54367083710E+02  0.39999998933E+02 0.  0.
         12    1    3    3    0    0  0.40806606721E+01 -0.27435090416E+02  0.24216603783E+02  0.36820916290E+02  0.00000000000E+00 0. -1.
         11    1    4    4    0    0 -0.12379395049E+02  0.14513183906E+01 -0.17261588505E+02  0.21291270155E+02  0.51100000000E-03 0. -1.
        -11    1    4    4    0    0  0.95106841558E+01  0.14497624736E+02  0.32766911499E+01  0.17645706029E+02  0.51100000000E-03 0.  1.
         12    1    4    4    0    0 -0.12119497787E+01  0.11486147289E+02 -0.10231706429E+02  0.15430107526E+02  0.00000000000E+00 0. -1.
</event>
<event>
 8    1  0.1280925E-006  0.9118800E+02  0.7816164E-02  0.1184000E+00
        -11   -1    0    0    0    0  0.00000000000E+00  0.00000000000E+00  0.45593999997E+02  0.45594000000E+02  0.51100000000E-03 0.  1.
         11   -1    0    0    0    0 -0.00000000000E+00 -0.00000000000E+00 -0.45593999997E+02  0.45594000000E+02  0.51100000000E-03 0. -1.
         23    2    1    2    0    0  0.17763568394E-14 -0.17763568394E-14  0.00000000000E+00  0.91188000000E+02  0.91188000000E+02 0.  0.
    9900012    2    3    3    0    0 -0.93251727215E+01  0.35598611217E+01  0.35442174003E+02  0.54367093499E+02  0.40000021249E+02 0.  0.
         12    1    3    3    0    0  0.93251727215E+01 -0.35598611217E+01 -0.35442174003E+02  0.36820906501E+02  0.00000000000E+00 0. -1.
         11    1    4    4    0    0 -0.40796132981E+01 -0.23551339959E+01 -0.12648521856E+01  0.48774739480E+01  0.51100000000E-03 0. -1.
        -11    1    4    4    0    0 -0.63275575656E-01  0.17682097498E+02  0.30399692731E+02  0.35168194354E+02  0.51100000000E-03 0.  1.
        -12    1    4    4    0    0 -0.51822838478E+01 -0.11767102381E+02  0.63073334582E+01  0.14321425197E+02  0.00000000000E+00 0.  1.
</event>
<event>
 8    1  0.1280925E-006  0.9118800E+02  0.7816164E-02  0.1184000E+00
        -11   -1    0    0    0    0  0.00000000000E+00  0.00000000000E+00  0.45593999997E+02  0.45594000000E+02  0.51100000000E-03 0. -1.
         11   -1    0    0    0    0 -0.00000000000E+00 -0.00000000000E+00 -0.45593999997E+02  0.45594000000E+02  0.51100000000E-03 0.  1.
         23    2    1    2    0    0 -0.88817841970E-15  0.35527136788E-14  0.00000000000E+00  0.91188000000E+02  0.91188000000E+02 0.  0.
    9900012    2    3    3    0    0  0.37474757552E+01 -0.16999724565E+02 -0.32446038368E+02  0.54367087252E+02  0.40000007008E+02 0.  0.
         12    1    3    3    0    0 -0.37474757552E+01  0.16999724565E+02  0.32446038368E+02  0.36820912748E+02  0.00000000000E+00 0. -1.
         11    1    4    4    0    0  0.11640525644E+02 -0.52229931067E+01 -0.57138209041E+01  0.13979600990E+02  0.51100000000E-03 0. -1.
        -11    1    4    4    0    0  0.30999982229E+01  0.54504180149E+01  0.55655423741E+00  0.62949820016E+01  0.51100000000E-03 0.  1.
        -12    1    4    4    0    0 -0.10993048112E+02 -0.17227149473E+02 -0.27288771702E+02  0.34092504260E+02  0.00000000000E+00 0.  1.
</event>
<event>
 8    1  0.1280925E-006  0.9118800E+02  0.7816164E-02  0.1184000E+00
        -11   -1    0    0    0    0  0.00000000000E+00  0.00000000000E+00  0.45593999997E+02  0.45594000000E+02  0.51100000000E-03 0.  1.
         11   -1    0    0    0    0 -0.00000000000E+00 -0.00000000000E+00 -0.45593999997E+02  0.45594000000E+02  0.51100000000E-03 0. -1.
         23    2    1    2    0    0  0.35527136788E-14  0.35527136788E-14  0.00000000000E+00  0.91188000000E+02  0.91188000000E+02 0.  0.
    9900012    2    3    3    0    0 -0.21139430958E+02 -0.18969798144E+02 -0.23431816378E+02  0.54367098305E+02  0.40000032206E+02 0.  0.
        -12    1    3    3    0    0  0.21139430958E+02  0.18969798144E+02  0.23431816378E+02  0.36820901695E+02  0.00000000000E+00 0.  1.
         11    1    4    4    0    0 -0.14777117757E+02 -0.18136984262E+01 -0.25285967076E+02  0.29343361130E+02  0.51100000000E-03 0. -1.
        -11    1    4    4    0    0 -0.35602119950E+00 -0.18729063316E+02  0.10340638683E+01  0.18760966184E+02  0.51100000000E-03 0.  1.
        -12    1    4    4    0    0 -0.60062920008E+01  0.15729635979E+01  0.82008682946E+00  0.62627709911E+01  0.00000000000E+00 0.  1.
</event>
<event>
 8    1  0.1280925E-006  0.9118800E+02  0.7816164E-02  0.1184000E+00
        -11   -1    0    0    0    0  0.00000000000E+00  0.00000000000E+00  0.45593999997E+02  0.45594000000E+02  0.51100000000E-03 0.  1.
         11   -1    0    0    0    0 -0.00000000000E+00 -0.00000000000E+00 -0.45593999997E+02  0.45594000000E+02  0.51100000000E-03 0. -1.
         23    2    1    2    0    0 -0.44408920985E-15  0.00000000000E+00 -0.17763568394E-14  0.91188000000E+02  0.91188000000E+02 0.  0.
    9900012    2    3    3    0    0 -0.13249899218E+01 -0.33969804881E+02 -0.14144845106E+02  0.54367083593E+02  0.39999998668E+02 0.  0.
        -12    1    3    3    0    0  0.13249899218E+01  0.33969804881E+02  0.14144845106E+02  0.36820916407E+02  0.00000000000E+00 0.  1.
         11    1    4    4    0    0  0.69329551967E+01 -0.38342904843E+02 -0.55471665229E+01  0.39357531379E+02  0.51100000000E-03 0. -1.
        -11    1    4    4    0    0 -0.30392396156E+01  0.13333656418E+01 -0.83270227042E+01  0.89640475654E+01  0.51100000000E-03 0.  1.
         12    1    4    4    0    0 -0.52187055028E+01  0.30397343198E+01 -0.27065587861E+00  0.60455046493E+01  0.00000000000E+00 0. -1.
</event>
<event>
 8    1  0.1280925E-006  0.9118800E+02  0.7816164E-02  0.1184000E+00
        -11   -1    0    0    0    0  0.00000000000E+00  0.00000000000E+00  0.45593999997E+02  0.45594000000E+02  0.51100000000E-03 0.  1.
         11   -1    0    0    0    0 -0.00000000000E+00 -0.00000000000E+00 -0.45593999997E+02  0.45594000000E+02  0.51100000000E-03 0. -1.
         23    2    1    2    0    0  0.88817841970E-15 -0.17763568394E-14  0.00000000000E+00  0.91188000000E+02  0.91188000000E+02 0.  0.
    9900012    2    3    3    0    0 -0.60849360903E+01  0.11473718390E+02  0.34454420656E+02  0.54367085241E+02  0.40000002424E+02 0.  0.
         12    1    3    3    0    0  0.60849360903E+01 -0.11473718390E+02 -0.34454420656E+02  0.36820914759E+02  0.00000000000E+00 0. -1.
         11    1    4    4    0    0  0.40346135486E+01 -0.11282404651E+02  0.16085883553E+02  0.20058075958E+02  0.51100000000E-03 0. -1.
        -11    1    4    4    0    0 -0.10287149377E+02  0.54814396324E+01  0.83516226376E+01  0.14339498725E+02  0.51100000000E-03 0.  1.
        -12    1    4    4    0    0  0.16759973787E+00  0.17274683408E+02  0.10016914466E+02  0.19969510558E+02  0.00000000000E+00 0.  1.
</event>
<event>
 8    1  0.1280925E-006  0.9118800E+02  0.7816164E-02  0.1184000E+00
        -11   -1    0    0    0    0  0.00000000000E+00  0.00000000000E+00  0.45593999997E+02  0.45594000000E+02  0.51100000000E-03 0.  1.
         11   -1    0    0    0    0 -0.00000000000E+00 -0.00000000000E+00 -0.45593999997E+02  0.45594000000E+02  0.51100000000E-03 0. -1.
         23    2    1    2    0    0  0.00000000000E+00 -0.35527136788E-14  0.00000000000E+00  0.91188000000E+02  0.91188000000E+02 0.  0.
    9900012    2    3    3    0    0 -0.21032143005E+02 -0.28320480995E+02  0.10553753837E+02  0.54367049399E+02  0.39999920714E+02 0.  0.
        -12    1    3    3    0    0  0.21032143005E+02  0.28320480995E+02 -0.10553753837E+02  0.36820950601E+02  0.00000000000E+00 0.  1.
         11    1    4    4    0    0 -0.25776713368E+02 -0.12281069339E+02  0.13254771202E+02  0.31479399232E+02  0.51100000000E-03 0. -1.
        -11    1    4    4    0    0  0.54771576555E+01 -0.10678399150E+01 -0.52748743480E+01  0.76787914229E+01  0.51100000000E-03 0.  1.
        -12    1    4    4    0    0 -0.73258729251E+00 -0.14971571740E+02  0.25738569837E+01  0.15208858744E+02  0.00000000000E+00 0.  1.
</event>
<event>
 8    1  0.1280925E-006  0.9118800E+02  0.7816164E-02  0.1184000E+00
        -11   -1    0    0    0    0  0.00000000000E+00  0.00000000000E+00  0.45593999997E+02  0.45594000000E+02  0.51100000000E-03 0.  1.
         11   -1    0    0    0    0 -0.00000000000E+00 -0.00000000000E+00 -0.45593999997E+02  0.45594000000E+02  0.51100000000E-03 0. -1.
         23    2    1    2    0    0  0.17763568394E-14  0.00000000000E+00  0.00000000000E+00  0.91188000000E+02  0.91188000000E+02 0.  0.
    9900012    2    3    3    0    0 -0.13896498046E+02 -0.31872713492E+01  0.33948613036E+02  0.54367086327E+02  0.40000004901E+02 0.  0.
         12    1    3    3    0    0  0.13896498046E+02  0.31872713492E+01 -0.33948613036E+02  0.36820913673E+02  0.00000000000E+00 0. -1.
         11    1    4    4    0    0  0.13321901758E+02  0.10728348715E+01  0.81164376161E+01  0.15636514987E+02  0.51100000000E-03 0. -1.
        -11    1    4    4    0    0 -0.19600173692E+02 -0.60434389630E+01  0.21786762498E+02  0.29922449493E+02  0.51100000000E-03 0.  1.
         12    1    4    4    0    0 -0.76182261119E+01  0.17833327422E+01  0.40454129226E+01  0.88081218473E+01  0.00000000000E+00 0. -1.
</event>
<event>
 8    1  0.1280925E-006  0.9118800E+02  0.7816164E-02  0.1184000E+00
        -11   -1    0    0    0    0  0.00000000000E+00  0.00000000000E+00  0.45593999997E+02  0.45594000000E+02  0.51100000000E-03 0.  1.
         11   -1    0    0    0    0 -0.00000000000E+00 -0.00000000000E+00 -0.45593999997E+02  0.45594000000E+02  0.51100000000E-03 0. -1.
         23    2    1    2    0    0 -0.88817841970E-15 -0.35527136788E-14 -0.35527136788E-14  0.91188000000E+02  0.91188000000E+02 0.  0.
    9900012    2    3    3    0    0 -0.67917244797E+01  0.18123656731E+02  0.31323934300E+02  0.54367037020E+02  0.39999892495E+02 0.  0.
         12    1    3    3    0    0  0.67917244797E+01 -0.18123656731E+02 -0.31323934300E+02  0.36820962980E+02  0.00000000000E+00 0. -1.
         11    1    4    4    0    0 -0.12669410345E+02 -0.61028345380E+01  0.59636855935E+00  0.14075304743E+02  0.51100000000E-03 0. -1.
        -11    1    4    4    0    0 -0.95993240019E+00  0.10031822139E+02  0.94457271122E+01  0.13812338201E+02  0.51100000000E-03 0.  1.
         12    1    4    4    0    0  0.68376182653E+01  0.14194669130E+02  0.21281838628E+02  0.26479394076E+02  0.00000000000E+00 0. -1.
</event>
<event>
 8    1  0.1280925E-006  0.9118800E+02  0.7816164E-02  0.1184000E+00
        -11   -1    0    0    0    0  0.00000000000E+00  0.00000000000E+00  0.45593999997E+02  0.45594000000E+02  0.51100000000E-03 0. -1.
         11   -1    0    0    0    0 -0.00000000000E+00 -0.00000000000E+00 -0.45593999997E+02  0.45594000000E+02  0.51100000000E-03 0.  1.
         23    2    1    2    0    0 -0.71054273576E-14  0.35527136788E-14 -0.17763568394E-14  0.91188000000E+02  0.91188000000E+02 0.  0.
    9900012    2    3    3    0    0  0.25193945944E+02 -0.23908385192E+02  0.12224318129E+02  0.54367085449E+02  0.40000002897E+02 0.  0.
        -12    1    3    3    0    0 -0.25193945944E+02  0.23908385192E+02 -0.12224318129E+02  0.36820914551E+02  0.00000000000E+00 0.  1.
         11    1    4    4    0    0  0.18071774573E+02 -0.26006621821E+02  0.13730609548E+01  0.31698875554E+02  0.51100000000E-03 0. -1.
        -11    1    4    4    0    0 -0.40737807805E+01 -0.31021715231E+01 -0.13664721180E+01  0.52996607738E+01  0.51100000000E-03 0.  1.
         12    1    4    4    0    0  0.11195952151E+02  0.52004081518E+01  0.12217729292E+02  0.17368549121E+02  0.00000000000E+00 0. -1.
</event>
<event>
 8    1  0.1280925E-006  0.9118800E+02  0.7816164E-02  0.1184000E+00
        -11   -1    0    0    0    0  0.00000000000E+00  0.00000000000E+00  0.45593999997E+02  0.45594000000E+02  0.51100000000E-03 0.  1.
         11   -1    0    0    0    0 -0.00000000000E+00 -0.00000000000E+00 -0.45593999997E+02  0.45594000000E+02  0.51100000000E-03 0. -1.
         23    2    1    2    0    0  0.00000000000E+00  0.00000000000E+00  0.00000000000E+00  0.91188000000E+02  0.91188000000E+02 0.  0.
    9900012    2    3    3    0    0  0.30464671699E+02 -0.20267367442E+02  0.41131748877E+01  0.54367073716E+02  0.39999976150E+02 0.  0.
        -12    1    3    3    0    0 -0.30464671699E+02  0.20267367442E+02 -0.41131748877E+01  0.36820926284E+02  0.00000000000E+00 0.  1.
         11    1    4    4    0    0  0.15168379998E+02 -0.30369282225E+01 -0.66120846401E+01  0.16823268064E+02  0.51100000000E-03 0. -1.
        -11    1    4    4    0    0  0.23386718152E+02 -0.12239008985E+02  0.67887253044E+01  0.27254700849E+02  0.51100000000E-03 0.  1.
         12    1    4    4    0    0 -0.80904264512E+01 -0.49914302342E+01  0.39365342234E+01  0.10289104803E+02  0.00000000000E+00 0. -1.
</event>
<event>
 8    1  0.1280925E-006  0.9118800E+02  0.7816164E-02  0.1184000E+00
        -11   -1    0    0    0    0  0.00000000000E+00  0.00000000000E+00  0.45593999997E+02  0.45594000000E+02  0.51100000000E-03 0.  1.
         11   -1    0    0    0    0 -0.00000000000E+00 -0.00000000000E+00 -0.45593999997E+02  0.45594000000E+02  0.51100000000E-03 0. -1.
         23    2    1    2    0    0  0.35527136788E-14  0.00000000000E+00  0.00000000000E+00  0.91188000000E+02  0.91188000000E+02 0.  0.
    9900012    2    3    3    0    0 -0.11617277042E+02 -0.34868914434E+02  0.22307511485E+01  0.54367101446E+02  0.40000039366E+02 0.  0.
        -12    1    3    3    0    0  0.11617277042E+02  0.34868914434E+02 -0.22307511485E+01  0.36820898554E+02  0.00000000000E+00 0.  1.
         11    1    4    4    0    0  0.69848222111E+01  0.84021097408E+00 -0.13470041093E+01  0.71629683884E+01  0.51100000000E-03 0. -1.
        -11    1    4    4    0    0  0.40948946211E+01 -0.17265872609E+02  0.26687208270E+01  0.17944374885E+02  0.51100000000E-03 0.  1.
         12    1    4    4    0    0 -0.22696993874E+02 -0.18443252799E+02  0.90903443081E+00  0.29259758173E+02  0.00000000000E+00 0. -1.
</event>
<event>
 8    1  0.1280925E-006  0.9118800E+02  0.7816164E-02  0.1184000E+00
        -11   -1    0    0    0    0  0.00000000000E+00  0.00000000000E+00  0.45593999997E+02  0.45594000000E+02  0.51100000000E-03 0.  1.
         11   -1    0    0    0    0 -0.00000000000E+00 -0.00000000000E+00 -0.45593999997E+02  0.45594000000E+02  0.51100000000E-03 0. -1.
         23    2    1    2    0    0  0.00000000000E+00  0.00000000000E+00  0.00000000000E+00  0.91188000000E+02  0.91188000000E+02 0.  0.
    9900012    2    3    3    0    0 -0.20406209030E+02  0.25315684176E+02  0.17276689046E+02  0.54367065511E+02  0.39999957445E+02 0.  0.
         12    1    3    3    0    0  0.20406209030E+02 -0.25315684176E+02 -0.17276689046E+02  0.36820934489E+02  0.00000000000E+00 0. -1.
         11    1    4    4    0    0 -0.11456431242E+02  0.10532539680E+02  0.70134291459E+01  0.17069633785E+02  0.51100000000E-03 0. -1.
        -11    1    4    4    0    0 -0.12154389170E+02  0.23061199987E+02  0.11198265625E+02  0.28371627979E+02  0.51100000000E-03 0.  1.
        -12    1    4    4    0    0  0.32046113823E+01 -0.82780554908E+01 -0.93500572467E+00  0.89258037467E+01  0.00000000000E+00 0.  1.
</event>
<event>
 8    1  0.1280925E-006  0.9118800E+02  0.7816164E-02  0.1184000E+00
        -11   -1    0    0    0    0  0.00000000000E+00  0.00000000000E+00  0.45593999997E+02  0.45594000000E+02  0.51100000000E-03 0. -1.
         11   -1    0    0    0    0 -0.00000000000E+00 -0.00000000000E+00 -0.45593999997E+02  0.45594000000E+02  0.51100000000E-03 0.  1.
         23    2    1    2    0    0  0.00000000000E+00  0.00000000000E+00 -0.35527136788E-14  0.91188000000E+02  0.91188000000E+02 0.  0.
    9900012    2    3    3    0    0  0.26960109750E+02  0.82703965852E+01  0.23675544505E+02  0.54367103962E+02  0.40000045103E+02 0.  0.
        -12    1    3    3    0    0 -0.26960109750E+02 -0.82703965852E+01 -0.23675544505E+02  0.36820896038E+02  0.00000000000E+00 0.  1.
         11    1    4    4    0    0  0.13503481075E+02 -0.46528483188E+00  0.25273966789E+02  0.28658923368E+02  0.51100000000E-03 0. -1.
        -11    1    4    4    0    0  0.43432145286E+01  0.15945286331E+01  0.89310120304E+01  0.10058280676E+02  0.51100000000E-03 0.  1.
        -12    1    4    4    0    0  0.91134141464E+01  0.71411527840E+01 -0.10529434314E+02  0.15649899918E+02  0.00000000000E+00 0.  1.
</event>
<event>
 8    1  0.1280925E-006  0.9118800E+02  0.7816164E-02  0.1184000E+00
        -11   -1    0    0    0    0  0.00000000000E+00  0.00000000000E+00  0.45593999997E+02  0.45594000000E+02  0.51100000000E-03 0. -1.
         11   -1    0    0    0    0 -0.00000000000E+00 -0.00000000000E+00 -0.45593999997E+02  0.45594000000E+02  0.51100000000E-03 0.  1.
         23    2    1    2    0    0 -0.17763568394E-14 -0.71054273576E-14  0.00000000000E+00  0.91188000000E+02  0.91188000000E+02 0.  0.
    9900012    2    3    3    0    0 -0.14207021411E+02 -0.20111637840E+02 -0.27376311834E+02  0.54367083612E+02  0.39999998711E+02 0.  0.
         12    1    3    3    0    0  0.14207021411E+02  0.20111637840E+02  0.27376311834E+02  0.36820916388E+02  0.00000000000E+00 0. -1.
         11    1    4    4    0    0 -0.27278715274E+01 -0.11686010587E+00  0.56953245471E+01  0.63159845877E+01  0.51100000000E-03 0. -1.
        -11    1    4    4    0    0  0.77770357336E+01 -0.50745959670E+01 -0.15299400462E+02  0.17897079756E+02  0.51100000000E-03 0.  1.
         12    1    4    4    0    0 -0.19256185618E+02 -0.14920181767E+02 -0.17772235920E+02  0.30154019269E+02  0.00000000000E+00 0. -1.
</event>
<event>
 8    1  0.1280925E-006  0.9118800E+02  0.7816164E-02  0.1184000E+00
        -11   -1    0    0    0    0  0.00000000000E+00  0.00000000000E+00  0.45593999997E+02  0.45594000000E+02  0.51100000000E-03 0.  1.
         11   -1    0    0    0    0 -0.00000000000E+00 -0.00000000000E+00 -0.45593999997E+02  0.45594000000E+02  0.51100000000E-03 0. -1.
         23    2    1    2    0    0  0.71054273576E-14  0.00000000000E+00  0.35527136788E-14  0.91188000000E+02  0.91188000000E+02 0.  0.
    9900012    2    3    3    0    0  0.31669683496E+02 -0.24448308058E+01  0.18623454424E+02  0.54367094184E+02  0.40000022811E+02 0.  0.
         12    1    3    3    0    0 -0.31669683496E+02  0.24448308058E+01 -0.18623454424E+02  0.36820905816E+02  0.00000000000E+00 0. -1.
         11    1    4    4    0    0  0.30955881037E+02 -0.40666389724E+01  0.15884286187E+02  0.35030196563E+02  0.51100000000E-03 0. -1.
        -11    1    4    4    0    0  0.74564538568E+01 -0.70508147586E+00  0.76273417745E+01  0.10689816968E+02  0.51100000000E-03 0.  1.
        -12    1    4    4    0    0 -0.67426513976E+01  0.23268896425E+01 -0.48881735379E+01  0.86470806527E+01  0.00000000000E+00 0.  1.
</event>
<event>
 8    1  0.1280925E-006  0.9118800E+02  0.7816164E-02  0.1184000E+00
        -11   -1    0    0    0    0  0.00000000000E+00  0.00000000000E+00  0.45593999997E+02  0.45594000000E+02  0.51100000000E-03 0.  1.
         11   -1    0    0    0    0 -0.00000000000E+00 -0.00000000000E+00 -0.45593999997E+02  0.45594000000E+02  0.51100000000E-03 0. -1.
         23    2    1    2    0    0  0.00000000000E+00  0.10658141036E-13  0.35527136788E-14  0.91188000000E+02  0.91188000000E+02 0.  0.
    9900012    2    3    3    0    0  0.14948622897E+02  0.30849723414E+02  0.13439221293E+02  0.54367089769E+02  0.40000012747E+02 0.  0.
         12    1    3    3    0    0 -0.14948622897E+02 -0.30849723414E+02 -0.13439221293E+02  0.36820910231E+02  0.00000000000E+00 0. -1.
         11    1    4    4    0    0  0.15658387284E+01  0.23114772772E+02  0.24399142636E+02  0.33646139940E+02  0.51100000000E-03 0.  1.
        -11    1    4    4    0    0  0.11982302178E+02  0.26058251381E+01 -0.73971258812E+01  0.14320731884E+02  0.51100000000E-03 0. -1.
        -12    1    4    4    0    0  0.14004819908E+01  0.51291255041E+01 -0.35627954619E+01  0.64002179453E+01  0.00000000000E+00 0.  1.
</event>
<event>
 8    1  0.1280925E-006  0.9118800E+02  0.7816164E-02  0.1184000E+00
        -11   -1    0    0    0    0  0.00000000000E+00  0.00000000000E+00  0.45593999997E+02  0.45594000000E+02  0.51100000000E-03 0.  1.
         11   -1    0    0    0    0 -0.00000000000E+00 -0.00000000000E+00 -0.45593999997E+02  0.45594000000E+02  0.51100000000E-03 0. -1.
         23    2    1    2    0    0  0.00000000000E+00  0.35527136788E-14  0.00000000000E+00  0.91188000000E+02  0.91188000000E+02 0.  0.
    9900012    2    3    3    0    0 -0.93495750141E+01  0.15450998175E+02 -0.32088129937E+02  0.54366865031E+02  0.39999500408E+02 0.  0.
        -12    1    3    3    0    0  0.93495750141E+01 -0.15450998175E+02  0.32088129937E+02  0.36821134969E+02  0.00000000000E+00 0.  1.
         11    1    4    4    0    0 -0.44912723453E+00  0.18134139093E+02 -0.81836793155E+01  0.19900284503E+02  0.51100000000E-03 0.  1.
        -11    1    4    4    0    0 -0.10341297678E+02 -0.87837958022E+01 -0.48524633147E+01  0.14409854504E+02  0.51100000000E-03 0. -1.
         12    1    4    4    0    0  0.14408498979E+01  0.61006548848E+01 -0.19051987307E+02  0.20056726024E+02  0.00000000000E+00 0. -1.
</event>
<event>
 8    1  0.1280925E-006  0.9118800E+02  0.7816164E-02  0.1184000E+00
        -11   -1    0    0    0    0  0.00000000000E+00  0.00000000000E+00  0.45593999997E+02  0.45594000000E+02  0.51100000000E-03 0.  1.
         11   -1    0    0    0    0 -0.00000000000E+00 -0.00000000000E+00 -0.45593999997E+02  0.45594000000E+02  0.51100000000E-03 0. -1.
         23    2    1    2    0    0  0.00000000000E+00  0.00000000000E+00  0.00000000000E+00  0.91188000000E+02  0.91188000000E+02 0.  0.
    9900012    2    3    3    0    0 -0.28842021714E+02 -0.21554990039E+02 -0.77005319777E+01  0.54367109125E+02  0.40000056871E+02 0.  0.
        -12    1    3    3    0    0  0.28842021714E+02  0.21554990039E+02  0.77005319777E+01  0.36820890875E+02  0.00000000000E+00 0.  1.
         11    1    4    4    0    0 -0.22880512495E+02 -0.19905046529E+01  0.39491514811E+01  0.23303985893E+02  0.51100000000E-03 0. -1.
        -11    1    4    4    0    0 -0.10547118251E+02 -0.39351986860E+01 -0.93089790245E+01  0.14607689169E+02  0.51100000000E-03 0.  1.
        -12    1    4    4    0    0  0.45856090328E+01 -0.15629286700E+02 -0.23407044344E+01  0.16455434063E+02  0.00000000000E+00 0.  1.
</event>
<event>
 8    1  0.1280925E-006  0.9118800E+02  0.7816164E-02  0.1184000E+00
        -11   -1    0    0    0    0  0.00000000000E+00  0.00000000000E+00  0.45593999997E+02  0.45594000000E+02  0.51100000000E-03 0.  1.
         11   -1    0    0    0    0 -0.00000000000E+00 -0.00000000000E+00 -0.45593999997E+02  0.45594000000E+02  0.51100000000E-03 0. -1.
         23    2    1    2    0    0  0.13322676296E-14  0.00000000000E+00  0.00000000000E+00  0.91188000000E+02  0.91188000000E+02 0.  0.
    9900012    2    3    3    0    0 -0.38442850129E+01 -0.15807402137E+02  0.33032212727E+02  0.54367087908E+02  0.40000008505E+02 0.  0.
         12    1    3    3    0    0  0.38442850129E+01  0.15807402137E+02 -0.33032212727E+02  0.36820912092E+02  0.00000000000E+00 0. -1.
         11    1    4    4    0    0  0.12116138762E+02 -0.49804503206E+01  0.78763825421E+01  0.15285388648E+02  0.51100000000E-03 0. -1.
        -11    1    4    4    0    0 -0.99899824401E+01 -0.45310896606E+01 -0.14794152778E+01  0.11068838805E+02  0.51100000000E-03 0.  1.
        -12    1    4    4    0    0 -0.59704413353E+01 -0.62958621560E+01  0.26635245463E+02  0.28012860456E+02  0.00000000000E+00 0.  1.
</event>
<event>
 8    1  0.1280925E-006  0.9118800E+02  0.7816164E-02  0.1184000E+00
        -11   -1    0    0    0    0  0.00000000000E+00  0.00000000000E+00  0.45593999997E+02  0.45594000000E+02  0.51100000000E-03 0.  1.
         11   -1    0    0    0    0 -0.00000000000E+00 -0.00000000000E+00 -0.45593999997E+02  0.45594000000E+02  0.51100000000E-03 0. -1.
         23    2    1    2    0    0  0.35527136788E-14  0.00000000000E+00  0.17763568394E-14  0.91188000000E+02  0.91188000000E+02 0.  0.
    9900012    2    3    3    0    0  0.17771941746E+02  0.28985437682E+02  0.14134440350E+02  0.54367083185E+02  0.39999997738E+02 0.  0.
         12    1    3    3    0    0 -0.17771941746E+02 -0.28985437682E+02 -0.14134440350E+02  0.36820916815E+02  0.00000000000E+00 0. -1.
         11    1    4    4    0    0 -0.40250942903E+01  0.17610230987E+02  0.74003570615E+01  0.19521447292E+02  0.51100000000E-03 0. -1.
        -11    1    4    4    0    0  0.12970618692E+02 -0.48238639106E+01  0.86170369811E+01  0.16302145224E+02  0.51100000000E-03 0.  1.
         12    1    4    4    0    0  0.88264173437E+01  0.16199070606E+02 -0.18829536926E+01  0.18543490670E+02  0.00000000000E+00 0. -1.
</event>
<event>
 8    1  0.1280925E-006  0.9118800E+02  0.7816164E-02  0.1184000E+00
        -11   -1    0    0    0    0  0.00000000000E+00  0.00000000000E+00  0.45593999997E+02  0.45594000000E+02  0.51100000000E-03 0. -1.
         11   -1    0    0    0    0 -0.00000000000E+00 -0.00000000000E+00 -0.45593999997E+02  0.45594000000E+02  0.51100000000E-03 0.  1.
         23    2    1    2    0    0  0.00000000000E+00 -0.16653345369E-15  0.00000000000E+00  0.91188000000E+02  0.91188000000E+02 0.  0.
    9900012    2    3    3    0    0 -0.88160186069E+01 -0.68481570136E-01  0.35749864748E+02  0.54367086061E+02  0.40000004293E+02 0.  0.
        -12    1    3    3    0    0  0.88160186069E+01  0.68481570136E-01 -0.35749864748E+02  0.36820913939E+02  0.00000000000E+00 0.  1.
         11    1    4    4    0    0  0.57150450260E+01 -0.13105664770E+02  0.92578117036E+01  0.17033122630E+02  0.51100000000E-03 0. -1.
        -11    1    4    4    0    0 -0.33006735836E+01 -0.22994487134E+01  0.14051816556E+02  0.14616273782E+02  0.51100000000E-03 0.  1.
        -12    1    4    4    0    0 -0.11230390049E+02  0.15336631914E+02  0.12440236489E+02  0.22717689649E+02  0.00000000000E+00 0.  1.
</event>
<event>
 8    1  0.1280925E-006  0.9118800E+02  0.7816164E-02  0.1184000E+00
        -11   -1    0    0    0    0  0.00000000000E+00  0.00000000000E+00  0.45593999997E+02  0.45594000000E+02  0.51100000000E-03 0.  1.
         11   -1    0    0    0    0 -0.00000000000E+00 -0.00000000000E+00 -0.45593999997E+02  0.45594000000E+02  0.51100000000E-03 0. -1.
         23    2    1    2    0    0 -0.17763568394E-14  0.58980598183E-15  0.00000000000E+00  0.91188000000E+02  0.91188000000E+02 0.  0.
    9900012    2    3    3    0    0  0.10553275132E+02 -0.33873168894E-01 -0.35276134730E+02  0.54367103149E+02  0.40000043249E+02 0.  0.
        -12    1    3    3    0    0 -0.10553275132E+02  0.33873168894E-01  0.35276134730E+02  0.36820896851E+02  0.00000000000E+00 0.  1.
         11    1    4    4    0    0  0.59791947131E+01 -0.14751845821E+01  0.46852282899E+01  0.77381072206E+01  0.51100000000E-03 0.  1.
        -11    1    4    4    0    0  0.11841009332E+02 -0.38208425679E+01 -0.12088263254E+02  0.17347462312E+02  0.51100000000E-03 0. -1.
        -12    1    4    4    0    0 -0.72669289128E+01  0.52621539811E+01 -0.27873099766E+02  0.29281533616E+02  0.00000000000E+00 0.  1.
</event>
<event>
 8    1  0.1280925E-006  0.9118800E+02  0.7816164E-02  0.1184000E+00
        -11   -1    0    0    0    0  0.00000000000E+00  0.00000000000E+00  0.45593999997E+02  0.45594000000E+02  0.51100000000E-03 0. -1.
         11   -1    0    0    0    0 -0.00000000000E+00 -0.00000000000E+00 -0.45593999997E+02  0.45594000000E+02  0.51100000000E-03 0.  1.
         23    2    1    2    0    0  0.00000000000E+00  0.17763568394E-14  0.00000000000E+00  0.91188000000E+02  0.91188000000E+02 0.  0.
    9900012    2    3    3    0    0  0.19032400867E+02  0.15627907668E+02 -0.27373631012E+02  0.54367089425E+02  0.40000011961E+02 0.  0.
         12    1    3    3    0    0 -0.19032400867E+02 -0.15627907668E+02  0.27373631012E+02  0.36820910575E+02  0.00000000000E+00 0. -1.
         11    1    4    4    0    0  0.10911311724E+02  0.69660103410E+01  0.56958677061E+01  0.14143017104E+02  0.51100000000E-03 0. -1.
        -11    1    4    4    0    0 -0.24833268278E+01  0.56681264333E+01 -0.94206520349E+00  0.62595572132E+01  0.51100000000E-03 0.  1.
        -12    1    4    4    0    0  0.10604415970E+02  0.29937708933E+01 -0.32127433515E+02  0.33964515107E+02  0.00000000000E+00 0.  1.
</event>
<event>
 8    1  0.1280925E-006  0.9118800E+02  0.7816164E-02  0.1184000E+00
        -11   -1    0    0    0    0  0.00000000000E+00  0.00000000000E+00  0.45593999997E+02  0.45594000000E+02  0.51100000000E-03 0.  1.
         11   -1    0    0    0    0 -0.00000000000E+00 -0.00000000000E+00 -0.45593999997E+02  0.45594000000E+02  0.51100000000E-03 0. -1.
         23    2    1    2    0    0  0.00000000000E+00 -0.35527136788E-14  0.00000000000E+00  0.91188000000E+02  0.91188000000E+02 0.  0.
    9900012    2    3    3    0    0  0.16744061453E+02  0.28451944963E+02 -0.16306386061E+02  0.54367150031E+02  0.40000150124E+02 0.  0.
        -12    1    3    3    0    0 -0.16744061453E+02 -0.28451944963E+02  0.16306386061E+02  0.36820849969E+02  0.00000000000E+00 0.  1.
         11    1    4    4    0    0  0.19214305394E+02  0.87168011089E+01  0.36429148893E+00  0.21102247793E+02  0.51100000000E-03 0. -1.
        -11    1    4    4    0    0  0.33514731077E+01  0.19420707675E+01  0.38680905828E+01  0.54741333447E+01  0.51100000000E-03 0.  1.
         12    1    4    4    0    0 -0.58217170492E+01  0.17793073087E+02 -0.20538768133E+02  0.27790768893E+02  0.00000000000E+00 0. -1.
</event>
<event>
 8    1  0.1280925E-006  0.9118800E+02  0.7816164E-02  0.1184000E+00
        -11   -1    0    0    0    0  0.00000000000E+00  0.00000000000E+00  0.45593999997E+02  0.45594000000E+02  0.51100000000E-03 0.  1.
         11   -1    0    0    0    0 -0.00000000000E+00 -0.00000000000E+00 -0.45593999997E+02  0.45594000000E+02  0.51100000000E-03 0. -1.
         23    2    1    2    0    0 -0.35527136788E-14 -0.35527136788E-14 -0.88817841970E-15  0.91188000000E+02  0.91188000000E+02 0.  0.
    9900012    2    3    3    0    0  0.22401356573E+02  0.28392126581E+02  0.69170440358E+01  0.54367093896E+02  0.40000022156E+02 0.  0.
        -12    1    3    3    0    0 -0.22401356573E+02 -0.28392126581E+02 -0.69170440358E+01  0.36820906104E+02  0.00000000000E+00 0.  1.
         11    1    4    4    0    0  0.18592116718E+02  0.32344096559E+01 -0.27661977072E+00  0.18873386782E+02  0.51100000000E-03 0. -1.
        -11    1    4    4    0    0 -0.42087414069E+01  0.24039297153E+02  0.10729782031E+02  0.26659511146E+02  0.51100000000E-03 0.  1.
        -12    1    4    4    0    0  0.80179812615E+01  0.11184197721E+01 -0.35361182248E+01  0.88341959678E+01  0.00000000000E+00 0.  1.
</event>
<event>
 8    1  0.1280925E-006  0.9118800E+02  0.7816164E-02  0.1184000E+00
        -11   -1    0    0    0    0  0.00000000000E+00  0.00000000000E+00  0.45593999997E+02  0.45594000000E+02  0.51100000000E-03 0.  1.
         11   -1    0    0    0    0 -0.00000000000E+00 -0.00000000000E+00 -0.45593999997E+02  0.45594000000E+02  0.51100000000E-03 0. -1.
         23    2    1    2    0    0  0.00000000000E+00  0.00000000000E+00 -0.17763568394E-14  0.91188000000E+02  0.91188000000E+02 0.  0.
    9900012    2    3    3    0    0  0.26798694739E+02 -0.23471324547E+02  0.93116466773E+01  0.54367083668E+02  0.39999998837E+02 0.  0.
        -12    1    3    3    0    0 -0.26798694739E+02  0.23471324547E+02 -0.93116466773E+01  0.36820916332E+02  0.00000000000E+00 0.  1.
         11    1    4    4    0    0  0.83082780625E+01  0.17120727572E+01  0.82169716700E+01  0.11810050854E+02  0.51100000000E-03 0. -1.
        -11    1    4    4    0    0  0.29488205961E+01 -0.26222374705E+02 -0.26992648645E+01  0.26525355967E+02  0.51100000000E-03 0.  1.
         12    1    4    4    0    0  0.15541596081E+02  0.10389774013E+01  0.37939398718E+01  0.16031676847E+02  0.00000000000E+00 0. -1.
</event>
<event>
 8    1  0.1280925E-006  0.9118800E+02  0.7816164E-02  0.1184000E+00
        -11   -1    0    0    0    0  0.00000000000E+00  0.00000000000E+00  0.45593999997E+02  0.45594000000E+02  0.51100000000E-03 0.  1.
         11   -1    0    0    0    0 -0.00000000000E+00 -0.00000000000E+00 -0.45593999997E+02  0.45594000000E+02  0.51100000000E-03 0. -1.
         23    2    1    2    0    0  0.71054273576E-14 -0.17763568394E-14 -0.88817841970E-15  0.91188000000E+02  0.91188000000E+02 0.  0.
    9900012    2    3    3    0    0 -0.33535053911E+02  0.13412274392E+02  0.71617857675E+01  0.54367080395E+02  0.39999991377E+02 0.  0.
         12    1    3    3    0    0  0.33535053911E+02 -0.13412274392E+02 -0.71617857675E+01  0.36820919605E+02  0.00000000000E+00 0. -1.
         11    1    4    4    0    0 -0.33988740561E+01 -0.24908359174E+01 -0.10975058505E+00  0.42152881122E+01  0.51100000000E-03 0. -1.
        -11    1    4    4    0    0 -0.34854995689E+02  0.10955132823E+02  0.15296577311E+02  0.39608975465E+02  0.51100000000E-03 0.  1.
         12    1    4    4    0    0  0.47188158341E+01  0.49479774857E+01 -0.80250409586E+01  0.10542816818E+02  0.00000000000E+00 0. -1.
</event>
<event>
 8    1  0.1280925E-006  0.9118800E+02  0.7816164E-02  0.1184000E+00
        -11   -1    0    0    0    0  0.00000000000E+00  0.00000000000E+00  0.45593999997E+02  0.45594000000E+02  0.51100000000E-03 0. -1.
         11   -1    0    0    0    0 -0.00000000000E+00 -0.00000000000E+00 -0.45593999997E+02  0.45594000000E+02  0.51100000000E-03 0.  1.
         23    2    1    2    0    0  0.17763568394E-14  0.00000000000E+00  0.00000000000E+00  0.91188000000E+02  0.91188000000E+02 0.  0.
    9900012    2    3    3    0    0 -0.15921855306E+02 -0.18289107617E+02 -0.27708973847E+02  0.54367025468E+02  0.39999866160E+02 0.  0.
         12    1    3    3    0    0  0.15921855306E+02  0.18289107617E+02  0.27708973847E+02  0.36820974532E+02  0.00000000000E+00 0. -1.
         11    1    4    4    0    0 -0.23022778157E+02 -0.55835321748E+00 -0.12990941708E+02  0.26440965169E+02  0.51100000000E-03 0. -1.
        -11    1    4    4    0    0  0.83068929812E+01 -0.16645311989E+02 -0.16949838404E+02  0.25166801633E+02  0.51100000000E-03 0.  1.
         12    1    4    4    0    0 -0.12059701308E+01 -0.10854424097E+01  0.22318062655E+01  0.27592586664E+01  0.00000000000E+00 0. -1.
</event>
<event>
 8    1  0.1280925E-006  0.9118800E+02  0.7816164E-02  0.1184000E+00
        -11   -1    0    0    0    0  0.00000000000E+00  0.00000000000E+00  0.45593999997E+02  0.45594000000E+02  0.51100000000E-03 0.  1.
         11   -1    0    0    0    0 -0.00000000000E+00 -0.00000000000E+00 -0.45593999997E+02  0.45594000000E+02  0.51100000000E-03 0. -1.
         23    2    1    2    0    0  0.17763568394E-14  0.00000000000E+00  0.00000000000E+00  0.91188000000E+02  0.91188000000E+02 0.  0.
    9900012    2    3    3    0    0  0.14534029952E+02 -0.94428863568E+01  0.32486525324E+02  0.54367075826E+02  0.39999980961E+02 0.  0.
         12    1    3    3    0    0 -0.14534029952E+02  0.94428863568E+01 -0.32486525324E+02  0.36820924174E+02  0.00000000000E+00 0. -1.
         11    1    4    4    0    0  0.15900245911E+02 -0.22078261385E+00  0.20795332171E+02  0.26178472174E+02  0.51100000000E-03 0. -1.
        -11    1    4    4    0    0  0.64115479870E+01  0.47397362714E+01 -0.64496579244E+00  0.79993142611E+01  0.51100000000E-03 0.  1.
         12    1    4    4    0    0 -0.77777639461E+01 -0.13961840014E+02  0.12336158945E+02  0.20189289391E+02  0.00000000000E+00 0. -1.
</event>
<event>
 8    1  0.1280925E-006  0.9118800E+02  0.7816164E-02  0.1184000E+00
        -11   -1    0    0    0    0  0.00000000000E+00  0.00000000000E+00  0.45593999997E+02  0.45594000000E+02  0.51100000000E-03 0. -1.
         11   -1    0    0    0    0 -0.00000000000E+00 -0.00000000000E+00 -0.45593999997E+02  0.45594000000E+02  0.51100000000E-03 0.  1.
         23    2    1    2    0    0  0.00000000000E+00  0.00000000000E+00  0.35527136788E-14  0.91188000000E+02  0.91188000000E+02 0.  0.
    9900012    2    3    3    0    0 -0.10708942858E+02  0.32951081131E+02  0.12462857709E+02  0.54367108822E+02  0.40000056182E+02 0.  0.
        -12    1    3    3    0    0  0.10708942858E+02 -0.32951081131E+02 -0.12462857709E+02  0.36820891178E+02  0.00000000000E+00 0.  1.
         11    1    4    4    0    0  0.56534988159E+00  0.53210130916E+01  0.17822781386E+02  0.18608716705E+02  0.51100000000E-03 0. -1.
        -11    1    4    4    0    0 -0.96864717918E+01  0.17756998973E+02 -0.12219705431E+02  0.23631757222E+02  0.51100000000E-03 0.  1.
        -12    1    4    4    0    0 -0.15878209474E+01  0.98730690670E+01  0.68597817545E+01  0.12126634895E+02  0.00000000000E+00 0.  1.
</event>
<event>
 8    1  0.1280925E-006  0.9118800E+02  0.7816164E-02  0.1184000E+00
        -11   -1    0    0    0    0  0.00000000000E+00  0.00000000000E+00  0.45593999997E+02  0.45594000000E+02  0.51100000000E-03 0. -1.
         11   -1    0    0    0    0 -0.00000000000E+00 -0.00000000000E+00 -0.45593999997E+02  0.45594000000E+02  0.51100000000E-03 0.  1.
         23    2    1    2    0    0  0.00000000000E+00  0.35527136788E-14  0.00000000000E+00  0.91188000000E+02  0.91188000000E+02 0.  0.
    9900012    2    3    3    0    0 -0.32290911005E+01  0.25312635179E+02  0.26544745018E+02  0.54367081800E+02  0.39999994580E+02 0.  0.
         12    1    3    3    0    0  0.32290911005E+01 -0.25312635179E+02 -0.26544745018E+02  0.36820918200E+02  0.00000000000E+00 0. -1.
         11    1    4    4    0    0  0.10786761416E+01  0.76186678866E+01  0.18128634618E+02  0.19694035543E+02  0.51100000000E-03 0. -1.
        -11    1    4    4    0    0 -0.45463671295E+01 -0.54608449134E+01  0.90526092179E+01  0.11508258563E+02  0.51100000000E-03 0.  1.
        -12    1    4    4    0    0  0.23859988738E+00  0.23154812206E+02 -0.63649881785E+00  0.23164787694E+02  0.00000000000E+00 0.  1.
</event>
<event>
 8    1  0.1280925E-006  0.9118800E+02  0.7816164E-02  0.1184000E+00
        -11   -1    0    0    0    0  0.00000000000E+00  0.00000000000E+00  0.45593999997E+02  0.45594000000E+02  0.51100000000E-03 0.  1.
         11   -1    0    0    0    0 -0.00000000000E+00 -0.00000000000E+00 -0.45593999997E+02  0.45594000000E+02  0.51100000000E-03 0. -1.
         23    2    1    2    0    0  0.00000000000E+00  0.22204460493E-14  0.00000000000E+00  0.91188000000E+02  0.91188000000E+02 0.  0.
    9900012    2    3    3    0    0 -0.11788531393E+02  0.23902254526E+01  0.34800818376E+02  0.54367087331E+02  0.40000007188E+02 0.  0.
         12    1    3    3    0    0  0.11788531393E+02 -0.23902254526E+01 -0.34800818376E+02  0.36820912669E+02  0.00000000000E+00 0. -1.
         11    1    4    4    0    0 -0.13106614606E+02  0.10643251811E+02  0.43674647759E+01  0.17439521335E+02  0.51100000000E-03 0. -1.
        -11    1    4    4    0    0 -0.10156260041E+01 -0.11250827263E+02  0.72230408572E+01  0.13408390275E+02  0.51100000000E-03 0.  1.
         12    1    4    4    0    0  0.23337092170E+01  0.29978009044E+01  0.23210312743E+02  0.23519175721E+02  0.00000000000E+00 0. -1.
</event>
<event>
 8    1  0.1280925E-006  0.9118800E+02  0.7816164E-02  0.1184000E+00
        -11   -1    0    0    0    0  0.00000000000E+00  0.00000000000E+00  0.45593999997E+02  0.45594000000E+02  0.51100000000E-03 0. -1.
         11   -1    0    0    0    0 -0.00000000000E+00 -0.00000000000E+00 -0.45593999997E+02  0.45594000000E+02  0.51100000000E-03 0.  1.
         23    2    1    2    0    0  0.22204460493E-15 -0.71054273576E-14  0.00000000000E+00  0.91188000000E+02  0.91188000000E+02 0.  0.
    9900012    2    3    3    0    0 -0.16188132323E+01  0.35646708054E+02 -0.90814189863E+01  0.54367074942E+02  0.39999978945E+02 0.  0.
        -12    1    3    3    0    0  0.16188132323E+01 -0.35646708054E+02  0.90814189863E+01  0.36820925058E+02  0.00000000000E+00 0.  1.
         11    1    4    4    0    0  0.54090476577E+01 -0.25129368116E+01 -0.46053040225E+01  0.75353482589E+01  0.51100000000E-03 0. -1.
        -11    1    4    4    0    0  0.72958695298E+00 -0.24165672028E+01 -0.49071782913E+01  0.55183777699E+01  0.51100000000E-03 0.  1.
         12    1    4    4    0    0 -0.77574478430E+01  0.40576212068E+02  0.43106332746E+00  0.41313348913E+02  0.00000000000E+00 0. -1.
</event>
<event>
 8    1  0.1280925E-006  0.9118800E+02  0.7816164E-02  0.1184000E+00
        -11   -1    0    0    0    0  0.00000000000E+00  0.00000000000E+00  0.45593999997E+02  0.45594000000E+02  0.51100000000E-03 0.  1.
         11   -1    0    0    0    0 -0.00000000000E+00 -0.00000000000E+00 -0.45593999997E+02  0.45594000000E+02  0.51100000000E-03 0. -1.
         23    2    1    2    0    0 -0.35527136788E-14 -0.71054273576E-14  0.13322676296E-14  0.91188000000E+02  0.91188000000E+02 0.  0.
    9900012    2    3    3    0    0  0.16522089556E+02  0.32841720087E+02 -0.20545723021E+01  0.54367091688E+02  0.40000017120E+02 0.  0.
        -12    1    3    3    0    0 -0.16522089556E+02 -0.32841720087E+02  0.20545723021E+01  0.36820908312E+02  0.00000000000E+00 0.  1.
         11    1    4    4    0    0  0.13720411439E+01  0.61055191171E+01  0.37629099544E+00  0.62690873151E+01  0.51100000000E-03 0. -1.
        -11    1    4    4    0    0 -0.91961043581E+00  0.18544270078E+02  0.14346723968E+02  0.23464102901E+02  0.51100000000E-03 0.  1.
         12    1    4    4    0    0  0.16069658848E+02  0.81919308919E+01 -0.16777587266E+02  0.24633901471E+02  0.00000000000E+00 0. -1.
</event>
<event>
 8    1  0.1280925E-006  0.9118800E+02  0.7816164E-02  0.1184000E+00
        -11   -1    0    0    0    0  0.00000000000E+00  0.00000000000E+00  0.45593999997E+02  0.45594000000E+02  0.51100000000E-03 0. -1.
         11   -1    0    0    0    0 -0.00000000000E+00 -0.00000000000E+00 -0.45593999997E+02  0.45594000000E+02  0.51100000000E-03 0.  1.
         23    2    1    2    0    0  0.49960036108E-15  0.00000000000E+00  0.00000000000E+00  0.91188000000E+02  0.91188000000E+02 0.  0.
    9900012    2    3    3    0    0  0.36841673120E+00 -0.13216556835E+02 -0.34365182909E+02  0.54367096944E+02  0.40000029104E+02 0.  0.
         12    1    3    3    0    0 -0.36841673120E+00  0.13216556835E+02  0.34365182909E+02  0.36820903056E+02  0.00000000000E+00 0. -1.
         11    1    4    4    0    0  0.28457985343E+00 -0.14922907175E+02 -0.14641650004E+02  0.20908181636E+02  0.51100000000E-03 0. -1.
        -11    1    4    4    0    0  0.29815354014E+01  0.14847734515E+01 -0.26173438826E+02  0.26384522088E+02  0.51100000000E-03 0.  1.
        -12    1    4    4    0    0 -0.28976985236E+01  0.22157688864E+00  0.64499059207E+01  0.70743932204E+01  0.00000000000E+00 0.  1.
</event>
<event>
 8    1  0.1280925E-006  0.9118800E+02  0.7816164E-02  0.1184000E+00
        -11   -1    0    0    0    0  0.00000000000E+00  0.00000000000E+00  0.45593999997E+02  0.45594000000E+02  0.51100000000E-03 0. -1.
         11   -1    0    0    0    0 -0.00000000000E+00 -0.00000000000E+00 -0.45593999997E+02  0.45594000000E+02  0.51100000000E-03 0.  1.
         23    2    1    2    0    0  0.00000000000E+00  0.00000000000E+00  0.00000000000E+00  0.91188000000E+02  0.91188000000E+02 0.  0.
    9900012    2    3    3    0    0  0.29805705910E+02  0.33414676872E+01  0.21359653642E+02  0.54367077757E+02  0.39999985362E+02 0.  0.
        -12    1    3    3    0    0 -0.29805705910E+02 -0.33414676872E+01 -0.21359653642E+02  0.36820922243E+02  0.00000000000E+00 0.  1.
         11    1    4    4    0    0  0.86881140537E+01  0.13560086295E+02  0.15310753282E+02  0.22221125814E+02  0.51100000000E-03 0. -1.
        -11    1    4    4    0    0  0.11951720974E+02 -0.10706405551E+02 -0.58844443948E+01  0.17090858380E+02  0.51100000000E-03 0.  1.
        -12    1    4    4    0    0  0.91658708824E+01  0.48778694341E+00  0.11933344755E+02  0.15055093563E+02  0.00000000000E+00 0.  1.
</event>
<event>
 8    1  0.1280925E-006  0.9118800E+02  0.7816164E-02  0.1184000E+00
        -11   -1    0    0    0    0  0.00000000000E+00  0.00000000000E+00  0.45593999997E+02  0.45594000000E+02  0.51100000000E-03 0. -1.
         11   -1    0    0    0    0 -0.00000000000E+00 -0.00000000000E+00 -0.45593999997E+02  0.45594000000E+02  0.51100000000E-03 0.  1.
         23    2    1    2    0    0  0.17763568394E-14  0.00000000000E+00  0.71054273576E-14  0.91188000000E+02  0.91188000000E+02 0.  0.
    9900012    2    3    3    0    0  0.74446494021E+01 -0.41721728003E+01  0.35818290119E+02  0.54367085595E+02  0.40000003230E+02 0.  0.
        -12    1    3    3    0    0 -0.74446494021E+01  0.41721728003E+01 -0.35818290119E+02  0.36820914405E+02  0.00000000000E+00 0.  1.
         11    1    4    4    0    0  0.28099780785E+01 -0.81769113197E+01  0.24022427008E+02  0.25531056679E+02  0.51100000000E-03 0. -1.
        -11    1    4    4    0    0  0.10073884532E+02  0.74796172001E+01  0.16586788116E+02  0.20797821119E+02  0.51100000000E-03 0.  1.
        -12    1    4    4    0    0 -0.54392132087E+01 -0.34748786808E+01 -0.47909250051E+01  0.80382077965E+01  0.00000000000E+00 0.  1.
</event>
<event>
 8    1  0.1280925E-006  0.9118800E+02  0.7816164E-02  0.1184000E+00
        -11   -1    0    0    0    0  0.00000000000E+00  0.00000000000E+00  0.45593999997E+02  0.45594000000E+02  0.51100000000E-03 0. -1.
         11   -1    0    0    0    0 -0.00000000000E+00 -0.00000000000E+00 -0.45593999997E+02  0.45594000000E+02  0.51100000000E-03 0.  1.
         23    2    1    2    0    0  0.00000000000E+00  0.00000000000E+00  0.00000000000E+00  0.91188000000E+02  0.91188000000E+02 0.  0.
    9900012    2    3    3    0    0  0.21289202686E+02 -0.25662133901E+02 -0.15620641295E+02  0.54367086081E+02  0.40000004339E+02 0.  0.
         12    1    3    3    0    0 -0.21289202686E+02  0.25662133901E+02  0.15620641295E+02  0.36820913919E+02  0.00000000000E+00 0. -1.
         11    1    4    4    0    0  0.95340682292E+01 -0.78608311796E+01 -0.24037957160E+01  0.12588461301E+02  0.51100000000E-03 0. -1.
        -11    1    4    4    0    0  0.18591585194E+02 -0.22729344783E+02 -0.15280242404E+02  0.33102204798E+02  0.51100000000E-03 0.  1.
        -12    1    4    4    0    0 -0.68364507372E+01  0.49280420617E+01  0.20633968252E+01  0.86764199819E+01  0.00000000000E+00 0.  1.
</event>
<event>
 8    1  0.1280925E-006  0.9118800E+02  0.7816164E-02  0.1184000E+00
        -11   -1    0    0    0    0  0.00000000000E+00  0.00000000000E+00  0.45593999997E+02  0.45594000000E+02  0.51100000000E-03 0. -1.
         11   -1    0    0    0    0 -0.00000000000E+00 -0.00000000000E+00 -0.45593999997E+02  0.45594000000E+02  0.51100000000E-03 0.  1.
         23    2    1    2    0    0 -0.88817841970E-15  0.71054273576E-14  0.00000000000E+00  0.91188000000E+02  0.91188000000E+02 0.  0.
    9900012    2    3    3    0    0 -0.53668327542E+01  0.34947737546E+02 -0.10277741714E+02  0.54367092513E+02  0.40000019003E+02 0.  0.
         12    1    3    3    0    0  0.53668327542E+01 -0.34947737546E+02  0.10277741714E+02  0.36820907487E+02  0.00000000000E+00 0. -1.
         11    1    4    4    0    0 -0.95825492139E+01  0.86943815864E+01  0.32579856313E+01  0.13342862933E+02  0.51100000000E-03 0. -1.
        -11    1    4    4    0    0 -0.10921617155E+02  0.19053527436E+02 -0.79199417211E+01  0.23346179691E+02  0.51100000000E-03 0.  1.
         12    1    4    4    0    0  0.15137333615E+02  0.71998285236E+01 -0.56157856245E+01  0.17678049890E+02  0.00000000000E+00 0. -1.
</event>
<event>
 8    1  0.1280925E-006  0.9118800E+02  0.7816164E-02  0.1184000E+00
        -11   -1    0    0    0    0  0.00000000000E+00  0.00000000000E+00  0.45593999997E+02  0.45594000000E+02  0.51100000000E-03 0. -1.
         11   -1    0    0    0    0 -0.00000000000E+00 -0.00000000000E+00 -0.45593999997E+02  0.45594000000E+02  0.51100000000E-03 0.  1.
         23    2    1    2    0    0 -0.35527136788E-14  0.00000000000E+00  0.00000000000E+00  0.91188000000E+02  0.91188000000E+02 0.  0.
    9900012    2    3    3    0    0 -0.21490292803E+02  0.28910849949E+02  0.76230025478E+01  0.54367080710E+02  0.39999992094E+02 0.  0.
         12    1    3    3    0    0  0.21490292803E+02 -0.28910849949E+02 -0.76230025478E+01  0.36820919290E+02  0.00000000000E+00 0. -1.
         11    1    4    4    0    0 -0.69585976758E+01  0.17947280027E+02  0.20925794537E+02  0.28432654101E+02  0.51100000000E-03 0. -1.
        -11    1    4    4    0    0 -0.26172783882E+01  0.99089658788E+01 -0.70323220540E+01  0.12429453113E+02  0.51100000000E-03 0.  1.
        -12    1    4    4    0    0 -0.11914416739E+02  0.10546040425E+01 -0.62704699349E+01  0.13504973496E+02  0.00000000000E+00 0.  1.
</event>
<event>
 8    1  0.1280925E-006  0.9118800E+02  0.7816164E-02  0.1184000E+00
        -11   -1    0    0    0    0  0.00000000000E+00  0.00000000000E+00  0.45593999997E+02  0.45594000000E+02  0.51100000000E-03 0.  1.
         11   -1    0    0    0    0 -0.00000000000E+00 -0.00000000000E+00 -0.45593999997E+02  0.45594000000E+02  0.51100000000E-03 0. -1.
         23    2    1    2    0    0 -0.17763568394E-14  0.00000000000E+00  0.00000000000E+00  0.91188000000E+02  0.91188000000E+02 0.  0.
    9900012    2    3    3    0    0  0.86529797090E+01  0.27390678151E+02 -0.23035990232E+02  0.54367079950E+02  0.39999990361E+02 0.  0.
        -12    1    3    3    0    0 -0.86529797090E+01 -0.27390678151E+02  0.23035990232E+02  0.36820920050E+02  0.00000000000E+00 0.  1.
         11    1    4    4    0    0  0.93999796301E+01  0.22177079531E+02 -0.18282368462E+02  0.30239501821E+02  0.51100000000E-03 0. -1.
        -11    1    4    4    0    0  0.41539434368E+01  0.34896487998E+01 -0.13166160722E+02  0.14240108260E+02  0.51100000000E-03 0.  1.
        -12    1    4    4    0    0 -0.49009433579E+01  0.17239498203E+01  0.84125389523E+01  0.98874698687E+01  0.00000000000E+00 0.  1.
</event>
<event>
 8    1  0.1280925E-006  0.9118800E+02  0.7816164E-02  0.1184000E+00
        -11   -1    0    0    0    0  0.00000000000E+00  0.00000000000E+00  0.45593999997E+02  0.45594000000E+02  0.51100000000E-03 0.  1.
         11   -1    0    0    0    0 -0.00000000000E+00 -0.00000000000E+00 -0.45593999997E+02  0.45594000000E+02  0.51100000000E-03 0. -1.
         23    2    1    2    0    0  0.00000000000E+00  0.26645352591E-14  0.11102230246E-15  0.91188000000E+02  0.91188000000E+02 0.  0.
    9900012    2    3    3    0    0  0.36307734566E+02  0.60666982889E+01 -0.85034781526E+00  0.54367088701E+02  0.40000010312E+02 0.  0.
        -12    1    3    3    0    0 -0.36307734566E+02 -0.60666982889E+01  0.85034781526E+00  0.36820911299E+02  0.00000000000E+00 0.  1.
         11    1    4    4    0    0 -0.73177410691E+00 -0.36320486860E+01  0.15017352948E+01  0.39978094199E+01  0.51100000000E-03 0. -1.
        -11    1    4    4    0    0 -0.54292660391E+01 -0.45540545400E+00  0.32523942195E+01  0.63452653429E+01  0.51100000000E-03 0.  1.
         12    1    4    4    0    0  0.42468774712E+02  0.10154152429E+02 -0.56044773296E+01  0.44024013938E+02  0.00000000000E+00 0. -1.
</event>
<event>
 8    1  0.1280925E-006  0.9118800E+02  0.7816164E-02  0.1184000E+00
        -11   -1    0    0    0    0  0.00000000000E+00  0.00000000000E+00  0.45593999997E+02  0.45594000000E+02  0.51100000000E-03 0.  1.
         11   -1    0    0    0    0 -0.00000000000E+00 -0.00000000000E+00 -0.45593999997E+02  0.45594000000E+02  0.51100000000E-03 0. -1.
         23    2    1    2    0    0 -0.35527136788E-14  0.00000000000E+00  0.00000000000E+00  0.91188000000E+02  0.91188000000E+02 0.  0.
    9900012    2    3    3    0    0 -0.27924672794E+02  0.13141839035E+02  0.20081964979E+02  0.54367073867E+02  0.39999976494E+02 0.  0.
         12    1    3    3    0    0  0.27924672794E+02 -0.13141839035E+02 -0.20081964979E+02  0.36820926133E+02  0.00000000000E+00 0. -1.
         11    1    4    4    0    0  0.45463381314E+01  0.32309610568E+01  0.11980889762E+02  0.13215521915E+02  0.51100000000E-03 0. -1.
        -11    1    4    4    0    0 -0.13095275561E+01 -0.20803652566E+01  0.73541971375E+01  0.77541600332E+01  0.51100000000E-03 0.  1.
         12    1    4    4    0    0 -0.31161483369E+02  0.11991243235E+02  0.74687808024E+00  0.33397391918E+02  0.00000000000E+00 0. -1.
</event>
<event>
 8    1  0.1280925E-006  0.9118800E+02  0.7816164E-02  0.1184000E+00
        -11   -1    0    0    0    0  0.00000000000E+00  0.00000000000E+00  0.45593999997E+02  0.45594000000E+02  0.51100000000E-03 0. -1.
         11   -1    0    0    0    0 -0.00000000000E+00 -0.00000000000E+00 -0.45593999997E+02  0.45594000000E+02  0.51100000000E-03 0.  1.
         23    2    1    2    0    0  0.00000000000E+00  0.17763568394E-14  0.00000000000E+00  0.91188000000E+02  0.91188000000E+02 0.  0.
    9900012    2    3    3    0    0  0.31314502571E+02 -0.15687422704E+02  0.11361871801E+02  0.54367008254E+02  0.39999826916E+02 0.  0.
        -12    1    3    3    0    0 -0.31314502571E+02  0.15687422704E+02 -0.11361871801E+02  0.36820991746E+02  0.00000000000E+00 0.  1.
         11    1    4    4    0    0  0.61097810039E+01  0.13809069566E+01  0.14141055876E+02  0.15466279109E+02  0.51100000000E-03 0. -1.
        -11    1    4    4    0    0 -0.25587677532E+01  0.27928895089E+01 -0.28899155018E+01  0.47643610372E+01  0.51100000000E-03 0.  1.
         12    1    4    4    0    0  0.27763489320E+02 -0.19861219170E+02  0.11073142701E+00  0.34136368108E+02  0.00000000000E+00 0. -1.
</event>
<event>
 8    1  0.1280925E-006  0.9118800E+02  0.7816164E-02  0.1184000E+00
        -11   -1    0    0    0    0  0.00000000000E+00  0.00000000000E+00  0.45593999997E+02  0.45594000000E+02  0.51100000000E-03 0. -1.
         11   -1    0    0    0    0 -0.00000000000E+00 -0.00000000000E+00 -0.45593999997E+02  0.45594000000E+02  0.51100000000E-03 0.  1.
         23    2    1    2    0    0  0.35527136788E-14 -0.71054273576E-14  0.00000000000E+00  0.91188000000E+02  0.91188000000E+02 0.  0.
    9900012    2    3    3    0    0  0.25293694226E+02 -0.22225727193E+02  0.14900540181E+02  0.54367081834E+02  0.39999994657E+02 0.  0.
         12    1    3    3    0    0 -0.25293694226E+02  0.22225727193E+02 -0.14900540181E+02  0.36820918166E+02  0.00000000000E+00 0. -1.
         11    1    4    4    0    0  0.86273089195E+00  0.40581557686E+01  0.39382602837E+01  0.57203869762E+01  0.51100000000E-03 0. -1.
        -11    1    4    4    0    0  0.18732440129E+01  0.47560263769E+01  0.88469747481E+01  0.10217523794E+02  0.51100000000E-03 0.  1.
        -12    1    4    4    0    0  0.22557719322E+02 -0.31039909339E+02  0.21153051492E+01  0.38429171064E+02  0.00000000000E+00 0.  1.
</event>
<event>
 8    1  0.1280925E-006  0.9118800E+02  0.7816164E-02  0.1184000E+00
        -11   -1    0    0    0    0  0.00000000000E+00  0.00000000000E+00  0.45593999997E+02  0.45594000000E+02  0.51100000000E-03 0.  1.
         11   -1    0    0    0    0 -0.00000000000E+00 -0.00000000000E+00 -0.45593999997E+02  0.45594000000E+02  0.51100000000E-03 0. -1.
         23    2    1    2    0    0 -0.22204460493E-15  0.00000000000E+00  0.00000000000E+00  0.91188000000E+02  0.91188000000E+02 0.  0.
    9900012    2    3    3    0    0 -0.78983926150E+00  0.56819973945E+01  0.36371293165E+02  0.54367083296E+02  0.39999997990E+02 0.  0.
         12    1    3    3    0    0  0.78983926150E+00 -0.56819973945E+01 -0.36371293165E+02  0.36820916704E+02  0.00000000000E+00 0. -1.
         11    1    4    4    0    0 -0.94762509552E+01 -0.20243332155E+01  0.44063981822E+00  0.97000732391E+01  0.51100000000E-03 0. -1.
        -11    1    4    4    0    0 -0.66361347590E+01 -0.21701250204E+01  0.44210296365E+01  0.82639718327E+01  0.51100000000E-03 0.  1.
        -12    1    4    4    0    0  0.15322546453E+02  0.98764556304E+01  0.31509623710E+02  0.36403038224E+02  0.00000000000E+00 0.  1.
</event>
<event>
 8    1  0.1280925E-006  0.9118800E+02  0.7816164E-02  0.1184000E+00
        -11   -1    0    0    0    0  0.00000000000E+00  0.00000000000E+00  0.45593999997E+02  0.45594000000E+02  0.51100000000E-03 0. -1.
         11   -1    0    0    0    0 -0.00000000000E+00 -0.00000000000E+00 -0.45593999997E+02  0.45594000000E+02  0.51100000000E-03 0.  1.
         23    2    1    2    0    0  0.35527136788E-14  0.00000000000E+00 -0.58286708793E-15  0.91188000000E+02  0.91188000000E+02 0.  0.
    9900012    2    3    3    0    0  0.25977733135E+02  0.26094581126E+02  0.93998291696E-01  0.54367100789E+02  0.40000037869E+02 0.  0.
         12    1    3    3    0    0 -0.25977733135E+02 -0.26094581126E+02 -0.93998291696E-01  0.36820899211E+02  0.00000000000E+00 0. -1.
         11    1    4    4    0    0  0.67846802058E+01 -0.87845422084E+00 -0.13808332607E+02  0.15410179005E+02  0.51100000000E-03 0. -1.
        -11    1    4    4    0    0  0.40722509774E+01  0.16357383086E+02  0.19885739762E+01  0.16973556969E+02  0.51100000000E-03 0.  1.
        -12    1    4    4    0    0  0.15120801952E+02  0.10615652261E+02  0.11913756923E+02  0.21983364816E+02  0.00000000000E+00 0.  1.
</event>
<event>
 8    1  0.1280925E-006  0.9118800E+02  0.7816164E-02  0.1184000E+00
        -11   -1    0    0    0    0  0.00000000000E+00  0.00000000000E+00  0.45593999997E+02  0.45594000000E+02  0.51100000000E-03 0.  1.
         11   -1    0    0    0    0 -0.00000000000E+00 -0.00000000000E+00 -0.45593999997E+02  0.45594000000E+02  0.51100000000E-03 0. -1.
         23    2    1    2    0    0  0.00000000000E+00 -0.13322676296E-14  0.00000000000E+00  0.91188000000E+02  0.91188000000E+02 0.  0.
    9900012    2    3    3    0    0 -0.34684073223E+02  0.39478799058E+01 -0.11713596446E+02  0.54367095166E+02  0.40000025050E+02 0.  0.
        -12    1    3    3    0    0  0.34684073223E+02 -0.39478799058E+01  0.11713596446E+02  0.36820904834E+02  0.00000000000E+00 0.  1.
         11    1    4    4    0    0  0.18464418339E+01  0.57685790892E+01 -0.19860278077E+01  0.63741790741E+01  0.51100000000E-03 0. -1.
        -11    1    4    4    0    0 -0.62653956161E+01  0.12072951507E+02 -0.41992871674E+01  0.14235355749E+02  0.51100000000E-03 0.  1.
         12    1    4    4    0    0 -0.30265119441E+02 -0.13893650691E+02 -0.55282814711E+01  0.33757560343E+02  0.00000000000E+00 0. -1.
</event>
<event>
 8    1  0.1280925E-006  0.9118800E+02  0.7816164E-02  0.1184000E+00
        -11   -1    0    0    0    0  0.00000000000E+00  0.00000000000E+00  0.45593999997E+02  0.45594000000E+02  0.51100000000E-03 0.  1.
         11   -1    0    0    0    0 -0.00000000000E+00 -0.00000000000E+00 -0.45593999997E+02  0.45594000000E+02  0.51100000000E-03 0. -1.
         23    2    1    2    0    0  0.00000000000E+00  0.35527136788E-14 -0.35527136788E-14  0.91188000000E+02  0.91188000000E+02 0.  0.
    9900012    2    3    3    0    0  0.13042619618E+02 -0.26271091630E+02  0.22259686038E+02  0.54367166163E+02  0.40000186902E+02 0.  0.
         12    1    3    3    0    0 -0.13042619618E+02  0.26271091630E+02 -0.22259686038E+02  0.36820833837E+02  0.00000000000E+00 0. -1.
         11    1    4    4    0    0  0.13208256995E+02 -0.14353611693E+02  0.34941783153E+01  0.19816495751E+02  0.51100000000E-03 0. -1.
        -11    1    4    4    0    0 -0.59688828209E+01 -0.18621239812E+02  0.15989759173E+02  0.25259662170E+02  0.51100000000E-03 0.  1.
         12    1    4    4    0    0  0.58032454439E+01  0.67037598755E+01  0.27757485492E+01  0.92910082423E+01  0.00000000000E+00 0. -1.
</event>
<event>
 8    1  0.1280925E-006  0.9118800E+02  0.7816164E-02  0.1184000E+00
        -11   -1    0    0    0    0  0.00000000000E+00  0.00000000000E+00  0.45593999997E+02  0.45594000000E+02  0.51100000000E-03 0.  1.
         11   -1    0    0    0    0 -0.00000000000E+00 -0.00000000000E+00 -0.45593999997E+02  0.45594000000E+02  0.51100000000E-03 0. -1.
         23    2    1    2    0    0  0.17763568394E-14 -0.35527136788E-14  0.35527136788E-14  0.91188000000E+02  0.91188000000E+02 0.  0.
    9900012    2    3    3    0    0  0.14691601415E+02 -0.22875696377E+02  0.24832219051E+02  0.54367085564E+02  0.40000003161E+02 0.  0.
         12    1    3    3    0    0 -0.14691601415E+02  0.22875696377E+02 -0.24832219051E+02  0.36820914436E+02  0.00000000000E+00 0. -1.
         11    1    4    4    0    0  0.14141259354E+02 -0.95463274981E+01  0.18912636919E+02  0.25471462861E+02  0.51100000000E-03 0. -1.
        -11    1    4    4    0    0  0.81087013789E+01 -0.82209938419E+01  0.12970435563E+02  0.17365712677E+02  0.51100000000E-03 0.  1.
         12    1    4    4    0    0 -0.75583593182E+01 -0.51083750375E+01 -0.70508534309E+01  0.11529910026E+02  0.00000000000E+00 0. -1.
</event>
<event>
 8    1  0.1280925E-006  0.9118800E+02  0.7816164E-02  0.1184000E+00
        -11   -1    0    0    0    0  0.00000000000E+00  0.00000000000E+00  0.45593999997E+02  0.45594000000E+02  0.51100000000E-03 0.  1.
         11   -1    0    0    0    0 -0.00000000000E+00 -0.00000000000E+00 -0.45593999997E+02  0.45594000000E+02  0.51100000000E-03 0. -1.
         23    2    1    2    0    0  0.00000000000E+00  0.17763568394E-14  0.35527136788E-14  0.91188000000E+02  0.91188000000E+02 0.  0.
    9900012    2    3    3    0    0  0.19912368182E+02  0.72727183558E+01  0.30106210591E+02  0.54367098938E+02  0.40000033648E+02 0.  0.
         12    1    3    3    0    0 -0.19912368182E+02 -0.72727183558E+01 -0.30106210591E+02  0.36820901062E+02  0.00000000000E+00 0. -1.
         11    1    4    4    0    0 -0.25562707566E+01 -0.20503205256E+01  0.27640385895E+02  0.27833958883E+02  0.51100000000E-03 0. -1.
        -11    1    4    4    0    0  0.16768709416E+02  0.35947327660E+01 -0.20568962971E+01  0.17272595109E+02  0.51100000000E-03 0.  1.
         12    1    4    4    0    0  0.56999295225E+01  0.57283061155E+01  0.45227209929E+01  0.92605449458E+01  0.00000000000E+00 0. -1.
</event>
<event>
 8    1  0.1280925E-006  0.9118800E+02  0.7816164E-02  0.1184000E+00
        -11   -1    0    0    0    0  0.00000000000E+00  0.00000000000E+00  0.45593999997E+02  0.45594000000E+02  0.51100000000E-03 0.  1.
         11   -1    0    0    0    0 -0.00000000000E+00 -0.00000000000E+00 -0.45593999997E+02  0.45594000000E+02  0.51100000000E-03 0. -1.
         23    2    1    2    0    0  0.00000000000E+00 -0.35527136788E-14  0.00000000000E+00  0.91188000000E+02  0.91188000000E+02 0.  0.
    9900012    2    3    3    0    0 -0.62315521726E+01  0.16608835775E+02  0.32265982218E+02  0.54367091853E+02  0.40000017497E+02 0.  0.
         12    1    3    3    0    0  0.62315521726E+01 -0.16608835775E+02 -0.32265982218E+02  0.36820908147E+02  0.00000000000E+00 0. -1.
         11    1    4    4    0    0 -0.20237688786E+02  0.34812036662E+01  0.78916138839E+01  0.21999099897E+02  0.51100000000E-03 0. -1.
        -11    1    4    4    0    0  0.33235520799E+01  0.86065200740E+01  0.14224190892E+02  0.16954226405E+02  0.51100000000E-03 0.  1.
        -12    1    4    4    0    0  0.10682584533E+02  0.45211120352E+01  0.10150177442E+02  0.15413765550E+02  0.00000000000E+00 0.  1.
</event>
<event>
 8    1  0.1280925E-006  0.9118800E+02  0.7816164E-02  0.1184000E+00
        -11   -1    0    0    0    0  0.00000000000E+00  0.00000000000E+00  0.45593999997E+02  0.45594000000E+02  0.51100000000E-03 0.  1.
         11   -1    0    0    0    0 -0.00000000000E+00 -0.00000000000E+00 -0.45593999997E+02  0.45594000000E+02  0.51100000000E-03 0. -1.
         23    2    1    2    0    0  0.88817841970E-15  0.88817841970E-15  0.71054273576E-14  0.91188000000E+02  0.91188000000E+02 0.  0.
    9900012    2    3    3    0    0 -0.70823706587E+01  0.55109001527E+01  0.35710640539E+02  0.54367084173E+02  0.39999999989E+02 0.  0.
         12    1    3    3    0    0  0.70823706587E+01 -0.55109001527E+01 -0.35710640539E+02  0.36820915827E+02  0.00000000000E+00 0. -1.
         11    1    4    4    0    0 -0.69253577233E+01  0.99333717510E+00  0.67661016645E+01  0.97328017721E+01  0.51100000000E-03 0. -1.
        -11    1    4    4    0    0 -0.16496915480E+02  0.22828094915E+01  0.96346310228E+01  0.19240206723E+02  0.51100000000E-03 0.  1.
         12    1    4    4    0    0  0.16339902544E+02  0.22347534860E+01  0.19309907852E+02  0.25394075678E+02  0.00000000000E+00 0. -1.
</event>
<event>
 8    1  0.1280925E-006  0.9118800E+02  0.7816164E-02  0.1184000E+00
        -11   -1    0    0    0    0  0.00000000000E+00  0.00000000000E+00  0.45593999997E+02  0.45594000000E+02  0.51100000000E-03 0. -1.
         11   -1    0    0    0    0 -0.00000000000E+00 -0.00000000000E+00 -0.45593999997E+02  0.45594000000E+02  0.51100000000E-03 0.  1.
         23    2    1    2    0    0 -0.33306690739E-15  0.35527136788E-14 -0.71054273576E-14  0.91188000000E+02  0.91188000000E+02 0.  0.
    9900012    2    3    3    0    0  0.47001120497E+00  0.17230732233E+02 -0.32537272147E+02  0.54366903838E+02  0.39999588876E+02 0.  0.
         12    1    3    3    0    0 -0.47001120497E+00 -0.17230732233E+02  0.32537272147E+02  0.36821096162E+02  0.00000000000E+00 0. -1.
         11    1    4    4    0    0  0.51422306615E+01  0.25586568243E+01  0.65975845479E+01  0.87474215086E+01  0.51100000000E-03 0. -1.
        -11    1    4    4    0    0 -0.45195676322E+01 -0.31319312982E+01 -0.72373573774E+01  0.90892698996E+01  0.51100000000E-03 0.  1.
        -12    1    4    4    0    0 -0.15265182434E+00  0.17804006707E+02 -0.31897499318E+02  0.36530212429E+02  0.00000000000E+00 0.  1.
</event>
<event>
 8    1  0.1280925E-006  0.9118800E+02  0.7816164E-02  0.1184000E+00
        -11   -1    0    0    0    0  0.00000000000E+00  0.00000000000E+00  0.45593999997E+02  0.45594000000E+02  0.51100000000E-03 0.  1.
         11   -1    0    0    0    0 -0.00000000000E+00 -0.00000000000E+00 -0.45593999997E+02  0.45594000000E+02  0.51100000000E-03 0. -1.
         23    2    1    2    0    0  0.71054273576E-14 -0.53290705182E-14  0.00000000000E+00  0.91188000000E+02  0.91188000000E+02 0.  0.
    9900012    2    3    3    0    0  0.33518820627E+02 -0.14523180000E+02 -0.46202723698E+01  0.54367068313E+02  0.39999963832E+02 0.  0.
        -12    1    3    3    0    0 -0.33518820627E+02  0.14523180000E+02  0.46202723698E+01  0.36820931687E+02  0.00000000000E+00 0.  1.
         11    1    4    4    0    0  0.19187885099E+02 -0.13672859771E+02  0.82084509182E+00  0.23575322179E+02  0.51100000000E-03 0. -1.
        -11    1    4    4    0    0  0.35687186256E+01  0.11762293517E+02  0.22807571557E+01  0.12501566097E+02  0.51100000000E-03 0.  1.
        -12    1    4    4    0    0  0.10762216902E+02 -0.12612613747E+02 -0.77218746174E+01  0.18290180037E+02  0.00000000000E+00 0.  1.
</event>
<event>
 8    1  0.1280925E-006  0.9118800E+02  0.7816164E-02  0.1184000E+00
        -11   -1    0    0    0    0  0.00000000000E+00  0.00000000000E+00  0.45593999997E+02  0.45594000000E+02  0.51100000000E-03 0. -1.
         11   -1    0    0    0    0 -0.00000000000E+00 -0.00000000000E+00 -0.45593999997E+02  0.45594000000E+02  0.51100000000E-03 0.  1.
         23    2    1    2    0    0  0.00000000000E+00  0.00000000000E+00  0.00000000000E+00  0.91188000000E+02  0.91188000000E+02 0.  0.
    9900012    2    3    3    0    0  0.19514156373E+02  0.27832736973E+02  0.14153313520E+02  0.54367084341E+02  0.40000000371E+02 0.  0.
        -12    1    3    3    0    0 -0.19514156373E+02 -0.27832736973E+02 -0.14153313520E+02  0.36820915659E+02  0.00000000000E+00 0.  1.
         11    1    4    4    0    0  0.75847527699E+01  0.87139837604E+01  0.11388731943E+02  0.16222367370E+02  0.51100000000E-03 0. -1.
        -11    1    4    4    0    0  0.14614478996E+02 -0.90627728903E+00 -0.63741386346E+01  0.15969783294E+02  0.51100000000E-03 0.  1.
         12    1    4    4    0    0 -0.26850753926E+01  0.20025030502E+02  0.91387202120E+01  0.22174933677E+02  0.00000000000E+00 0. -1.
</event>
<event>
 8    1  0.1280925E-006  0.9118800E+02  0.7816164E-02  0.1184000E+00
        -11   -1    0    0    0    0  0.00000000000E+00  0.00000000000E+00  0.45593999997E+02  0.45594000000E+02  0.51100000000E-03 0.  1.
         11   -1    0    0    0    0 -0.00000000000E+00 -0.00000000000E+00 -0.45593999997E+02  0.45594000000E+02  0.51100000000E-03 0. -1.
         23    2    1    2    0    0 -0.35527136788E-14  0.00000000000E+00  0.88817841970E-15  0.91188000000E+02  0.91188000000E+02 0.  0.
    9900012    2    3    3    0    0  0.19001847413E+02  0.31387724438E+02 -0.30855296305E+01  0.54367082798E+02  0.39999996854E+02 0.  0.
         12    1    3    3    0    0 -0.19001847413E+02 -0.31387724438E+02  0.30855296305E+01  0.36820917202E+02  0.00000000000E+00 0. -1.
         11    1    4    4    0    0 -0.92518508963E+01  0.12106751630E+02 -0.92948268988E+00  0.15265455066E+02  0.51100000000E-03 0. -1.
        -11    1    4    4    0    0  0.18286701325E+02  0.94679959360E+01 -0.10185580858E+02  0.22973733917E+02  0.51100000000E-03 0.  1.
        -12    1    4    4    0    0  0.99669969845E+01  0.98129768718E+01  0.80295339170E+01  0.16127893815E+02  0.00000000000E+00 0.  1.
</event>
<event>
 8    1  0.1280925E-006  0.9118800E+02  0.7816164E-02  0.1184000E+00
        -11   -1    0    0    0    0  0.00000000000E+00  0.00000000000E+00  0.45593999997E+02  0.45594000000E+02  0.51100000000E-03 0.  1.
         11   -1    0    0    0    0 -0.00000000000E+00 -0.00000000000E+00 -0.45593999997E+02  0.45594000000E+02  0.51100000000E-03 0. -1.
         23    2    1    2    0    0 -0.17763568394E-14  0.22204460493E-15  0.00000000000E+00  0.91188000000E+02  0.91188000000E+02 0.  0.
    9900012    2    3    3    0    0 -0.13056617371E+02 -0.55390310838E+00 -0.34423777967E+02  0.54367101649E+02  0.40000039829E+02 0.  0.
        -12    1    3    3    0    0  0.13056617371E+02  0.55390310838E+00  0.34423777967E+02  0.36820898351E+02  0.00000000000E+00 0.  1.
         11    1    4    4    0    0 -0.29322329621E+01 -0.12116718815E+02 -0.10947477632E+02  0.16590965365E+02  0.51100000000E-03 0. -1.
        -11    1    4    4    0    0  0.29597894214E+01 -0.42112146808E+01  0.16001416415E+01  0.53902816290E+01  0.51100000000E-03 0.  1.
         12    1    4    4    0    0 -0.13084173831E+02  0.15774030387E+02 -0.25076441977E+02  0.32385854655E+02  0.00000000000E+00 0. -1.
</event>
<event>
 8    1  0.1280925E-006  0.9118800E+02  0.7816164E-02  0.1184000E+00
        -11   -1    0    0    0    0  0.00000000000E+00  0.00000000000E+00  0.45593999997E+02  0.45594000000E+02  0.51100000000E-03 0.  1.
         11   -1    0    0    0    0 -0.00000000000E+00 -0.00000000000E+00 -0.45593999997E+02  0.45594000000E+02  0.51100000000E-03 0. -1.
         23    2    1    2    0    0  0.00000000000E+00 -0.26645352591E-14 -0.88817841970E-15  0.91188000000E+02  0.91188000000E+02 0.  0.
    9900012    2    3    3    0    0  0.35477203392E+02 -0.79793931620E+01  0.57859650639E+01  0.54367081116E+02  0.39999993020E+02 0.  0.
        -12    1    3    3    0    0 -0.35477203392E+02  0.79793931620E+01 -0.57859650639E+01  0.36820918884E+02  0.00000000000E+00 0.  1.
         11    1    4    4    0    0  0.87243219143E+01  0.58797433320E+01 -0.12801295152E+02  0.16569801820E+02  0.51100000000E-03 0. -1.
        -11    1    4    4    0    0  0.24350793576E+02 -0.87152510666E+01  0.10493760022E+02  0.27911211880E+02  0.51100000000E-03 0.  1.
         12    1    4    4    0    0  0.24020879018E+01 -0.51438854274E+01  0.80935001937E+01  0.98860674165E+01  0.00000000000E+00 0. -1.
</event>
<event>
 8    1  0.1280925E-006  0.9118800E+02  0.7816164E-02  0.1184000E+00
        -11   -1    0    0    0    0  0.00000000000E+00  0.00000000000E+00  0.45593999997E+02  0.45594000000E+02  0.51100000000E-03 0. -1.
         11   -1    0    0    0    0 -0.00000000000E+00 -0.00000000000E+00 -0.45593999997E+02  0.45594000000E+02  0.51100000000E-03 0.  1.
         23    2    1    2    0    0  0.22204460493E-15  0.35527136788E-14  0.00000000000E+00  0.91188000000E+02  0.91188000000E+02 0.  0.
    9900012    2    3    3    0    0  0.18646952712E+01  0.26598648295E+02 -0.25393250537E+02  0.54367050088E+02  0.39999922286E+02 0.  0.
         12    1    3    3    0    0 -0.18646952712E+01 -0.26598648295E+02  0.25393250537E+02  0.36820949912E+02  0.00000000000E+00 0. -1.
         11    1    4    4    0    0  0.56429178699E+01 -0.16515484364E+01  0.28436798939E+01  0.65312058553E+01  0.51100000000E-03 0. -1.
        -11    1    4    4    0    0  0.67104223181E+01  0.24364122538E+02 -0.26318648789E+02  0.36487141695E+02  0.51100000000E-03 0.  1.
        -12    1    4    4    0    0 -0.10488644917E+02  0.38860741934E+01 -0.19182816412E+01  0.11348702537E+02  0.00000000000E+00 0.  1.
</event>
<event>
 8    1  0.1280925E-006  0.9118800E+02  0.7816164E-02  0.1184000E+00
        -11   -1    0    0    0    0  0.00000000000E+00  0.00000000000E+00  0.45593999997E+02  0.45594000000E+02  0.51100000000E-03 0.  1.
         11   -1    0    0    0    0 -0.00000000000E+00 -0.00000000000E+00 -0.45593999997E+02  0.45594000000E+02  0.51100000000E-03 0. -1.
         23    2    1    2    0    0  0.00000000000E+00  0.00000000000E+00 -0.55511151231E-15  0.91188000000E+02  0.91188000000E+02 0.  0.
    9900012    2    3    3    0    0 -0.17041727533E+02 -0.32628865236E+02 -0.84531736487E+00  0.54367110747E+02  0.40000060571E+02 0.  0.
         12    1    3    3    0    0  0.17041727533E+02  0.32628865236E+02  0.84531736487E+00  0.36820889253E+02  0.00000000000E+00 0. -1.
         11    1    4    4    0    0 -0.70323976344E+01  0.31577902649E+01 -0.98715130905E+00  0.77717902580E+01  0.51100000000E-03 0. -1.
        -11    1    4    4    0    0 -0.74326437426E+01  0.15127206815E+01  0.47109156411E+01  0.89288993332E+01  0.51100000000E-03 0.  1.
         12    1    4    4    0    0 -0.25766861560E+01 -0.37299376183E+02 -0.45690816969E+01  0.37666421156E+02  0.00000000000E+00 0. -1.
</event>
<event>
 8    1  0.1280925E-006  0.9118800E+02  0.7816164E-02  0.1184000E+00
        -11   -1    0    0    0    0  0.00000000000E+00  0.00000000000E+00  0.45593999997E+02  0.45594000000E+02  0.51100000000E-03 0. -1.
         11   -1    0    0    0    0 -0.00000000000E+00 -0.00000000000E+00 -0.45593999997E+02  0.45594000000E+02  0.51100000000E-03 0.  1.
         23    2    1    2    0    0 -0.17763568394E-14  0.00000000000E+00 -0.35527136788E-14  0.91188000000E+02  0.91188000000E+02 0.  0.
    9900012    2    3    3    0    0  0.89700645158E+01 -0.33658626128E+02 -0.11933767179E+02  0.54367082449E+02  0.39999996058E+02 0.  0.
         12    1    3    3    0    0 -0.89700645158E+01  0.33658626128E+02  0.11933767179E+02  0.36820917551E+02  0.00000000000E+00 0. -1.
         11    1    4    4    0    0 -0.34375419344E+01 -0.16035628850E+01 -0.88439879833E+01  0.96231092786E+01  0.51100000000E-03 0. -1.
        -11    1    4    4    0    0 -0.29540701946E+00 -0.30556605983E+02  0.27526415484E+01  0.30681761199E+02  0.51100000000E-03 0.  1.
        -12    1    4    4    0    0  0.12703013470E+02 -0.14984572598E+01 -0.58424207438E+01  0.14062211971E+02  0.00000000000E+00 0.  1.
</event>
<event>
 8    1  0.1280925E-006  0.9118800E+02  0.7816164E-02  0.1184000E+00
        -11   -1    0    0    0    0  0.00000000000E+00  0.00000000000E+00  0.45593999997E+02  0.45594000000E+02  0.51100000000E-03 0. -1.
         11   -1    0    0    0    0 -0.00000000000E+00 -0.00000000000E+00 -0.45593999997E+02  0.45594000000E+02  0.51100000000E-03 0.  1.
         23    2    1    2    0    0  0.00000000000E+00 -0.88817841970E-15  0.00000000000E+00  0.91188000000E+02  0.91188000000E+02 0.  0.
    9900012    2    3    3    0    0  0.30069964563E+02 -0.41259148099E+01 -0.20845935014E+02  0.54367096311E+02  0.40000027661E+02 0.  0.
        -12    1    3    3    0    0 -0.30069964563E+02  0.41259148099E+01  0.20845935014E+02  0.36820903689E+02  0.00000000000E+00 0.  1.
         11    1    4    4    0    0  0.18087525562E+02 -0.12628876005E+02 -0.13386478950E+02  0.25803970800E+02  0.51100000000E-03 0. -1.
        -11    1    4    4    0    0  0.11814110781E+02  0.60771147245E+01  0.62198331874E+01  0.14669385197E+02  0.51100000000E-03 0.  1.
        -12    1    4    4    0    0  0.16832821980E+00  0.24258464710E+01 -0.13679289252E+02  0.13893740314E+02  0.00000000000E+00 0.  1.
</event>
<event>
 8    1  0.1280925E-006  0.9118800E+02  0.7816164E-02  0.1184000E+00
        -11   -1    0    0    0    0  0.00000000000E+00  0.00000000000E+00  0.45593999997E+02  0.45594000000E+02  0.51100000000E-03 0.  1.
         11   -1    0    0    0    0 -0.00000000000E+00 -0.00000000000E+00 -0.45593999997E+02  0.45594000000E+02  0.51100000000E-03 0. -1.
         23    2    1    2    0    0  0.00000000000E+00  0.00000000000E+00 -0.88817841970E-15  0.91188000000E+02  0.91188000000E+02 0.  0.
    9900012    2    3    3    0    0  0.20990798196E+02  0.29806697827E+02 -0.51697908677E+01  0.54367087710E+02  0.40000008053E+02 0.  0.
        -12    1    3    3    0    0 -0.20990798196E+02 -0.29806697827E+02  0.51697908677E+01  0.36820912290E+02  0.00000000000E+00 0.  1.
         11    1    4    4    0    0  0.49870577437E+01  0.22832472057E+02  0.10391006971E+02  0.25576660284E+02  0.51100000000E-03 0. -1.
        -11    1    4    4    0    0 -0.39559018132E+00  0.76757824257E+01 -0.63405233163E+01  0.99637524871E+01  0.51100000000E-03 0.  1.
        -12    1    4    4    0    0  0.16399330634E+02 -0.70155665625E+00 -0.92202745220E+01  0.18826674939E+02  0.00000000000E+00 0.  1.
</event>
<event>
 8    1  0.1280925E-006  0.9118800E+02  0.7816164E-02  0.1184000E+00
        -11   -1    0    0    0    0  0.00000000000E+00  0.00000000000E+00  0.45593999997E+02  0.45594000000E+02  0.51100000000E-03 0. -1.
         11   -1    0    0    0    0 -0.00000000000E+00 -0.00000000000E+00 -0.45593999997E+02  0.45594000000E+02  0.51100000000E-03 0.  1.
         23    2    1    2    0    0  0.35527136788E-14 -0.88817841970E-15  0.35527136788E-14  0.91188000000E+02  0.91188000000E+02 0.  0.
    9900012    2    3    3    0    0 -0.25323046396E+02 -0.27480534048E+01 -0.26588932543E+02  0.54367084611E+02  0.40000000987E+02 0.  0.
         12    1    3    3    0    0  0.25323046396E+02  0.27480534048E+01  0.26588932543E+02  0.36820915389E+02  0.00000000000E+00 0. -1.
         11    1    4    4    0    0 -0.11308198118E+02  0.11243146836E+02 -0.23007230429E+02  0.27993148228E+02  0.51100000000E-03 0. -1.
        -11    1    4    4    0    0  0.18465006111E+01 -0.91132764221E+01  0.40505862010E+00  0.93072791082E+01  0.51100000000E-03 0.  1.
        -12    1    4    4    0    0 -0.15861348889E+02 -0.48779238183E+01 -0.39867607343E+01  0.17066657274E+02  0.00000000000E+00 0.  1.
</event>
<event>
 8    1  0.1280925E-006  0.9118800E+02  0.7816164E-02  0.1184000E+00
        -11   -1    0    0    0    0  0.00000000000E+00  0.00000000000E+00  0.45593999997E+02  0.45594000000E+02  0.51100000000E-03 0.  1.
         11   -1    0    0    0    0 -0.00000000000E+00 -0.00000000000E+00 -0.45593999997E+02  0.45594000000E+02  0.51100000000E-03 0. -1.
         23    2    1    2    0    0  0.44408920985E-15  0.00000000000E+00  0.00000000000E+00  0.91188000000E+02  0.91188000000E+02 0.  0.
    9900012    2    3    3    0    0 -0.90157605168E+00  0.14141816776E+02 -0.33984941776E+02  0.54367080829E+02  0.39999992365E+02 0.  0.
        -12    1    3    3    0    0  0.90157605168E+00 -0.14141816776E+02  0.33984941776E+02  0.36820919171E+02  0.00000000000E+00 0.  1.
         11    1    4    4    0    0 -0.11679782237E+02  0.57160363955E+00 -0.25481070865E+02  0.28036209026E+02  0.51100000000E-03 0. -1.
        -11    1    4    4    0    0  0.12289182383E+02  0.16977507729E+02 -0.84647970814E+01  0.22603375019E+02  0.51100000000E-03 0.  1.
        -12    1    4    4    0    0 -0.15109761973E+01 -0.34072945933E+01 -0.39073829645E-01  0.37274967845E+01  0.00000000000E+00 0.  1.
</event>
<event>
 8    1  0.1280925E-006  0.9118800E+02  0.7816164E-02  0.1184000E+00
        -11   -1    0    0    0    0  0.00000000000E+00  0.00000000000E+00  0.45593999997E+02  0.45594000000E+02  0.51100000000E-03 0. -1.
         11   -1    0    0    0    0 -0.00000000000E+00 -0.00000000000E+00 -0.45593999997E+02  0.45594000000E+02  0.51100000000E-03 0.  1.
         23    2    1    2    0    0 -0.88817841970E-15 -0.71054273576E-14  0.17763568394E-14  0.91188000000E+02  0.91188000000E+02 0.  0.
    9900012    2    3    3    0    0  0.64620565584E+01  0.34360443936E+02 -0.11548870054E+02  0.54367154247E+02  0.40000159736E+02 0.  0.
         12    1    3    3    0    0 -0.64620565584E+01 -0.34360443936E+02  0.11548870054E+02  0.36820845753E+02  0.00000000000E+00 0. -1.
         11    1    4    4    0    0 -0.70202900574E+01  0.35274543631E+01  0.39407175640E+01  0.87895768928E+01  0.51100000000E-03 0. -1.
        -11    1    4    4    0    0 -0.14809623144E+01  0.27468881239E+02 -0.10596608157E+02  0.29479158580E+02  0.51100000000E-03 0.  1.
         12    1    4    4    0    0  0.14963308930E+02  0.33641083342E+01 -0.48929794612E+01  0.16098418774E+02  0.00000000000E+00 0. -1.
</event>
<event>
 8    1  0.1280925E-006  0.9118800E+02  0.7816164E-02  0.1184000E+00
        -11   -1    0    0    0    0  0.00000000000E+00  0.00000000000E+00  0.45593999997E+02  0.45594000000E+02  0.51100000000E-03 0.  1.
         11   -1    0    0    0    0 -0.00000000000E+00 -0.00000000000E+00 -0.45593999997E+02  0.45594000000E+02  0.51100000000E-03 0. -1.
         23    2    1    2    0    0  0.35527136788E-14  0.00000000000E+00  0.00000000000E+00  0.91188000000E+02  0.91188000000E+02 0.  0.
    9900012    2    3    3    0    0 -0.26697913429E+02 -0.25224337832E+02 -0.25949706202E+01  0.54367086472E+02  0.40000005231E+02 0.  0.
        -12    1    3    3    0    0  0.26697913429E+02  0.25224337832E+02  0.25949706202E+01  0.36820913528E+02  0.00000000000E+00 0.  1.
         11    1    4    4    0    0 -0.19532062729E+02 -0.18426601204E+01 -0.79813777399E+01  0.21180161984E+02  0.51100000000E-03 0. -1.
        -11    1    4    4    0    0 -0.13525101386E+02 -0.22601565280E+02  0.42490518696E+01  0.26679834382E+02  0.51100000000E-03 0.  1.
        -12    1    4    4    0    0  0.63592506859E+01 -0.78011243079E+00  0.11373552501E+01  0.65070901066E+01  0.00000000000E+00 0.  1.
</event>
<event>
 8    1  0.1280925E-006  0.9118800E+02  0.7816164E-02  0.1184000E+00
        -11   -1    0    0    0    0  0.00000000000E+00  0.00000000000E+00  0.45593999997E+02  0.45594000000E+02  0.51100000000E-03 0. -1.
         11   -1    0    0    0    0 -0.00000000000E+00 -0.00000000000E+00 -0.45593999997E+02  0.45594000000E+02  0.51100000000E-03 0.  1.
         23    2    1    2    0    0  0.00000000000E+00 -0.88817841970E-15  0.00000000000E+00  0.91188000000E+02  0.91188000000E+02 0.  0.
    9900012    2    3    3    0    0  0.32867648604E+02 -0.27069489256E+01  0.16375855228E+02  0.54367101971E+02  0.40000040562E+02 0.  0.
        -12    1    3    3    0    0 -0.32867648604E+02  0.27069489256E+01 -0.16375855228E+02  0.36820898029E+02  0.00000000000E+00 0.  1.
         11    1    4    4    0    0  0.26651857837E+02  0.58552330837E+01  0.62015014485E+01  0.27983278955E+02  0.51100000000E-03 0. -1.
        -11    1    4    4    0    0  0.36537939959E+01  0.71692718683E+01  0.13304554934E+01  0.81559047179E+01  0.51100000000E-03 0.  1.
         12    1    4    4    0    0  0.25619967714E+01 -0.15731453878E+02  0.88438982866E+01  0.18227918298E+02  0.00000000000E+00 0. -1.
</event>
<event>
 8    1  0.1280925E-006  0.9118800E+02  0.7816164E-02  0.1184000E+00
        -11   -1    0    0    0    0  0.00000000000E+00  0.00000000000E+00  0.45593999997E+02  0.45594000000E+02  0.51100000000E-03 0.  1.
         11   -1    0    0    0    0 -0.00000000000E+00 -0.00000000000E+00 -0.45593999997E+02  0.45594000000E+02  0.51100000000E-03 0. -1.
         23    2    1    2    0    0  0.88817841970E-15  0.00000000000E+00 -0.71054273576E-14  0.91188000000E+02  0.91188000000E+02 0.  0.
    9900012    2    3    3    0    0 -0.52999305967E+01  0.57870407656E+01 -0.35975030670E+02  0.54367055731E+02  0.39999935149E+02 0.  0.
        -12    1    3    3    0    0  0.52999305967E+01 -0.57870407656E+01  0.35975030670E+02  0.36820944269E+02  0.00000000000E+00 0.  1.
         11    1    4    4    0    0 -0.28695002883E+01  0.78752088344E+01 -0.17386230963E+01  0.85601259700E+01  0.51100000000E-03 0. -1.
        -11    1    4    4    0    0 -0.77281521915E+01  0.11505999702E+02 -0.86062271440E+01  0.16315008775E+02  0.51100000000E-03 0.  1.
        -12    1    4    4    0    0  0.52977218831E+01 -0.13594167770E+02 -0.25630180430E+02  0.29491920985E+02  0.00000000000E+00 0.  1.
</event>
<event>
 8    1  0.1280925E-006  0.9118800E+02  0.7816164E-02  0.1184000E+00
        -11   -1    0    0    0    0  0.00000000000E+00  0.00000000000E+00  0.45593999997E+02  0.45594000000E+02  0.51100000000E-03 0.  1.
         11   -1    0    0    0    0 -0.00000000000E+00 -0.00000000000E+00 -0.45593999997E+02  0.45594000000E+02  0.51100000000E-03 0. -1.
         23    2    1    2    0    0  0.88817841970E-15  0.00000000000E+00 -0.35527136788E-14  0.91188000000E+02  0.91188000000E+02 0.  0.
    9900012    2    3    3    0    0 -0.51239253211E+01  0.33885247919E+02 -0.13465335703E+02  0.54367083352E+02  0.39999998117E+02 0.  0.
        -12    1    3    3    0    0  0.51239253211E+01 -0.33885247919E+02  0.13465335703E+02  0.36820916648E+02  0.00000000000E+00 0.  1.
         11    1    4    4    0    0 -0.17789079759E+02  0.12543699215E+02  0.52010670241E+01  0.22379607841E+02  0.51100000000E-03 0. -1.
        -11    1    4    4    0    0  0.72726720008E+01  0.14200555408E+02 -0.73651137786E+01  0.17572490807E+02  0.51100000000E-03 0.  1.
         12    1    4    4    0    0  0.53924824375E+01  0.71409932958E+01 -0.11301288949E+02  0.14414984703E+02  0.00000000000E+00 0. -1.
</event>
<event>
 8    1  0.1280925E-006  0.9118800E+02  0.7816164E-02  0.1184000E+00
        -11   -1    0    0    0    0  0.00000000000E+00  0.00000000000E+00  0.45593999997E+02  0.45594000000E+02  0.51100000000E-03 0.  1.
         11   -1    0    0    0    0 -0.00000000000E+00 -0.00000000000E+00 -0.45593999997E+02  0.45594000000E+02  0.51100000000E-03 0. -1.
         23    2    1    2    0    0  0.00000000000E+00 -0.35527136788E-14 -0.35527136788E-14  0.91188000000E+02  0.91188000000E+02 0.  0.
    9900012    2    3    3    0    0 -0.27822434108E+01  0.21031000637E+02 -0.30095459283E+02  0.54367074759E+02  0.39999978527E+02 0.  0.
        -12    1    3    3    0    0  0.27822434108E+01 -0.21031000637E+02  0.30095459283E+02  0.36820925241E+02  0.00000000000E+00 0.  1.
         11    1    4    4    0    0 -0.13319926024E+02  0.15864051241E+02 -0.14786273135E+02  0.25450391442E+02  0.51100000000E-03 0. -1.
        -11    1    4    4    0    0  0.84911427374E+01  0.12666757962E+01  0.37403852755E+01  0.93645317464E+01  0.51100000000E-03 0.  1.
        -12    1    4    4    0    0  0.20465398760E+01  0.39002735997E+01 -0.19049571423E+02  0.19552151570E+02  0.00000000000E+00 0.  1.
</event>
<event>
 8    1  0.1280925E-006  0.9118800E+02  0.7816164E-02  0.1184000E+00
        -11   -1    0    0    0    0  0.00000000000E+00  0.00000000000E+00  0.45593999997E+02  0.45594000000E+02  0.51100000000E-03 0.  1.
         11   -1    0    0    0    0 -0.00000000000E+00 -0.00000000000E+00 -0.45593999997E+02  0.45594000000E+02  0.51100000000E-03 0. -1.
         23    2    1    2    0    0  0.00000000000E+00  0.00000000000E+00  0.00000000000E+00  0.91188000000E+02  0.91188000000E+02 0.  0.
    9900012    2    3    3    0    0  0.28539170513E+02 -0.19368366565E+02 -0.12890362949E+02  0.54367091077E+02  0.40000015729E+02 0.  0.
        -12    1    3    3    0    0 -0.28539170513E+02  0.19368366565E+02  0.12890362949E+02  0.36820908923E+02  0.00000000000E+00 0.  1.
         11    1    4    4    0    0  0.26376095652E+02  0.33045379956E+01 -0.12639986899E+02  0.29434463853E+02  0.51100000000E-03 0. -1.
        -11    1    4    4    0    0 -0.67153025446E-01 -0.48168717844E+01  0.42050721608E+01  0.63944816408E+01  0.51100000000E-03 0.  1.
         12    1    4    4    0    0  0.22302278861E+01 -0.17856032776E+02 -0.44554482099E+01  0.18538145584E+02  0.00000000000E+00 0. -1.
</event>
<event>
 8    1  0.1280925E-006  0.9118800E+02  0.7816164E-02  0.1184000E+00
        -11   -1    0    0    0    0  0.00000000000E+00  0.00000000000E+00  0.45593999997E+02  0.45594000000E+02  0.51100000000E-03 0.  1.
         11   -1    0    0    0    0 -0.00000000000E+00 -0.00000000000E+00 -0.45593999997E+02  0.45594000000E+02  0.51100000000E-03 0. -1.
         23    2    1    2    0    0  0.17763568394E-14  0.00000000000E+00  0.00000000000E+00  0.91188000000E+02  0.91188000000E+02 0.  0.
    9900012    2    3    3    0    0  0.91151708256E+01 -0.33025287102E+02  0.13491631999E+02  0.54367081199E+02  0.39999993210E+02 0.  0.
         12    1    3    3    0    0 -0.91151708256E+01  0.33025287102E+02 -0.13491631999E+02  0.36820918801E+02  0.00000000000E+00 0. -1.
         11    1    4    4    0    0  0.15262468299E+02 -0.82600835946E+01 -0.61267981546E+01  0.18404064102E+02  0.51100000000E-03 0. -1.
        -11    1    4    4    0    0  0.43780708693E+01 -0.11733312248E+02  0.12708776514E+02  0.17842396745E+02  0.51100000000E-03 0.  1.
         12    1    4    4    0    0 -0.10525368343E+02 -0.13031891259E+02  0.69096536400E+01  0.18120620353E+02  0.00000000000E+00 0. -1.
</event>
<event>
 8    1  0.1280925E-006  0.9118800E+02  0.7816164E-02  0.1184000E+00
        -11   -1    0    0    0    0  0.00000000000E+00  0.00000000000E+00  0.45593999997E+02  0.45594000000E+02  0.51100000000E-03 0. -1.
         11   -1    0    0    0    0 -0.00000000000E+00 -0.00000000000E+00 -0.45593999997E+02  0.45594000000E+02  0.51100000000E-03 0.  1.
         23    2    1    2    0    0 -0.17763568394E-14  0.00000000000E+00  0.35527136788E-14  0.91188000000E+02  0.91188000000E+02 0.  0.
    9900012    2    3    3    0    0 -0.13497468706E+02  0.19396567642E+02 -0.28237795739E+02  0.54367060224E+02  0.39999945393E+02 0.  0.
         12    1    3    3    0    0  0.13497468706E+02 -0.19396567642E+02  0.28237795739E+02  0.36820939776E+02  0.00000000000E+00 0. -1.
         11    1    4    4    0    0 -0.33092435594E+01 -0.59141746847E+01 -0.68470513996E+01  0.96338293667E+01  0.51100000000E-03 0. -1.
        -11    1    4    4    0    0  0.88732386782E+01  0.47021763235E+01 -0.10753059615E+02  0.14713025459E+02  0.51100000000E-03 0.  1.
        -12    1    4    4    0    0 -0.19061463825E+02  0.20608566003E+02 -0.10637684725E+02  0.30020205398E+02  0.00000000000E+00 0.  1.
</event>
<event>
 8    1  0.1280925E-006  0.9118800E+02  0.7816164E-02  0.1184000E+00
        -11   -1    0    0    0    0  0.00000000000E+00  0.00000000000E+00  0.45593999997E+02  0.45594000000E+02  0.51100000000E-03 0.  1.
         11   -1    0    0    0    0 -0.00000000000E+00 -0.00000000000E+00 -0.45593999997E+02  0.45594000000E+02  0.51100000000E-03 0. -1.
         23    2    1    2    0    0 -0.17763568394E-14  0.35527136788E-14 -0.35527136788E-14  0.91188000000E+02  0.91188000000E+02 0.  0.
    9900012    2    3    3    0    0 -0.15011417552E+02 -0.23790339299E+02  0.23758299417E+02  0.54367086214E+02  0.40000004642E+02 0.  0.
         12    1    3    3    0    0  0.15011417552E+02  0.23790339299E+02 -0.23758299417E+02  0.36820913786E+02  0.00000000000E+00 0. -1.
         11    1    4    4    0    0 -0.17605826362E+01 -0.17515905988E+02  0.53596705280E+01  0.18401974955E+02  0.51100000000E-03 0. -1.
        -11    1    4    4    0    0 -0.13603877452E+02 -0.13192229946E+02  0.31406649665E+01  0.19208440576E+02  0.51100000000E-03 0.  1.
         12    1    4    4    0    0  0.35304253561E+00  0.69177966358E+01  0.15257963922E+02  0.16756670683E+02  0.00000000000E+00 0. -1.
</event>
<event>
 8    1  0.1280925E-006  0.9118800E+02  0.7816164E-02  0.1184000E+00
        -11   -1    0    0    0    0  0.00000000000E+00  0.00000000000E+00  0.45593999997E+02  0.45594000000E+02  0.51100000000E-03 0.  1.
         11   -1    0    0    0    0 -0.00000000000E+00 -0.00000000000E+00 -0.45593999997E+02  0.45594000000E+02  0.51100000000E-03 0. -1.
         23    2    1    2    0    0  0.00000000000E+00  0.00000000000E+00  0.00000000000E+00  0.91188000000E+02  0.91188000000E+02 0.  0.
    9900012    2    3    3    0    0 -0.13524201762E+02 -0.12416095908E+02  0.31917363789E+02  0.54367060547E+02  0.39999946130E+02 0.  0.
         12    1    3    3    0    0  0.13524201762E+02  0.12416095908E+02 -0.31917363789E+02  0.36820939453E+02  0.00000000000E+00 0. -1.
         11    1    4    4    0    0 -0.34671174573E+01 -0.11170286049E+02  0.34067854098E+02  0.36019645709E+02  0.51100000000E-03 0. -1.
        -11    1    4    4    0    0 -0.83543313725E+01 -0.76652817124E+01  0.89432230452E-01  0.11338403538E+02  0.51100000000E-03 0.  1.
         12    1    4    4    0    0 -0.17027529324E+01  0.64194718533E+01 -0.22399225394E+01  0.70090113002E+01  0.00000000000E+00 0. -1.
</event>
<event>
 8    1  0.1280925E-006  0.9118800E+02  0.7816164E-02  0.1184000E+00
        -11   -1    0    0    0    0  0.00000000000E+00  0.00000000000E+00  0.45593999997E+02  0.45594000000E+02  0.51100000000E-03 0.  1.
         11   -1    0    0    0    0 -0.00000000000E+00 -0.00000000000E+00 -0.45593999997E+02  0.45594000000E+02  0.51100000000E-03 0. -1.
         23    2    1    2    0    0 -0.35527136788E-14  0.27755575616E-16  0.00000000000E+00  0.91188000000E+02  0.91188000000E+02 0.  0.
    9900012    2    3    3    0    0 -0.17753381515E+02  0.91205350280E-01 -0.32258129492E+02  0.54367112016E+02  0.40000063462E+02 0.  0.
        -12    1    3    3    0    0  0.17753381515E+02 -0.91205350280E-01  0.32258129492E+02  0.36820887984E+02  0.00000000000E+00 0.  1.
         11    1    4    4    0    0 -0.18276066640E+02  0.63158875887E+01 -0.31294796891E+02  0.36786809601E+02  0.51100000000E-03 0. -1.
        -11    1    4    4    0    0  0.30674985101E+01 -0.78693334598E+01 -0.69058161461E+01  0.10909915358E+02  0.51100000000E-03 0.  1.
        -12    1    4    4    0    0 -0.25448133848E+01  0.16446512214E+01  0.59424835452E+01  0.66703870569E+01  0.00000000000E+00 0.  1.
</event>
<event>
 8    1  0.1280925E-006  0.9118800E+02  0.7816164E-02  0.1184000E+00
        -11   -1    0    0    0    0  0.00000000000E+00  0.00000000000E+00  0.45593999997E+02  0.45594000000E+02  0.51100000000E-03 0. -1.
         11   -1    0    0    0    0 -0.00000000000E+00 -0.00000000000E+00 -0.45593999997E+02  0.45594000000E+02  0.51100000000E-03 0.  1.
         23    2    1    2    0    0  0.00000000000E+00  0.17763568394E-14  0.71054273576E-14  0.91188000000E+02  0.91188000000E+02 0.  0.
    9900012    2    3    3    0    0  0.80033452020E+01  0.15821080672E+02 -0.32271057187E+02  0.54367064922E+02  0.39999956103E+02 0.  0.
         12    1    3    3    0    0 -0.80033452020E+01 -0.15821080672E+02  0.32271057187E+02  0.36820935078E+02  0.00000000000E+00 0. -1.
         11    1    4    4    0    0  0.15058125572E+02  0.46860692213E+01  0.67343167900E+00  0.15784799682E+02  0.51100000000E-03 0. -1.
        -11    1    4    4    0    0 -0.19416104647E+01  0.13696347437E+02 -0.18929363271E+02  0.23445267719E+02  0.51100000000E-03 0.  1.
         12    1    4    4    0    0 -0.51131699057E+01 -0.25613359869E+01 -0.14015125595E+02  0.15136997521E+02  0.00000000000E+00 0. -1.
</event>
<event>
 8    1  0.1280925E-006  0.9118800E+02  0.7816164E-02  0.1184000E+00
        -11   -1    0    0    0    0  0.00000000000E+00  0.00000000000E+00  0.45593999997E+02  0.45594000000E+02  0.51100000000E-03 0.  1.
         11   -1    0    0    0    0 -0.00000000000E+00 -0.00000000000E+00 -0.45593999997E+02  0.45594000000E+02  0.51100000000E-03 0. -1.
         23    2    1    2    0    0  0.00000000000E+00  0.00000000000E+00 -0.17763568394E-14  0.91188000000E+02  0.91188000000E+02 0.  0.
    9900012    2    3    3    0    0  0.77993431267E+01  0.34321677118E+02 -0.10815409697E+02  0.54367077139E+02  0.39999983954E+02 0.  0.
        -12    1    3    3    0    0 -0.77993431267E+01 -0.34321677118E+02  0.10815409697E+02  0.36820922861E+02  0.00000000000E+00 0.  1.
         11    1    4    4    0    0 -0.76001946080E+00  0.21922516183E+02  0.12656820268E+02  0.25325272850E+02  0.51100000000E-03 0. -1.
        -11    1    4    4    0    0  0.65221834344E+01  0.11278071134E+02 -0.23318849961E+02  0.26711468118E+02  0.51100000000E-03 0.  1.
         12    1    4    4    0    0  0.20371791531E+01  0.11210898008E+01 -0.15338000388E+00  0.23303361708E+01  0.00000000000E+00 0. -1.
</event>
<event>
 8    1  0.1280925E-006  0.9118800E+02  0.7816164E-02  0.1184000E+00
        -11   -1    0    0    0    0  0.00000000000E+00  0.00000000000E+00  0.45593999997E+02  0.45594000000E+02  0.51100000000E-03 0. -1.
         11   -1    0    0    0    0 -0.00000000000E+00 -0.00000000000E+00 -0.45593999997E+02  0.45594000000E+02  0.51100000000E-03 0.  1.
         23    2    1    2    0    0  0.00000000000E+00  0.00000000000E+00  0.00000000000E+00  0.91188000000E+02  0.91188000000E+02 0.  0.
    9900012    2    3    3    0    0  0.71782945809E+01  0.17423728842E+02  0.31633297949E+02  0.54367085034E+02  0.40000001952E+02 0.  0.
        -12    1    3    3    0    0 -0.71782945809E+01 -0.17423728842E+02 -0.31633297949E+02  0.36820914966E+02  0.00000000000E+00 0.  1.
         11    1    4    4    0    0  0.37666713618E+01  0.12932031868E+01  0.21759950814E+02  0.22121384390E+02  0.51100000000E-03 0. -1.
        -11    1    4    4    0    0  0.10565273523E+02  0.13358154794E+02  0.15262989103E+02  0.22869721046E+02  0.51100000000E-03 0.  1.
        -12    1    4    4    0    0 -0.71536503039E+01  0.27723708607E+01 -0.53896419688E+01  0.93759795974E+01  0.00000000000E+00 0.  1.
</event>
<event>
 8    1  0.1280925E-006  0.9118800E+02  0.7816164E-02  0.1184000E+00
        -11   -1    0    0    0    0  0.00000000000E+00  0.00000000000E+00  0.45593999997E+02  0.45594000000E+02  0.51100000000E-03 0.  1.
         11   -1    0    0    0    0 -0.00000000000E+00 -0.00000000000E+00 -0.45593999997E+02  0.45594000000E+02  0.51100000000E-03 0. -1.
         23    2    1    2    0    0  0.17763568394E-14  0.35527136788E-14  0.00000000000E+00  0.91188000000E+02  0.91188000000E+02 0.  0.
    9900012    2    3    3    0    0  0.10032329278E+02  0.31269919803E+02 -0.16652969510E+02  0.54367124009E+02  0.40000090803E+02 0.  0.
         12    1    3    3    0    0 -0.10032329278E+02 -0.31269919803E+02  0.16652969510E+02  0.36820875991E+02  0.00000000000E+00 0. -1.
         11    1    4    4    0    0  0.11036557534E+02 -0.41220554703E-01 -0.77013302692E+01  0.13458000948E+02  0.51100000000E-03 0.  1.
        -11    1    4    4    0    0 -0.82820793923E+01  0.17303699010E+02  0.50191187206E+01  0.19829331594E+02  0.51100000000E-03 0. -1.
         12    1    4    4    0    0  0.72778511369E+01  0.14007441348E+02 -0.13970757961E+02  0.21079791467E+02  0.00000000000E+00 0. -1.
</event>
<event>
 8    1  0.1280925E-006  0.9118800E+02  0.7816164E-02  0.1184000E+00
        -11   -1    0    0    0    0  0.00000000000E+00  0.00000000000E+00  0.45593999997E+02  0.45594000000E+02  0.51100000000E-03 0.  1.
         11   -1    0    0    0    0 -0.00000000000E+00 -0.00000000000E+00 -0.45593999997E+02  0.45594000000E+02  0.51100000000E-03 0. -1.
         23    2    1    2    0    0  0.00000000000E+00  0.00000000000E+00  0.00000000000E+00  0.91188000000E+02  0.91188000000E+02 0.  0.
    9900012    2    3    3    0    0 -0.23338098507E+02  0.33678644005E+01 -0.28280212014E+02  0.54367085507E+02  0.40000003030E+02 0.  0.
        -12    1    3    3    0    0  0.23338098507E+02 -0.33678644005E+01  0.28280212014E+02  0.36820914493E+02  0.00000000000E+00 0.  1.
         11    1    4    4    0    0 -0.10168432142E+02  0.67078003405E+01 -0.58151044620E+00  0.12195480814E+02  0.51100000000E-03 0. -1.
        -11    1    4    4    0    0 -0.19069996923E+02  0.55873852644E+01 -0.23243804470E+02  0.30580354858E+02  0.51100000000E-03 0.  1.
        -12    1    4    4    0    0  0.59003305574E+01 -0.89273212044E+01 -0.44548970974E+01  0.11591249834E+02  0.00000000000E+00 0.  1.
</event>
<event>
 8    1  0.1280925E-006  0.9118800E+02  0.7816164E-02  0.1184000E+00
        -11   -1    0    0    0    0  0.00000000000E+00  0.00000000000E+00  0.45593999997E+02  0.45594000000E+02  0.51100000000E-03 0.  1.
         11   -1    0    0    0    0 -0.00000000000E+00 -0.00000000000E+00 -0.45593999997E+02  0.45594000000E+02  0.51100000000E-03 0. -1.
         23    2    1    2    0    0 -0.17763568394E-14  0.00000000000E+00  0.00000000000E+00  0.91188000000E+02  0.91188000000E+02 0.  0.
    9900012    2    3    3    0    0  0.34632264485E+01 -0.66136215632E+01  0.36056217542E+02  0.54367017517E+02  0.39999848033E+02 0.  0.
         12    1    3    3    0    0 -0.34632264485E+01  0.66136215632E+01 -0.36056217542E+02  0.36820982483E+02  0.00000000000E+00 0. -1.
         11    1    4    4    0    0  0.70303471898E+00 -0.16194220273E+01  0.91824550076E+01  0.93506291631E+01  0.51100000000E-03 0. -1.
        -11    1    4    4    0    0 -0.15294252516E+02 -0.61246351796E+01  0.19378598150E+02  0.25435317624E+02  0.51100000000E-03 0.  1.
         12    1    4    4    0    0  0.18054444246E+02  0.11304356437E+01  0.74951643837E+01  0.19581070729E+02  0.00000000000E+00 0. -1.
</event>
<event>
 8    1  0.1280925E-006  0.9118800E+02  0.7816164E-02  0.1184000E+00
        -11   -1    0    0    0    0  0.00000000000E+00  0.00000000000E+00  0.45593999997E+02  0.45594000000E+02  0.51100000000E-03 0.  1.
         11   -1    0    0    0    0 -0.00000000000E+00 -0.00000000000E+00 -0.45593999997E+02  0.45594000000E+02  0.51100000000E-03 0. -1.
         23    2    1    2    0    0 -0.17763568394E-14  0.00000000000E+00  0.00000000000E+00  0.91188000000E+02  0.91188000000E+02 0.  0.
    9900012    2    3    3    0    0 -0.35763582924E+01 -0.66626229047E+01 -0.36036081651E+02  0.54367081172E+02  0.39999993148E+02 0.  0.
        -12    1    3    3    0    0  0.35763582924E+01  0.66626229047E+01  0.36036081651E+02  0.36820918828E+02  0.00000000000E+00 0.  1.
         11    1    4    4    0    0 -0.20168206127E+02  0.60979949969E-01 -0.24597267287E+02  0.31808580842E+02  0.51100000000E-03 0. -1.
        -11    1    4    4    0    0  0.84417726062E+01 -0.79681518271E+00 -0.86267979094E+01  0.12096283793E+02  0.51100000000E-03 0.  1.
         12    1    4    4    0    0  0.81500752279E+01 -0.59267876720E+01 -0.28120164538E+01  0.10462216537E+02  0.00000000000E+00 0. -1.
</event>
<event>
 8    1  0.1280925E-006  0.9118800E+02  0.7816164E-02  0.1184000E+00
        -11   -1    0    0    0    0  0.00000000000E+00  0.00000000000E+00  0.45593999997E+02  0.45594000000E+02  0.51100000000E-03 0.  1.
         11   -1    0    0    0    0 -0.00000000000E+00 -0.00000000000E+00 -0.45593999997E+02  0.45594000000E+02  0.51100000000E-03 0. -1.
         23    2    1    2    0    0  0.00000000000E+00 -0.88817841970E-15  0.71054273576E-14  0.91188000000E+02  0.91188000000E+02 0.  0.
    9900012    2    3    3    0    0  0.11264131207E+02 -0.43628014713E+01 -0.34783098336E+02  0.54367100794E+02  0.40000037880E+02 0.  0.
        -12    1    3    3    0    0 -0.11264131207E+02  0.43628014713E+01  0.34783098336E+02  0.36820899206E+02  0.00000000000E+00 0.  1.
         11    1    4    4    0    0  0.15446340420E+01  0.89451238819E+01 -0.29038241765E+02  0.30424013881E+02  0.51100000000E-03 0. -1.
        -11    1    4    4    0    0  0.29183661011E+01  0.10867153046E+01  0.41573504603E+01  0.51943598224E+01  0.51100000000E-03 0.  1.
        -12    1    4    4    0    0  0.68011310637E+01 -0.14394640658E+02 -0.99022070311E+01  0.18748727090E+02  0.00000000000E+00 0.  1.
</event>
<event>
 8    1  0.1280925E-006  0.9118800E+02  0.7816164E-02  0.1184000E+00
        -11   -1    0    0    0    0  0.00000000000E+00  0.00000000000E+00  0.45593999997E+02  0.45594000000E+02  0.51100000000E-03 0.  1.
         11   -1    0    0    0    0 -0.00000000000E+00 -0.00000000000E+00 -0.45593999997E+02  0.45594000000E+02  0.51100000000E-03 0. -1.
         23    2    1    2    0    0  0.17763568394E-14  0.35527136788E-14  0.00000000000E+00  0.91188000000E+02  0.91188000000E+02 0.  0.
    9900012    2    3    3    0    0 -0.81062704988E+01 -0.31196150473E+02  0.17800820791E+02  0.54367073253E+02  0.39999975094E+02 0.  0.
         12    1    3    3    0    0  0.81062704988E+01  0.31196150473E+02 -0.17800820791E+02  0.36820926747E+02  0.00000000000E+00 0. -1.
         11    1    4    4    0    0  0.12658217829E+02 -0.49739641943E+01  0.28742724320E+01  0.13900800001E+02  0.51100000000E-03 0. -1.
        -11    1    4    4    0    0 -0.45116693015E+01 -0.28359129421E+01 -0.36543290903E+01  0.64615542606E+01  0.51100000000E-03 0.  1.
        -12    1    4    4    0    0 -0.16252819026E+02 -0.23386273336E+02  0.18580877449E+02  0.34004718991E+02  0.00000000000E+00 0.  1.
</event>
<event>
 8    1  0.1280925E-006  0.9118800E+02  0.7816164E-02  0.1184000E+00
        -11   -1    0    0    0    0  0.00000000000E+00  0.00000000000E+00  0.45593999997E+02  0.45594000000E+02  0.51100000000E-03 0. -1.
         11   -1    0    0    0    0 -0.00000000000E+00 -0.00000000000E+00 -0.45593999997E+02  0.45594000000E+02  0.51100000000E-03 0.  1.
         23    2    1    2    0    0  0.00000000000E+00  0.00000000000E+00 -0.35527136788E-14  0.91188000000E+02  0.91188000000E+02 0.  0.
    9900012    2    3    3    0    0 -0.18564369493E+02 -0.11433109440E+02  0.29672067024E+02  0.54367036302E+02  0.39999890858E+02 0.  0.
        -12    1    3    3    0    0  0.18564369493E+02  0.11433109440E+02 -0.29672067024E+02  0.36820963698E+02  0.00000000000E+00 0.  1.
         11    1    4    4    0    0 -0.39424141806E+01 -0.88688963703E+01  0.18453036805E+02  0.20849808632E+02  0.51100000000E-03 0. -1.
        -11    1    4    4    0    0 -0.13919575034E+02  0.10072779595E+02  0.93143909761E+00  0.17207063577E+02  0.51100000000E-03 0.  1.
        -12    1    4    4    0    0 -0.70238027850E+00 -0.12636992665E+02  0.10287591122E+02  0.16310164094E+02  0.00000000000E+00 0.  1.
</event>
<event>
 8    1  0.1280925E-006  0.9118800E+02  0.7816164E-02  0.1184000E+00
        -11   -1    0    0    0    0  0.00000000000E+00  0.00000000000E+00  0.45593999997E+02  0.45594000000E+02  0.51100000000E-03 0. -1.
         11   -1    0    0    0    0 -0.00000000000E+00 -0.00000000000E+00 -0.45593999997E+02  0.45594000000E+02  0.51100000000E-03 0.  1.
         23    2    1    2    0    0  0.88817841970E-15  0.00000000000E+00 -0.35527136788E-14  0.91188000000E+02  0.91188000000E+02 0.  0.
    9900012    2    3    3    0    0 -0.64973947421E+01  0.20039727274E+02  0.30198890037E+02  0.54367085194E+02  0.40000002317E+02 0.  0.
        -12    1    3    3    0    0  0.64973947421E+01 -0.20039727274E+02 -0.30198890037E+02  0.36820914806E+02  0.00000000000E+00 0.  1.
         11    1    4    4    0    0  0.22663898179E+01  0.62978567913E+01  0.30059016295E+02  0.30795194168E+02  0.51100000000E-03 0. -1.
        -11    1    4    4    0    0 -0.21436359365E+01 -0.23888326087E+01 -0.45013129103E+01  0.55284278451E+01  0.51100000000E-03 0.  1.
        -12    1    4    4    0    0 -0.66201486235E+01  0.16130703092E+02  0.46411866526E+01  0.18043463181E+02  0.00000000000E+00 0.  1.
</event>
<event>
 8    1  0.1280925E-006  0.9118800E+02  0.7816164E-02  0.1184000E+00
        -11   -1    0    0    0    0  0.00000000000E+00  0.00000000000E+00  0.45593999997E+02  0.45594000000E+02  0.51100000000E-03 0.  1.
         11   -1    0    0    0    0 -0.00000000000E+00 -0.00000000000E+00 -0.45593999997E+02  0.45594000000E+02  0.51100000000E-03 0. -1.
         23    2    1    2    0    0  0.00000000000E+00  0.17763568394E-14  0.00000000000E+00  0.91188000000E+02  0.91188000000E+02 0.  0.
    9900012    2    3    3    0    0  0.29695406021E+02  0.14022148621E+02 -0.16653578527E+02  0.54367089250E+02  0.40000011563E+02 0.  0.
        -12    1    3    3    0    0 -0.29695406021E+02 -0.14022148621E+02  0.16653578527E+02  0.36820910750E+02  0.00000000000E+00 0.  1.
         11    1    4    4    0    0  0.75128597846E+01 -0.65843187234E+01  0.23118143312E+01  0.10253818848E+02  0.51100000000E-03 0. -1.
        -11    1    4    4    0    0  0.69435459792E+01  0.30080077936E+01  0.62357572792E+01  0.98053868235E+01  0.51100000000E-03 0.  1.
         12    1    4    4    0    0  0.15239000257E+02  0.17598459551E+02 -0.25201150138E+02  0.34307883579E+02  0.00000000000E+00 0. -1.
</event>
<event>
 8    1  0.1280925E-006  0.9118800E+02  0.7816164E-02  0.1184000E+00
        -11   -1    0    0    0    0  0.00000000000E+00  0.00000000000E+00  0.45593999997E+02  0.45594000000E+02  0.51100000000E-03 0. -1.
         11   -1    0    0    0    0 -0.00000000000E+00 -0.00000000000E+00 -0.45593999997E+02  0.45594000000E+02  0.51100000000E-03 0.  1.
         23    2    1    2    0    0  0.00000000000E+00  0.00000000000E+00  0.00000000000E+00  0.91188000000E+02  0.91188000000E+02 0.  0.
    9900012    2    3    3    0    0 -0.84704989647E+01  0.18527062730E+02 -0.30672121013E+02  0.54367076416E+02  0.39999982306E+02 0.  0.
         12    1    3    3    0    0  0.84704989647E+01 -0.18527062730E+02  0.30672121013E+02  0.36820923584E+02  0.00000000000E+00 0. -1.
         11    1    4    4    0    0 -0.74886875930E+01  0.28112896124E+01 -0.66432560677E+01  0.10397915300E+02  0.51100000000E-03 0. -1.
        -11    1    4    4    0    0 -0.87416640851E+01  0.10637830247E+02 -0.29952109147E+02  0.32965269087E+02  0.51100000000E-03 0.  1.
        -12    1    4    4    0    0  0.77598527134E+01  0.50779428702E+01  0.59232442014E+01  0.11003892029E+02  0.00000000000E+00 0.  1.
</event>
<event>
 8    1  0.1280925E-006  0.9118800E+02  0.7816164E-02  0.1184000E+00
        -11   -1    0    0    0    0  0.00000000000E+00  0.00000000000E+00  0.45593999997E+02  0.45594000000E+02  0.51100000000E-03 0.  1.
         11   -1    0    0    0    0 -0.00000000000E+00 -0.00000000000E+00 -0.45593999997E+02  0.45594000000E+02  0.51100000000E-03 0. -1.
         23    2    1    2    0    0  0.00000000000E+00  0.66613381478E-15  0.00000000000E+00  0.91188000000E+02  0.91188000000E+02 0.  0.
    9900012    2    3    3    0    0  0.91152713727E+01  0.11277452884E+01  0.35656967856E+02  0.54367091017E+02  0.40000015592E+02 0.  0.
         12    1    3    3    0    0 -0.91152713727E+01 -0.11277452884E+01 -0.35656967856E+02  0.36820908983E+02  0.00000000000E+00 0. -1.
         11    1    4    4    0    0  0.37642144060E+01  0.64470406358E+01  0.29048833581E+02  0.29992805400E+02  0.51100000000E-03 0.  1.
        -11    1    4    4    0    0  0.70325995855E+01  0.47389231382E+01 -0.42436472647E+01  0.94827945147E+01  0.51100000000E-03 0. -1.
         12    1    4    4    0    0 -0.16815426188E+01 -0.10058218486E+02  0.10851781540E+02  0.14891491103E+02  0.00000000000E+00 0. -1.
</event>
<event>
 8    1  0.1280925E-006  0.9118800E+02  0.7816164E-02  0.1184000E+00
        -11   -1    0    0    0    0  0.00000000000E+00  0.00000000000E+00  0.45593999997E+02  0.45594000000E+02  0.51100000000E-03 0. -1.
         11   -1    0    0    0    0 -0.00000000000E+00 -0.00000000000E+00 -0.45593999997E+02  0.45594000000E+02  0.51100000000E-03 0.  1.
         23    2    1    2    0    0  0.17763568394E-14  0.35527136788E-14  0.35527136788E-14  0.91188000000E+02  0.91188000000E+02 0.  0.
    9900012    2    3    3    0    0  0.60768657883E+01  0.31288811916E+02  0.18435343541E+02  0.54367082841E+02  0.39999996953E+02 0.  0.
        -12    1    3    3    0    0 -0.60768657883E+01 -0.31288811916E+02 -0.18435343541E+02  0.36820917159E+02  0.00000000000E+00 0.  1.
         11    1    4    4    0    0 -0.12331384017E+02  0.18939784519E+02  0.12393642969E+02  0.25775586428E+02  0.51100000000E-03 0. -1.
        -11    1    4    4    0    0  0.18154717177E+01  0.28132026614E+01 -0.53563392297E+01  0.63166776850E+01  0.51100000000E-03 0.  1.
        -12    1    4    4    0    0  0.16592778087E+02  0.95358247357E+01  0.11398039802E+02  0.22274818728E+02  0.00000000000E+00 0.  1.
</event>
<event>
 8    1  0.1280925E-006  0.9118800E+02  0.7816164E-02  0.1184000E+00
        -11   -1    0    0    0    0  0.00000000000E+00  0.00000000000E+00  0.45593999997E+02  0.45594000000E+02  0.51100000000E-03 0.  1.
         11   -1    0    0    0    0 -0.00000000000E+00 -0.00000000000E+00 -0.45593999997E+02  0.45594000000E+02  0.51100000000E-03 0. -1.
         23    2    1    2    0    0  0.00000000000E+00  0.00000000000E+00  0.00000000000E+00  0.91188000000E+02  0.91188000000E+02 0.  0.
    9900012    2    3    3    0    0  0.43178822339E+01 -0.29009823135E+02  0.22261318753E+02  0.54367078530E+02  0.39999987124E+02 0.  0.
         12    1    3    3    0    0 -0.43178822339E+01  0.29009823135E+02 -0.22261318753E+02  0.36820921470E+02  0.00000000000E+00 0. -1.
         11    1    4    4    0    0 -0.22030865686E+01 -0.14141360968E+02 -0.73310767540E+01  0.16080309919E+02  0.51100000000E-03 0. -1.
        -11    1    4    4    0    0  0.11681207944E+02 -0.59794925405E+01  0.11359309507E+02  0.17356234120E+02  0.51100000000E-03 0.  1.
        -12    1    4    4    0    0 -0.51602391420E+01 -0.88889696268E+01  0.18233085999E+02  0.20930534491E+02  0.00000000000E+00 0.  1.
</event>
<event>
 8    1  0.1280925E-006  0.9118800E+02  0.7816164E-02  0.1184000E+00
        -11   -1    0    0    0    0  0.00000000000E+00  0.00000000000E+00  0.45593999997E+02  0.45594000000E+02  0.51100000000E-03 0.  1.
         11   -1    0    0    0    0 -0.00000000000E+00 -0.00000000000E+00 -0.45593999997E+02  0.45594000000E+02  0.51100000000E-03 0. -1.
         23    2    1    2    0    0  0.00000000000E+00  0.35527136788E-14  0.00000000000E+00  0.91188000000E+02  0.91188000000E+02 0.  0.
    9900012    2    3    3    0    0 -0.26602906965E+02  0.24579031949E+02 -0.66287006060E+01  0.54367039362E+02  0.39999897834E+02 0.  0.
         12    1    3    3    0    0  0.26602906965E+02 -0.24579031949E+02  0.66287006060E+01  0.36820960638E+02  0.00000000000E+00 0. -1.
         11    1    4    4    0    0 -0.19403062913E+02  0.18824507829E+02 -0.32170211674E+01  0.27224808004E+02  0.51100000000E-03 0. -1.
        -11    1    4    4    0    0 -0.12669833642E+02  0.78262665496E+01  0.60046364776E+01  0.16057110329E+02  0.51100000000E-03 0.  1.
         12    1    4    4    0    0  0.54699895901E+01 -0.20717424291E+01 -0.94163159162E+01  0.11085121030E+02  0.00000000000E+00 0. -1.
</event>
<event>
 8    1  0.1280925E-006  0.9118800E+02  0.7816164E-02  0.1184000E+00
        -11   -1    0    0    0    0  0.00000000000E+00  0.00000000000E+00  0.45593999997E+02  0.45594000000E+02  0.51100000000E-03 0. -1.
         11   -1    0    0    0    0 -0.00000000000E+00 -0.00000000000E+00 -0.45593999997E+02  0.45594000000E+02  0.51100000000E-03 0.  1.
         23    2    1    2    0    0 -0.17763568394E-14  0.00000000000E+00  0.00000000000E+00  0.91188000000E+02  0.91188000000E+02 0.  0.
    9900012    2    3    3    0    0 -0.12101355567E+02 -0.95278453356E+01 -0.33444846775E+02  0.54367076340E+02  0.39999982133E+02 0.  0.
         12    1    3    3    0    0  0.12101355567E+02  0.95278453356E+01  0.33444846775E+02  0.36820923660E+02  0.00000000000E+00 0. -1.
         11    1    4    4    0    0 -0.11055705925E+02  0.66785172736E+01 -0.10719604546E+02  0.16785146658E+02  0.51100000000E-03 0. -1.
        -11    1    4    4    0    0 -0.29276301483E+01 -0.67294318997E+01 -0.26281022254E+02  0.27286414256E+02  0.51100000000E-03 0.  1.
        -12    1    4    4    0    0  0.18819805058E+01 -0.94769307094E+01  0.35557800245E+01  0.10295515426E+02  0.00000000000E+00 0.  1.
</event>
<event>
 8    1  0.1280925E-006  0.9118800E+02  0.7816164E-02  0.1184000E+00
        -11   -1    0    0    0    0  0.00000000000E+00  0.00000000000E+00  0.45593999997E+02  0.45594000000E+02  0.51100000000E-03 0. -1.
         11   -1    0    0    0    0 -0.00000000000E+00 -0.00000000000E+00 -0.45593999997E+02  0.45594000000E+02  0.51100000000E-03 0.  1.
         23    2    1    2    0    0  0.44408920985E-15  0.00000000000E+00 -0.35527136788E-14  0.91188000000E+02  0.91188000000E+02 0.  0.
    9900012    2    3    3    0    0  0.23077009960E+01  0.19961472464E+02 -0.30854409707E+02  0.54367075716E+02  0.39999980709E+02 0.  0.
         12    1    3    3    0    0 -0.23077009960E+01 -0.19961472464E+02  0.30854409707E+02  0.36820924284E+02  0.00000000000E+00 0. -1.
         11    1    4    4    0    0  0.59216670879E+01  0.19606848645E+02 -0.11810542352E+02  0.23642833286E+02  0.51100000000E-03 0. -1.
        -11    1    4    4    0    0  0.26326315466E+01  0.10114865996E+02 -0.28903493298E+01  0.10844140468E+02  0.51100000000E-03 0.  1.
        -12    1    4    4    0    0 -0.62465976385E+01 -0.97602421774E+01 -0.16153518025E+02  0.19880101961E+02  0.00000000000E+00 0.  1.
</event>
<event>
 8    1  0.1280925E-006  0.9118800E+02  0.7816164E-02  0.1184000E+00
        -11   -1    0    0    0    0  0.00000000000E+00  0.00000000000E+00  0.45593999997E+02  0.45594000000E+02  0.51100000000E-03 0. -1.
         11   -1    0    0    0    0 -0.00000000000E+00 -0.00000000000E+00 -0.45593999997E+02  0.45594000000E+02  0.51100000000E-03 0.  1.
         23    2    1    2    0    0 -0.35527136788E-14  0.00000000000E+00  0.00000000000E+00  0.91188000000E+02  0.91188000000E+02 0.  0.
    9900012    2    3    3    0    0  0.19809821109E+02 -0.30580505956E+02 -0.53087580825E+01  0.54367091955E+02  0.40000017729E+02 0.  0.
        -12    1    3    3    0    0 -0.19809821109E+02  0.30580505956E+02  0.53087580825E+01  0.36820908045E+02  0.00000000000E+00 0.  1.
         11    1    4    4    0    0  0.17425198014E+02 -0.66208676493E+01 -0.33830523642E+01  0.18945143384E+02  0.51100000000E-03 0. -1.
        -11    1    4    4    0    0  0.11044715114E+02 -0.22998199967E+02  0.25255708153E+01  0.25637500695E+02  0.51100000000E-03 0.  1.
        -12    1    4    4    0    0 -0.86600920197E+01 -0.96143834027E+00 -0.44512765335E+01  0.97844478766E+01  0.00000000000E+00 0.  1.
</event>
<event>
 8    1  0.1280925E-006  0.9118800E+02  0.7816164E-02  0.1184000E+00
        -11   -1    0    0    0    0  0.00000000000E+00  0.00000000000E+00  0.45593999997E+02  0.45594000000E+02  0.51100000000E-03 0. -1.
         11   -1    0    0    0    0 -0.00000000000E+00 -0.00000000000E+00 -0.45593999997E+02  0.45594000000E+02  0.51100000000E-03 0.  1.
         23    2    1    2    0    0  0.00000000000E+00  0.17763568394E-14 -0.44408920985E-15  0.91188000000E+02  0.91188000000E+02 0.  0.
    9900012    2    3    3    0    0 -0.34378836597E+02 -0.12706737036E+02  0.35232642259E+01  0.54367096119E+02  0.40000027222E+02 0.  0.
         12    1    3    3    0    0  0.34378836597E+02  0.12706737036E+02 -0.35232642259E+01  0.36820903881E+02  0.00000000000E+00 0. -1.
         11    1    4    4    0    0 -0.10782651958E+02  0.21976285824E+01  0.21252434699E+00  0.11006376401E+02  0.51100000000E-03 0. -1.
        -11    1    4    4    0    0 -0.25577953327E+02 -0.20822140202E+01 -0.72106990531E+01  0.26656359330E+02  0.51100000000E-03 0.  1.
         12    1    4    4    0    0  0.19817686887E+01 -0.12822151598E+02  0.10521438932E+02  0.16704360387E+02  0.00000000000E+00 0. -1.
</event>
<event>
 8    1  0.1280925E-006  0.9118800E+02  0.7816164E-02  0.1184000E+00
        -11   -1    0    0    0    0  0.00000000000E+00  0.00000000000E+00  0.45593999997E+02  0.45594000000E+02  0.51100000000E-03 0. -1.
         11   -1    0    0    0    0 -0.00000000000E+00 -0.00000000000E+00 -0.45593999997E+02  0.45594000000E+02  0.51100000000E-03 0.  1.
         23    2    1    2    0    0 -0.15543122345E-14  0.36082248300E-15  0.00000000000E+00  0.91188000000E+02  0.91188000000E+02 0.  0.
    9900012    2    3    3    0    0 -0.97871824914E+00 -0.13360941016E+00  0.36807664785E+02  0.54367083012E+02  0.39999997343E+02 0.  0.
        -12    1    3    3    0    0  0.97871824914E+00  0.13360941016E+00 -0.36807664785E+02  0.36820916988E+02  0.00000000000E+00 0.  1.
         11    1    4    4    0    0 -0.48482898337E+01  0.22234972396E+01  0.12285209349E+02  0.13393140905E+02  0.51100000000E-03 0. -1.
        -11    1    4    4    0    0  0.81752864350E+01 -0.66722490547E+01  0.30598555321E+02  0.32367048116E+02  0.51100000000E-03 0.  1.
        -12    1    4    4    0    0 -0.43057148504E+01  0.43151424050E+01 -0.60760998857E+01  0.86068939909E+01  0.00000000000E+00 0.  1.
</event>
<event>
 8    1  0.1280925E-006  0.9118800E+02  0.7816164E-02  0.1184000E+00
        -11   -1    0    0    0    0  0.00000000000E+00  0.00000000000E+00  0.45593999997E+02  0.45594000000E+02  0.51100000000E-03 0. -1.
         11   -1    0    0    0    0 -0.00000000000E+00 -0.00000000000E+00 -0.45593999997E+02  0.45594000000E+02  0.51100000000E-03 0.  1.
         23    2    1    2    0    0  0.88817841970E-15  0.00000000000E+00  0.35527136788E-14  0.91188000000E+02  0.91188000000E+02 0.  0.
    9900012    2    3    3    0    0 -0.45913345103E+01  0.18913199594E+02  0.31256827387E+02  0.54367099281E+02  0.40000034431E+02 0.  0.
        -12    1    3    3    0    0  0.45913345103E+01 -0.18913199594E+02 -0.31256827387E+02  0.36820900719E+02  0.00000000000E+00 0.  1.
         11    1    4    4    0    0 -0.30079155907E+00 -0.24786517874E+01 -0.78206088272E+00  0.26164498334E+01  0.51100000000E-03 0. -1.
        -11    1    4    4    0    0  0.29058889582E+01 -0.55295780488E+01 -0.30425485213E+01  0.69482030627E+01  0.51100000000E-03 0.  1.
         12    1    4    4    0    0 -0.71964319094E+01  0.26921429430E+02  0.35081436791E+02  0.44802446385E+02  0.00000000000E+00 0. -1.
</event>
<event>
 8    1  0.1280925E-006  0.9118800E+02  0.7816164E-02  0.1184000E+00
        -11   -1    0    0    0    0  0.00000000000E+00  0.00000000000E+00  0.45593999997E+02  0.45594000000E+02  0.51100000000E-03 0.  1.
         11   -1    0    0    0    0 -0.00000000000E+00 -0.00000000000E+00 -0.45593999997E+02  0.45594000000E+02  0.51100000000E-03 0. -1.
         23    2    1    2    0    0  0.35527136788E-14  0.35527136788E-14  0.35527136788E-14  0.91188000000E+02  0.91188000000E+02 0.  0.
    9900012    2    3    3    0    0  0.19277895879E+02  0.21558976413E+02  0.22789317591E+02  0.54367085702E+02  0.40000003474E+02 0.  0.
         12    1    3    3    0    0 -0.19277895879E+02 -0.21558976413E+02 -0.22789317591E+02  0.36820914298E+02  0.00000000000E+00 0. -1.
         11    1    4    4    0    0 -0.26826638959E+01 -0.17458540960E+01  0.78321433766E+01  0.84609197038E+01  0.51100000000E-03 0. -1.
        -11    1    4    4    0    0 -0.69192167776E+01  0.11990033730E+01  0.27811229458E+01  0.75530003975E+01  0.51100000000E-03 0.  1.
        -12    1    4    4    0    0  0.28879776552E+02  0.22105827136E+02  0.12176051269E+02  0.38353165600E+02  0.00000000000E+00 0.  1.
</event>
<event>
 8    1  0.1280925E-006  0.9118800E+02  0.7816164E-02  0.1184000E+00
        -11   -1    0    0    0    0  0.00000000000E+00  0.00000000000E+00  0.45593999997E+02  0.45594000000E+02  0.51100000000E-03 0.  1.
         11   -1    0    0    0    0 -0.00000000000E+00 -0.00000000000E+00 -0.45593999997E+02  0.45594000000E+02  0.51100000000E-03 0. -1.
         23    2    1    2    0    0  0.17763568394E-14  0.35527136788E-14  0.00000000000E+00  0.91188000000E+02  0.91188000000E+02 0.  0.
    9900012    2    3    3    0    0 -0.15744437882E+02  0.30437917858E+02 -0.13469438758E+02  0.54367082735E+02  0.39999996712E+02 0.  0.
        -12    1    3    3    0    0  0.15744437882E+02 -0.30437917858E+02  0.13469438758E+02  0.36820917265E+02  0.00000000000E+00 0.  1.
         11    1    4    4    0    0 -0.25967771839E+02  0.11665748489E+02 -0.26520155114E+01  0.28591048400E+02  0.51100000000E-03 0. -1.
        -11    1    4    4    0    0  0.10056001419E+02  0.86541394826E+01 -0.65046566362E+01  0.14775921391E+02  0.51100000000E-03 0.  1.
         12    1    4    4    0    0  0.16733253752E+00  0.10118029886E+02 -0.43127666108E+01  0.11000112945E+02  0.00000000000E+00 0. -1.
</event>
<event>
 8    1  0.1280925E-006  0.9118800E+02  0.7816164E-02  0.1184000E+00
        -11   -1    0    0    0    0  0.00000000000E+00  0.00000000000E+00  0.45593999997E+02  0.45594000000E+02  0.51100000000E-03 0. -1.
         11   -1    0    0    0    0 -0.00000000000E+00 -0.00000000000E+00 -0.45593999997E+02  0.45594000000E+02  0.51100000000E-03 0.  1.
         23    2    1    2    0    0 -0.17763568394E-14 -0.71054273576E-14  0.00000000000E+00  0.91188000000E+02  0.91188000000E+02 0.  0.
    9900012    2    3    3    0    0 -0.15538116794E+02 -0.32663880055E+02 -0.68863947977E+01  0.54367020015E+02  0.39999853728E+02 0.  0.
        -12    1    3    3    0    0  0.15538116794E+02  0.32663880055E+02  0.68863947977E+01  0.36820979985E+02  0.00000000000E+00 0.  1.
         11    1    4    4    0    0  0.18354232816E+01 -0.26094025986E+02 -0.79401939722E+01  0.27337038087E+02  0.51100000000E-03 0. -1.
        -11    1    4    4    0    0 -0.19724852829E+02 -0.37475996558E+01 -0.43040005794E+01  0.20533843857E+02  0.51100000000E-03 0.  1.
        -12    1    4    4    0    0  0.23513127536E+01 -0.28222544134E+01  0.53577997539E+01  0.64961380713E+01  0.00000000000E+00 0.  1.
</event>
<event>
 8    1  0.1280925E-006  0.9118800E+02  0.7816164E-02  0.1184000E+00
        -11   -1    0    0    0    0  0.00000000000E+00  0.00000000000E+00  0.45593999997E+02  0.45594000000E+02  0.51100000000E-03 0.  1.
         11   -1    0    0    0    0 -0.00000000000E+00 -0.00000000000E+00 -0.45593999997E+02  0.45594000000E+02  0.51100000000E-03 0. -1.
         23    2    1    2    0    0  0.35527136788E-14  0.13322676296E-14  0.35527136788E-14  0.91188000000E+02  0.91188000000E+02 0.  0.
    9900012    2    3    3    0    0 -0.23751212690E+02 -0.21933254294E+01 -0.28050872806E+02  0.54367051535E+02  0.39999925584E+02 0.  0.
        -12    1    3    3    0    0  0.23751212690E+02  0.21933254294E+01  0.28050872806E+02  0.36820948465E+02  0.00000000000E+00 0.  1.
         11    1    4    4    0    0 -0.73604266869E+01  0.77528047574E+01 -0.11506916907E+02  0.15706399956E+02  0.51100000000E-03 0. -1.
        -11    1    4    4    0    0  0.81461088635E+01 -0.30973215252E+01 -0.78900808670E+01  0.11756099123E+02  0.51100000000E-03 0.  1.
         12    1    4    4    0    0 -0.24536894866E+02 -0.68488086615E+01 -0.86538750324E+01  0.26904552456E+02  0.00000000000E+00 0. -1.
</event>
<event>
 8    1  0.1280925E-006  0.9118800E+02  0.7816164E-02  0.1184000E+00
        -11   -1    0    0    0    0  0.00000000000E+00  0.00000000000E+00  0.45593999997E+02  0.45594000000E+02  0.51100000000E-03 0.  1.
         11   -1    0    0    0    0 -0.00000000000E+00 -0.00000000000E+00 -0.45593999997E+02  0.45594000000E+02  0.51100000000E-03 0. -1.
         23    2    1    2    0    0  0.35527136788E-14 -0.17763568394E-14 -0.35527136788E-14  0.91188000000E+02  0.91188000000E+02 0.  0.
    9900012    2    3    3    0    0  0.23802628748E+02 -0.12882426121E+01 -0.28063379071E+02  0.54367109880E+02  0.40000058593E+02 0.  0.
         12    1    3    3    0    0 -0.23802628748E+02  0.12882426121E+01  0.28063379071E+02  0.36820890120E+02  0.00000000000E+00 0. -1.
         11    1    4    4    0    0  0.11316686082E+01  0.80705968711E+01 -0.14779905661E+02  0.16877820337E+02  0.51100000000E-03 0. -1.
        -11    1    4    4    0    0  0.12443304545E+02 -0.17781635865E+02 -0.96422394140E+01  0.23748582762E+02  0.51100000000E-03 0.  1.
         12    1    4    4    0    0  0.10227655594E+02  0.84227963813E+01 -0.36412339959E+01  0.13740706781E+02  0.00000000000E+00 0. -1.
</event>
<event>
 8    1  0.1280925E-006  0.9118800E+02  0.7816164E-02  0.1184000E+00
        -11   -1    0    0    0    0  0.00000000000E+00  0.00000000000E+00  0.45593999997E+02  0.45594000000E+02  0.51100000000E-03 0.  1.
         11   -1    0    0    0    0 -0.00000000000E+00 -0.00000000000E+00 -0.45593999997E+02  0.45594000000E+02  0.51100000000E-03 0. -1.
         23    2    1    2    0    0  0.00000000000E+00 -0.17763568394E-14  0.00000000000E+00  0.91188000000E+02  0.91188000000E+02 0.  0.
    9900012    2    3    3    0    0 -0.28292713195E+02 -0.10891366492E+02  0.20896897423E+02  0.54367084668E+02  0.40000001117E+02 0.  0.
         12    1    3    3    0    0  0.28292713195E+02  0.10891366492E+02 -0.20896897423E+02  0.36820915332E+02  0.00000000000E+00 0. -1.
         11    1    4    4    0    0 -0.22117991688E+02 -0.16454652861E+02  0.56144874602E+01  0.28133318802E+02  0.51100000000E-03 0. -1.
        -11    1    4    4    0    0 -0.87214702721E+01  0.65235428074E+01  0.18835692415E+02  0.21757848319E+02  0.51100000000E-03 0.  1.
         12    1    4    4    0    0  0.25467487652E+01 -0.96025643822E+00 -0.35532824522E+01  0.44759175467E+01  0.00000000000E+00 0. -1.
</event>
<event>
 8    1  0.1280925E-006  0.9118800E+02  0.7816164E-02  0.1184000E+00
        -11   -1    0    0    0    0  0.00000000000E+00  0.00000000000E+00  0.45593999997E+02  0.45594000000E+02  0.51100000000E-03 0.  1.
         11   -1    0    0    0    0 -0.00000000000E+00 -0.00000000000E+00 -0.45593999997E+02  0.45594000000E+02  0.51100000000E-03 0. -1.
         23    2    1    2    0    0 -0.53290705182E-14 -0.35527136788E-14  0.71054273576E-14  0.91188000000E+02  0.91188000000E+02 0.  0.
    9900012    2    3    3    0    0 -0.12087962664E+02  0.26366443084E+02 -0.22682032271E+02  0.54367044686E+02  0.39999909971E+02 0.  0.
        -12    1    3    3    0    0  0.12087962664E+02 -0.26366443084E+02  0.22682032271E+02  0.36820955314E+02  0.00000000000E+00 0.  1.
         11    1    4    4    0    0  0.64667121505E+01  0.55932234616E+01 -0.36731458061E+01  0.93056173951E+01  0.51100000000E-03 0. -1.
        -11    1    4    4    0    0 -0.18400838116E+01 -0.71612788395E+01 -0.75047234859E+01  0.10535212286E+02  0.51100000000E-03 0.  1.
         12    1    4    4    0    0 -0.16714591003E+02  0.27934498462E+02 -0.11504162979E+02  0.34526215005E+02  0.00000000000E+00 0. -1.
</event>
<event>
 8    1  0.1280925E-006  0.9118800E+02  0.7816164E-02  0.1184000E+00
        -11   -1    0    0    0    0  0.00000000000E+00  0.00000000000E+00  0.45593999997E+02  0.45594000000E+02  0.51100000000E-03 0.  1.
         11   -1    0    0    0    0 -0.00000000000E+00 -0.00000000000E+00 -0.45593999997E+02  0.45594000000E+02  0.51100000000E-03 0. -1.
         23    2    1    2    0    0  0.00000000000E+00  0.00000000000E+00 -0.17763568394E-14  0.91188000000E+02  0.91188000000E+02 0.  0.
    9900012    2    3    3    0    0 -0.34340212291E+02 -0.12250466585E+02  0.51433719611E+01  0.54367103937E+02  0.40000045045E+02 0.  0.
        -12    1    3    3    0    0  0.34340212291E+02  0.12250466585E+02 -0.51433719611E+01  0.36820896063E+02  0.00000000000E+00 0.  1.
         11    1    4    4    0    0 -0.24724417703E+02 -0.88509664927E+01  0.78759463960E+01  0.27416545561E+02  0.51100000000E-03 0. -1.
        -11    1    4    4    0    0 -0.14134618812E+01 -0.41823540124E+01  0.10484189476E+02  0.11375772009E+02  0.51100000000E-03 0.  1.
         12    1    4    4    0    0 -0.82023327074E+01  0.78285392014E+00 -0.13216763911E+02  0.15574786367E+02  0.00000000000E+00 0. -1.
</event>
<event>
 8    1  0.1280925E-006  0.9118800E+02  0.7816164E-02  0.1184000E+00
        -11   -1    0    0    0    0  0.00000000000E+00  0.00000000000E+00  0.45593999997E+02  0.45594000000E+02  0.51100000000E-03 0.  1.
         11   -1    0    0    0    0 -0.00000000000E+00 -0.00000000000E+00 -0.45593999997E+02  0.45594000000E+02  0.51100000000E-03 0. -1.
         23    2    1    2    0    0  0.00000000000E+00  0.00000000000E+00  0.00000000000E+00  0.91188000000E+02  0.91188000000E+02 0.  0.
    9900012    2    3    3    0    0  0.26285602388E+02  0.13666238963E+02  0.21865061450E+02  0.54367083491E+02  0.39999998435E+02 0.  0.
         12    1    3    3    0    0 -0.26285602388E+02 -0.13666238963E+02 -0.21865061450E+02  0.36820916509E+02  0.00000000000E+00 0. -1.
         11    1    4    4    0    0  0.15574443366E+01  0.60825690903E+01 -0.88135260239E+01  0.10821345611E+02  0.51100000000E-03 0. -1.
        -11    1    4    4    0    0  0.17605533939E+02  0.17020577374E+00  0.27736074828E+02  0.32852300412E+02  0.51100000000E-03 0.  1.
        -12    1    4    4    0    0  0.71226241129E+01  0.74134640994E+01  0.29425126462E+01  0.10693437468E+02  0.00000000000E+00 0.  1.
</event>
<event>
 8    1  0.1280925E-006  0.9118800E+02  0.7816164E-02  0.1184000E+00
        -11   -1    0    0    0    0  0.00000000000E+00  0.00000000000E+00  0.45593999997E+02  0.45594000000E+02  0.51100000000E-03 0.  1.
         11   -1    0    0    0    0 -0.00000000000E+00 -0.00000000000E+00 -0.45593999997E+02  0.45594000000E+02  0.51100000000E-03 0. -1.
         23    2    1    2    0    0  0.00000000000E+00  0.00000000000E+00 -0.35527136788E-14  0.91188000000E+02  0.91188000000E+02 0.  0.
    9900012    2    3    3    0    0 -0.11437758722E+02 -0.17031558716E+02  0.30575853639E+02  0.54367093674E+02  0.40000021649E+02 0.  0.
         12    1    3    3    0    0  0.11437758722E+02  0.17031558716E+02 -0.30575853639E+02  0.36820906326E+02  0.00000000000E+00 0. -1.
         11    1    4    4    0    0  0.15158275144E+01 -0.30468371639E+01 -0.35959788528E+01  0.49509609095E+01  0.51100000000E-03 0. -1.
        -11    1    4    4    0    0 -0.72988734054E+01  0.90801037547E+01  0.83431284711E+01  0.14329327623E+02  0.51100000000E-03 0.  1.
         12    1    4    4    0    0 -0.56547128309E+01 -0.23064825307E+02  0.25828704021E+02  0.35086805142E+02  0.00000000000E+00 0. -1.
</event>
<event>
 8    1  0.1280925E-006  0.9118800E+02  0.7816164E-02  0.1184000E+00
        -11   -1    0    0    0    0  0.00000000000E+00  0.00000000000E+00  0.45593999997E+02  0.45594000000E+02  0.51100000000E-03 0. -1.
         11   -1    0    0    0    0 -0.00000000000E+00 -0.00000000000E+00 -0.45593999997E+02  0.45594000000E+02  0.51100000000E-03 0.  1.
         23    2    1    2    0    0  0.00000000000E+00  0.00000000000E+00  0.88817841970E-15  0.91188000000E+02  0.91188000000E+02 0.  0.
    9900012    2    3    3    0    0  0.34687621926E+02  0.95040218468E+01 -0.78879592328E+01  0.54367116700E+02  0.40000074141E+02 0.  0.
         12    1    3    3    0    0 -0.34687621926E+02 -0.95040218468E+01  0.78879592328E+01  0.36820883300E+02  0.00000000000E+00 0. -1.
         11    1    4    4    0    0  0.19188741949E+02  0.30601670262E+01 -0.12028693472E+02  0.22853050272E+02  0.51100000000E-03 0. -1.
        -11    1    4    4    0    0  0.12060178871E+02 -0.43423682555E+01 -0.78439621558E+01  0.15027701721E+02  0.51100000000E-03 0.  1.
         12    1    4    4    0    0  0.34387011054E+01  0.10786223076E+02  0.11984696395E+02  0.16486364706E+02  0.00000000000E+00 0. -1.
</event>
<event>
 8    1  0.1280925E-006  0.9118800E+02  0.7816164E-02  0.1184000E+00
        -11   -1    0    0    0    0  0.00000000000E+00  0.00000000000E+00  0.45593999997E+02  0.45594000000E+02  0.51100000000E-03 0. -1.
         11   -1    0    0    0    0 -0.00000000000E+00 -0.00000000000E+00 -0.45593999997E+02  0.45594000000E+02  0.51100000000E-03 0.  1.
         23    2    1    2    0    0  0.00000000000E+00  0.88817841970E-15  0.35527136788E-14  0.91188000000E+02  0.91188000000E+02 0.  0.
    9900012    2    3    3    0    0 -0.22181495600E+02  0.70473545281E+01  0.28532410906E+02  0.54367049102E+02  0.39999920038E+02 0.  0.
        -12    1    3    3    0    0  0.22181495600E+02 -0.70473545281E+01 -0.28532410906E+02  0.36820950898E+02  0.00000000000E+00 0.  1.
         11    1    4    4    0    0 -0.13392345037E+01 -0.77245251732E+01  0.18867375120E+02  0.20431340690E+02  0.51100000000E-03 0. -1.
        -11    1    4    4    0    0 -0.15889345971E+02  0.61646415050E+00 -0.34485330589E+00  0.15905039060E+02  0.51100000000E-03 0.  1.
        -12    1    4    4    0    0 -0.49529151252E+01  0.14155415551E+02  0.10009889092E+02  0.18030669352E+02  0.00000000000E+00 0.  1.
</event>
<event>
 8    1  0.1280925E-006  0.9118800E+02  0.7816164E-02  0.1184000E+00
        -11   -1    0    0    0    0  0.00000000000E+00  0.00000000000E+00  0.45593999997E+02  0.45594000000E+02  0.51100000000E-03 0. -1.
         11   -1    0    0    0    0 -0.00000000000E+00 -0.00000000000E+00 -0.45593999997E+02  0.45594000000E+02  0.51100000000E-03 0.  1.
         23    2    1    2    0    0 -0.17763568394E-14 -0.35527136788E-14 -0.17763568394E-14  0.91188000000E+02  0.91188000000E+02 0.  0.
    9900012    2    3    3    0    0 -0.15459802475E+02 -0.31384615909E+02  0.11479534668E+02  0.54367091205E+02  0.40000016019E+02 0.  0.
        -12    1    3    3    0    0  0.15459802475E+02  0.31384615909E+02 -0.11479534668E+02  0.36820908795E+02  0.00000000000E+00 0.  1.
         11    1    4    4    0    0 -0.23022390961E+02 -0.31998410237E+02  0.18521669240E+02  0.43554345075E+02  0.51100000000E-03 0. -1.
        -11    1    4    4    0    0  0.10410379848E+01 -0.18512837155E+00 -0.27973749418E+01  0.29905416609E+01  0.51100000000E-03 0.  1.
         12    1    4    4    0    0  0.65215505014E+01  0.79892269894E+00 -0.42447596307E+01  0.78222044683E+01  0.00000000000E+00 0. -1.
</event>
<event>
 8    1  0.1280925E-006  0.9118800E+02  0.7816164E-02  0.1184000E+00
        -11   -1    0    0    0    0  0.00000000000E+00  0.00000000000E+00  0.45593999997E+02  0.45594000000E+02  0.51100000000E-03 0. -1.
         11   -1    0    0    0    0 -0.00000000000E+00 -0.00000000000E+00 -0.45593999997E+02  0.45594000000E+02  0.51100000000E-03 0.  1.
         23    2    1    2    0    0  0.00000000000E+00  0.00000000000E+00 -0.17763568394E-14  0.91188000000E+02  0.91188000000E+02 0.  0.
    9900012    2    3    3    0    0 -0.24945747410E+02  0.23655550604E+02 -0.13187327873E+02  0.54367068390E+02  0.39999964008E+02 0.  0.
         12    1    3    3    0    0  0.24945747410E+02 -0.23655550604E+02  0.13187327873E+02  0.36820931610E+02  0.00000000000E+00 0. -1.
         11    1    4    4    0    0  0.22470161397E+00  0.13657079356E+02 -0.12524098909E+02  0.18531577405E+02  0.51100000000E-03 0. -1.
        -11    1    4    4    0    0 -0.96028394434E+01 -0.76470210423E+01  0.37635490974E+00  0.12281412764E+02  0.51100000000E-03 0.  1.
         12    1    4    4    0    0 -0.15567609581E+02  0.17645492290E+02 -0.10395838739E+01  0.23554078221E+02  0.00000000000E+00 0. -1.
</event>
<event>
 8    1  0.1280925E-006  0.9118800E+02  0.7816164E-02  0.1184000E+00
        -11   -1    0    0    0    0  0.00000000000E+00  0.00000000000E+00  0.45593999997E+02  0.45594000000E+02  0.51100000000E-03 0.  1.
         11   -1    0    0    0    0 -0.00000000000E+00 -0.00000000000E+00 -0.45593999997E+02  0.45594000000E+02  0.51100000000E-03 0. -1.
         23    2    1    2    0    0  0.35527136788E-14  0.00000000000E+00 -0.35527136788E-14  0.91188000000E+02  0.91188000000E+02 0.  0.
    9900012    2    3    3    0    0  0.19697194856E+02  0.17214595883E+02 -0.25912508498E+02  0.54367083481E+02  0.39999998412E+02 0.  0.
        -12    1    3    3    0    0 -0.19697194856E+02 -0.17214595883E+02  0.25912508498E+02  0.36820916519E+02  0.00000000000E+00 0.  1.
         11    1    4    4    0    0  0.80560755483E+01  0.76276838649E+01 -0.14070224707E+02  0.17917955741E+02  0.51100000000E-03 0. -1.
        -11    1    4    4    0    0 -0.64279546675E+00  0.17479630690E+02 -0.13013200553E+02  0.21801239964E+02  0.51100000000E-03 0.  1.
        -12    1    4    4    0    0  0.12283914774E+02 -0.78927186720E+01  0.11709167619E+01  0.14647887775E+02  0.00000000000E+00 0.  1.
</event>
<event>
 8    1  0.1280925E-006  0.9118800E+02  0.7816164E-02  0.1184000E+00
        -11   -1    0    0    0    0  0.00000000000E+00  0.00000000000E+00  0.45593999997E+02  0.45594000000E+02  0.51100000000E-03 0. -1.
         11   -1    0    0    0    0 -0.00000000000E+00 -0.00000000000E+00 -0.45593999997E+02  0.45594000000E+02  0.51100000000E-03 0.  1.
         23    2    1    2    0    0  0.22204460493E-15  0.88817841970E-15  0.00000000000E+00  0.91188000000E+02  0.91188000000E+02 0.  0.
    9900012    2    3    3    0    0  0.19395380831E+01  0.20383913675E+01 -0.36713250828E+02  0.54367087006E+02  0.40000006449E+02 0.  0.
         12    1    3    3    0    0 -0.19395380831E+01 -0.20383913675E+01  0.36713250828E+02  0.36820912994E+02  0.00000000000E+00 0. -1.
         11    1    4    4    0    0  0.14716042212E+02 -0.25710607377E+01 -0.83765243911E+01  0.17127125060E+02  0.51100000000E-03 0. -1.
        -11    1    4    4    0    0 -0.79020627992E+01 -0.38658213271E+01 -0.25626307574E+02  0.27094184084E+02  0.51100000000E-03 0.  1.
        -12    1    4    4    0    0 -0.48744413293E+01  0.84752734322E+01 -0.27104188624E+01  0.10145777862E+02  0.00000000000E+00 0.  1.
</event>
<event>
 8    1  0.1280925E-006  0.9118800E+02  0.7816164E-02  0.1184000E+00
        -11   -1    0    0    0    0  0.00000000000E+00  0.00000000000E+00  0.45593999997E+02  0.45594000000E+02  0.51100000000E-03 0.  1.
         11   -1    0    0    0    0 -0.00000000000E+00 -0.00000000000E+00 -0.45593999997E+02  0.45594000000E+02  0.51100000000E-03 0. -1.
         23    2    1    2    0    0  0.00000000000E+00  0.00000000000E+00  0.00000000000E+00  0.91188000000E+02  0.91188000000E+02 0.  0.
    9900012    2    3    3    0    0 -0.10584051792E+02 -0.30021774239E+02  0.18505433779E+02  0.54367079857E+02  0.39999990150E+02 0.  0.
         12    1    3    3    0    0  0.10584051792E+02  0.30021774239E+02 -0.18505433779E+02  0.36820920143E+02  0.00000000000E+00 0. -1.
         11    1    4    4    0    0 -0.19965361835E+01 -0.36210432345E+02  0.20952072655E+02  0.41882823642E+02  0.51100000000E-03 0.  1.
        -11    1    4    4    0    0 -0.54759763512E+01  0.34287278114E+01 -0.44725712533E+01  0.78578868203E+01  0.51100000000E-03 0. -1.
        -12    1    4    4    0    0 -0.31115392576E+01  0.27599302945E+01  0.20259323772E+01  0.46263693950E+01  0.00000000000E+00 0.  1.
</event>
<event>
 8    1  0.1280925E-006  0.9118800E+02  0.7816164E-02  0.1184000E+00
        -11   -1    0    0    0    0  0.00000000000E+00  0.00000000000E+00  0.45593999997E+02  0.45594000000E+02  0.51100000000E-03 0.  1.
         11   -1    0    0    0    0 -0.00000000000E+00 -0.00000000000E+00 -0.45593999997E+02  0.45594000000E+02  0.51100000000E-03 0. -1.
         23    2    1    2    0    0  0.00000000000E+00 -0.26645352591E-14 -0.71054273576E-14  0.91188000000E+02  0.91188000000E+02 0.  0.
    9900012    2    3    3    0    0  0.11687514313E+02  0.64072790497E+01  0.34323863741E+02  0.54367097814E+02  0.40000031087E+02 0.  0.
         12    1    3    3    0    0 -0.11687514313E+02 -0.64072790497E+01 -0.34323863741E+02  0.36820902186E+02  0.00000000000E+00 0. -1.
         11    1    4    4    0    0 -0.36906158354E+01 -0.35120649720E+01  0.35651303079E+01  0.62181508494E+01  0.51100000000E-03 0. -1.
        -11    1    4    4    0    0  0.40599481368E+01 -0.11755566436E+02  0.12489909531E+02  0.17625957037E+02  0.51100000000E-03 0.  1.
         12    1    4    4    0    0  0.11318182012E+02  0.21674910458E+02  0.18268823902E+02  0.30522989928E+02  0.00000000000E+00 0. -1.
</event>
<event>
 8    1  0.1280925E-006  0.9118800E+02  0.7816164E-02  0.1184000E+00
        -11   -1    0    0    0    0  0.00000000000E+00  0.00000000000E+00  0.45593999997E+02  0.45594000000E+02  0.51100000000E-03 0.  1.
         11   -1    0    0    0    0 -0.00000000000E+00 -0.00000000000E+00 -0.45593999997E+02  0.45594000000E+02  0.51100000000E-03 0. -1.
         23    2    1    2    0    0 -0.35527136788E-14  0.35527136788E-14  0.17763568394E-14  0.91188000000E+02  0.91188000000E+02 0.  0.
    9900012    2    3    3    0    0  0.24253786192E+02 -0.26354893616E+02  0.85413627675E+01  0.54367062477E+02  0.39999950530E+02 0.  0.
         12    1    3    3    0    0 -0.24253786192E+02  0.26354893616E+02 -0.85413627675E+01  0.36820937523E+02  0.00000000000E+00 0. -1.
         11    1    4    4    0    0 -0.44464893863E+00 -0.19173523187E+02  0.13314237229E+02  0.23347175789E+02  0.51100000000E-03 0. -1.
        -11    1    4    4    0    0  0.10658139273E+02 -0.97655898425E+01 -0.78009808916E+01  0.16426137126E+02  0.51100000000E-03 0.  1.
         12    1    4    4    0    0  0.14040295857E+02  0.25842194139E+01  0.30281064299E+01  0.14593749563E+02  0.00000000000E+00 0. -1.
</event>
<event>
 8    1  0.1280925E-006  0.9118800E+02  0.7816164E-02  0.1184000E+00
        -11   -1    0    0    0    0  0.00000000000E+00  0.00000000000E+00  0.45593999997E+02  0.45594000000E+02  0.51100000000E-03 0.  1.
         11   -1    0    0    0    0 -0.00000000000E+00 -0.00000000000E+00 -0.45593999997E+02  0.45594000000E+02  0.51100000000E-03 0. -1.
         23    2    1    2    0    0 -0.35527136788E-14 -0.35527136788E-14  0.17763568394E-14  0.91188000000E+02  0.91188000000E+02 0.  0.
    9900012    2    3    3    0    0 -0.28736404818E+02 -0.22662299959E+02  0.40520120227E+01  0.54367087427E+02  0.40000007407E+02 0.  0.
        -12    1    3    3    0    0  0.28736404818E+02  0.22662299959E+02 -0.40520120227E+01  0.36820912573E+02  0.00000000000E+00 0.  1.
         11    1    4    4    0    0 -0.13016666333E+02 -0.20903886240E+02 -0.12095335708E+02  0.27435437093E+02  0.51100000000E-03 0. -1.
        -11    1    4    4    0    0  0.15025696105E+01  0.25096368931E+01  0.55255868532E+01  0.62520479128E+01  0.51100000000E-03 0.  1.
         12    1    4    4    0    0 -0.17222308095E+02 -0.42680506125E+01  0.10621760878E+02  0.20679602421E+02  0.00000000000E+00 0. -1.
</event>
<event>
 8    1  0.1280925E-006  0.9118800E+02  0.7816164E-02  0.1184000E+00
        -11   -1    0    0    0    0  0.00000000000E+00  0.00000000000E+00  0.45593999997E+02  0.45594000000E+02  0.51100000000E-03 0. -1.
         11   -1    0    0    0    0 -0.00000000000E+00 -0.00000000000E+00 -0.45593999997E+02  0.45594000000E+02  0.51100000000E-03 0.  1.
         23    2    1    2    0    0  0.00000000000E+00  0.00000000000E+00  0.00000000000E+00  0.91188000000E+02  0.91188000000E+02 0.  0.
    9900012    2    3    3    0    0 -0.20620440311E+02  0.29790481447E+02  0.65654820326E+01  0.54367069841E+02  0.39999967316E+02 0.  0.
        -12    1    3    3    0    0  0.20620440311E+02 -0.29790481447E+02 -0.65654820326E+01  0.36820930159E+02  0.00000000000E+00 0.  1.
         11    1    4    4    0    0  0.40921137469E+01  0.27036422867E+02  0.32224903336E+01  0.27533579509E+02  0.51100000000E-03 0. -1.
        -11    1    4    4    0    0 -0.12823871146E+00  0.14844141243E+01  0.15518776111E+01  0.21513379187E+01  0.51100000000E-03 0.  1.
        -12    1    4    4    0    0 -0.24584315346E+02  0.12696444560E+01  0.17911140879E+01  0.24682152413E+02  0.00000000000E+00 0.  1.
</event>
<event>
 8    1  0.1280925E-006  0.9118800E+02  0.7816164E-02  0.1184000E+00
        -11   -1    0    0    0    0  0.00000000000E+00  0.00000000000E+00  0.45593999997E+02  0.45594000000E+02  0.51100000000E-03 0.  1.
         11   -1    0    0    0    0 -0.00000000000E+00 -0.00000000000E+00 -0.45593999997E+02  0.45594000000E+02  0.51100000000E-03 0. -1.
         23    2    1    2    0    0  0.00000000000E+00  0.00000000000E+00  0.00000000000E+00  0.91188000000E+02  0.91188000000E+02 0.  0.
    9900012    2    3    3    0    0  0.14305951867E+02 -0.21428674145E+02 -0.26304637411E+02  0.54367051021E+02  0.39999924412E+02 0.  0.
        -12    1    3    3    0    0 -0.14305951867E+02  0.21428674145E+02  0.26304637411E+02  0.36820948979E+02  0.00000000000E+00 0.  1.
         11    1    4    4    0    0  0.30753347087E+01  0.98141272387E+01 -0.42105463854E+01  0.11113211874E+02  0.51100000000E-03 0. -1.
        -11    1    4    4    0    0  0.61119012463E+01 -0.57360273308E+01  0.10324475732E+01  0.84453119917E+01  0.51100000000E-03 0.  1.
         12    1    4    4    0    0  0.51187159115E+01 -0.25506774053E+02 -0.23126538598E+02  0.34808527155E+02  0.00000000000E+00 0. -1.
</event>
<event>
 8    1  0.1280925E-006  0.9118800E+02  0.7816164E-02  0.1184000E+00
        -11   -1    0    0    0    0  0.00000000000E+00  0.00000000000E+00  0.45593999997E+02  0.45594000000E+02  0.51100000000E-03 0. -1.
         11   -1    0    0    0    0 -0.00000000000E+00 -0.00000000000E+00 -0.45593999997E+02  0.45594000000E+02  0.51100000000E-03 0.  1.
         23    2    1    2    0    0  0.88817841970E-15  0.35527136788E-14  0.35527136788E-14  0.91188000000E+02  0.91188000000E+02 0.  0.
    9900012    2    3    3    0    0  0.79311021985E+01  0.29141801849E+02  0.21062488081E+02  0.54367144480E+02  0.40000137471E+02 0.  0.
        -12    1    3    3    0    0 -0.79311021985E+01 -0.29141801849E+02 -0.21062488081E+02  0.36820855520E+02  0.00000000000E+00 0.  1.
         11    1    4    4    0    0 -0.89565394275E+01  0.29007748289E+02  0.10420447176E+02  0.32097582135E+02  0.51100000000E-03 0. -1.
        -11    1    4    4    0    0  0.13843203901E+02  0.37188532882E+01  0.56399285186E+01  0.15403667030E+02  0.51100000000E-03 0.  1.
         12    1    4    4    0    0  0.30444377249E+01 -0.35847997283E+01  0.50021123856E+01  0.68658953146E+01  0.00000000000E+00 0. -1.
</event>
<event>
 8    1  0.1280925E-006  0.9118800E+02  0.7816164E-02  0.1184000E+00
        -11   -1    0    0    0    0  0.00000000000E+00  0.00000000000E+00  0.45593999997E+02  0.45594000000E+02  0.51100000000E-03 0. -1.
         11   -1    0    0    0    0 -0.00000000000E+00 -0.00000000000E+00 -0.45593999997E+02  0.45594000000E+02  0.51100000000E-03 0.  1.
         23    2    1    2    0    0  0.35527136788E-14  0.00000000000E+00  0.00000000000E+00  0.91188000000E+02  0.91188000000E+02 0.  0.
    9900012    2    3    3    0    0 -0.20867646826E+02  0.20671474940E+02  0.22203871371E+02  0.54367075730E+02  0.39999980741E+02 0.  0.
        -12    1    3    3    0    0  0.20867646826E+02 -0.20671474940E+02 -0.22203871371E+02  0.36820924270E+02  0.00000000000E+00 0.  1.
         11    1    4    4    0    0 -0.68369162341E+01  0.18803036326E+02  0.13007554501E+02  0.23864074946E+02  0.51100000000E-03 0. -1.
        -11    1    4    4    0    0 -0.11426863323E+02  0.12376763653E+01 -0.74143650375E+01  0.13677640782E+02  0.51100000000E-03 0.  1.
         12    1    4    4    0    0 -0.26038672695E+01  0.63076224876E+00  0.16610681908E+02  0.16825360002E+02  0.00000000000E+00 0. -1.
</event>
<event>
 8    1  0.1280925E-006  0.9118800E+02  0.7816164E-02  0.1184000E+00
        -11   -1    0    0    0    0  0.00000000000E+00  0.00000000000E+00  0.45593999997E+02  0.45594000000E+02  0.51100000000E-03 0.  1.
         11   -1    0    0    0    0 -0.00000000000E+00 -0.00000000000E+00 -0.45593999997E+02  0.45594000000E+02  0.51100000000E-03 0. -1.
         23    2    1    2    0    0  0.44408920985E-15  0.00000000000E+00  0.00000000000E+00  0.91188000000E+02  0.91188000000E+02 0.  0.
    9900012    2    3    3    0    0 -0.36948810599E+01  0.64193005273E+01  0.36068272440E+02  0.54367084176E+02  0.39999999996E+02 0.  0.
         12    1    3    3    0    0  0.36948810599E+01 -0.64193005273E+01 -0.36068272440E+02  0.36820915824E+02  0.00000000000E+00 0. -1.
         11    1    4    4    0    0 -0.14885474810E+02 -0.17704123353E+01  0.23332409279E+02  0.27732887393E+02  0.51100000000E-03 0. -1.
        -11    1    4    4    0    0 -0.89065833861E+00  0.50631121270E+00 -0.42772572827E+01  0.43982443592E+01  0.51100000000E-03 0.  1.
        -12    1    4    4    0    0  0.12081252088E+02  0.76834016499E+01  0.17013120444E+02  0.22235952424E+02  0.00000000000E+00 0.  1.
</event>
<event>
 8    1  0.1280925E-006  0.9118800E+02  0.7816164E-02  0.1184000E+00
        -11   -1    0    0    0    0  0.00000000000E+00  0.00000000000E+00  0.45593999997E+02  0.45594000000E+02  0.51100000000E-03 0.  1.
         11   -1    0    0    0    0 -0.00000000000E+00 -0.00000000000E+00 -0.45593999997E+02  0.45594000000E+02  0.51100000000E-03 0. -1.
         23    2    1    2    0    0  0.00000000000E+00 -0.17763568394E-14  0.00000000000E+00  0.91188000000E+02  0.91188000000E+02 0.  0.
    9900012    2    3    3    0    0 -0.20715907380E+02 -0.83596794532E+01 -0.29270220933E+02  0.54367097069E+02  0.40000029389E+02 0.  0.
        -12    1    3    3    0    0  0.20715907380E+02  0.83596794532E+01  0.29270220933E+02  0.36820902931E+02  0.00000000000E+00 0.  1.
         11    1    4    4    0    0  0.23126383411E+01  0.48595029315E+01 -0.10245243763E+02  0.11572730225E+02  0.51100000000E-03 0. -1.
        -11    1    4    4    0    0  0.18061693038E+00  0.72031306695E+01 -0.54292799936E+01  0.90219064187E+01  0.51100000000E-03 0.  1.
         12    1    4    4    0    0 -0.23209162652E+02 -0.20422313054E+02 -0.13595697177E+02  0.33772460426E+02  0.00000000000E+00 0. -1.
</event>
<event>
 8    1  0.1280925E-006  0.9118800E+02  0.7816164E-02  0.1184000E+00
        -11   -1    0    0    0    0  0.00000000000E+00  0.00000000000E+00  0.45593999997E+02  0.45594000000E+02  0.51100000000E-03 0.  1.
         11   -1    0    0    0    0 -0.00000000000E+00 -0.00000000000E+00 -0.45593999997E+02  0.45594000000E+02  0.51100000000E-03 0. -1.
         23    2    1    2    0    0 -0.71054273576E-14  0.00000000000E+00  0.17763568394E-14  0.91188000000E+02  0.91188000000E+02 0.  0.
    9900012    2    3    3    0    0 -0.35418498243E+02  0.27946795381E+01 -0.96695218685E+01  0.54367083326E+02  0.39999998059E+02 0.  0.
         12    1    3    3    0    0  0.35418498243E+02 -0.27946795381E+01  0.96695218685E+01  0.36820916674E+02  0.00000000000E+00 0. -1.
         11    1    4    4    0    0  0.14020476723E+01  0.63041588582E+00  0.59156597475E+01  0.61121348458E+01  0.51100000000E-03 0. -1.
        -11    1    4    4    0    0 -0.72048763789E+01 -0.10022635150E+01  0.75924977802E+01  0.10514789517E+02  0.51100000000E-03 0.  1.
         12    1    4    4    0    0 -0.29615669536E+02  0.31665271672E+01 -0.23177679396E+02  0.37740158963E+02  0.00000000000E+00 0. -1.
</event>
<event>
 8    1  0.1280925E-006  0.9118800E+02  0.7816164E-02  0.1184000E+00
        -11   -1    0    0    0    0  0.00000000000E+00  0.00000000000E+00  0.45593999997E+02  0.45594000000E+02  0.51100000000E-03 0.  1.
         11   -1    0    0    0    0 -0.00000000000E+00 -0.00000000000E+00 -0.45593999997E+02  0.45594000000E+02  0.51100000000E-03 0. -1.
         23    2    1    2    0    0  0.00000000000E+00  0.00000000000E+00  0.00000000000E+00  0.91188000000E+02  0.91188000000E+02 0.  0.
    9900012    2    3    3    0    0  0.22277194275E+02 -0.87524110443E+01  0.27980387338E+02  0.54367079867E+02  0.39999990174E+02 0.  0.
         12    1    3    3    0    0 -0.22277194275E+02  0.87524110443E+01 -0.27980387338E+02  0.36820920133E+02  0.00000000000E+00 0. -1.
         11    1    4    4    0    0 -0.34685310343E+01  0.46898584064E+01  0.45067463811E+01  0.73713121365E+01  0.51100000000E-03 0. -1.
        -11    1    4    4    0    0  0.32487364264E+01 -0.16720548962E+02  0.51458842798E+01  0.17793571065E+02  0.51100000000E-03 0.  1.
        -12    1    4    4    0    0  0.22496988883E+02  0.32782795109E+01  0.18327756677E+02  0.29202196666E+02  0.00000000000E+00 0.  1.
</event>
<event>
 8    1  0.1280925E-006  0.9118800E+02  0.7816164E-02  0.1184000E+00
        -11   -1    0    0    0    0  0.00000000000E+00  0.00000000000E+00  0.45593999997E+02  0.45594000000E+02  0.51100000000E-03 0. -1.
         11   -1    0    0    0    0 -0.00000000000E+00 -0.00000000000E+00 -0.45593999997E+02  0.45594000000E+02  0.51100000000E-03 0.  1.
         23    2    1    2    0    0  0.00000000000E+00 -0.44408920985E-15 -0.88817841970E-15  0.91188000000E+02  0.91188000000E+02 0.  0.
    9900012    2    3    3    0    0 -0.36595911617E+02  0.25902293756E+01 -0.31322116161E+01  0.54367071373E+02  0.39999970810E+02 0.  0.
        -12    1    3    3    0    0  0.36595911617E+02 -0.25902293756E+01  0.31322116161E+01  0.36820928627E+02  0.00000000000E+00 0.  1.
         11    1    4    4    0    0 -0.16052839569E+01  0.14054489287E+01  0.23948714133E+01  0.32074339620E+01  0.51100000000E-03 0. -1.
        -11    1    4    4    0    0  0.13007117614E+01  0.57859528921E+01  0.98338030594E+01  0.11483587629E+02  0.51100000000E-03 0.  1.
         12    1    4    4    0    0 -0.36291339422E+02 -0.46011724452E+01 -0.15360886089E+02  0.39676049782E+02  0.00000000000E+00 0. -1.
</event>
<event>
 8    1  0.1280925E-006  0.9118800E+02  0.7816164E-02  0.1184000E+00
        -11   -1    0    0    0    0  0.00000000000E+00  0.00000000000E+00  0.45593999997E+02  0.45594000000E+02  0.51100000000E-03 0. -1.
         11   -1    0    0    0    0 -0.00000000000E+00 -0.00000000000E+00 -0.45593999997E+02  0.45594000000E+02  0.51100000000E-03 0.  1.
         23    2    1    2    0    0  0.88817841970E-15  0.35527136788E-14  0.35527136788E-14  0.91188000000E+02  0.91188000000E+02 0.  0.
    9900012    2    3    3    0    0 -0.43963409639E+01  0.31221946852E+02  0.19016895504E+02  0.54367080759E+02  0.39999992206E+02 0.  0.
        -12    1    3    3    0    0  0.43963409639E+01 -0.31221946852E+02 -0.19016895504E+02  0.36820919241E+02  0.00000000000E+00 0.  1.
         11    1    4    4    0    0  0.13361937728E+02  0.99668725155E+01 -0.44671299271E+01  0.17257901889E+02  0.51100000000E-03 0. -1.
        -11    1    4    4    0    0 -0.41086058521E+00  0.70925315504E+00 -0.59590048332E+00  0.10133825070E+01  0.51100000000E-03 0.  1.
         12    1    4    4    0    0 -0.17347418106E+02  0.20545821182E+02  0.24079925915E+02  0.36095796363E+02  0.00000000000E+00 0. -1.
</event>
<event>
 8    1  0.1280925E-006  0.9118800E+02  0.7816164E-02  0.1184000E+00
        -11   -1    0    0    0    0  0.00000000000E+00  0.00000000000E+00  0.45593999997E+02  0.45594000000E+02  0.51100000000E-03 0. -1.
         11   -1    0    0    0    0 -0.00000000000E+00 -0.00000000000E+00 -0.45593999997E+02  0.45594000000E+02  0.51100000000E-03 0.  1.
         23    2    1    2    0    0  0.00000000000E+00  0.00000000000E+00  0.00000000000E+00  0.91188000000E+02  0.91188000000E+02 0.  0.
    9900012    2    3    3    0    0  0.23525482354E+02 -0.20877872134E+02  0.19142789572E+02  0.54367078536E+02  0.39999987139E+02 0.  0.
        -12    1    3    3    0    0 -0.23525482354E+02  0.20877872134E+02 -0.19142789572E+02  0.36820921464E+02  0.00000000000E+00 0.  1.
         11    1    4    4    0    0  0.22180336833E+02 -0.10641648415E+02  0.10921492663E+02  0.26916370953E+02  0.51100000000E-03 0. -1.
        -11    1    4    4    0    0 -0.31533584131E+01  0.24281408738E+01  0.12680702346E+02  0.13290588762E+02  0.51100000000E-03 0.  1.
        -12    1    4    4    0    0  0.44985039341E+01 -0.12664364593E+02 -0.44594054374E+01  0.14160118822E+02  0.00000000000E+00 0.  1.
</event>
<event>
 8    1  0.1280925E-006  0.9118800E+02  0.7816164E-02  0.1184000E+00
        -11   -1    0    0    0    0  0.00000000000E+00  0.00000000000E+00  0.45593999997E+02  0.45594000000E+02  0.51100000000E-03 0.  1.
         11   -1    0    0    0    0 -0.00000000000E+00 -0.00000000000E+00 -0.45593999997E+02  0.45594000000E+02  0.51100000000E-03 0. -1.
         23    2    1    2    0    0  0.00000000000E+00  0.71054273576E-14 -0.88817841970E-15  0.91188000000E+02  0.91188000000E+02 0.  0.
    9900012    2    3    3    0    0  0.17637298184E+02  0.31318433357E+02 -0.79915283838E+01  0.54367040193E+02  0.39999899729E+02 0.  0.
         12    1    3    3    0    0 -0.17637298184E+02 -0.31318433357E+02  0.79915283838E+01  0.36820959807E+02  0.00000000000E+00 0. -1.
         11    1    4    4    0    0  0.13386291064E+02 -0.55046350858E+01 -0.81854624745E+01  0.16628156604E+02  0.51100000000E-03 0. -1.
        -11    1    4    4    0    0  0.50456525564E+01  0.34546916508E+02  0.15961082403E+01  0.34949901455E+02  0.51100000000E-03 0.  1.
         12    1    4    4    0    0 -0.79464543624E+00  0.22761519346E+01 -0.14021741497E+01  0.27889821341E+01  0.00000000000E+00 0. -1.
</event>
<event>
 8    1  0.1280925E-006  0.9118800E+02  0.7816164E-02  0.1184000E+00
        -11   -1    0    0    0    0  0.00000000000E+00  0.00000000000E+00  0.45593999997E+02  0.45594000000E+02  0.51100000000E-03 0.  1.
         11   -1    0    0    0    0 -0.00000000000E+00 -0.00000000000E+00 -0.45593999997E+02  0.45594000000E+02  0.51100000000E-03 0. -1.
         23    2    1    2    0    0 -0.35527136788E-14  0.35527136788E-14  0.21510571102E-15  0.91188000000E+02  0.91188000000E+02 0.  0.
    9900012    2    3    3    0    0 -0.24264404898E+02  0.27695086904E+02  0.37762064771E-01  0.54367073754E+02  0.39999976236E+02 0.  0.
        -12    1    3    3    0    0  0.24264404898E+02 -0.27695086904E+02 -0.37762064771E-01  0.36820926246E+02  0.00000000000E+00 0.  1.
         11    1    4    4    0    0 -0.12898876130E+02 -0.10921831024E+00 -0.11288466772E+01  0.12948638119E+02  0.51100000000E-03 0. -1.
        -11    1    4    4    0    0  0.48180456855E+01 -0.98017212597E+00 -0.58678674285E+01  0.76554666771E+01  0.51100000000E-03 0.  1.
         12    1    4    4    0    0 -0.16183574453E+02  0.28784477340E+02  0.70344761704E+01  0.33762968957E+02  0.00000000000E+00 0. -1.
</event>
<event>
 8    1  0.1280925E-006  0.9118800E+02  0.7816164E-02  0.1184000E+00
        -11   -1    0    0    0    0  0.00000000000E+00  0.00000000000E+00  0.45593999997E+02  0.45594000000E+02  0.51100000000E-03 0.  1.
         11   -1    0    0    0    0 -0.00000000000E+00 -0.00000000000E+00 -0.45593999997E+02  0.45594000000E+02  0.51100000000E-03 0. -1.
         23    2    1    2    0    0  0.00000000000E+00  0.00000000000E+00  0.35527136788E-14  0.91188000000E+02  0.91188000000E+02 0.  0.
    9900012    2    3    3    0    0 -0.19347002335E+02  0.26051301023E+02  0.17401212038E+02  0.54367096090E+02  0.40000027156E+02 0.  0.
         12    1    3    3    0    0  0.19347002335E+02 -0.26051301023E+02 -0.17401212038E+02  0.36820903910E+02  0.00000000000E+00 0. -1.
         11    1    4    4    0    0 -0.44810984724E+01 -0.69903943270E+01 -0.20890932615E+01  0.85621356729E+01  0.51100000000E-03 0. -1.
        -11    1    4    4    0    0 -0.11067258011E+02  0.10768188091E+02 -0.76448128870E+00  0.15460352730E+02  0.51100000000E-03 0.  1.
         12    1    4    4    0    0 -0.37986458520E+01  0.22273507259E+02  0.20254786588E+02  0.30344607687E+02  0.00000000000E+00 0. -1.
</event>
<event>
 8    1  0.1280925E-006  0.9118800E+02  0.7816164E-02  0.1184000E+00
        -11   -1    0    0    0    0  0.00000000000E+00  0.00000000000E+00  0.45593999997E+02  0.45594000000E+02  0.51100000000E-03 0.  1.
         11   -1    0    0    0    0 -0.00000000000E+00 -0.00000000000E+00 -0.45593999997E+02  0.45594000000E+02  0.51100000000E-03 0. -1.
         23    2    1    2    0    0 -0.71054273576E-14  0.88817841970E-15  0.35527136788E-14  0.91188000000E+02  0.91188000000E+02 0.  0.
    9900012    2    3    3    0    0 -0.31182276009E+02  0.75721647123E+01  0.18058454837E+02  0.54367084658E+02  0.40000001095E+02 0.  0.
         12    1    3    3    0    0  0.31182276009E+02 -0.75721647123E+01 -0.18058454837E+02  0.36820915342E+02  0.00000000000E+00 0. -1.
         11    1    4    4    0    0 -0.30714725163E+01  0.22478751575E+01  0.94719702801E+01  0.10208090291E+02  0.51100000000E-03 0. -1.
        -11    1    4    4    0    0 -0.19188239118E+02 -0.36657185693E+01  0.19380186667E+02  0.27517587986E+02  0.51100000000E-03 0.  1.
         12    1    4    4    0    0 -0.89225643745E+01  0.89900081240E+01 -0.10793702110E+02  0.16641406381E+02  0.00000000000E+00 0. -1.
</event>
<event>
 8    1  0.1280925E-006  0.9118800E+02  0.7816164E-02  0.1184000E+00
        -11   -1    0    0    0    0  0.00000000000E+00  0.00000000000E+00  0.45593999997E+02  0.45594000000E+02  0.51100000000E-03 0.  1.
         11   -1    0    0    0    0 -0.00000000000E+00 -0.00000000000E+00 -0.45593999997E+02  0.45594000000E+02  0.51100000000E-03 0. -1.
         23    2    1    2    0    0 -0.88817841970E-15  0.00000000000E+00 -0.17763568394E-14  0.91188000000E+02  0.91188000000E+02 0.  0.
    9900012    2    3    3    0    0  0.77511616502E+01 -0.33950632472E+02  0.11960513912E+02  0.54367084133E+02  0.39999999899E+02 0.  0.
         12    1    3    3    0    0 -0.77511616502E+01  0.33950632472E+02 -0.11960513912E+02  0.36820915867E+02  0.00000000000E+00 0. -1.
         11    1    4    4    0    0  0.75744357010E+01 -0.24650735951E+02 -0.73704853263E+01  0.26820792556E+02  0.51100000000E-03 0. -1.
        -11    1    4    4    0    0  0.23649903348E+01 -0.89756587646E+01  0.22118800820E+02  0.23987433783E+02  0.51100000000E-03 0.  1.
         12    1    4    4    0    0 -0.21882643855E+01 -0.32423775643E+00 -0.27878015812E+01  0.35588577942E+01  0.00000000000E+00 0. -1.
</event>
<event>
 8    1  0.1280925E-006  0.9118800E+02  0.7816164E-02  0.1184000E+00
        -11   -1    0    0    0    0  0.00000000000E+00  0.00000000000E+00  0.45593999997E+02  0.45594000000E+02  0.51100000000E-03 0.  1.
         11   -1    0    0    0    0 -0.00000000000E+00 -0.00000000000E+00 -0.45593999997E+02  0.45594000000E+02  0.51100000000E-03 0. -1.
         23    2    1    2    0    0  0.35527136788E-14  0.00000000000E+00  0.35527136788E-14  0.91188000000E+02  0.91188000000E+02 0.  0.
    9900012    2    3    3    0    0 -0.22165104619E+02  0.28361851173E+02 -0.77521995950E+01  0.54367040435E+02  0.39999900279E+02 0.  0.
        -12    1    3    3    0    0  0.22165104619E+02 -0.28361851173E+02  0.77521995950E+01  0.36820959565E+02  0.00000000000E+00 0.  1.
         11    1    4    4    0    0 -0.16075089157E+02  0.15729767213E+02 -0.59543821334E+01  0.23265612711E+02  0.51100000000E-03 0. -1.
        -11    1    4    4    0    0 -0.51448488552E+01  0.42104760425E+01  0.12684922718E+02  0.14321481867E+02  0.51100000000E-03 0.  1.
        -12    1    4    4    0    0 -0.94516660708E+00  0.84216079180E+01 -0.14482740180E+02  0.16779945857E+02  0.00000000000E+00 0.  1.
</event>
<event>
 8    1  0.1280925E-006  0.9118800E+02  0.7816164E-02  0.1184000E+00
        -11   -1    0    0    0    0  0.00000000000E+00  0.00000000000E+00  0.45593999997E+02  0.45594000000E+02  0.51100000000E-03 0. -1.
         11   -1    0    0    0    0 -0.00000000000E+00 -0.00000000000E+00 -0.45593999997E+02  0.45594000000E+02  0.51100000000E-03 0.  1.
         23    2    1    2    0    0  0.00000000000E+00 -0.13322676296E-14 -0.17763568394E-14  0.91188000000E+02  0.91188000000E+02 0.  0.
    9900012    2    3    3    0    0  0.34269980022E+02  0.36203266942E+01  0.12970849088E+02  0.54367065437E+02  0.39999957276E+02 0.  0.
        -12    1    3    3    0    0 -0.34269980022E+02 -0.36203266942E+01 -0.12970849088E+02  0.36820934563E+02  0.00000000000E+00 0.  1.
         11    1    4    4    0    0  0.34702234392E+01  0.92817548906E+01 -0.11353530943E+01  0.99740890048E+01  0.51100000000E-03 0. -1.
        -11    1    4    4    0    0  0.30543669778E+01 -0.24391668991E+01 -0.79129175558E+01  0.88256986864E+01  0.51100000000E-03 0.  1.
         12    1    4    4    0    0  0.27745389605E+02 -0.32222612972E+01  0.22019119738E+02  0.35567277745E+02  0.00000000000E+00 0. -1.
</event>
<event>
 8    1  0.1280925E-006  0.9118800E+02  0.7816164E-02  0.1184000E+00
        -11   -1    0    0    0    0  0.00000000000E+00  0.00000000000E+00  0.45593999997E+02  0.45594000000E+02  0.51100000000E-03 0. -1.
         11   -1    0    0    0    0 -0.00000000000E+00 -0.00000000000E+00 -0.45593999997E+02  0.45594000000E+02  0.51100000000E-03 0.  1.
         23    2    1    2    0    0  0.00000000000E+00  0.00000000000E+00 -0.44408920985E-15  0.91188000000E+02  0.91188000000E+02 0.  0.
    9900012    2    3    3    0    0  0.26739848482E+02  0.25257962220E+02 -0.16720952564E+01  0.54367081287E+02  0.39999993410E+02 0.  0.
         12    1    3    3    0    0 -0.26739848482E+02 -0.25257962220E+02  0.16720952564E+01  0.36820918713E+02  0.00000000000E+00 0. -1.
         11    1    4    4    0    0  0.19266064216E+01  0.35478654837E+01 -0.10419344049E+02  0.11174161824E+02  0.51100000000E-03 0. -1.
        -11    1    4    4    0    0  0.24512919087E+02  0.68317266118E+01 -0.89141019034E+00  0.25462723794E+02  0.51100000000E-03 0.  1.
        -12    1    4    4    0    0  0.30032297390E+00  0.14878370124E+02  0.96386589834E+01  0.17730195668E+02  0.00000000000E+00 0.  1.
</event>
<event>
 8    1  0.1280925E-006  0.9118800E+02  0.7816164E-02  0.1184000E+00
        -11   -1    0    0    0    0  0.00000000000E+00  0.00000000000E+00  0.45593999997E+02  0.45594000000E+02  0.51100000000E-03 0.  1.
         11   -1    0    0    0    0 -0.00000000000E+00 -0.00000000000E+00 -0.45593999997E+02  0.45594000000E+02  0.51100000000E-03 0. -1.
         23    2    1    2    0    0  0.35527136788E-14  0.00000000000E+00 -0.17763568394E-14  0.91188000000E+02  0.91188000000E+02 0.  0.
    9900012    2    3    3    0    0  0.12026118910E+02 -0.33404173765E+02 -0.97628854922E+01  0.54367078039E+02  0.39999986005E+02 0.  0.
        -12    1    3    3    0    0 -0.12026118910E+02  0.33404173765E+02  0.97628854922E+01  0.36820921961E+02  0.00000000000E+00 0.  1.
         11    1    4    4    0    0  0.14868944020E+02 -0.19377760216E+02 -0.18246440741E+02  0.30487959709E+02  0.51100000000E-03 0. -1.
        -11    1    4    4    0    0  0.68042045645E+01 -0.28989513314E+01  0.43607711113E+01  0.85858862981E+01  0.51100000000E-03 0.  1.
        -12    1    4    4    0    0 -0.96470296739E+01 -0.11127462217E+02  0.41227841377E+01  0.15293232031E+02  0.00000000000E+00 0.  1.
</event>
<event>
 8    1  0.1280925E-006  0.9118800E+02  0.7816164E-02  0.1184000E+00
        -11   -1    0    0    0    0  0.00000000000E+00  0.00000000000E+00  0.45593999997E+02  0.45594000000E+02  0.51100000000E-03 0.  1.
         11   -1    0    0    0    0 -0.00000000000E+00 -0.00000000000E+00 -0.45593999997E+02  0.45594000000E+02  0.51100000000E-03 0. -1.
         23    2    1    2    0    0  0.00000000000E+00  0.72164496601E-15 -0.71054273576E-14  0.91188000000E+02  0.91188000000E+02 0.  0.
    9900012    2    3    3    0    0  0.14625200889E+02  0.40097583166E+00 -0.33789415742E+02  0.54367056247E+02  0.39999936326E+02 0.  0.
        -12    1    3    3    0    0 -0.14625200889E+02 -0.40097583166E+00  0.33789415742E+02  0.36820943753E+02  0.00000000000E+00 0.  1.
         11    1    4    4    0    0  0.14959063525E+02  0.10097380935E+02  0.10018643978E-01  0.18048013296E+02  0.51100000000E-03 0. -1.
        -11    1    4    4    0    0 -0.17436113093E+01 -0.45963587418E+01 -0.28160199648E+02  0.28586072458E+02  0.51100000000E-03 0.  1.
         12    1    4    4    0    0  0.14097486738E+01 -0.51000463620E+01 -0.56392347385E+01  0.77329704935E+01  0.00000000000E+00 0. -1.
</event>
<event>
 8    1  0.1280925E-006  0.9118800E+02  0.7816164E-02  0.1184000E+00
        -11   -1    0    0    0    0  0.00000000000E+00  0.00000000000E+00  0.45593999997E+02  0.45594000000E+02  0.51100000000E-03 0.  1.
         11   -1    0    0    0    0 -0.00000000000E+00 -0.00000000000E+00 -0.45593999997E+02  0.45594000000E+02  0.51100000000E-03 0. -1.
         23    2    1    2    0    0  0.17763568394E-14 -0.35527136788E-14  0.00000000000E+00  0.91188000000E+02  0.91188000000E+02 0.  0.
    9900012    2    3    3    0    0  0.15738104494E+02 -0.10992418436E+02 -0.31420669528E+02  0.54367086517E+02  0.40000005333E+02 0.  0.
        -12    1    3    3    0    0 -0.15738104494E+02  0.10992418436E+02  0.31420669528E+02  0.36820913483E+02  0.00000000000E+00 0.  1.
         11    1    4    4    0    0 -0.88158161150E+01  0.20452708769E+01 -0.89868822083E+01  0.12754050291E+02  0.51100000000E-03 0.  1.
        -11    1    4    4    0    0  0.10442323592E+01  0.26274003791E+01 -0.10623093558E+02  0.10992896387E+02  0.51100000000E-03 0. -1.
        -12    1    4    4    0    0  0.23509688250E+02 -0.15665089692E+02 -0.11810693761E+02  0.30620139840E+02  0.00000000000E+00 0.  1.
</event>
<event>
 8    1  0.1280925E-006  0.9118800E+02  0.7816164E-02  0.1184000E+00
        -11   -1    0    0    0    0  0.00000000000E+00  0.00000000000E+00  0.45593999997E+02  0.45594000000E+02  0.51100000000E-03 0.  1.
         11   -1    0    0    0    0 -0.00000000000E+00 -0.00000000000E+00 -0.45593999997E+02  0.45594000000E+02  0.51100000000E-03 0. -1.
         23    2    1    2    0    0 -0.71054273576E-14 -0.53290705182E-14  0.00000000000E+00  0.91188000000E+02  0.91188000000E+02 0.  0.
    9900012    2    3    3    0    0 -0.32596370972E+02 -0.14986692782E+02 -0.82865256619E+01  0.54366934445E+02  0.39999658653E+02 0.  0.
        -12    1    3    3    0    0  0.32596370972E+02  0.14986692782E+02  0.82865256619E+01  0.36821065555E+02  0.00000000000E+00 0.  1.
         11    1    4    4    0    0 -0.28676713483E+02 -0.12111421758E+02 -0.12714915406E+02  0.33626024256E+02  0.51100000000E-03 0. -1.
        -11    1    4    4    0    0  0.21658918432E+01  0.64234204231E+01 -0.29590861167E+01  0.73964591742E+01  0.51100000000E-03 0.  1.
        -12    1    4    4    0    0 -0.60855493315E+01 -0.92986914464E+01  0.73874758612E+01  0.13344451015E+02  0.00000000000E+00 0.  1.
</event>
<event>
 8    1  0.1280925E-006  0.9118800E+02  0.7816164E-02  0.1184000E+00
        -11   -1    0    0    0    0  0.00000000000E+00  0.00000000000E+00  0.45593999997E+02  0.45594000000E+02  0.51100000000E-03 0. -1.
         11   -1    0    0    0    0 -0.00000000000E+00 -0.00000000000E+00 -0.45593999997E+02  0.45594000000E+02  0.51100000000E-03 0.  1.
         23    2    1    2    0    0 -0.88817841970E-15  0.00000000000E+00  0.00000000000E+00  0.91188000000E+02  0.91188000000E+02 0.  0.
    9900012    2    3    3    0    0  0.55975057085E+01 -0.30849073283E+02  0.19307589843E+02  0.54367076355E+02  0.39999982166E+02 0.  0.
        -12    1    3    3    0    0 -0.55975057085E+01  0.30849073283E+02 -0.19307589843E+02  0.36820923645E+02  0.00000000000E+00 0.  1.
         11    1    4    4    0    0  0.66992569569E+01 -0.11397463816E+02 -0.85363630494E+01  0.15736953948E+02  0.51100000000E-03 0. -1.
        -11    1    4    4    0    0  0.34437945727E+01  0.21971301746E+01  0.76774314505E+01  0.86965542602E+01  0.51100000000E-03 0.  1.
         12    1    4    4    0    0 -0.45455458211E+01 -0.21648739642E+02  0.20166521442E+02  0.29933568146E+02  0.00000000000E+00 0. -1.
</event>
<event>
 8    1  0.1280925E-006  0.9118800E+02  0.7816164E-02  0.1184000E+00
        -11   -1    0    0    0    0  0.00000000000E+00  0.00000000000E+00  0.45593999997E+02  0.45594000000E+02  0.51100000000E-03 0.  1.
         11   -1    0    0    0    0 -0.00000000000E+00 -0.00000000000E+00 -0.45593999997E+02  0.45594000000E+02  0.51100000000E-03 0. -1.
         23    2    1    2    0    0  0.88817841970E-15  0.00000000000E+00  0.00000000000E+00  0.91188000000E+02  0.91188000000E+02 0.  0.
    9900012    2    3    3    0    0 -0.50010111449E+01 -0.17485691861E+02 -0.32015938517E+02  0.54367084049E+02  0.39999999708E+02 0.  0.
        -12    1    3    3    0    0  0.50010111449E+01  0.17485691861E+02  0.32015938517E+02  0.36820915951E+02  0.00000000000E+00 0.  1.
         11    1    4    4    0    0 -0.11652410611E+01 -0.22346381838E+01 -0.18185338100E+02  0.18359137142E+02  0.51100000000E-03 0. -1.
        -11    1    4    4    0    0  0.41439073646E+01  0.47728043139E+01  0.44619626677E+01  0.77369723002E+01  0.51100000000E-03 0.  1.
        -12    1    4    4    0    0 -0.79796774485E+01 -0.20023857991E+02 -0.18292563085E+02  0.28270974607E+02  0.00000000000E+00 0.  1.
</event>
<event>
 8    1  0.1280925E-006  0.9118800E+02  0.7816164E-02  0.1184000E+00
        -11   -1    0    0    0    0  0.00000000000E+00  0.00000000000E+00  0.45593999997E+02  0.45594000000E+02  0.51100000000E-03 0. -1.
         11   -1    0    0    0    0 -0.00000000000E+00 -0.00000000000E+00 -0.45593999997E+02  0.45594000000E+02  0.51100000000E-03 0.  1.
         23    2    1    2    0    0  0.88817841970E-15  0.00000000000E+00  0.00000000000E+00  0.91188000000E+02  0.91188000000E+02 0.  0.
    9900012    2    3    3    0    0 -0.63489293072E+01  0.54352747080E+01  0.35859861662E+02  0.54367071265E+02  0.39999970562E+02 0.  0.
        -12    1    3    3    0    0  0.63489293072E+01 -0.54352747080E+01 -0.35859861662E+02  0.36820928735E+02  0.00000000000E+00 0.  1.
         11    1    4    4    0    0 -0.28183435205E+01  0.16313199503E+01  0.12814045195E+02  0.13221347114E+02  0.51100000000E-03 0. -1.
        -11    1    4    4    0    0 -0.77020197153E+01  0.14709153345E+02  0.15400663087E+01  0.16674894432E+02  0.51100000000E-03 0.  1.
         12    1    4    4    0    0  0.41714339286E+01 -0.10905198588E+02  0.21505750158E+02  0.24470829719E+02  0.00000000000E+00 0. -1.
</event>
<event>
 8    1  0.1280925E-006  0.9118800E+02  0.7816164E-02  0.1184000E+00
        -11   -1    0    0    0    0  0.00000000000E+00  0.00000000000E+00  0.45593999997E+02  0.45594000000E+02  0.51100000000E-03 0.  1.
         11   -1    0    0    0    0 -0.00000000000E+00 -0.00000000000E+00 -0.45593999997E+02  0.45594000000E+02  0.51100000000E-03 0. -1.
         23    2    1    2    0    0 -0.44408920985E-15  0.88817841970E-15  0.00000000000E+00  0.91188000000E+02  0.91188000000E+02 0.  0.
    9900012    2    3    3    0    0 -0.15462190608E+01 -0.60587665764E+01  0.36286134660E+02  0.54367041099E+02  0.39999901794E+02 0.  0.
         12    1    3    3    0    0  0.15462190608E+01  0.60587665764E+01 -0.36286134660E+02  0.36820958901E+02  0.00000000000E+00 0. -1.
         11    1    4    4    0    0  0.45778695391E+01 -0.10972028019E+02 -0.15698666076E+01  0.11991946039E+02  0.51100000000E-03 0. -1.
        -11    1    4    4    0    0  0.28096167176E+01 -0.49598945922E+01  0.12381188603E+02  0.13630419361E+02  0.51100000000E-03 0.  1.
        -12    1    4    4    0    0 -0.89337053174E+01  0.98731560351E+01  0.25474812664E+02  0.28744675699E+02  0.00000000000E+00 0.  1.
</event>
<event>
 8    1  0.1280925E-006  0.9118800E+02  0.7816164E-02  0.1184000E+00
        -11   -1    0    0    0    0  0.00000000000E+00  0.00000000000E+00  0.45593999997E+02  0.45594000000E+02  0.51100000000E-03 0. -1.
         11   -1    0    0    0    0 -0.00000000000E+00 -0.00000000000E+00 -0.45593999997E+02  0.45594000000E+02  0.51100000000E-03 0.  1.
         23    2    1    2    0    0  0.00000000000E+00  0.00000000000E+00 -0.44408920985E-15  0.91188000000E+02  0.91188000000E+02 0.  0.
    9900012    2    3    3    0    0 -0.25414628775E+02  0.26435658959E+02 -0.33216723058E+01  0.54367069440E+02  0.39999966403E+02 0.  0.
        -12    1    3    3    0    0  0.25414628775E+02 -0.26435658959E+02  0.33216723058E+01  0.36820930560E+02  0.00000000000E+00 0.  1.
         11    1    4    4    0    0  0.67625726676E+01  0.14923419143E+02 -0.97399750604E+01  0.19060638563E+02  0.51100000000E-03 0.  1.
        -11    1    4    4    0    0 -0.20343253441E+02  0.10299986744E+02  0.47872324811E+01  0.23299254979E+02  0.51100000000E-03 0. -1.
        -12    1    4    4    0    0 -0.11833948001E+02  0.12122530720E+01  0.16310702735E+01  0.12007175898E+02  0.00000000000E+00 0.  1.
</event>
<event>
 8    1  0.1280925E-006  0.9118800E+02  0.7816164E-02  0.1184000E+00
        -11   -1    0    0    0    0  0.00000000000E+00  0.00000000000E+00  0.45593999997E+02  0.45594000000E+02  0.51100000000E-03 0. -1.
         11   -1    0    0    0    0 -0.00000000000E+00 -0.00000000000E+00 -0.45593999997E+02  0.45594000000E+02  0.51100000000E-03 0.  1.
         23    2    1    2    0    0 -0.15543122345E-14 -0.44408920985E-15  0.00000000000E+00  0.91188000000E+02  0.91188000000E+02 0.  0.
    9900012    2    3    3    0    0 -0.16807942304E+01  0.38968511982E+01  0.36575520206E+02  0.54367092939E+02  0.40000019972E+02 0.  0.
        -12    1    3    3    0    0  0.16807942304E+01 -0.38968511982E+01 -0.36575520206E+02  0.36820907061E+02  0.00000000000E+00 0.  1.
         11    1    4    4    0    0 -0.11851937116E+02 -0.41383111390E+01  0.33513802202E+02  0.35787832720E+02  0.51100000000E-03 0. -1.
        -11    1    4    4    0    0  0.87280950424E+01  0.61266492623E+01  0.78398696877E+01  0.13235521570E+02  0.51100000000E-03 0.  1.
         12    1    4    4    0    0  0.14430478433E+01  0.19085130748E+01 -0.47781516838E+01  0.53437386489E+01  0.00000000000E+00 0. -1.
</event>
<event>
 8    1  0.1280925E-006  0.9118800E+02  0.7816164E-02  0.1184000E+00
        -11   -1    0    0    0    0  0.00000000000E+00  0.00000000000E+00  0.45593999997E+02  0.45594000000E+02  0.51100000000E-03 0.  1.
         11   -1    0    0    0    0 -0.00000000000E+00 -0.00000000000E+00 -0.45593999997E+02  0.45594000000E+02  0.51100000000E-03 0. -1.
         23    2    1    2    0    0 -0.35527136788E-14  0.00000000000E+00  0.00000000000E+00  0.91188000000E+02  0.91188000000E+02 0.  0.
    9900012    2    3    3    0    0  0.22119338382E+02  0.15677106967E+02 -0.24914670768E+02  0.54367114177E+02  0.40000068389E+02 0.  0.
        -12    1    3    3    0    0 -0.22119338382E+02 -0.15677106967E+02  0.24914670768E+02  0.36820885823E+02  0.00000000000E+00 0.  1.
         11    1    4    4    0    0  0.21342253662E+02  0.18966511925E+02 -0.32065024322E+02  0.42934673062E+02  0.51100000000E-03 0. -1.
        -11    1    4    4    0    0 -0.34692076665E+01 -0.15712461064E+01  0.52199196007E+01  0.64615615031E+01  0.51100000000E-03 0.  1.
         12    1    4    4    0    0  0.42462923864E+01 -0.17181588510E+01  0.19304339527E+01  0.49708796116E+01  0.00000000000E+00 0. -1.
</event>
<event>
 8    1  0.1280925E-006  0.9118800E+02  0.7816164E-02  0.1184000E+00
        -11   -1    0    0    0    0  0.00000000000E+00  0.00000000000E+00  0.45593999997E+02  0.45594000000E+02  0.51100000000E-03 0. -1.
         11   -1    0    0    0    0 -0.00000000000E+00 -0.00000000000E+00 -0.45593999997E+02  0.45594000000E+02  0.51100000000E-03 0.  1.
         23    2    1    2    0    0  0.35527136788E-14  0.00000000000E+00  0.00000000000E+00  0.91188000000E+02  0.91188000000E+02 0.  0.
    9900012    2    3    3    0    0  0.16360363877E+02 -0.11024596023E+02  0.31089742420E+02  0.54367145754E+02  0.40000140376E+02 0.  0.
        -12    1    3    3    0    0 -0.16360363877E+02  0.11024596023E+02 -0.31089742420E+02  0.36820854246E+02  0.00000000000E+00 0.  1.
         11    1    4    4    0    0  0.36280495415E+01 -0.86856514890E+01  0.59313591788E+01  0.11125839619E+02  0.51100000000E-03 0. -1.
        -11    1    4    4    0    0 -0.87151381384E+01 -0.58621793708E+01  0.17085165579E+02  0.20055464664E+02  0.51100000000E-03 0.  1.
        -12    1    4    4    0    0  0.21447452474E+02  0.35232348368E+01  0.80732176615E+01  0.23185841471E+02  0.00000000000E+00 0.  1.
</event>
<event>
 8    1  0.1280925E-006  0.9118800E+02  0.7816164E-02  0.1184000E+00
        -11   -1    0    0    0    0  0.00000000000E+00  0.00000000000E+00  0.45593999997E+02  0.45594000000E+02  0.51100000000E-03 0. -1.
         11   -1    0    0    0    0 -0.00000000000E+00 -0.00000000000E+00 -0.45593999997E+02  0.45594000000E+02  0.51100000000E-03 0.  1.
         23    2    1    2    0    0  0.35527136788E-14  0.10685896612E-14  0.71054273576E-14  0.91188000000E+02  0.91188000000E+02 0.  0.
    9900012    2    3    3    0    0  0.17782826244E+02  0.10627159883E+00  0.32241896656E+02  0.54367080635E+02  0.39999991923E+02 0.  0.
        -12    1    3    3    0    0 -0.17782826244E+02 -0.10627159883E+00 -0.32241896656E+02  0.36820919365E+02  0.00000000000E+00 0.  1.
         11    1    4    4    0    0  0.10061803253E+02 -0.15371543441E+02  0.18811861910E+02  0.26294683517E+02  0.51100000000E-03 0.  1.
        -11    1    4    4    0    0 -0.54960997538E+01  0.22670663158E+01  0.37160154217E+01  0.70110964234E+01  0.51100000000E-03 0. -1.
        -12    1    4    4    0    0  0.13217122746E+02  0.13210748724E+02  0.97140193243E+01  0.21061300695E+02  0.00000000000E+00 0.  1.
</event>
<event>
 8    1  0.1280925E-006  0.9118800E+02  0.7816164E-02  0.1184000E+00
        -11   -1    0    0    0    0  0.00000000000E+00  0.00000000000E+00  0.45593999997E+02  0.45594000000E+02  0.51100000000E-03 0.  1.
         11   -1    0    0    0    0 -0.00000000000E+00 -0.00000000000E+00 -0.45593999997E+02  0.45594000000E+02  0.51100000000E-03 0. -1.
         23    2    1    2    0    0  0.00000000000E+00  0.00000000000E+00  0.17763568394E-14  0.91188000000E+02  0.91188000000E+02 0.  0.
    9900012    2    3    3    0    0 -0.10185470065E+02  0.34685529719E+02 -0.69965504898E+01  0.54367061784E+02  0.39999948948E+02 0.  0.
         12    1    3    3    0    0  0.10185470065E+02 -0.34685529719E+02  0.69965504898E+01  0.36820938216E+02  0.00000000000E+00 0. -1.
         11    1    4    4    0    0 -0.20175595243E+01  0.31485321037E+02 -0.32585695254E+01  0.31717727896E+02  0.51100000000E-03 0. -1.
        -11    1    4    4    0    0 -0.15160247636E+01 -0.14238299509E+01  0.80676567893E+01  0.83314289977E+01  0.51100000000E-03 0.  1.
         12    1    4    4    0    0 -0.66518857774E+01  0.46240386331E+01 -0.11805637754E+02  0.14317904890E+02  0.00000000000E+00 0. -1.
</event>
<event>
 8    1  0.1280925E-006  0.9118800E+02  0.7816164E-02  0.1184000E+00
        -11   -1    0    0    0    0  0.00000000000E+00  0.00000000000E+00  0.45593999997E+02  0.45594000000E+02  0.51100000000E-03 0.  1.
         11   -1    0    0    0    0 -0.00000000000E+00 -0.00000000000E+00 -0.45593999997E+02  0.45594000000E+02  0.51100000000E-03 0. -1.
         23    2    1    2    0    0  0.00000000000E+00  0.00000000000E+00  0.00000000000E+00  0.91188000000E+02  0.91188000000E+02 0.  0.
    9900012    2    3    3    0    0 -0.77847886782E+01  0.31346363435E+02 -0.17679975134E+02  0.54367096208E+02  0.40000027425E+02 0.  0.
        -12    1    3    3    0    0  0.77847886782E+01 -0.31346363435E+02  0.17679975134E+02  0.36820903792E+02  0.00000000000E+00 0.  1.
         11    1    4    4    0    0 -0.13740480597E+02  0.13468616981E+02 -0.58815417803E+01  0.20119567202E+02  0.51100000000E-03 0. -1.
        -11    1    4    4    0    0  0.86292310555E+01  0.23651935547E+02 -0.65913591130E+01  0.26025443300E+02  0.51100000000E-03 0.  1.
         12    1    4    4    0    0 -0.26735391367E+01 -0.57741890941E+01 -0.52070742402E+01  0.82220857058E+01  0.00000000000E+00 0. -1.
</event>
<event>
 8    1  0.1280925E-006  0.9118800E+02  0.7816164E-02  0.1184000E+00
        -11   -1    0    0    0    0  0.00000000000E+00  0.00000000000E+00  0.45593999997E+02  0.45594000000E+02  0.51100000000E-03 0. -1.
         11   -1    0    0    0    0 -0.00000000000E+00 -0.00000000000E+00 -0.45593999997E+02  0.45594000000E+02  0.51100000000E-03 0.  1.
         23    2    1    2    0    0  0.00000000000E+00  0.00000000000E+00  0.00000000000E+00  0.91188000000E+02  0.91188000000E+02 0.  0.
    9900012    2    3    3    0    0 -0.15270130220E+02  0.31853672768E+02  0.10390140926E+02  0.54366968317E+02  0.39999735871E+02 0.  0.
        -12    1    3    3    0    0  0.15270130220E+02 -0.31853672768E+02 -0.10390140926E+02  0.36821031683E+02  0.00000000000E+00 0.  1.
         11    1    4    4    0    0 -0.33630611901E+01 -0.65427246139E+00  0.32824038488E+01  0.47447263683E+01  0.51100000000E-03 0. -1.
        -11    1    4    4    0    0  0.11881671793E+02  0.16849771911E+02  0.24138344961E+01  0.20758505132E+02  0.51100000000E-03 0.  1.
        -12    1    4    4    0    0 -0.23788740823E+02  0.15658173318E+02  0.46939025813E+01  0.28863736817E+02  0.00000000000E+00 0.  1.
</event>
<event>
 8    1  0.1280925E-006  0.9118800E+02  0.7816164E-02  0.1184000E+00
        -11   -1    0    0    0    0  0.00000000000E+00  0.00000000000E+00  0.45593999997E+02  0.45594000000E+02  0.51100000000E-03 0. -1.
         11   -1    0    0    0    0 -0.00000000000E+00 -0.00000000000E+00 -0.45593999997E+02  0.45594000000E+02  0.51100000000E-03 0.  1.
         23    2    1    2    0    0 -0.17763568394E-14  0.35527136788E-14  0.00000000000E+00  0.91188000000E+02  0.91188000000E+02 0.  0.
    9900012    2    3    3    0    0 -0.14157180594E+02 -0.24794107854E+02  0.23250934337E+02  0.54367088900E+02  0.40000010765E+02 0.  0.
        -12    1    3    3    0    0  0.14157180594E+02  0.24794107854E+02 -0.23250934337E+02  0.36820911100E+02  0.00000000000E+00 0.  1.
         11    1    4    4    0    0 -0.17735336167E+02  0.23660586933E+01  0.10142180886E+02  0.20567066297E+02  0.51100000000E-03 0. -1.
        -11    1    4    4    0    0  0.80094666960E+01 -0.77877595227E+01  0.33659485649E+01  0.11667491810E+02  0.51100000000E-03 0.  1.
         12    1    4    4    0    0 -0.44313111233E+01 -0.19372407025E+02  0.97428048863E+01  0.22132530792E+02  0.00000000000E+00 0. -1.
</event>
<event>
 8    1  0.1280925E-006  0.9118800E+02  0.7816164E-02  0.1184000E+00
        -11   -1    0    0    0    0  0.00000000000E+00  0.00000000000E+00  0.45593999997E+02  0.45594000000E+02  0.51100000000E-03 0.  1.
         11   -1    0    0    0    0 -0.00000000000E+00 -0.00000000000E+00 -0.45593999997E+02  0.45594000000E+02  0.51100000000E-03 0. -1.
         23    2    1    2    0    0 -0.44408920985E-15  0.00000000000E+00  0.00000000000E+00  0.91188000000E+02  0.91188000000E+02 0.  0.
    9900012    2    3    3    0    0  0.11652826990E+01 -0.17860184583E+02  0.32178190157E+02  0.54367082048E+02  0.39999995144E+02 0.  0.
         12    1    3    3    0    0 -0.11652826990E+01  0.17860184583E+02 -0.32178190157E+02  0.36820917952E+02  0.00000000000E+00 0. -1.
         11    1    4    4    0    0  0.73165353739E+01 -0.43888762265E+01  0.67398149501E+01  0.10872857501E+02  0.51100000000E-03 0. -1.
        -11    1    4    4    0    0  0.24164079801E+01 -0.12055059573E+02  0.30885896224E+02  0.33243075589E+02  0.51100000000E-03 0.  1.
        -12    1    4    4    0    0 -0.85676606550E+01 -0.14162487833E+01 -0.54475210173E+01  0.10251148957E+02  0.00000000000E+00 0.  1.
</event>
<event>
 8    1  0.1280925E-006  0.9118800E+02  0.7816164E-02  0.1184000E+00
        -11   -1    0    0    0    0  0.00000000000E+00  0.00000000000E+00  0.45593999997E+02  0.45594000000E+02  0.51100000000E-03 0. -1.
         11   -1    0    0    0    0 -0.00000000000E+00 -0.00000000000E+00 -0.45593999997E+02  0.45594000000E+02  0.51100000000E-03 0.  1.
         23    2    1    2    0    0  0.22204460493E-15 -0.13322676296E-14  0.00000000000E+00  0.91188000000E+02  0.91188000000E+02 0.  0.
    9900012    2    3    3    0    0 -0.13861846117E+01  0.26213180325E+01  0.36701315856E+02  0.54367090159E+02  0.40000013634E+02 0.  0.
        -12    1    3    3    0    0  0.13861846117E+01 -0.26213180325E+01 -0.36701315856E+02  0.36820909841E+02  0.00000000000E+00 0.  1.
         11    1    4    4    0    0 -0.10193752752E+02  0.31105777968E+01  0.10431497978E+02  0.14913230359E+02  0.51100000000E-03 0. -1.
        -11    1    4    4    0    0  0.43799140415E+01  0.12772738369E+02  0.58723652411E+01  0.14724509032E+02  0.51100000000E-03 0.  1.
        -12    1    4    4    0    0  0.44276540990E+01 -0.13261998134E+02  0.20397452637E+02  0.24729350767E+02  0.00000000000E+00 0.  1.
</event>
<event>
 8    1  0.1280925E-006  0.9118800E+02  0.7816164E-02  0.1184000E+00
        -11   -1    0    0    0    0  0.00000000000E+00  0.00000000000E+00  0.45593999997E+02  0.45594000000E+02  0.51100000000E-03 0.  1.
         11   -1    0    0    0    0 -0.00000000000E+00 -0.00000000000E+00 -0.45593999997E+02  0.45594000000E+02  0.51100000000E-03 0. -1.
         23    2    1    2    0    0  0.00000000000E+00  0.88817841970E-15  0.00000000000E+00  0.91188000000E+02  0.91188000000E+02 0.  0.
    9900012    2    3    3    0    0 -0.18567140712E+02  0.66323794033E+00  0.31789943608E+02  0.54367094071E+02  0.40000022554E+02 0.  0.
         12    1    3    3    0    0  0.18567140712E+02 -0.66323794033E+00 -0.31789943608E+02  0.36820905929E+02  0.00000000000E+00 0. -1.
         11    1    4    4    0    0 -0.12670665085E+01  0.13890540637E+02  0.21463638190E+02  0.25597662811E+02  0.51100000000E-03 0. -1.
        -11    1    4    4    0    0 -0.14812472005E+02 -0.69897155279E+01 -0.86482569045E-01  0.16379039336E+02  0.51100000000E-03 0.  1.
        -12    1    4    4    0    0 -0.24876021982E+01 -0.62375871693E+01  0.10412787987E+02  0.12390391925E+02  0.00000000000E+00 0.  1.
</event>
<event>
 8    1  0.1280925E-006  0.9118800E+02  0.7816164E-02  0.1184000E+00
        -11   -1    0    0    0    0  0.00000000000E+00  0.00000000000E+00  0.45593999997E+02  0.45594000000E+02  0.51100000000E-03 0.  1.
         11   -1    0    0    0    0 -0.00000000000E+00 -0.00000000000E+00 -0.45593999997E+02  0.45594000000E+02  0.51100000000E-03 0. -1.
         23    2    1    2    0    0  0.00000000000E+00 -0.35527136788E-14  0.00000000000E+00  0.91188000000E+02  0.91188000000E+02 0.  0.
    9900012    2    3    3    0    0 -0.24752216967E+02  0.21427323830E+02 -0.16851887617E+02  0.54366965692E+02  0.39999729886E+02 0.  0.
        -12    1    3    3    0    0  0.24752216967E+02 -0.21427323830E+02  0.16851887617E+02  0.36821034308E+02  0.00000000000E+00 0.  1.
         11    1    4    4    0    0 -0.16090802601E+02 -0.53814062289E+01 -0.79410964880E+01  0.18733245181E+02  0.51100000000E-03 0. -1.
        -11    1    4    4    0    0  0.14558769890E+01 -0.13599967529E+01  0.28484509274E+01  0.34760382509E+01  0.51100000000E-03 0.  1.
        -12    1    4    4    0    0 -0.10117291355E+02  0.28168726812E+02 -0.11759242056E+02  0.32157682259E+02  0.00000000000E+00 0.  1.
</event>
<event>
 8    1  0.1280925E-006  0.9118800E+02  0.7816164E-02  0.1184000E+00
        -11   -1    0    0    0    0  0.00000000000E+00  0.00000000000E+00  0.45593999997E+02  0.45594000000E+02  0.51100000000E-03 0. -1.
         11   -1    0    0    0    0 -0.00000000000E+00 -0.00000000000E+00 -0.45593999997E+02  0.45594000000E+02  0.51100000000E-03 0.  1.
         23    2    1    2    0    0 -0.17763568394E-14  0.13322676296E-14 -0.71054273576E-14  0.91188000000E+02  0.91188000000E+02 0.  0.
    9900012    2    3    3    0    0  0.10525776813E+02  0.18046173500E+01 -0.35238174882E+02  0.54367114754E+02  0.40000069704E+02 0.  0.
         12    1    3    3    0    0 -0.10525776813E+02 -0.18046173500E+01  0.35238174882E+02  0.36820885246E+02  0.00000000000E+00 0. -1.
         11    1    4    4    0    0 -0.33468004225E+01 -0.47274717353E+01  0.10198946513E+01  0.58813474168E+01  0.51100000000E-03 0. -1.
        -11    1    4    4    0    0 -0.18551426432E+01 -0.62197077499E+01 -0.23897799417E+02  0.24763504113E+02  0.51100000000E-03 0.  1.
         12    1    4    4    0    0  0.15727719879E+02  0.12751796835E+02 -0.12360270117E+02  0.23722263224E+02  0.00000000000E+00 0. -1.
</event>
<event>
 8    1  0.1280925E-006  0.9118800E+02  0.7816164E-02  0.1184000E+00
        -11   -1    0    0    0    0  0.00000000000E+00  0.00000000000E+00  0.45593999997E+02  0.45594000000E+02  0.51100000000E-03 0. -1.
         11   -1    0    0    0    0 -0.00000000000E+00 -0.00000000000E+00 -0.45593999997E+02  0.45594000000E+02  0.51100000000E-03 0.  1.
         23    2    1    2    0    0  0.00000000000E+00 -0.26645352591E-14 -0.88817841970E-15  0.91188000000E+02  0.91188000000E+02 0.  0.
    9900012    2    3    3    0    0 -0.35441017175E+02  0.61820854293E+01  0.78419186810E+01  0.54367087909E+02  0.40000008505E+02 0.  0.
        -12    1    3    3    0    0  0.35441017175E+02 -0.61820854293E+01 -0.78419186810E+01  0.36820912091E+02  0.00000000000E+00 0.  1.
         11    1    4    4    0    0 -0.36735452633E+02  0.15554703829E+02  0.97763264429E+01  0.41073335028E+02  0.51100000000E-03 0. -1.
        -11    1    4    4    0    0 -0.52090930800E+00  0.72945724152E+00  0.20860907658E+01  0.22705130078E+01  0.51100000000E-03 0.  1.
        -12    1    4    4    0    0  0.18153447667E+01 -0.10102075641E+02 -0.40204985277E+01  0.11023239872E+02  0.00000000000E+00 0.  1.
</event>
<event>
 8    1  0.1280925E-006  0.9118800E+02  0.7816164E-02  0.1184000E+00
        -11   -1    0    0    0    0  0.00000000000E+00  0.00000000000E+00  0.45593999997E+02  0.45594000000E+02  0.51100000000E-03 0.  1.
         11   -1    0    0    0    0 -0.00000000000E+00 -0.00000000000E+00 -0.45593999997E+02  0.45594000000E+02  0.51100000000E-03 0. -1.
         23    2    1    2    0    0  0.00000000000E+00  0.00000000000E+00  0.00000000000E+00  0.91188000000E+02  0.91188000000E+02 0.  0.
    9900012    2    3    3    0    0  0.10746976401E+02 -0.13554101337E+02  0.32504885305E+02  0.54367099230E+02  0.40000034314E+02 0.  0.
         12    1    3    3    0    0 -0.10746976401E+02  0.13554101337E+02 -0.32504885305E+02  0.36820900770E+02  0.00000000000E+00 0. -1.
         11    1    4    4    0    0  0.14771670989E+02 -0.77307136965E+00  0.25044736870E+02  0.29086745234E+02  0.51100000000E-03 0.  1.
        -11    1    4    4    0    0 -0.18023789145E+00 -0.15224360630E+02 -0.14286812339E+01  0.15292310899E+02  0.51100000000E-03 0. -1.
         12    1    4    4    0    0 -0.38444566969E+01  0.24433306627E+01  0.88888296693E+01  0.99880430972E+01  0.00000000000E+00 0. -1.
</event>
<event>
 8    1  0.1280925E-006  0.9118800E+02  0.7816164E-02  0.1184000E+00
        -11   -1    0    0    0    0  0.00000000000E+00  0.00000000000E+00  0.45593999997E+02  0.45594000000E+02  0.51100000000E-03 0. -1.
         11   -1    0    0    0    0 -0.00000000000E+00 -0.00000000000E+00 -0.45593999997E+02  0.45594000000E+02  0.51100000000E-03 0.  1.
         23    2    1    2    0    0  0.00000000000E+00  0.00000000000E+00  0.00000000000E+00  0.91188000000E+02  0.91188000000E+02 0.  0.
    9900012    2    3    3    0    0  0.23741227266E+01 -0.22168649251E+02  0.29303431837E+02  0.54367128395E+02  0.40000100802E+02 0.  0.
        -12    1    3    3    0    0 -0.23741227266E+01  0.22168649251E+02 -0.29303431837E+02  0.36820871605E+02  0.00000000000E+00 0.  1.
         11    1    4    4    0    0 -0.17924753474E+00 -0.28158159703E+02  0.31370946846E+02  0.42155075540E+02  0.51100000000E-03 0. -1.
        -11    1    4    4    0    0 -0.26970309359E-01 -0.24006447400E+00 -0.48945895183E+01  0.49005474350E+01  0.51100000000E-03 0.  1.
         12    1    4    4    0    0  0.25803405707E+01  0.62295749258E+01  0.28270745091E+01  0.73115054194E+01  0.00000000000E+00 0. -1.
</event>
<event>
 8    1  0.1280925E-006  0.9118800E+02  0.7816164E-02  0.1184000E+00
        -11   -1    0    0    0    0  0.00000000000E+00  0.00000000000E+00  0.45593999997E+02  0.45594000000E+02  0.51100000000E-03 0.  1.
         11   -1    0    0    0    0 -0.00000000000E+00 -0.00000000000E+00 -0.45593999997E+02  0.45594000000E+02  0.51100000000E-03 0. -1.
         23    2    1    2    0    0  0.35527136788E-14  0.00000000000E+00  0.35527136788E-14  0.91188000000E+02  0.91188000000E+02 0.  0.
    9900012    2    3    3    0    0  0.19386760296E+02 -0.24040978575E+02  0.20049064775E+02  0.54367080349E+02  0.39999991271E+02 0.  0.
         12    1    3    3    0    0 -0.19386760296E+02  0.24040978575E+02 -0.20049064775E+02  0.36820919651E+02  0.00000000000E+00 0. -1.
         11    1    4    4    0    0 -0.48091263197E+01 -0.33446059163E+01  0.95013027069E+01  0.11161937022E+02  0.51100000000E-03 0. -1.
        -11    1    4    4    0    0  0.27899991321E+02 -0.16304141723E+02  0.13283374328E+01  0.32341908318E+02  0.51100000000E-03 0.  1.
        -12    1    4    4    0    0 -0.37041047054E+01 -0.43922309355E+01  0.92194246352E+01  0.10863235009E+02  0.00000000000E+00 0.  1.
</event>
<event>
 8    1  0.1280925E-006  0.9118800E+02  0.7816164E-02  0.1184000E+00
        -11   -1    0    0    0    0  0.00000000000E+00  0.00000000000E+00  0.45593999997E+02  0.45594000000E+02  0.51100000000E-03 0.  1.
         11   -1    0    0    0    0 -0.00000000000E+00 -0.00000000000E+00 -0.45593999997E+02  0.45594000000E+02  0.51100000000E-03 0. -1.
         23    2    1    2    0    0 -0.17763568394E-14 -0.17763568394E-14  0.00000000000E+00  0.91188000000E+02  0.91188000000E+02 0.  0.
    9900012    2    3    3    0    0  0.11711506161E+02 -0.14692338213E+02 -0.31666318041E+02  0.54367083702E+02  0.39999998916E+02 0.  0.
        -12    1    3    3    0    0 -0.11711506161E+02  0.14692338213E+02  0.31666318041E+02  0.36820916298E+02  0.00000000000E+00 0.  1.
         11    1    4    4    0    0  0.37376918116E+01 -0.22857830152E+02 -0.24294886618E+02  0.33566236837E+02  0.51100000000E-03 0. -1.
        -11    1    4    4    0    0 -0.98829236854E+00  0.91968851238E+01 -0.72932344535E+01  0.11779248144E+02  0.51100000000E-03 0.  1.
        -12    1    4    4    0    0  0.89621067182E+01 -0.10313931846E+01 -0.78196969667E-01  0.90215987217E+01  0.00000000000E+00 0.  1.
</event>
<event>
 8    1  0.1280925E-006  0.9118800E+02  0.7816164E-02  0.1184000E+00
        -11   -1    0    0    0    0  0.00000000000E+00  0.00000000000E+00  0.45593999997E+02  0.45594000000E+02  0.51100000000E-03 0.  1.
         11   -1    0    0    0    0 -0.00000000000E+00 -0.00000000000E+00 -0.45593999997E+02  0.45594000000E+02  0.51100000000E-03 0. -1.
         23    2    1    2    0    0 -0.77715611724E-15  0.00000000000E+00  0.00000000000E+00  0.91188000000E+02  0.91188000000E+02 0.  0.
    9900012    2    3    3    0    0  0.80950286799E+00  0.21238929713E+02 -0.30067158387E+02  0.54367062427E+02  0.39999950415E+02 0.  0.
        -12    1    3    3    0    0 -0.80950286799E+00 -0.21238929713E+02  0.30067158387E+02  0.36820937573E+02  0.00000000000E+00 0.  1.
         11    1    4    4    0    0 -0.26656313281E+01  0.68620471322E+01 -0.18942832916E+02  0.20322996835E+02  0.51100000000E-03 0. -1.
        -11    1    4    4    0    0 -0.11499503011E+02  0.32756798037E+01 -0.96132409597E+01  0.15342198333E+02  0.51100000000E-03 0.  1.
         12    1    4    4    0    0  0.14974637207E+02  0.11101202777E+02 -0.15110845114E+01  0.18701867259E+02  0.00000000000E+00 0. -1.
</event>
<event>
 8    1  0.1280925E-006  0.9118800E+02  0.7816164E-02  0.1184000E+00
        -11   -1    0    0    0    0  0.00000000000E+00  0.00000000000E+00  0.45593999997E+02  0.45594000000E+02  0.51100000000E-03 0.  1.
         11   -1    0    0    0    0 -0.00000000000E+00 -0.00000000000E+00 -0.45593999997E+02  0.45594000000E+02  0.51100000000E-03 0. -1.
         23    2    1    2    0    0  0.17763568394E-14  0.00000000000E+00 -0.35527136788E-14  0.91188000000E+02  0.91188000000E+02 0.  0.
    9900012    2    3    3    0    0 -0.14222875632E+02  0.23798796116E+02  0.24230269873E+02  0.54367097432E+02  0.40000030216E+02 0.  0.
         12    1    3    3    0    0  0.14222875632E+02 -0.23798796116E+02 -0.24230269873E+02  0.36820902568E+02  0.00000000000E+00 0. -1.
         11    1    4    4    0    0 -0.21691201738E+01  0.12783350892E+02  0.20908318319E+02  0.24602376258E+02  0.51100000000E-03 0.  1.
        -11    1    4    4    0    0 -0.14708660479E+02 -0.28399375325E+01  0.44083859384E+01  0.15615498875E+02  0.51100000000E-03 0. -1.
         12    1    4    4    0    0  0.26549050205E+01  0.13855382756E+02 -0.10864343848E+01  0.14149222299E+02  0.00000000000E+00 0. -1.
</event>
<event>
 8    1  0.1280925E-006  0.9118800E+02  0.7816164E-02  0.1184000E+00
        -11   -1    0    0    0    0  0.00000000000E+00  0.00000000000E+00  0.45593999997E+02  0.45594000000E+02  0.51100000000E-03 0.  1.
         11   -1    0    0    0    0 -0.00000000000E+00 -0.00000000000E+00 -0.45593999997E+02  0.45594000000E+02  0.51100000000E-03 0. -1.
         23    2    1    2    0    0  0.44408920985E-15  0.00000000000E+00  0.35527136788E-14  0.91188000000E+02  0.91188000000E+02 0.  0.
    9900012    2    3    3    0    0 -0.22014645640E+01  0.23636657665E+02 -0.28146750436E+02  0.54367114732E+02  0.40000069655E+02 0.  0.
        -12    1    3    3    0    0  0.22014645640E+01 -0.23636657665E+02  0.28146750436E+02  0.36820885268E+02  0.00000000000E+00 0.  1.
         11    1    4    4    0    0  0.37267680003E+01  0.14250795449E+02 -0.24867793471E+01  0.14938475238E+02  0.51100000000E-03 0. -1.
        -11    1    4    4    0    0  0.27663342671E+01 -0.75479920483E+01 -0.74399559229E+00  0.80733090453E+01  0.51100000000E-03 0.  1.
         12    1    4    4    0    0 -0.86945668315E+01  0.16933854264E+02 -0.24915975496E+02  0.31355330449E+02  0.00000000000E+00 0. -1.
</event>
<event>
 8    1  0.1280925E-006  0.9118800E+02  0.7816164E-02  0.1184000E+00
        -11   -1    0    0    0    0  0.00000000000E+00  0.00000000000E+00  0.45593999997E+02  0.45594000000E+02  0.51100000000E-03 0. -1.
         11   -1    0    0    0    0 -0.00000000000E+00 -0.00000000000E+00 -0.45593999997E+02  0.45594000000E+02  0.51100000000E-03 0.  1.
         23    2    1    2    0    0  0.17763568394E-14  0.18561541193E-14  0.00000000000E+00  0.91188000000E+02  0.91188000000E+02 0.  0.
    9900012    2    3    3    0    0 -0.13009922421E+02  0.10094582397E-01  0.34445909809E+02  0.54367097161E+02  0.40000029598E+02 0.  0.
        -12    1    3    3    0    0  0.13009922421E+02 -0.10094582397E-01 -0.34445909809E+02  0.36820902839E+02  0.00000000000E+00 0.  1.
         11    1    4    4    0    0  0.29858667808E+01  0.34132380244E+01  0.21921568982E+02  0.22385727175E+02  0.51100000000E-03 0. -1.
        -11    1    4    4    0    0  0.81399730932E+00 -0.10861572023E+02  0.62067120602E+01  0.12536331732E+02  0.51100000000E-03 0.  1.
        -12    1    4    4    0    0 -0.16809786512E+02  0.74584285813E+01  0.63176287667E+01  0.19445038254E+02  0.00000000000E+00 0.  1.
</event>
<event>
 8    1  0.1280925E-006  0.9118800E+02  0.7816164E-02  0.1184000E+00
        -11   -1    0    0    0    0  0.00000000000E+00  0.00000000000E+00  0.45593999997E+02  0.45594000000E+02  0.51100000000E-03 0. -1.
         11   -1    0    0    0    0 -0.00000000000E+00 -0.00000000000E+00 -0.45593999997E+02  0.45594000000E+02  0.51100000000E-03 0.  1.
         23    2    1    2    0    0  0.00000000000E+00  0.00000000000E+00  0.00000000000E+00  0.91188000000E+02  0.91188000000E+02 0.  0.
    9900012    2    3    3    0    0  0.16064134735E+02 -0.68613832241E+00 -0.33124824732E+02  0.54367065410E+02  0.39999957215E+02 0.  0.
         12    1    3    3    0    0 -0.16064134735E+02  0.68613832241E+00  0.33124824732E+02  0.36820934590E+02  0.00000000000E+00 0. -1.
         11    1    4    4    0    0  0.93440248991E+01  0.11014605716E+02 -0.12923439803E+02  0.19381631432E+02  0.51100000000E-03 0. -1.
        -11    1    4    4    0    0  0.10102107932E+02 -0.50850777929E+01 -0.24080209859E+02  0.26603892722E+02  0.51100000000E-03 0.  1.
         12    1    4    4    0    0 -0.33819980962E+01 -0.66156662452E+01  0.38788249299E+01  0.83815412561E+01  0.00000000000E+00 0. -1.
</event>
<event>
 8    1  0.1280925E-006  0.9118800E+02  0.7816164E-02  0.1184000E+00
        -11   -1    0    0    0    0  0.00000000000E+00  0.00000000000E+00  0.45593999997E+02  0.45594000000E+02  0.51100000000E-03 0.  1.
         11   -1    0    0    0    0 -0.00000000000E+00 -0.00000000000E+00 -0.45593999997E+02  0.45594000000E+02  0.51100000000E-03 0. -1.
         23    2    1    2    0    0 -0.44408920985E-15  0.00000000000E+00  0.71054273576E-14  0.91188000000E+02  0.91188000000E+02 0.  0.
    9900012    2    3    3    0    0  0.30165682181E+01 -0.19986438590E+02 -0.30777051162E+02  0.54367023783E+02  0.39999862319E+02 0.  0.
        -12    1    3    3    0    0 -0.30165682181E+01  0.19986438590E+02  0.30777051162E+02  0.36820976217E+02  0.00000000000E+00 0.  1.
         11    1    4    4    0    0  0.24378130178E+01 -0.28825637594E+02 -0.32802286754E+02  0.43736144452E+02  0.51100000000E-03 0. -1.
        -11    1    4    4    0    0  0.10658740604E+01  0.64529582309E+01  0.38484102575E+01  0.75886111519E+01  0.51100000000E-03 0.  1.
        -12    1    4    4    0    0 -0.48711886011E+00  0.23862407735E+01 -0.18231746654E+01  0.30422681791E+01  0.00000000000E+00 0.  1.
</event>
<event>
 8    1  0.1280925E-006  0.9118800E+02  0.7816164E-02  0.1184000E+00
        -11   -1    0    0    0    0  0.00000000000E+00  0.00000000000E+00  0.45593999997E+02  0.45594000000E+02  0.51100000000E-03 0.  1.
         11   -1    0    0    0    0 -0.00000000000E+00 -0.00000000000E+00 -0.45593999997E+02  0.45594000000E+02  0.51100000000E-03 0. -1.
         23    2    1    2    0    0 -0.22204460493E-15  0.00000000000E+00  0.00000000000E+00  0.91188000000E+02  0.91188000000E+02 0.  0.
    9900012    2    3    3    0    0  0.11677373222E+01 -0.35762400919E+02 -0.86871293937E+01  0.54367093615E+02  0.40000021514E+02 0.  0.
         12    1    3    3    0    0 -0.11677373222E+01  0.35762400919E+02  0.86871293937E+01  0.36820906385E+02  0.00000000000E+00 0. -1.
         11    1    4    4    0    0  0.32753013389E+01  0.10039207846E+01  0.19922203879E+01  0.39628775072E+01  0.51100000000E-03 0. -1.
        -11    1    4    4    0    0  0.94717731222E+01 -0.65383057397E+01 -0.13700911339E+02  0.17893543523E+02  0.51100000000E-03 0.  1.
        -12    1    4    4    0    0 -0.11579337139E+02 -0.30228015964E+02  0.30215615574E+01  0.32510672585E+02  0.00000000000E+00 0.  1.
</event>
<event>
 8    1  0.1280925E-006  0.9118800E+02  0.7816164E-02  0.1184000E+00
        -11   -1    0    0    0    0  0.00000000000E+00  0.00000000000E+00  0.45593999997E+02  0.45594000000E+02  0.51100000000E-03 0. -1.
         11   -1    0    0    0    0 -0.00000000000E+00 -0.00000000000E+00 -0.45593999997E+02  0.45594000000E+02  0.51100000000E-03 0.  1.
         23    2    1    2    0    0  0.35527136788E-14  0.35527136788E-14  0.44408920985E-15  0.91188000000E+02  0.91188000000E+02 0.  0.
    9900012    2    3    3    0    0 -0.31204598000E+02 -0.19540968920E+02  0.45092047684E+00  0.54367085672E+02  0.40000003406E+02 0.  0.
         12    1    3    3    0    0  0.31204598000E+02  0.19540968920E+02 -0.45092047684E+00  0.36820914328E+02  0.00000000000E+00 0. -1.
         11    1    4    4    0    0 -0.12823233297E+02 -0.24411218529E+02 -0.12461397402E+02  0.30259367603E+02  0.51100000000E-03 0. -1.
        -11    1    4    4    0    0 -0.10877112316E+02 -0.14178926926E+00  0.45045036200E+01  0.11773794191E+02  0.51100000000E-03 0.  1.
         12    1    4    4    0    0 -0.75042523870E+01  0.50120388789E+01  0.84078142586E+01  0.12333923878E+02  0.00000000000E+00 0. -1.
</event>
<event>
 8    1  0.1280925E-006  0.9118800E+02  0.7816164E-02  0.1184000E+00
        -11   -1    0    0    0    0  0.00000000000E+00  0.00000000000E+00  0.45593999997E+02  0.45594000000E+02  0.51100000000E-03 0. -1.
         11   -1    0    0    0    0 -0.00000000000E+00 -0.00000000000E+00 -0.45593999997E+02  0.45594000000E+02  0.51100000000E-03 0.  1.
         23    2    1    2    0    0  0.00000000000E+00  0.00000000000E+00  0.35527136788E-14  0.91188000000E+02  0.91188000000E+02 0.  0.
    9900012    2    3    3    0    0  0.95689239904E+01 -0.17742825149E+02  0.30812455118E+02  0.54367088265E+02  0.40000009318E+02 0.  0.
        -12    1    3    3    0    0 -0.95689239904E+01  0.17742825149E+02 -0.30812455118E+02  0.36820911735E+02  0.00000000000E+00 0.  1.
         11    1    4    4    0    0  0.48821088930E+01  0.72730479346E+01  0.71247942770E+01  0.11291364278E+02  0.51100000000E-03 0. -1.
        -11    1    4    4    0    0 -0.28664431724E+00  0.48470174239E+01  0.69636869833E+01  0.84893273900E+01  0.51100000000E-03 0.  1.
        -12    1    4    4    0    0  0.49734594146E+01 -0.29862890508E+02  0.16723973857E+02  0.34586396597E+02  0.00000000000E+00 0.  1.
</event>
<event>
 8    1  0.1280925E-006  0.9118800E+02  0.7816164E-02  0.1184000E+00
        -11   -1    0    0    0    0  0.00000000000E+00  0.00000000000E+00  0.45593999997E+02  0.45594000000E+02  0.51100000000E-03 0. -1.
         11   -1    0    0    0    0 -0.00000000000E+00 -0.00000000000E+00 -0.45593999997E+02  0.45594000000E+02  0.51100000000E-03 0.  1.
         23    2    1    2    0    0 -0.35527136788E-14 -0.17763568394E-14  0.35527136788E-14  0.91188000000E+02  0.91188000000E+02 0.  0.
    9900012    2    3    3    0    0 -0.12376200777E+02  0.13665345197E+02  0.31872662159E+02  0.54367101068E+02  0.40000038505E+02 0.  0.
        -12    1    3    3    0    0  0.12376200777E+02 -0.13665345197E+02 -0.31872662159E+02  0.36820898932E+02  0.00000000000E+00 0.  1.
         11    1    4    4    0    0 -0.42852899109E+01 -0.11140947005E+02  0.14187548780E+02  0.18541061200E+02  0.51100000000E-03 0. -1.
        -11    1    4    4    0    0 -0.81279296545E+01  0.13560016215E+02  0.11797252928E+01  0.15853360282E+02  0.51100000000E-03 0.  1.
         12    1    4    4    0    0  0.37018787959E-01  0.11246275987E+02  0.16505388087E+02  0.19972679586E+02  0.00000000000E+00 0. -1.
</event>
<event>
 8    1  0.1280925E-006  0.9118800E+02  0.7816164E-02  0.1184000E+00
        -11   -1    0    0    0    0  0.00000000000E+00  0.00000000000E+00  0.45593999997E+02  0.45594000000E+02  0.51100000000E-03 0. -1.
         11   -1    0    0    0    0 -0.00000000000E+00 -0.00000000000E+00 -0.45593999997E+02  0.45594000000E+02  0.51100000000E-03 0.  1.
         23    2    1    2    0    0 -0.35527136788E-14 -0.71054273576E-14 -0.44408920985E-15  0.91188000000E+02  0.91188000000E+02 0.  0.
    9900012    2    3    3    0    0  0.11639820530E+02 -0.34772163211E+02 -0.33451831116E+01  0.54367095525E+02  0.40000025867E+02 0.  0.
         12    1    3    3    0    0 -0.11639820530E+02  0.34772163211E+02  0.33451831116E+01  0.36820904475E+02  0.00000000000E+00 0. -1.
         11    1    4    4    0    0 -0.98225816435E+01 -0.25791078633E+01 -0.10051105814E+02  0.14288444137E+02  0.51100000000E-03 0. -1.
        -11    1    4    4    0    0  0.19233247433E+02 -0.23719721200E+02  0.69304670080E+01  0.31314123872E+02  0.51100000000E-03 0.  1.
         12    1    4    4    0    0  0.22291547403E+01 -0.84733341475E+01 -0.22454430546E+00  0.87645275159E+01  0.00000000000E+00 0. -1.
</event>
<event>
 8    1  0.1280925E-006  0.9118800E+02  0.7816164E-02  0.1184000E+00
        -11   -1    0    0    0    0  0.00000000000E+00  0.00000000000E+00  0.45593999997E+02  0.45594000000E+02  0.51100000000E-03 0.  1.
         11   -1    0    0    0    0 -0.00000000000E+00 -0.00000000000E+00 -0.45593999997E+02  0.45594000000E+02  0.51100000000E-03 0. -1.
         23    2    1    2    0    0 -0.71054273576E-14  0.17763568394E-14  0.00000000000E+00  0.91188000000E+02  0.91188000000E+02 0.  0.
    9900012    2    3    3    0    0  0.25684689925E+02 -0.15838443809E+02  0.21100242811E+02  0.54367084130E+02  0.39999999891E+02 0.  0.
        -12    1    3    3    0    0 -0.25684689925E+02  0.15838443809E+02 -0.21100242811E+02  0.36820915870E+02  0.00000000000E+00 0.  1.
         11    1    4    4    0    0  0.54752267692E+00  0.21944708531E+00  0.45467516003E+01  0.45848542486E+01  0.51100000000E-03 0. -1.
        -11    1    4    4    0    0  0.99479099560E+01 -0.12069515544E+01  0.24990784071E+02  0.26925024295E+02  0.51100000000E-03 0.  1.
         12    1    4    4    0    0  0.15189257292E+02 -0.14850939340E+02 -0.84372928611E+01  0.22857205586E+02  0.00000000000E+00 0. -1.
</event>
<event>
 8    1  0.1280925E-006  0.9118800E+02  0.7816164E-02  0.1184000E+00
        -11   -1    0    0    0    0  0.00000000000E+00  0.00000000000E+00  0.45593999997E+02  0.45594000000E+02  0.51100000000E-03 0. -1.
         11   -1    0    0    0    0 -0.00000000000E+00 -0.00000000000E+00 -0.45593999997E+02  0.45594000000E+02  0.51100000000E-03 0.  1.
         23    2    1    2    0    0  0.35527136788E-14 -0.88817841970E-15  0.35527136788E-14  0.91188000000E+02  0.91188000000E+02 0.  0.
    9900012    2    3    3    0    0  0.21936054903E+02  0.41049370092E+01  0.29287180485E+02  0.54367082665E+02  0.39999996553E+02 0.  0.
        -12    1    3    3    0    0 -0.21936054903E+02 -0.41049370092E+01 -0.29287180485E+02  0.36820917335E+02  0.00000000000E+00 0.  1.
         11    1    4    4    0    0 -0.47454632145E+00  0.15536116180E+02  0.63297088705E+01  0.16782768390E+02  0.51100000000E-03 0. -1.
        -11    1    4    4    0    0  0.70291578458E+01 -0.11383490217E+02  0.59180487484E+01  0.14629292901E+02  0.51100000000E-03 0.  1.
         12    1    4    4    0    0  0.15381443379E+02 -0.47688953982E-01  0.17039422866E+02  0.22955021374E+02  0.00000000000E+00 0. -1.
</event>
<event>
 8    1  0.1280925E-006  0.9118800E+02  0.7816164E-02  0.1184000E+00
        -11   -1    0    0    0    0  0.00000000000E+00  0.00000000000E+00  0.45593999997E+02  0.45594000000E+02  0.51100000000E-03 0.  1.
         11   -1    0    0    0    0 -0.00000000000E+00 -0.00000000000E+00 -0.45593999997E+02  0.45594000000E+02  0.51100000000E-03 0. -1.
         23    2    1    2    0    0  0.35527136788E-14  0.17763568394E-14  0.17763568394E-14  0.91188000000E+02  0.91188000000E+02 0.  0.
    9900012    2    3    3    0    0 -0.31627712896E+02 -0.10926003457E+02  0.15365232388E+02  0.54367080118E+02  0.39999990746E+02 0.  0.
         12    1    3    3    0    0  0.31627712896E+02  0.10926003457E+02 -0.15365232388E+02  0.36820919882E+02  0.00000000000E+00 0. -1.
         11    1    4    4    0    0 -0.15349802839E+02 -0.21828602931E+02  0.38441674737E+01  0.26960748821E+02  0.51100000000E-03 0. -1.
        -11    1    4    4    0    0 -0.11071346226E+02  0.43500876326E+01 -0.14357087964E+01  0.11981620495E+02  0.51100000000E-03 0.  1.
        -12    1    4    4    0    0 -0.52065638307E+01  0.65525118416E+01  0.12956773711E+02  0.15424710803E+02  0.00000000000E+00 0.  1.
</event>
<event>
 8    1  0.1280925E-006  0.9118800E+02  0.7816164E-02  0.1184000E+00
        -11   -1    0    0    0    0  0.00000000000E+00  0.00000000000E+00  0.45593999997E+02  0.45594000000E+02  0.51100000000E-03 0.  1.
         11   -1    0    0    0    0 -0.00000000000E+00 -0.00000000000E+00 -0.45593999997E+02  0.45594000000E+02  0.51100000000E-03 0. -1.
         23    2    1    2    0    0 -0.71054273576E-14 -0.88817841970E-15 -0.17763568394E-14  0.91188000000E+02  0.91188000000E+02 0.  0.
    9900012    2    3    3    0    0 -0.35292343245E+02  0.49448211446E+01  0.92616542382E+01  0.54367095787E+02  0.40000026465E+02 0.  0.
         12    1    3    3    0    0  0.35292343245E+02 -0.49448211446E+01 -0.92616542382E+01  0.36820904213E+02  0.00000000000E+00 0. -1.
         11    1    4    4    0    0 -0.22847436590E+00  0.36245546630E+01 -0.25436213456E+01  0.44339155215E+01  0.51100000000E-03 0. -1.
        -11    1    4    4    0    0 -0.18546894704E+02  0.14599489896E+02 -0.34033274965E+01  0.23847747203E+02  0.51100000000E-03 0.  1.
        -12    1    4    4    0    0 -0.16516974175E+02 -0.13279223414E+02  0.15208603080E+02  0.26085433062E+02  0.00000000000E+00 0.  1.
</event>
<event>
 8    1  0.1280925E-006  0.9118800E+02  0.7816164E-02  0.1184000E+00
        -11   -1    0    0    0    0  0.00000000000E+00  0.00000000000E+00  0.45593999997E+02  0.45594000000E+02  0.51100000000E-03 0.  1.
         11   -1    0    0    0    0 -0.00000000000E+00 -0.00000000000E+00 -0.45593999997E+02  0.45594000000E+02  0.51100000000E-03 0. -1.
         23    2    1    2    0    0  0.00000000000E+00  0.00000000000E+00  0.00000000000E+00  0.91188000000E+02  0.91188000000E+02 0.  0.
    9900012    2    3    3    0    0 -0.53677578774E+00 -0.34037733327E+02 -0.14032976671E+02  0.54367084034E+02  0.39999999673E+02 0.  0.
         12    1    3    3    0    0  0.53677578774E+00  0.34037733327E+02  0.14032976671E+02  0.36820915966E+02  0.00000000000E+00 0. -1.
         11    1    4    4    0    0 -0.34458797883E+01 -0.19886121787E+01  0.10540577275E+01  0.41157871503E+01  0.51100000000E-03 0. -1.
        -11    1    4    4    0    0  0.18849852758E+01 -0.36018629398E+02 -0.21975501235E+02  0.42235263560E+02  0.51100000000E-03 0.  1.
        -12    1    4    4    0    0  0.10241187247E+01  0.39695082490E+01  0.68884668362E+01  0.80160333242E+01  0.00000000000E+00 0.  1.
</event>
<event>
 8    1  0.1280925E-006  0.9118800E+02  0.7816164E-02  0.1184000E+00
        -11   -1    0    0    0    0  0.00000000000E+00  0.00000000000E+00  0.45593999997E+02  0.45594000000E+02  0.51100000000E-03 0. -1.
         11   -1    0    0    0    0 -0.00000000000E+00 -0.00000000000E+00 -0.45593999997E+02  0.45594000000E+02  0.51100000000E-03 0.  1.
         23    2    1    2    0    0  0.00000000000E+00  0.88817841970E-15  0.00000000000E+00  0.91188000000E+02  0.91188000000E+02 0.  0.
    9900012    2    3    3    0    0 -0.30684275348E+02 -0.21394442637E+01 -0.20240512051E+02  0.54367077911E+02  0.39999985714E+02 0.  0.
         12    1    3    3    0    0  0.30684275348E+02  0.21394442637E+01  0.20240512051E+02  0.36820922089E+02  0.00000000000E+00 0. -1.
         11    1    4    4    0    0 -0.64901037529E+00  0.28378345655E+01  0.12069335675E+00  0.29136037198E+01  0.51100000000E-03 0. -1.
        -11    1    4    4    0    0 -0.12525661212E+02  0.15680542364E+02 -0.10361332752E+02  0.22586031397E+02  0.51100000000E-03 0.  1.
        -12    1    4    4    0    0 -0.17509603761E+02 -0.20657821193E+02 -0.99998726555E+01  0.28867442794E+02  0.00000000000E+00 0.  1.
</event>
<event>
 8    1  0.1280925E-006  0.9118800E+02  0.7816164E-02  0.1184000E+00
        -11   -1    0    0    0    0  0.00000000000E+00  0.00000000000E+00  0.45593999997E+02  0.45594000000E+02  0.51100000000E-03 0.  1.
         11   -1    0    0    0    0 -0.00000000000E+00 -0.00000000000E+00 -0.45593999997E+02  0.45594000000E+02  0.51100000000E-03 0. -1.
         23    2    1    2    0    0  0.35527136788E-14  0.00000000000E+00  0.00000000000E+00  0.91188000000E+02  0.91188000000E+02 0.  0.
    9900012    2    3    3    0    0 -0.22212249817E+02 -0.74109781190E+01 -0.28416071097E+02  0.54367085628E+02  0.40000003306E+02 0.  0.
        -12    1    3    3    0    0  0.22212249817E+02  0.74109781190E+01  0.28416071097E+02  0.36820914372E+02  0.00000000000E+00 0.  1.
         11    1    4    4    0    0 -0.62805910731E+01 -0.16493576185E+02 -0.13106278646E+02  0.21983139444E+02  0.51100000000E-03 0. -1.
        -11    1    4    4    0    0 -0.10496768958E+02 -0.58112091106E+01 -0.31535964645E+01  0.12405542342E+02  0.51100000000E-03 0.  1.
        -12    1    4    4    0    0 -0.54348897859E+01  0.14893807177E+02 -0.12156195986E+02  0.19978403842E+02  0.00000000000E+00 0.  1.
</event>
<event>
 8    1  0.1280925E-006  0.9118800E+02  0.7816164E-02  0.1184000E+00
        -11   -1    0    0    0    0  0.00000000000E+00  0.00000000000E+00  0.45593999997E+02  0.45594000000E+02  0.51100000000E-03 0. -1.
         11   -1    0    0    0    0 -0.00000000000E+00 -0.00000000000E+00 -0.45593999997E+02  0.45594000000E+02  0.51100000000E-03 0.  1.
         23    2    1    2    0    0  0.00000000000E+00  0.17763568394E-14  0.35527136788E-14  0.91188000000E+02  0.91188000000E+02 0.  0.
    9900012    2    3    3    0    0 -0.28641654289E+02  0.11144848824E+02  0.20278706887E+02  0.54367109616E+02  0.40000057990E+02 0.  0.
         12    1    3    3    0    0  0.28641654289E+02 -0.11144848824E+02 -0.20278706887E+02  0.36820890384E+02  0.00000000000E+00 0. -1.
         11    1    4    4    0    0 -0.13424225877E+02  0.22013725042E+02 -0.83269425289E+00  0.25797428372E+02  0.51100000000E-03 0. -1.
        -11    1    4    4    0    0 -0.29737846566E+01 -0.32613231643E+01  0.26524107774E+01  0.51492627783E+01  0.51100000000E-03 0.  1.
         12    1    4    4    0    0 -0.12243643755E+02 -0.76075530544E+01  0.18458990362E+02  0.23420418465E+02  0.00000000000E+00 0. -1.
</event>
<event>
 8    1  0.1280925E-006  0.9118800E+02  0.7816164E-02  0.1184000E+00
        -11   -1    0    0    0    0  0.00000000000E+00  0.00000000000E+00  0.45593999997E+02  0.45594000000E+02  0.51100000000E-03 0.  1.
         11   -1    0    0    0    0 -0.00000000000E+00 -0.00000000000E+00 -0.45593999997E+02  0.45594000000E+02  0.51100000000E-03 0. -1.
         23    2    1    2    0    0  0.00000000000E+00  0.00000000000E+00  0.35527136788E-14  0.91188000000E+02  0.91188000000E+02 0.  0.
    9900012    2    3    3    0    0 -0.20902721962E+02 -0.24277591883E+02  0.18150868488E+02  0.54367091810E+02  0.40000017400E+02 0.  0.
         12    1    3    3    0    0  0.20902721962E+02  0.24277591883E+02 -0.18150868488E+02  0.36820908190E+02  0.00000000000E+00 0. -1.
         11    1    4    4    0    0 -0.16900090501E+02 -0.17542696234E+01 -0.46905718607E+01  0.17626456975E+02  0.51100000000E-03 0. -1.
        -11    1    4    4    0    0 -0.55003330254E+01 -0.24280602001E+02  0.16183130997E+02  0.29693349863E+02  0.51100000000E-03 0.  1.
         12    1    4    4    0    0  0.14977015651E+01  0.17572797415E+01  0.66583093513E+01  0.70472849726E+01  0.00000000000E+00 0. -1.
</event>
<event>
 8    1  0.1280925E-006  0.9118800E+02  0.7816164E-02  0.1184000E+00
        -11   -1    0    0    0    0  0.00000000000E+00  0.00000000000E+00  0.45593999997E+02  0.45594000000E+02  0.51100000000E-03 0. -1.
         11   -1    0    0    0    0 -0.00000000000E+00 -0.00000000000E+00 -0.45593999997E+02  0.45594000000E+02  0.51100000000E-03 0.  1.
         23    2    1    2    0    0 -0.88817841970E-15  0.00000000000E+00 -0.35527136788E-14  0.91188000000E+02  0.91188000000E+02 0.  0.
    9900012    2    3    3    0    0  0.53829262275E+01  0.18032088794E+02 -0.31648835827E+02  0.54367069400E+02  0.39999966311E+02 0.  0.
         12    1    3    3    0    0 -0.53829262275E+01 -0.18032088794E+02  0.31648835827E+02  0.36820930600E+02  0.00000000000E+00 0. -1.
         11    1    4    4    0    0 -0.36931936985E+01  0.55599886304E+01 -0.30707421396E+02  0.31424494941E+02  0.51100000000E-03 0.  1.
        -11    1    4    4    0    0  0.13497579384E+02  0.12592157098E+02 -0.12994594651E+01  0.18505017286E+02  0.51100000000E-03 0. -1.
         12    1    4    4    0    0 -0.44214594585E+01 -0.12005693354E+00  0.35804503389E+00  0.44375571722E+01  0.00000000000E+00 0. -1.
</event>
<event>
 8    1  0.1280925E-006  0.9118800E+02  0.7816164E-02  0.1184000E+00
        -11   -1    0    0    0    0  0.00000000000E+00  0.00000000000E+00  0.45593999997E+02  0.45594000000E+02  0.51100000000E-03 0. -1.
         11   -1    0    0    0    0 -0.00000000000E+00 -0.00000000000E+00 -0.45593999997E+02  0.45594000000E+02  0.51100000000E-03 0.  1.
         23    2    1    2    0    0  0.71054273576E-14 -0.13322676296E-14  0.17763568394E-14  0.91188000000E+02  0.91188000000E+02 0.  0.
    9900012    2    3    3    0    0 -0.35149178823E+02  0.29949813309E+01 -0.10552062078E+02  0.54367072537E+02  0.39999973464E+02 0.  0.
        -12    1    3    3    0    0  0.35149178823E+02 -0.29949813309E+01  0.10552062078E+02  0.36820927463E+02  0.00000000000E+00 0.  1.
         11    1    4    4    0    0 -0.14663243237E+02 -0.53670928122E+01 -0.15631428106E+02  0.22094296376E+02  0.51100000000E-03 0. -1.
        -11    1    4    4    0    0 -0.14400729893E+02 -0.27647538267E+01  0.10946821805E+02  0.18299120008E+02  0.51100000000E-03 0.  1.
        -12    1    4    4    0    0 -0.60852056931E+01  0.11126827970E+02 -0.58674557770E+01  0.13973656153E+02  0.00000000000E+00 0.  1.
</event>
<event>
 8    1  0.1280925E-006  0.9118800E+02  0.7816164E-02  0.1184000E+00
        -11   -1    0    0    0    0  0.00000000000E+00  0.00000000000E+00  0.45593999997E+02  0.45594000000E+02  0.51100000000E-03 0.  1.
         11   -1    0    0    0    0 -0.00000000000E+00 -0.00000000000E+00 -0.45593999997E+02  0.45594000000E+02  0.51100000000E-03 0. -1.
         23    2    1    2    0    0  0.00000000000E+00  0.17763568394E-14 -0.35527136788E-14  0.91188000000E+02  0.91188000000E+02 0.  0.
    9900012    2    3    3    0    0 -0.27533330642E+02  0.10242818604E+02  0.22198643332E+02  0.54367090248E+02  0.40000013837E+02 0.  0.
         12    1    3    3    0    0  0.27533330642E+02 -0.10242818604E+02 -0.22198643332E+02  0.36820909752E+02  0.00000000000E+00 0. -1.
         11    1    4    4    0    0 -0.23499748491E+02 -0.84585794834E+01  0.11231963364E+02  0.27385082568E+02  0.51100000000E-03 0. -1.
        -11    1    4    4    0    0 -0.75911805061E+01  0.14617074977E+02  0.13215590740E+02  0.21117214334E+02  0.51100000000E-03 0.  1.
         12    1    4    4    0    0  0.35575983548E+01  0.40843231100E+01 -0.22489107717E+01  0.58647933450E+01  0.00000000000E+00 0. -1.
</event>
<event>
 8    1  0.1280925E-006  0.9118800E+02  0.7816164E-02  0.1184000E+00
        -11   -1    0    0    0    0  0.00000000000E+00  0.00000000000E+00  0.45593999997E+02  0.45594000000E+02  0.51100000000E-03 0.  1.
         11   -1    0    0    0    0 -0.00000000000E+00 -0.00000000000E+00 -0.45593999997E+02  0.45594000000E+02  0.51100000000E-03 0. -1.
         23    2    1    2    0    0  0.55511151231E-15  0.00000000000E+00  0.35527136788E-14  0.91188000000E+02  0.91188000000E+02 0.  0.
    9900012    2    3    3    0    0  0.99991790903E+00  0.23870267477E+02 -0.28018011083E+02  0.54366831492E+02  0.39999423948E+02 0.  0.
        -12    1    3    3    0    0 -0.99991790903E+00 -0.23870267477E+02  0.28018011083E+02  0.36821168508E+02  0.00000000000E+00 0.  1.
         11    1    4    4    0    0  0.79622581063E+01  0.10026964229E+02 -0.10782349257E+02  0.16739074692E+02  0.51100000000E-03 0. -1.
        -11    1    4    4    0    0  0.84486657206E+01  0.23588505680E+01 -0.16148933228E+02  0.18377490936E+02  0.51100000000E-03 0.  1.
        -12    1    4    4    0    0 -0.15411005918E+02  0.11484452680E+02 -0.10867285985E+01  0.19250265863E+02  0.00000000000E+00 0.  1.
</event>
<event>
 8    1  0.1280925E-006  0.9118800E+02  0.7816164E-02  0.1184000E+00
        -11   -1    0    0    0    0  0.00000000000E+00  0.00000000000E+00  0.45593999997E+02  0.45594000000E+02  0.51100000000E-03 0. -1.
         11   -1    0    0    0    0 -0.00000000000E+00 -0.00000000000E+00 -0.45593999997E+02  0.45594000000E+02  0.51100000000E-03 0.  1.
         23    2    1    2    0    0  0.00000000000E+00  0.35527136788E-14  0.00000000000E+00  0.91188000000E+02  0.91188000000E+02 0.  0.
    9900012    2    3    3    0    0  0.98478507188E+01 -0.27551020654E+02  0.22354890721E+02  0.54367081462E+02  0.39999993808E+02 0.  0.
        -12    1    3    3    0    0 -0.98478507188E+01  0.27551020654E+02 -0.22354890721E+02  0.36820918538E+02  0.00000000000E+00 0.  1.
         11    1    4    4    0    0  0.32695823858E+01 -0.24276317900E+02 -0.17674478425E+01  0.24559186711E+02  0.51100000000E-03 0. -1.
        -11    1    4    4    0    0  0.11546602709E+02 -0.42724399072E+01  0.15353990686E+02  0.19680518467E+02  0.51100000000E-03 0.  1.
         12    1    4    4    0    0 -0.49683343760E+01  0.99773715314E+00  0.87683478769E+01  0.10127376284E+02  0.00000000000E+00 0. -1.
</event>
<event>
 8    1  0.1280925E-006  0.9118800E+02  0.7816164E-02  0.1184000E+00
        -11   -1    0    0    0    0  0.00000000000E+00  0.00000000000E+00  0.45593999997E+02  0.45594000000E+02  0.51100000000E-03 0. -1.
         11   -1    0    0    0    0 -0.00000000000E+00 -0.00000000000E+00 -0.45593999997E+02  0.45594000000E+02  0.51100000000E-03 0.  1.
         23    2    1    2    0    0  0.00000000000E+00  0.00000000000E+00  0.17763568394E-14  0.91188000000E+02  0.91188000000E+02 0.  0.
    9900012    2    3    3    0    0 -0.34447658485E+02 -0.40264346356E+01 -0.12366408508E+02  0.54367062881E+02  0.39999951449E+02 0.  0.
         12    1    3    3    0    0  0.34447658485E+02  0.40264346356E+01  0.12366408508E+02  0.36820937119E+02  0.00000000000E+00 0. -1.
         11    1    4    4    0    0  0.34846958000E+01 -0.13380747789E+00 -0.27826548933E+01  0.44614098417E+01  0.51100000000E-03 0. -1.
        -11    1    4    4    0    0 -0.24477421469E+02  0.12679520261E+02 -0.41368713784E+01  0.27875223782E+02  0.51100000000E-03 0.  1.
         12    1    4    4    0    0 -0.13454932816E+02 -0.16572147419E+02 -0.54468822359E+01  0.22030429257E+02  0.00000000000E+00 0. -1.
</event>
<event>
 8    1  0.1280925E-006  0.9118800E+02  0.7816164E-02  0.1184000E+00
        -11   -1    0    0    0    0  0.00000000000E+00  0.00000000000E+00  0.45593999997E+02  0.45594000000E+02  0.51100000000E-03 0. -1.
         11   -1    0    0    0    0 -0.00000000000E+00 -0.00000000000E+00 -0.45593999997E+02  0.45594000000E+02  0.51100000000E-03 0.  1.
         23    2    1    2    0    0 -0.35527136788E-14  0.00000000000E+00  0.94368957093E-15  0.91188000000E+02  0.91188000000E+02 0.  0.
    9900012    2    3    3    0    0  0.30257323421E+02  0.20978996667E+02 -0.39785018459E+00  0.54367052069E+02  0.39999926802E+02 0.  0.
         12    1    3    3    0    0 -0.30257323421E+02 -0.20978996667E+02  0.39785018459E+00  0.36820947931E+02  0.00000000000E+00 0. -1.
         11    1    4    4    0    0  0.29076954533E+02  0.47729883452E+01  0.11752765750E+02  0.31723464591E+02  0.51100000000E-03 0. -1.
        -11    1    4    4    0    0  0.18906261087E+01  0.46536244697E+01  0.10036082153E+01  0.51222961159E+01  0.51100000000E-03 0.  1.
         12    1    4    4    0    0 -0.71025722050E+00  0.11552383852E+02 -0.13154224150E+02  0.17521291362E+02  0.00000000000E+00 0. -1.
</event>
<event>
 8    1  0.1280925E-006  0.9118800E+02  0.7816164E-02  0.1184000E+00
        -11   -1    0    0    0    0  0.00000000000E+00  0.00000000000E+00  0.45593999997E+02  0.45594000000E+02  0.51100000000E-03 0.  1.
         11   -1    0    0    0    0 -0.00000000000E+00 -0.00000000000E+00 -0.45593999997E+02  0.45594000000E+02  0.51100000000E-03 0. -1.
         23    2    1    2    0    0 -0.71054273576E-14 -0.17763568394E-14  0.00000000000E+00  0.91188000000E+02  0.91188000000E+02 0.  0.
    9900012    2    3    3    0    0 -0.32569438600E+02 -0.69585093865E+01 -0.15703196046E+02  0.54367088147E+02  0.40000009050E+02 0.  0.
        -12    1    3    3    0    0  0.32569438600E+02  0.69585093865E+01  0.15703196046E+02  0.36820911853E+02  0.00000000000E+00 0.  1.
         11    1    4    4    0    0 -0.45282333664E+01  0.20274067488E+01  0.59720365742E+01  0.77640515616E+01  0.51100000000E-03 0. -1.
        -11    1    4    4    0    0  0.39300798702E+01 -0.40223538302E+00  0.32898307588E+01  0.51410415066E+01  0.51100000000E-03 0.  1.
         12    1    4    4    0    0 -0.31971285104E+02 -0.85836807522E+01 -0.24965063379E+02  0.41461995079E+02  0.00000000000E+00 0. -1.
</event>
<event>
 8    1  0.1280925E-006  0.9118800E+02  0.7816164E-02  0.1184000E+00
        -11   -1    0    0    0    0  0.00000000000E+00  0.00000000000E+00  0.45593999997E+02  0.45594000000E+02  0.51100000000E-03 0.  1.
         11   -1    0    0    0    0 -0.00000000000E+00 -0.00000000000E+00 -0.45593999997E+02  0.45594000000E+02  0.51100000000E-03 0. -1.
         23    2    1    2    0    0 -0.35527136788E-14  0.00000000000E+00 -0.35527136788E-14  0.91188000000E+02  0.91188000000E+02 0.  0.
    9900012    2    3    3    0    0 -0.22126706040E+02 -0.11888369199E+02  0.26923195150E+02  0.54367042931E+02  0.39999905970E+02 0.  0.
         12    1    3    3    0    0  0.22126706040E+02  0.11888369199E+02 -0.26923195150E+02  0.36820957069E+02  0.00000000000E+00 0. -1.
         11    1    4    4    0    0  0.53556079558E+01  0.88573251157E+00 -0.44470708717E+01  0.70173711786E+01  0.51100000000E-03 0. -1.
        -11    1    4    4    0    0 -0.17608158222E+01 -0.47867347400E+01  0.14972726528E+02  0.15817580149E+02  0.51100000000E-03 0.  1.
         12    1    4    4    0    0 -0.25721498174E+02 -0.79873669708E+01  0.16397539493E+02  0.31532091603E+02  0.00000000000E+00 0. -1.
</event>
<event>
 8    1  0.1280925E-006  0.9118800E+02  0.7816164E-02  0.1184000E+00
        -11   -1    0    0    0    0  0.00000000000E+00  0.00000000000E+00  0.45593999997E+02  0.45594000000E+02  0.51100000000E-03 0. -1.
         11   -1    0    0    0    0 -0.00000000000E+00 -0.00000000000E+00 -0.45593999997E+02  0.45594000000E+02  0.51100000000E-03 0.  1.
         23    2    1    2    0    0  0.71054273576E-14 -0.17763568394E-14  0.35527136788E-14  0.91188000000E+02  0.91188000000E+02 0.  0.
    9900012    2    3    3    0    0  0.28637080058E+02 -0.62024493369E+01  0.22298562438E+02  0.54367100788E+02  0.40000037865E+02 0.  0.
        -12    1    3    3    0    0 -0.28637080058E+02  0.62024493369E+01 -0.22298562438E+02  0.36820899212E+02  0.00000000000E+00 0.  1.
         11    1    4    4    0    0 -0.50756858437E+00 -0.30146811533E+01  0.27713530459E+00  0.30696469768E+01  0.51100000000E-03 0. -1.
        -11    1    4    4    0    0  0.35196892714E+01 -0.15018786934E+02  0.16407634080E+02  0.22520271532E+02  0.51100000000E-03 0.  1.
         12    1    4    4    0    0  0.25624959371E+02  0.11831018750E+02  0.56137930534E+01  0.28777182278E+02  0.00000000000E+00 0. -1.
</event>
<event>
 8    1  0.1280925E-006  0.9118800E+02  0.7816164E-02  0.1184000E+00
        -11   -1    0    0    0    0  0.00000000000E+00  0.00000000000E+00  0.45593999997E+02  0.45594000000E+02  0.51100000000E-03 0. -1.
         11   -1    0    0    0    0 -0.00000000000E+00 -0.00000000000E+00 -0.45593999997E+02  0.45594000000E+02  0.51100000000E-03 0.  1.
         23    2    1    2    0    0  0.00000000000E+00  0.35527136788E-14  0.00000000000E+00  0.91188000000E+02  0.91188000000E+02 0.  0.
    9900012    2    3    3    0    0 -0.73795559161E+01  0.15515422981E+02  0.32566754650E+02  0.54367086048E+02  0.40000004264E+02 0.  0.
        -12    1    3    3    0    0  0.73795559161E+01 -0.15515422981E+02 -0.32566754650E+02  0.36820913952E+02  0.00000000000E+00 0.  1.
         11    1    4    4    0    0  0.64531510604E+01 -0.22252711194E+01  0.56974961969E+01  0.88913695985E+01  0.51100000000E-03 0. -1.
        -11    1    4    4    0    0 -0.49082402925E+01  0.51264672820E+01 -0.59107910571E+01  0.92362839251E+01  0.51100000000E-03 0.  1.
         12    1    4    4    0    0 -0.89244666840E+01  0.12614226818E+02  0.32780049510E+02  0.36239432525E+02  0.00000000000E+00 0. -1.
</event>
<event>
 8    1  0.1280925E-006  0.9118800E+02  0.7816164E-02  0.1184000E+00
        -11   -1    0    0    0    0  0.00000000000E+00  0.00000000000E+00  0.45593999997E+02  0.45594000000E+02  0.51100000000E-03 0. -1.
         11   -1    0    0    0    0 -0.00000000000E+00 -0.00000000000E+00 -0.45593999997E+02  0.45594000000E+02  0.51100000000E-03 0.  1.
         23    2    1    2    0    0  0.00000000000E+00  0.00000000000E+00 -0.35527136788E-14  0.91188000000E+02  0.91188000000E+02 0.  0.
    9900012    2    3    3    0    0 -0.21257848038E+02 -0.20250905847E+02 -0.22221227307E+02  0.54367106015E+02  0.40000049782E+02 0.  0.
         12    1    3    3    0    0  0.21257848038E+02  0.20250905847E+02  0.22221227307E+02  0.36820893985E+02  0.00000000000E+00 0. -1.
         11    1    4    4    0    0 -0.16196375392E+02 -0.21000546194E+02 -0.16925266054E+01  0.26574615008E+02  0.51100000000E-03 0.  1.
        -11    1    4    4    0    0 -0.52921430731E+01  0.39249718634E+01  0.42102955879E+00  0.66022305765E+01  0.51100000000E-03 0. -1.
        -12    1    4    4    0    0  0.23067042710E+00 -0.31753315162E+01 -0.20949730261E+02  0.21190260430E+02  0.00000000000E+00 0.  1.
</event>
<event>
 8    1  0.1280925E-006  0.9118800E+02  0.7816164E-02  0.1184000E+00
        -11   -1    0    0    0    0  0.00000000000E+00  0.00000000000E+00  0.45593999997E+02  0.45594000000E+02  0.51100000000E-03 0.  1.
         11   -1    0    0    0    0 -0.00000000000E+00 -0.00000000000E+00 -0.45593999997E+02  0.45594000000E+02  0.51100000000E-03 0. -1.
         23    2    1    2    0    0  0.00000000000E+00  0.00000000000E+00  0.35527136788E-14  0.91188000000E+02  0.91188000000E+02 0.  0.
    9900012    2    3    3    0    0 -0.11885929097E+02 -0.31593247367E+02  0.14709590011E+02  0.54367073505E+02  0.39999975669E+02 0.  0.
         12    1    3    3    0    0  0.11885929097E+02  0.31593247367E+02 -0.14709590011E+02  0.36820926495E+02  0.00000000000E+00 0. -1.
         11    1    4    4    0    0  0.85996226810E+01 -0.14565058498E+02  0.51488169274E+01  0.17680632209E+02  0.51100000000E-03 0. -1.
        -11    1    4    4    0    0  0.37195020144E+01 -0.38565405474E+01  0.72748592536E+01  0.90349973796E+01  0.51100000000E-03 0.  1.
         12    1    4    4    0    0 -0.24205053792E+02 -0.13171648321E+02  0.22859138306E+01  0.27651443916E+02  0.00000000000E+00 0. -1.
</event>
<event>
 8    1  0.1280925E-006  0.9118800E+02  0.7816164E-02  0.1184000E+00
        -11   -1    0    0    0    0  0.00000000000E+00  0.00000000000E+00  0.45593999997E+02  0.45594000000E+02  0.51100000000E-03 0.  1.
         11   -1    0    0    0    0 -0.00000000000E+00 -0.00000000000E+00 -0.45593999997E+02  0.45594000000E+02  0.51100000000E-03 0. -1.
         23    2    1    2    0    0  0.44408920985E-15 -0.35527136788E-14  0.00000000000E+00  0.91188000000E+02  0.91188000000E+02 0.  0.
    9900012    2    3    3    0    0  0.27517144015E+01  0.15474601146E+02  0.33297814091E+02  0.54367086975E+02  0.40000006377E+02 0.  0.
         12    1    3    3    0    0 -0.27517144015E+01 -0.15474601146E+02 -0.33297814091E+02  0.36820913025E+02  0.00000000000E+00 0. -1.
         11    1    4    4    0    0  0.11037029173E+02 -0.68184052435E+00  0.29315872800E+01  0.11440066595E+02  0.51100000000E-03 0. -1.
        -11    1    4    4    0    0 -0.45435481984E+01 -0.52864008347E+01  0.14182865758E+02  0.15803276413E+02  0.51100000000E-03 0.  1.
         12    1    4    4    0    0 -0.37417665731E+01  0.21442842505E+02  0.16183361053E+02  0.27123743966E+02  0.00000000000E+00 0. -1.
</event>
<event>
 8    1  0.1280925E-006  0.9118800E+02  0.7816164E-02  0.1184000E+00
        -11   -1    0    0    0    0  0.00000000000E+00  0.00000000000E+00  0.45593999997E+02  0.45594000000E+02  0.51100000000E-03 0.  1.
         11   -1    0    0    0    0 -0.00000000000E+00 -0.00000000000E+00 -0.45593999997E+02  0.45594000000E+02  0.51100000000E-03 0. -1.
         23    2    1    2    0    0 -0.35527136788E-14  0.00000000000E+00  0.13322676296E-14  0.91188000000E+02  0.91188000000E+02 0.  0.
    9900012    2    3    3    0    0  0.24687128593E+02  0.27252717424E+02 -0.19013172307E+01  0.54367082951E+02  0.39999997202E+02 0.  0.
        -12    1    3    3    0    0 -0.24687128593E+02 -0.27252717424E+02  0.19013172307E+01  0.36820917049E+02  0.00000000000E+00 0.  1.
         11    1    4    4    0    0  0.39182423427E+01  0.52925322693E+01 -0.26493622638E+01  0.70980730866E+01  0.51100000000E-03 0. -1.
        -11    1    4    4    0    0  0.10678500708E+02  0.13193184857E+02 -0.17676641022E+02  0.24506206196E+02  0.51100000000E-03 0.  1.
        -12    1    4    4    0    0  0.10090385542E+02  0.87670002975E+01  0.18424686055E+02  0.22762803668E+02  0.00000000000E+00 0.  1.
</event>
<event>
 8    1  0.1280925E-006  0.9118800E+02  0.7816164E-02  0.1184000E+00
        -11   -1    0    0    0    0  0.00000000000E+00  0.00000000000E+00  0.45593999997E+02  0.45594000000E+02  0.51100000000E-03 0. -1.
         11   -1    0    0    0    0 -0.00000000000E+00 -0.00000000000E+00 -0.45593999997E+02  0.45594000000E+02  0.51100000000E-03 0.  1.
         23    2    1    2    0    0  0.00000000000E+00  0.00000000000E+00  0.00000000000E+00  0.91188000000E+02  0.91188000000E+02 0.  0.
    9900012    2    3    3    0    0  0.15754286567E+02 -0.18969973634E+02 -0.27344566329E+02  0.54367044654E+02  0.39999909896E+02 0.  0.
         12    1    3    3    0    0 -0.15754286567E+02  0.18969973634E+02  0.27344566329E+02  0.36820955346E+02  0.00000000000E+00 0. -1.
         11    1    4    4    0    0  0.10317707165E+02  0.77635574473E+01 -0.19533527710E+02  0.23415520716E+02  0.51100000000E-03 0. -1.
        -11    1    4    4    0    0  0.19929948543E+01 -0.69945378813E+01 -0.81345951115E+01  0.10911793004E+02  0.51100000000E-03 0.  1.
         12    1    4    4    0    0  0.34435845479E+01 -0.19738993200E+02  0.32355649223E+00  0.20039730934E+02  0.00000000000E+00 0. -1.
</event>
<event>
 8    1  0.1280925E-006  0.9118800E+02  0.7816164E-02  0.1184000E+00
        -11   -1    0    0    0    0  0.00000000000E+00  0.00000000000E+00  0.45593999997E+02  0.45594000000E+02  0.51100000000E-03 0.  1.
         11   -1    0    0    0    0 -0.00000000000E+00 -0.00000000000E+00 -0.45593999997E+02  0.45594000000E+02  0.51100000000E-03 0. -1.
         23    2    1    2    0    0 -0.35527136788E-14 -0.71054273576E-14  0.00000000000E+00  0.91188000000E+02  0.91188000000E+02 0.  0.
    9900012    2    3    3    0    0  0.21091975034E+02  0.19599783013E+02  0.22951187617E+02  0.54367083145E+02  0.39999997646E+02 0.  0.
         12    1    3    3    0    0 -0.21091975034E+02 -0.19599783013E+02 -0.22951187617E+02  0.36820916855E+02  0.00000000000E+00 0. -1.
         11    1    4    4    0    0 -0.52370993924E+01  0.30748371940E+01 -0.16328069842E+01  0.62887115314E+01  0.51100000000E-03 0. -1.
        -11    1    4    4    0    0  0.24905053493E+02  0.20643397759E+02  0.11571595551E+02  0.34355689258E+02  0.51100000000E-03 0.  1.
         12    1    4    4    0    0  0.14240209331E+01 -0.41184519400E+01  0.13012399050E+02  0.13722682356E+02  0.00000000000E+00 0. -1.
</event>
<event>
 8    1  0.1280925E-006  0.9118800E+02  0.7816164E-02  0.1184000E+00
        -11   -1    0    0    0    0  0.00000000000E+00  0.00000000000E+00  0.45593999997E+02  0.45594000000E+02  0.51100000000E-03 0.  1.
         11   -1    0    0    0    0 -0.00000000000E+00 -0.00000000000E+00 -0.45593999997E+02  0.45594000000E+02  0.51100000000E-03 0. -1.
         23    2    1    2    0    0  0.00000000000E+00  0.35527136788E-14  0.00000000000E+00  0.91188000000E+02  0.91188000000E+02 0.  0.
    9900012    2    3    3    0    0  0.22232104084E+02  0.22304664915E+02  0.19078907149E+02  0.54367228322E+02  0.40000328604E+02 0.  0.
         12    1    3    3    0    0 -0.22232104084E+02 -0.22304664915E+02 -0.19078907149E+02  0.36820771678E+02  0.00000000000E+00 0. -1.
         11    1    4    4    0    0 -0.41656007319E+01 -0.69899226377E+01  0.23772680107E+01  0.84771841666E+01  0.51100000000E-03 0. -1.
        -11    1    4    4    0    0  0.14071546169E+02  0.11373995315E+02  0.15960409780E+02  0.24126973735E+02  0.51100000000E-03 0.  1.
         12    1    4    4    0    0  0.12326158647E+02  0.17920592238E+02  0.74122935843E+00  0.21763070420E+02  0.00000000000E+00 0. -1.
</event>
<event>
 8    1  0.1280925E-006  0.9118800E+02  0.7816164E-02  0.1184000E+00
        -11   -1    0    0    0    0  0.00000000000E+00  0.00000000000E+00  0.45593999997E+02  0.45594000000E+02  0.51100000000E-03 0. -1.
         11   -1    0    0    0    0 -0.00000000000E+00 -0.00000000000E+00 -0.45593999997E+02  0.45594000000E+02  0.51100000000E-03 0.  1.
         23    2    1    2    0    0  0.00000000000E+00  0.00000000000E+00  0.71054273576E-14  0.91188000000E+02  0.91188000000E+02 0.  0.
    9900012    2    3    3    0    0  0.15209163528E+02 -0.98286689865E+01 -0.32060229964E+02  0.54367085636E+02  0.40000003324E+02 0.  0.
         12    1    3    3    0    0 -0.15209163528E+02  0.98286689865E+01  0.32060229964E+02  0.36820914364E+02  0.00000000000E+00 0. -1.
         11    1    4    4    0    0 -0.86796527549E+00  0.58260670021E+01 -0.19821271042E+02  0.20677988452E+02  0.51100000000E-03 0.  1.
        -11    1    4    4    0    0  0.42160235232E+01 -0.18389817656E+02 -0.98541612181E+01  0.21285317506E+02  0.51100000000E-03 0. -1.
        -12    1    4    4    0    0  0.11861105281E+02  0.27350816671E+01 -0.23847977040E+01  0.12403779678E+02  0.00000000000E+00 0.  1.
</event>
<event>
 8    1  0.1280925E-006  0.9118800E+02  0.7816164E-02  0.1184000E+00
        -11   -1    0    0    0    0  0.00000000000E+00  0.00000000000E+00  0.45593999997E+02  0.45594000000E+02  0.51100000000E-03 0.  1.
         11   -1    0    0    0    0 -0.00000000000E+00 -0.00000000000E+00 -0.45593999997E+02  0.45594000000E+02  0.51100000000E-03 0. -1.
         23    2    1    2    0    0  0.00000000000E+00 -0.55511151231E-15  0.71054273576E-14  0.91188000000E+02  0.91188000000E+02 0.  0.
    9900012    2    3    3    0    0 -0.16894404429E+02  0.73868170493E+00  0.32708008187E+02  0.54367077262E+02  0.39999984234E+02 0.  0.
         12    1    3    3    0    0  0.16894404429E+02 -0.73868170493E+00 -0.32708008187E+02  0.36820922738E+02  0.00000000000E+00 0. -1.
         11    1    4    4    0    0 -0.51105972001E+01 -0.15620431320E+02  0.28248467778E+01  0.16676205742E+02  0.51100000000E-03 0. -1.
        -11    1    4    4    0    0  0.13511739730E+01  0.79272810682E+00  0.49108740689E-01  0.15673228405E+01  0.51100000000E-03 0.  1.
        -12    1    4    4    0    0 -0.13134981202E+02  0.15566384918E+02  0.29834052669E+02  0.36123548680E+02  0.00000000000E+00 0.  1.
</event>
<event>
 8    1  0.1280925E-006  0.9118800E+02  0.7816164E-02  0.1184000E+00
        -11   -1    0    0    0    0  0.00000000000E+00  0.00000000000E+00  0.45593999997E+02  0.45594000000E+02  0.51100000000E-03 0.  1.
         11   -1    0    0    0    0 -0.00000000000E+00 -0.00000000000E+00 -0.45593999997E+02  0.45594000000E+02  0.51100000000E-03 0. -1.
         23    2    1    2    0    0  0.00000000000E+00  0.88817841970E-15 -0.35527136788E-14  0.91188000000E+02  0.91188000000E+02 0.  0.
    9900012    2    3    3    0    0 -0.31376414459E+02 -0.46519191035E+01  0.18699223537E+02  0.54367072573E+02  0.39999973546E+02 0.  0.
         12    1    3    3    0    0  0.31376414459E+02  0.46519191035E+01 -0.18699223537E+02  0.36820927427E+02  0.00000000000E+00 0. -1.
         11    1    4    4    0    0 -0.45342892846E+01  0.61841967920E+00 -0.64490527704E+01  0.79077496238E+01  0.51100000000E-03 0. -1.
        -11    1    4    4    0    0  0.10152134760E+01  0.11207020460E+00  0.16873990228E+02  0.16904873990E+02  0.51100000000E-03 0.  1.
        -12    1    4    4    0    0 -0.27857338650E+02 -0.53824089873E+01  0.82742860797E+01  0.29554448960E+02  0.00000000000E+00 0.  1.
</event>
<event>
 8    1  0.1280925E-006  0.9118800E+02  0.7816164E-02  0.1184000E+00
        -11   -1    0    0    0    0  0.00000000000E+00  0.00000000000E+00  0.45593999997E+02  0.45594000000E+02  0.51100000000E-03 0. -1.
         11   -1    0    0    0    0 -0.00000000000E+00 -0.00000000000E+00 -0.45593999997E+02  0.45594000000E+02  0.51100000000E-03 0.  1.
         23    2    1    2    0    0  0.00000000000E+00  0.00000000000E+00 -0.35527136788E-14  0.91188000000E+02  0.91188000000E+02 0.  0.
    9900012    2    3    3    0    0 -0.18111510227E+02 -0.21284722878E+02  0.23973256585E+02  0.54367037738E+02  0.39999894130E+02 0.  0.
        -12    1    3    3    0    0  0.18111510227E+02  0.21284722878E+02 -0.23973256585E+02  0.36820962262E+02  0.00000000000E+00 0.  1.
         11    1    4    4    0    0 -0.20875934687E+02 -0.68443855101E+01  0.17307920539E+02  0.27968095675E+02  0.51100000000E-03 0. -1.
        -11    1    4    4    0    0  0.48731864654E+01 -0.16454846558E+01 -0.62518121253E+01  0.80957224007E+01  0.51100000000E-03 0.  1.
         12    1    4    4    0    0 -0.21087620051E+01 -0.12794852712E+02  0.12917148171E+02  0.18303219662E+02  0.00000000000E+00 0. -1.
</event>
<event>
 8    1  0.1280925E-006  0.9118800E+02  0.7816164E-02  0.1184000E+00
        -11   -1    0    0    0    0  0.00000000000E+00  0.00000000000E+00  0.45593999997E+02  0.45594000000E+02  0.51100000000E-03 0.  1.
         11   -1    0    0    0    0 -0.00000000000E+00 -0.00000000000E+00 -0.45593999997E+02  0.45594000000E+02  0.51100000000E-03 0. -1.
         23    2    1    2    0    0  0.00000000000E+00  0.00000000000E+00  0.17763568394E-14  0.91188000000E+02  0.91188000000E+02 0.  0.
    9900012    2    3    3    0    0 -0.23243380174E+02  0.24982886320E+02  0.13834023602E+02  0.54367088281E+02  0.40000009353E+02 0.  0.
        -12    1    3    3    0    0  0.23243380174E+02 -0.24982886320E+02 -0.13834023602E+02  0.36820911719E+02  0.00000000000E+00 0.  1.
         11    1    4    4    0    0 -0.12512232244E+02  0.19976139878E+02  0.74439668791E+00  0.23582965184E+02  0.51100000000E-03 0. -1.
        -11    1    4    4    0    0  0.33100707966E+00  0.50905161225E+01  0.17979456706E+02  0.18689135448E+02  0.51100000000E-03 0.  1.
         12    1    4    4    0    0 -0.11062155010E+02 -0.83769680382E-01 -0.48898297924E+01  0.12094987649E+02  0.00000000000E+00 0. -1.
</event>
<event>
 8    1  0.1280925E-006  0.9118800E+02  0.7816164E-02  0.1184000E+00
        -11   -1    0    0    0    0  0.00000000000E+00  0.00000000000E+00  0.45593999997E+02  0.45594000000E+02  0.51100000000E-03 0.  1.
         11   -1    0    0    0    0 -0.00000000000E+00 -0.00000000000E+00 -0.45593999997E+02  0.45594000000E+02  0.51100000000E-03 0. -1.
         23    2    1    2    0    0  0.00000000000E+00  0.00000000000E+00 -0.35527136788E-14  0.91188000000E+02  0.91188000000E+02 0.  0.
    9900012    2    3    3    0    0 -0.18308488629E+02  0.27170853112E+01  0.31830740354E+02  0.54367090995E+02  0.40000015542E+02 0.  0.
         12    1    3    3    0    0  0.18308488629E+02 -0.27170853112E+01 -0.31830740354E+02  0.36820909005E+02  0.00000000000E+00 0. -1.
         11    1    4    4    0    0 -0.60007075116E+01 -0.46260094287E+01 -0.13839148171E+01  0.77021863361E+01  0.51100000000E-03 0. -1.
        -11    1    4    4    0    0 -0.17396850227E+02  0.48011288557E+01  0.62378071309E+01  0.19094802281E+02  0.51100000000E-03 0.  1.
        -12    1    4    4    0    0  0.50890691097E+01  0.25419658841E+01  0.26976848040E+02  0.27570102378E+02  0.00000000000E+00 0.  1.
</event>
<event>
 8    1  0.1280925E-006  0.9118800E+02  0.7816164E-02  0.1184000E+00
        -11   -1    0    0    0    0  0.00000000000E+00  0.00000000000E+00  0.45593999997E+02  0.45594000000E+02  0.51100000000E-03 0.  1.
         11   -1    0    0    0    0 -0.00000000000E+00 -0.00000000000E+00 -0.45593999997E+02  0.45594000000E+02  0.51100000000E-03 0. -1.
         23    2    1    2    0    0  0.88817841970E-15  0.00000000000E+00 -0.35527136788E-14  0.91188000000E+02  0.91188000000E+02 0.  0.
    9900012    2    3    3    0    0 -0.47384829463E+01  0.25603127848E+02  0.26034704039E+02  0.54367093023E+02  0.40000020164E+02 0.  0.
         12    1    3    3    0    0  0.47384829463E+01 -0.25603127848E+02 -0.26034704039E+02  0.36820906977E+02  0.00000000000E+00 0. -1.
         11    1    4    4    0    0  0.40713818741E+00  0.10965875654E+02 -0.16365302772E+01  0.11094792561E+02  0.51100000000E-03 0. -1.
        -11    1    4    4    0    0 -0.34862842605E+01 -0.51520167955E+01 -0.28632874808E+01  0.68480559624E+01  0.51100000000E-03 0.  1.
        -12    1    4    4    0    0 -0.16593368732E+01  0.19789268989E+02  0.30534521797E+02  0.36424244499E+02  0.00000000000E+00 0.  1.
</event>
<event>
 8    1  0.1280925E-006  0.9118800E+02  0.7816164E-02  0.1184000E+00
        -11   -1    0    0    0    0  0.00000000000E+00  0.00000000000E+00  0.45593999997E+02  0.45594000000E+02  0.51100000000E-03 0.  1.
         11   -1    0    0    0    0 -0.00000000000E+00 -0.00000000000E+00 -0.45593999997E+02  0.45594000000E+02  0.51100000000E-03 0. -1.
         23    2    1    2    0    0  0.00000000000E+00 -0.35527136788E-14  0.35527136788E-14  0.91188000000E+02  0.91188000000E+02 0.  0.
    9900012    2    3    3    0    0 -0.13193805143E+02  0.21346296526E+02 -0.26945138146E+02  0.54367063847E+02  0.39999953651E+02 0.  0.
        -12    1    3    3    0    0  0.13193805143E+02 -0.21346296526E+02  0.26945138146E+02  0.36820936153E+02  0.00000000000E+00 0.  1.
         11    1    4    4    0    0 -0.58579685748E+01 -0.31316056540E+01 -0.76760638242E+01  0.10151093827E+02  0.51100000000E-03 0. -1.
        -11    1    4    4    0    0 -0.18075969040E+02  0.17003038738E+02 -0.18780566106E+02  0.31121594538E+02  0.51100000000E-03 0.  1.
        -12    1    4    4    0    0  0.10740132472E+02  0.74748634420E+01 -0.48850821567E+00  0.13094375482E+02  0.00000000000E+00 0.  1.
</event>
<event>
 8    1  0.1280925E-006  0.9118800E+02  0.7816164E-02  0.1184000E+00
        -11   -1    0    0    0    0  0.00000000000E+00  0.00000000000E+00  0.45593999997E+02  0.45594000000E+02  0.51100000000E-03 0. -1.
         11   -1    0    0    0    0 -0.00000000000E+00 -0.00000000000E+00 -0.45593999997E+02  0.45594000000E+02  0.51100000000E-03 0.  1.
         23    2    1    2    0    0  0.00000000000E+00  0.35527136788E-14 -0.35527136788E-14  0.91188000000E+02  0.91188000000E+02 0.  0.
    9900012    2    3    3    0    0  0.11668563655E+02 -0.29434023689E+02  0.18795253823E+02  0.54367099759E+02  0.40000035521E+02 0.  0.
        -12    1    3    3    0    0 -0.11668563655E+02  0.29434023689E+02 -0.18795253823E+02  0.36820900241E+02  0.00000000000E+00 0.  1.
         11    1    4    4    0    0  0.49775446459E+01  0.76730180227E+00  0.47110219789E+01  0.68962621111E+01  0.51100000000E-03 0. -1.
        -11    1    4    4    0    0  0.14090363941E+02 -0.36433483777E+00  0.77465597676E+01  0.16083540791E+02  0.51100000000E-03 0.  1.
         12    1    4    4    0    0 -0.73993449323E+01 -0.29836990653E+02  0.63376720764E+01  0.31387296857E+02  0.00000000000E+00 0. -1.
</event>
<event>
 8    1  0.1280925E-006  0.9118800E+02  0.7816164E-02  0.1184000E+00
        -11   -1    0    0    0    0  0.00000000000E+00  0.00000000000E+00  0.45593999997E+02  0.45594000000E+02  0.51100000000E-03 0. -1.
         11   -1    0    0    0    0 -0.00000000000E+00 -0.00000000000E+00 -0.45593999997E+02  0.45594000000E+02  0.51100000000E-03 0.  1.
         23    2    1    2    0    0  0.00000000000E+00  0.88817841970E-15 -0.44408920985E-15  0.91188000000E+02  0.91188000000E+02 0.  0.
    9900012    2    3    3    0    0  0.36668083643E+02 -0.30751107881E+01  0.13323809422E+01  0.54367083344E+02  0.39999998100E+02 0.  0.
        -12    1    3    3    0    0 -0.36668083643E+02  0.30751107881E+01 -0.13323809422E+01  0.36820916656E+02  0.00000000000E+00 0.  1.
         11    1    4    4    0    0 -0.35031830224E+01 -0.34690039331E+01 -0.13888868423E+01  0.51220392909E+01  0.51100000000E-03 0. -1.
        -11    1    4    4    0    0  0.12980875247E+01  0.51686068520E+01  0.81167305924E+01  0.97098323252E+01  0.51100000000E-03 0.  1.
        -12    1    4    4    0    0  0.38873179141E+02 -0.47747137070E+01 -0.53954628079E+01  0.39535211728E+02  0.00000000000E+00 0.  1.
</event>
<event>
 8    1  0.1280925E-006  0.9118800E+02  0.7816164E-02  0.1184000E+00
        -11   -1    0    0    0    0  0.00000000000E+00  0.00000000000E+00  0.45593999997E+02  0.45594000000E+02  0.51100000000E-03 0. -1.
         11   -1    0    0    0    0 -0.00000000000E+00 -0.00000000000E+00 -0.45593999997E+02  0.45594000000E+02  0.51100000000E-03 0.  1.
         23    2    1    2    0    0 -0.35527136788E-14  0.88817841970E-15 -0.35527136788E-14  0.91188000000E+02  0.91188000000E+02 0.  0.
    9900012    2    3    3    0    0  0.28865663837E+02  0.49020803401E+01  0.22327627868E+02  0.54367083300E+02  0.39999997999E+02 0.  0.
        -12    1    3    3    0    0 -0.28865663837E+02 -0.49020803401E+01 -0.22327627868E+02  0.36820916700E+02  0.00000000000E+00 0.  1.
         11    1    4    4    0    0  0.13057641768E+02 -0.66615477323E-02  0.11832378207E+02  0.17621215259E+02  0.51100000000E-03 0. -1.
        -11    1    4    4    0    0  0.61232778416E+01  0.46631703941E+01  0.21053622903E+02  0.22416394162E+02  0.51100000000E-03 0.  1.
         12    1    4    4    0    0  0.96847442278E+01  0.24557149366E+00 -0.10558373242E+02  0.14329473878E+02  0.00000000000E+00 0. -1.
</event>
<event>
 8    1  0.1280925E-006  0.9118800E+02  0.7816164E-02  0.1184000E+00
        -11   -1    0    0    0    0  0.00000000000E+00  0.00000000000E+00  0.45593999997E+02  0.45594000000E+02  0.51100000000E-03 0. -1.
         11   -1    0    0    0    0 -0.00000000000E+00 -0.00000000000E+00 -0.45593999997E+02  0.45594000000E+02  0.51100000000E-03 0.  1.
         23    2    1    2    0    0  0.35527136788E-14 -0.17763568394E-14  0.00000000000E+00  0.91188000000E+02  0.91188000000E+02 0.  0.
    9900012    2    3    3    0    0  0.19630617295E+02 -0.11261049835E+02 -0.29045023459E+02  0.54367003728E+02  0.39999816598E+02 0.  0.
         12    1    3    3    0    0 -0.19630617295E+02  0.11261049835E+02  0.29045023459E+02  0.36820996272E+02  0.00000000000E+00 0. -1.
         11    1    4    4    0    0  0.94772073121E+01 -0.92667184261E+01  0.48838594715E+01  0.14125919879E+02  0.51100000000E-03 0. -1.
        -11    1    4    4    0    0  0.14506901871E+02  0.27697236365E+01 -0.19739126457E+02  0.24652681081E+02  0.51100000000E-03 0.  1.
         12    1    4    4    0    0 -0.43534918883E+01 -0.47640550455E+01 -0.14189756473E+02  0.15588402768E+02  0.00000000000E+00 0. -1.
</event>
<event>
 8    1  0.1280925E-006  0.9118800E+02  0.7816164E-02  0.1184000E+00
        -11   -1    0    0    0    0  0.00000000000E+00  0.00000000000E+00  0.45593999997E+02  0.45594000000E+02  0.51100000000E-03 0. -1.
         11   -1    0    0    0    0 -0.00000000000E+00 -0.00000000000E+00 -0.45593999997E+02  0.45594000000E+02  0.51100000000E-03 0.  1.
         23    2    1    2    0    0  0.88817841970E-15 -0.17763568394E-14  0.71054273576E-14  0.91188000000E+02  0.91188000000E+02 0.  0.
    9900012    2    3    3    0    0 -0.63432569104E+01 -0.13033285931E+02 -0.33847834293E+02  0.54367091039E+02  0.40000015642E+02 0.  0.
         12    1    3    3    0    0  0.63432569104E+01  0.13033285931E+02  0.33847834293E+02  0.36820908961E+02  0.00000000000E+00 0. -1.
         11    1    4    4    0    0  0.21165603023E+01 -0.88879856062E+01  0.22737393858E+01  0.94152008319E+01  0.51100000000E-03 0. -1.
        -11    1    4    4    0    0 -0.17936336073E+01  0.51252728288E+01 -0.32532618352E+02  0.32982674243E+02  0.51100000000E-03 0.  1.
        -12    1    4    4    0    0 -0.66661836054E+01 -0.92705731541E+01 -0.35889553261E+01  0.11969215964E+02  0.00000000000E+00 0.  1.
</event>
<event>
 8    1  0.1280925E-006  0.9118800E+02  0.7816164E-02  0.1184000E+00
        -11   -1    0    0    0    0  0.00000000000E+00  0.00000000000E+00  0.45593999997E+02  0.45594000000E+02  0.51100000000E-03 0. -1.
         11   -1    0    0    0    0 -0.00000000000E+00 -0.00000000000E+00 -0.45593999997E+02  0.45594000000E+02  0.51100000000E-03 0.  1.
         23    2    1    2    0    0  0.71054273576E-14  0.00000000000E+00  0.00000000000E+00  0.91188000000E+02  0.91188000000E+02 0.  0.
    9900012    2    3    3    0    0 -0.19984165340E+02 -0.24064537354E+02 -0.19424589720E+02  0.54367034394E+02  0.39999886508E+02 0.  0.
         12    1    3    3    0    0  0.19984165340E+02  0.24064537354E+02  0.19424589720E+02  0.36820965606E+02  0.00000000000E+00 0. -1.
         11    1    4    4    0    0  0.84079778724E+01 -0.11461304055E+01 -0.58747484094E+01  0.10320870891E+02  0.51100000000E-03 0. -1.
        -11    1    4    4    0    0 -0.24483385172E+02 -0.24681239784E+02 -0.16852068438E+02  0.38634077673E+02  0.51100000000E-03 0.  1.
         12    1    4    4    0    0 -0.39087580406E+01  0.17628328354E+01  0.33022271281E+01  0.54120858300E+01  0.00000000000E+00 0. -1.
</event>
<event>
 8    1  0.1280925E-006  0.9118800E+02  0.7816164E-02  0.1184000E+00
        -11   -1    0    0    0    0  0.00000000000E+00  0.00000000000E+00  0.45593999997E+02  0.45594000000E+02  0.51100000000E-03 0.  1.
         11   -1    0    0    0    0 -0.00000000000E+00 -0.00000000000E+00 -0.45593999997E+02  0.45594000000E+02  0.51100000000E-03 0. -1.
         23    2    1    2    0    0  0.35527136788E-14  0.00000000000E+00  0.00000000000E+00  0.91188000000E+02  0.91188000000E+02 0.  0.
    9900012    2    3    3    0    0 -0.28613241273E+02  0.22033285196E+02  0.71830891347E+01  0.54367082002E+02  0.39999995040E+02 0.  0.
         12    1    3    3    0    0  0.28613241273E+02 -0.22033285196E+02 -0.71830891347E+01  0.36820917998E+02  0.00000000000E+00 0. -1.
         11    1    4    4    0    0  0.26178754683E+01  0.43304657844E+01  0.36756528134E+01  0.62543288803E+01  0.51100000000E-03 0. -1.
        -11    1    4    4    0    0 -0.26965325889E+02  0.51953056855E+01  0.14381370982E+02  0.30999094068E+02  0.51100000000E-03 0.  1.
        -12    1    4    4    0    0 -0.42657908517E+01  0.12507513726E+02 -0.10873934660E+02  0.17113659054E+02  0.00000000000E+00 0.  1.
</event>
<event>
 8    1  0.1280925E-006  0.9118800E+02  0.7816164E-02  0.1184000E+00
        -11   -1    0    0    0    0  0.00000000000E+00  0.00000000000E+00  0.45593999997E+02  0.45594000000E+02  0.51100000000E-03 0. -1.
         11   -1    0    0    0    0 -0.00000000000E+00 -0.00000000000E+00 -0.45593999997E+02  0.45594000000E+02  0.51100000000E-03 0.  1.
         23    2    1    2    0    0  0.00000000000E+00  0.35527136788E-14  0.00000000000E+00  0.91188000000E+02  0.91188000000E+02 0.  0.
    9900012    2    3    3    0    0 -0.84559287937E+01  0.24367664678E+02  0.26277261902E+02  0.54367077867E+02  0.39999985614E+02 0.  0.
        -12    1    3    3    0    0  0.84559287937E+01 -0.24367664678E+02 -0.26277261902E+02  0.36820922133E+02  0.00000000000E+00 0.  1.
         11    1    4    4    0    0 -0.83351431151E+01  0.23579884895E+02  0.18490668490E+02  0.31102900249E+02  0.51100000000E-03 0. -1.
        -11    1    4    4    0    0  0.46528762402E+00 -0.90522924509E+01  0.96419498849E+01  0.13233581867E+02  0.51100000000E-03 0.  1.
        -12    1    4    4    0    0 -0.58607330270E+00  0.98400722342E+01 -0.18553564730E+01  0.10030595752E+02  0.00000000000E+00 0.  1.
</event>
<event>
 8    1  0.1280925E-006  0.9118800E+02  0.7816164E-02  0.1184000E+00
        -11   -1    0    0    0    0  0.00000000000E+00  0.00000000000E+00  0.45593999997E+02  0.45594000000E+02  0.51100000000E-03 0.  1.
         11   -1    0    0    0    0 -0.00000000000E+00 -0.00000000000E+00 -0.45593999997E+02  0.45594000000E+02  0.51100000000E-03 0. -1.
         23    2    1    2    0    0  0.00000000000E+00  0.00000000000E+00  0.44408920985E-15  0.91188000000E+02  0.91188000000E+02 0.  0.
    9900012    2    3    3    0    0  0.91315704731E+01 -0.35509812974E+02 -0.33829351648E+01  0.54367127562E+02  0.40000098903E+02 0.  0.
         12    1    3    3    0    0 -0.91315704731E+01  0.35509812974E+02  0.33829351648E+01  0.36820872438E+02  0.00000000000E+00 0. -1.
         11    1    4    4    0    0  0.11382145073E+02 -0.20296241193E+02 -0.12076273964E+02  0.26216922515E+02  0.51100000000E-03 0. -1.
        -11    1    4    4    0    0  0.17714914131E+01  0.54069867699E+01  0.27317776728E+01  0.63116002148E+01  0.51100000000E-03 0.  1.
        -12    1    4    4    0    0 -0.40220660126E+01 -0.20620558551E+02  0.59615611261E+01  0.21838604832E+02  0.00000000000E+00 0.  1.
</event>
<event>
 8    1  0.1280925E-006  0.9118800E+02  0.7816164E-02  0.1184000E+00
        -11   -1    0    0    0    0  0.00000000000E+00  0.00000000000E+00  0.45593999997E+02  0.45594000000E+02  0.51100000000E-03 0.  1.
         11   -1    0    0    0    0 -0.00000000000E+00 -0.00000000000E+00 -0.45593999997E+02  0.45594000000E+02  0.51100000000E-03 0. -1.
         23    2    1    2    0    0  0.00000000000E+00  0.17763568394E-14 -0.35527136788E-14  0.91188000000E+02  0.91188000000E+02 0.  0.
    9900012    2    3    3    0    0 -0.16636458227E+02 -0.87547419012E+01 -0.31660109737E+02  0.54367084793E+02  0.40000001402E+02 0.  0.
        -12    1    3    3    0    0  0.16636458227E+02  0.87547419012E+01  0.31660109737E+02  0.36820915207E+02  0.00000000000E+00 0.  1.
         11    1    4    4    0    0 -0.14205107816E+02 -0.14313990005E+01 -0.13677314955E+02  0.19771265407E+02  0.51100000000E-03 0. -1.
        -11    1    4    4    0    0 -0.55779240149E+00  0.73345829583E+01 -0.18396779723E+02  0.19812842905E+02  0.51100000000E-03 0.  1.
        -12    1    4    4    0    0 -0.18735580100E+01 -0.14657925859E+02  0.41398494057E+00  0.14782976481E+02  0.00000000000E+00 0.  1.
</event>
<event>
 8    1  0.1280925E-006  0.9118800E+02  0.7816164E-02  0.1184000E+00
        -11   -1    0    0    0    0  0.00000000000E+00  0.00000000000E+00  0.45593999997E+02  0.45594000000E+02  0.51100000000E-03 0.  1.
         11   -1    0    0    0    0 -0.00000000000E+00 -0.00000000000E+00 -0.45593999997E+02  0.45594000000E+02  0.51100000000E-03 0. -1.
         23    2    1    2    0    0  0.35527136788E-14 -0.35527136788E-14  0.35527136788E-14  0.91188000000E+02  0.91188000000E+02 0.  0.
    9900012    2    3    3    0    0  0.17759069247E+02 -0.21030272631E+02  0.24456564089E+02  0.54367076132E+02  0.39999981657E+02 0.  0.
         12    1    3    3    0    0 -0.17759069247E+02  0.21030272631E+02 -0.24456564089E+02  0.36820923868E+02  0.00000000000E+00 0. -1.
         11    1    4    4    0    0  0.71240360185E+01 -0.25590736255E+02  0.13641389537E+02  0.29861767865E+02  0.51100000000E-03 0. -1.
        -11    1    4    4    0    0 -0.93599708913E+00 -0.31339508333E+01 -0.33362763564E+01  0.46720957357E+01  0.51100000000E-03 0.  1.
        -12    1    4    4    0    0  0.11571030318E+02  0.76944144575E+01  0.14151450909E+02  0.19833212531E+02  0.00000000000E+00 0.  1.
</event>
<event>
 8    1  0.1280925E-006  0.9118800E+02  0.7816164E-02  0.1184000E+00
        -11   -1    0    0    0    0  0.00000000000E+00  0.00000000000E+00  0.45593999997E+02  0.45594000000E+02  0.51100000000E-03 0.  1.
         11   -1    0    0    0    0 -0.00000000000E+00 -0.00000000000E+00 -0.45593999997E+02  0.45594000000E+02  0.51100000000E-03 0. -1.
         23    2    1    2    0    0 -0.11102230246E-14  0.00000000000E+00  0.00000000000E+00  0.91188000000E+02  0.91188000000E+02 0.  0.
    9900012    2    3    3    0    0  0.17451926359E+01 -0.15972693304E+02  0.33130168484E+02  0.54367072629E+02  0.39999973672E+02 0.  0.
         12    1    3    3    0    0 -0.17451926359E+01  0.15972693304E+02 -0.33130168484E+02  0.36820927371E+02  0.00000000000E+00 0. -1.
         11    1    4    4    0    0  0.27234160535E+01 -0.56716679575E+01  0.23114007015E+01  0.67027894107E+01  0.51100000000E-03 0. -1.
        -11    1    4    4    0    0  0.13128551268E+02 -0.15239202499E+02  0.23772721086E+02  0.31140559072E+02  0.51100000000E-03 0.  1.
         12    1    4    4    0    0 -0.14106774685E+02  0.49381771531E+01  0.70460466964E+01  0.16523724146E+02  0.00000000000E+00 0. -1.
</event>
<event>
 8    1  0.1280925E-006  0.9118800E+02  0.7816164E-02  0.1184000E+00
        -11   -1    0    0    0    0  0.00000000000E+00  0.00000000000E+00  0.45593999997E+02  0.45594000000E+02  0.51100000000E-03 0. -1.
         11   -1    0    0    0    0 -0.00000000000E+00 -0.00000000000E+00 -0.45593999997E+02  0.45594000000E+02  0.51100000000E-03 0.  1.
         23    2    1    2    0    0  0.00000000000E+00 -0.13322676296E-14 -0.88817841970E-15  0.91188000000E+02  0.91188000000E+02 0.  0.
    9900012    2    3    3    0    0  0.36263846511E+02  0.63437982137E+00  0.63480571117E+01  0.54367260863E+02  0.40000402788E+02 0.  0.
         12    1    3    3    0    0 -0.36263846511E+02 -0.63437982137E+00 -0.63480571117E+01  0.36820739137E+02  0.00000000000E+00 0. -1.
         11    1    4    4    0    0  0.59746508823E+01  0.76668021762E+00  0.13349366760E+02  0.14645471822E+02  0.51100000000E-03 0. -1.
        -11    1    4    4    0    0  0.26259917611E+02 -0.42558137244E+01  0.43826979201E+01  0.26961143610E+02  0.51100000000E-03 0.  1.
        -12    1    4    4    0    0  0.40292780168E+01  0.41235133281E+01 -0.11384007569E+02  0.12760645432E+02  0.00000000000E+00 0.  1.
</event>
<event>
 8    1  0.1280925E-006  0.9118800E+02  0.7816164E-02  0.1184000E+00
        -11   -1    0    0    0    0  0.00000000000E+00  0.00000000000E+00  0.45593999997E+02  0.45594000000E+02  0.51100000000E-03 0. -1.
         11   -1    0    0    0    0 -0.00000000000E+00 -0.00000000000E+00 -0.45593999997E+02  0.45594000000E+02  0.51100000000E-03 0.  1.
         23    2    1    2    0    0  0.00000000000E+00 -0.35527136788E-14  0.00000000000E+00  0.91188000000E+02  0.91188000000E+02 0.  0.
    9900012    2    3    3    0    0  0.85647081477E+01 -0.31705873461E+02  0.16648255748E+02  0.54367067678E+02  0.39999962386E+02 0.  0.
        -12    1    3    3    0    0 -0.85647081477E+01  0.31705873461E+02 -0.16648255748E+02  0.36820932322E+02  0.00000000000E+00 0.  1.
         11    1    4    4    0    0  0.59722734287E+01 -0.43674038622E+01  0.79548813201E+01  0.10863811646E+02  0.51100000000E-03 0. -1.
        -11    1    4    4    0    0  0.14755188299E+02 -0.16766670389E+02 -0.43703479183E+01  0.22758223983E+02  0.51100000000E-03 0.  1.
         12    1    4    4    0    0 -0.12162753580E+02 -0.10571799209E+02  0.13063722346E+02  0.20745032049E+02  0.00000000000E+00 0. -1.
</event>
<event>
 8    1  0.1280925E-006  0.9118800E+02  0.7816164E-02  0.1184000E+00
        -11   -1    0    0    0    0  0.00000000000E+00  0.00000000000E+00  0.45593999997E+02  0.45594000000E+02  0.51100000000E-03 0.  1.
         11   -1    0    0    0    0 -0.00000000000E+00 -0.00000000000E+00 -0.45593999997E+02  0.45594000000E+02  0.51100000000E-03 0. -1.
         23    2    1    2    0    0  0.35527136788E-14  0.17763568394E-14  0.00000000000E+00  0.91188000000E+02  0.91188000000E+02 0.  0.
    9900012    2    3    3    0    0  0.19525308810E+02  0.12389703751E+02 -0.28653736012E+02  0.54367095196E+02  0.40000025118E+02 0.  0.
        -12    1    3    3    0    0 -0.19525308810E+02 -0.12389703751E+02  0.28653736012E+02  0.36820904804E+02  0.00000000000E+00 0.  1.
         11    1    4    4    0    0  0.12721424090E+02 -0.82970433201E+01 -0.31152502578E+01  0.15504204048E+02  0.51100000000E-03 0. -1.
        -11    1    4    4    0    0 -0.19993467256E+01  0.20270949286E+02 -0.16233536237E+02  0.26046813074E+02  0.51100000000E-03 0.  1.
        -12    1    4    4    0    0  0.88032314452E+01  0.41579778514E+00 -0.93049495174E+01  0.12816078074E+02  0.00000000000E+00 0.  1.
</event>
<event>
 8    1  0.1280925E-006  0.9118800E+02  0.7816164E-02  0.1184000E+00
        -11   -1    0    0    0    0  0.00000000000E+00  0.00000000000E+00  0.45593999997E+02  0.45594000000E+02  0.51100000000E-03 0.  1.
         11   -1    0    0    0    0 -0.00000000000E+00 -0.00000000000E+00 -0.45593999997E+02  0.45594000000E+02  0.51100000000E-03 0. -1.
         23    2    1    2    0    0  0.00000000000E+00  0.00000000000E+00  0.00000000000E+00  0.91188000000E+02  0.91188000000E+02 0.  0.
    9900012    2    3    3    0    0  0.19125419536E+02 -0.29741637262E+02 -0.10267909767E+02  0.54367127788E+02  0.40000099418E+02 0.  0.
        -12    1    3    3    0    0 -0.19125419536E+02  0.29741637262E+02  0.10267909767E+02  0.36820872212E+02  0.00000000000E+00 0.  1.
         11    1    4    4    0    0  0.10940386025E+02 -0.46161987310E+01 -0.16478269568E+02  0.20310950379E+02  0.51100000000E-03 0. -1.
        -11    1    4    4    0    0 -0.30124268507E+01 -0.10804371568E+02 -0.54382444294E+01  0.12465298362E+02  0.51100000000E-03 0.  1.
         12    1    4    4    0    0  0.11197460361E+02 -0.14321066963E+02  0.11648604230E+02  0.21590879047E+02  0.00000000000E+00 0. -1.
</event>
<event>
 8    1  0.1280925E-006  0.9118800E+02  0.7816164E-02  0.1184000E+00
        -11   -1    0    0    0    0  0.00000000000E+00  0.00000000000E+00  0.45593999997E+02  0.45594000000E+02  0.51100000000E-03 0. -1.
         11   -1    0    0    0    0 -0.00000000000E+00 -0.00000000000E+00 -0.45593999997E+02  0.45594000000E+02  0.51100000000E-03 0.  1.
         23    2    1    2    0    0  0.00000000000E+00 -0.35527136788E-14  0.00000000000E+00  0.91188000000E+02  0.91188000000E+02 0.  0.
    9900012    2    3    3    0    0  0.32811559227E+02 -0.10724176175E+02  0.12812912391E+02  0.54367121446E+02  0.40000084960E+02 0.  0.
        -12    1    3    3    0    0 -0.32811559227E+02  0.10724176175E+02 -0.12812912391E+02  0.36820878554E+02  0.00000000000E+00 0.  1.
         11    1    4    4    0    0  0.26423286269E+02 -0.24061254997E+02  0.15305108098E+02  0.38876475965E+02  0.51100000000E-03 0. -1.
        -11    1    4    4    0    0  0.59437808215E+01  0.12086907290E+02 -0.10186475061E+01  0.13507757078E+02  0.51100000000E-03 0.  1.
         12    1    4    4    0    0  0.44449213645E+00  0.12501715317E+01 -0.14735482007E+01  0.19828884027E+01  0.00000000000E+00 0. -1.
</event>
<event>
 8    1  0.1280925E-006  0.9118800E+02  0.7816164E-02  0.1184000E+00
        -11   -1    0    0    0    0  0.00000000000E+00  0.00000000000E+00  0.45593999997E+02  0.45594000000E+02  0.51100000000E-03 0.  1.
         11   -1    0    0    0    0 -0.00000000000E+00 -0.00000000000E+00 -0.45593999997E+02  0.45594000000E+02  0.51100000000E-03 0. -1.
         23    2    1    2    0    0  0.00000000000E+00  0.00000000000E+00  0.00000000000E+00  0.91188000000E+02  0.91188000000E+02 0.  0.
    9900012    2    3    3    0    0  0.77082484166E+01  0.93668292549E+01 -0.34765271682E+02  0.54367099697E+02  0.40000035380E+02 0.  0.
        -12    1    3    3    0    0 -0.77082484166E+01 -0.93668292549E+01  0.34765271682E+02  0.36820900303E+02  0.00000000000E+00 0.  1.
         11    1    4    4    0    0  0.12896746105E+02 -0.28916289126E+01 -0.57147580250E+01  0.14399515180E+02  0.51100000000E-03 0. -1.
        -11    1    4    4    0    0  0.77231309464E+01 -0.31051403001E+00 -0.15838097786E+02  0.17623521564E+02  0.51100000000E-03 0.  1.
         12    1    4    4    0    0 -0.12911628635E+02  0.12568972197E+02 -0.13212415871E+02  0.22344062953E+02  0.00000000000E+00 0. -1.
</event>
<event>
 8    1  0.1280925E-006  0.9118800E+02  0.7816164E-02  0.1184000E+00
        -11   -1    0    0    0    0  0.00000000000E+00  0.00000000000E+00  0.45593999997E+02  0.45594000000E+02  0.51100000000E-03 0. -1.
         11   -1    0    0    0    0 -0.00000000000E+00 -0.00000000000E+00 -0.45593999997E+02  0.45594000000E+02  0.51100000000E-03 0.  1.
         23    2    1    2    0    0  0.00000000000E+00  0.00000000000E+00  0.35527136788E-14  0.91188000000E+02  0.91188000000E+02 0.  0.
    9900012    2    3    3    0    0 -0.26709609811E+02 -0.15797903660E+02  0.19819257166E+02  0.54367082427E+02  0.39999996009E+02 0.  0.
        -12    1    3    3    0    0  0.26709609811E+02  0.15797903660E+02 -0.19819257166E+02  0.36820917573E+02  0.00000000000E+00 0.  1.
         11    1    4    4    0    0 -0.20825442176E+01  0.53343250835E+01  0.14141644864E+02  0.15257068337E+02  0.51100000000E-03 0. -1.
        -11    1    4    4    0    0 -0.83377554364E+01  0.96146682633E-01  0.88563274740E+01  0.12163960970E+02  0.51100000000E-03 0.  1.
        -12    1    4    4    0    0 -0.16289310157E+02 -0.21228375426E+02 -0.31787151714E+01  0.26946053120E+02  0.00000000000E+00 0.  1.
</event>
<event>
 8    1  0.1280925E-006  0.9118800E+02  0.7816164E-02  0.1184000E+00
        -11   -1    0    0    0    0  0.00000000000E+00  0.00000000000E+00  0.45593999997E+02  0.45594000000E+02  0.51100000000E-03 0.  1.
         11   -1    0    0    0    0 -0.00000000000E+00 -0.00000000000E+00 -0.45593999997E+02  0.45594000000E+02  0.51100000000E-03 0. -1.
         23    2    1    2    0    0  0.17763568394E-14  0.17763568394E-14  0.00000000000E+00  0.91188000000E+02  0.91188000000E+02 0.  0.
    9900012    2    3    3    0    0 -0.84254105882E+01 -0.11013872869E+02  0.34109933274E+02  0.54367075417E+02  0.39999980029E+02 0.  0.
         12    1    3    3    0    0  0.84254105882E+01  0.11013872869E+02 -0.34109933274E+02  0.36820924583E+02  0.00000000000E+00 0. -1.
         11    1    4    4    0    0  0.15825776267E+01 -0.13650504499E+02  0.27300896024E+01  0.14010503721E+02  0.51100000000E-03 0. -1.
        -11    1    4    4    0    0 -0.15305032879E+02  0.37122848552E+01  0.31198789453E+02  0.34948384138E+02  0.51100000000E-03 0.  1.
        -12    1    4    4    0    0  0.52970446644E+01 -0.10756532249E+01  0.18105421887E+00  0.54081875584E+01  0.00000000000E+00 0.  1.
</event>
<event>
 8    1  0.1280925E-006  0.9118800E+02  0.7816164E-02  0.1184000E+00
        -11   -1    0    0    0    0  0.00000000000E+00  0.00000000000E+00  0.45593999997E+02  0.45594000000E+02  0.51100000000E-03 0.  1.
         11   -1    0    0    0    0 -0.00000000000E+00 -0.00000000000E+00 -0.45593999997E+02  0.45594000000E+02  0.51100000000E-03 0. -1.
         23    2    1    2    0    0  0.00000000000E+00  0.00000000000E+00 -0.35527136788E-14  0.91188000000E+02  0.91188000000E+02 0.  0.
    9900012    2    3    3    0    0  0.12035527317E+02  0.17021432770E+02 -0.30351208655E+02  0.54367096180E+02  0.40000027361E+02 0.  0.
        -12    1    3    3    0    0 -0.12035527317E+02 -0.17021432770E+02  0.30351208655E+02  0.36820903820E+02  0.00000000000E+00 0.  1.
         11    1    4    4    0    0  0.95925598516E+01  0.13021753355E+00 -0.19361208614E+02  0.21607650506E+02  0.51100000000E-03 0. -1.
        -11    1    4    4    0    0  0.13059021122E+02  0.11189138115E+02 -0.11517315691E+02  0.20697425091E+02  0.51100000000E-03 0.  1.
        -12    1    4    4    0    0 -0.10616053657E+02  0.57020771214E+01  0.52731565022E+00  0.12062020583E+02  0.00000000000E+00 0.  1.
</event>
<event>
 8    1  0.1280925E-006  0.9118800E+02  0.7816164E-02  0.1184000E+00
        -11   -1    0    0    0    0  0.00000000000E+00  0.00000000000E+00  0.45593999997E+02  0.45594000000E+02  0.51100000000E-03 0. -1.
         11   -1    0    0    0    0 -0.00000000000E+00 -0.00000000000E+00 -0.45593999997E+02  0.45594000000E+02  0.51100000000E-03 0.  1.
         23    2    1    2    0    0  0.00000000000E+00 -0.71054273576E-14  0.17763568394E-14  0.91188000000E+02  0.91188000000E+02 0.  0.
    9900012    2    3    3    0    0  0.21748723889E+02 -0.25679686692E+02  0.14944096081E+02  0.54367091442E+02  0.40000016559E+02 0.  0.
         12    1    3    3    0    0 -0.21748723889E+02  0.25679686692E+02 -0.14944096081E+02  0.36820908558E+02  0.00000000000E+00 0. -1.
         11    1    4    4    0    0  0.11520300822E+02 -0.58102634553E+01  0.32058626120E+01  0.13294888032E+02  0.51100000000E-03 0.  1.
        -11    1    4    4    0    0  0.31556482640E+01 -0.26814981589E+02  0.14679033391E+02  0.30732318089E+02  0.51100000000E-03 0. -1.
         12    1    4    4    0    0  0.70727748036E+01  0.69455583524E+01 -0.29407999224E+01  0.10339885320E+02  0.00000000000E+00 0. -1.
</event>
<event>
 8    1  0.1280925E-006  0.9118800E+02  0.7816164E-02  0.1184000E+00
        -11   -1    0    0    0    0  0.00000000000E+00  0.00000000000E+00  0.45593999997E+02  0.45594000000E+02  0.51100000000E-03 0.  1.
         11   -1    0    0    0    0 -0.00000000000E+00 -0.00000000000E+00 -0.45593999997E+02  0.45594000000E+02  0.51100000000E-03 0. -1.
         23    2    1    2    0    0  0.00000000000E+00  0.00000000000E+00  0.35527136788E-14  0.91188000000E+02  0.91188000000E+02 0.  0.
    9900012    2    3    3    0    0 -0.24192334997E+02 -0.19280110448E+02 -0.19969666886E+02  0.54367091170E+02  0.40000015941E+02 0.  0.
        -12    1    3    3    0    0  0.24192334997E+02  0.19280110448E+02  0.19969666886E+02  0.36820908830E+02  0.00000000000E+00 0.  1.
         11    1    4    4    0    0 -0.98895446898E+01 -0.53758634857E+01 -0.69838628805E+01  0.13246786153E+02  0.51100000000E-03 0.  1.
        -11    1    4    4    0    0 -0.15359253448E+02  0.78410788728E+01 -0.57730169603E+01  0.18185623702E+02  0.51100000000E-03 0. -1.
        -12    1    4    4    0    0  0.10564631405E+01 -0.21745325835E+02 -0.72127870455E+01  0.22934681315E+02  0.00000000000E+00 0.  1.
</event>
<event>
 8    1  0.1280925E-006  0.9118800E+02  0.7816164E-02  0.1184000E+00
        -11   -1    0    0    0    0  0.00000000000E+00  0.00000000000E+00  0.45593999997E+02  0.45594000000E+02  0.51100000000E-03 0. -1.
         11   -1    0    0    0    0 -0.00000000000E+00 -0.00000000000E+00 -0.45593999997E+02  0.45594000000E+02  0.51100000000E-03 0.  1.
         23    2    1    2    0    0  0.88817841970E-15  0.00000000000E+00  0.00000000000E+00  0.91188000000E+02  0.91188000000E+02 0.  0.
    9900012    2    3    3    0    0 -0.45600691118E+01  0.23884818184E+01 -0.36459317555E+02  0.54367069644E+02  0.39999966867E+02 0.  0.
         12    1    3    3    0    0  0.45600691118E+01 -0.23884818184E+01  0.36459317555E+02  0.36820930356E+02  0.00000000000E+00 0. -1.
         11    1    4    4    0    0 -0.37524895480E+01 -0.25112039643E+01 -0.16229766892E+02  0.16846146645E+02  0.51100000000E-03 0.  1.
        -11    1    4    4    0    0  0.16739275267E+01 -0.99551027308E+01 -0.20062829876E+02  0.22459368795E+02  0.51100000000E-03 0. -1.
        -12    1    4    4    0    0 -0.24815070906E+01  0.14854788514E+02 -0.16672078716E+00  0.15061554204E+02  0.00000000000E+00 0.  1.
</event>
<event>
 8    1  0.1280925E-006  0.9118800E+02  0.7816164E-02  0.1184000E+00
        -11   -1    0    0    0    0  0.00000000000E+00  0.00000000000E+00  0.45593999997E+02  0.45594000000E+02  0.51100000000E-03 0.  1.
         11   -1    0    0    0    0 -0.00000000000E+00 -0.00000000000E+00 -0.45593999997E+02  0.45594000000E+02  0.51100000000E-03 0. -1.
         23    2    1    2    0    0  0.00000000000E+00  0.00000000000E+00  0.35527136788E-14  0.91188000000E+02  0.91188000000E+02 0.  0.
    9900012    2    3    3    0    0  0.29285532435E+02  0.18543171248E+02 -0.12421344995E+02  0.54367062730E+02  0.39999951106E+02 0.  0.
        -12    1    3    3    0    0 -0.29285532435E+02 -0.18543171248E+02  0.12421344995E+02  0.36820937270E+02  0.00000000000E+00 0.  1.
         11    1    4    4    0    0  0.89746698620E+01 -0.39502129547E+01 -0.10713213526E+01  0.98639044612E+01  0.51100000000E-03 0. -1.
        -11    1    4    4    0    0  0.91628219636E+01  0.25386146426E+02  0.17675950826E+01  0.27046961555E+02  0.51100000000E-03 0.  1.
        -12    1    4    4    0    0  0.11148040609E+02 -0.28927622229E+01 -0.13117618725E+02  0.17456196714E+02  0.00000000000E+00 0.  1.
</event>
<event>
 8    1  0.1280925E-006  0.9118800E+02  0.7816164E-02  0.1184000E+00
        -11   -1    0    0    0    0  0.00000000000E+00  0.00000000000E+00  0.45593999997E+02  0.45594000000E+02  0.51100000000E-03 0.  1.
         11   -1    0    0    0    0 -0.00000000000E+00 -0.00000000000E+00 -0.45593999997E+02  0.45594000000E+02  0.51100000000E-03 0. -1.
         23    2    1    2    0    0 -0.17763568394E-14 -0.44408920985E-15  0.00000000000E+00  0.91188000000E+02  0.91188000000E+02 0.  0.
    9900012    2    3    3    0    0  0.11129118079E+02  0.32641217458E+01 -0.34946657624E+02  0.54367073354E+02  0.39999975325E+02 0.  0.
        -12    1    3    3    0    0 -0.11129118079E+02 -0.32641217458E+01  0.34946657624E+02  0.36820926646E+02  0.00000000000E+00 0.  1.
         11    1    4    4    0    0  0.23576623392E+02  0.29750432659E+01 -0.23375946740E+02  0.33333810752E+02  0.51100000000E-03 0. -1.
        -11    1    4    4    0    0 -0.54986818298E+01  0.25288558663E+01 -0.12287588156E+02  0.13697278445E+02  0.51100000000E-03 0.  1.
        -12    1    4    4    0    0 -0.69488234824E+01 -0.22397773863E+01  0.71687727174E+00  0.73359841570E+01  0.00000000000E+00 0.  1.
</event>
<event>
 8    1  0.1280925E-006  0.9118800E+02  0.7816164E-02  0.1184000E+00
        -11   -1    0    0    0    0  0.00000000000E+00  0.00000000000E+00  0.45593999997E+02  0.45594000000E+02  0.51100000000E-03 0.  1.
         11   -1    0    0    0    0 -0.00000000000E+00 -0.00000000000E+00 -0.45593999997E+02  0.45594000000E+02  0.51100000000E-03 0. -1.
         23    2    1    2    0    0 -0.35527136788E-14  0.71054273576E-14  0.26645352591E-14  0.91188000000E+02  0.91188000000E+02 0.  0.
    9900012    2    3    3    0    0  0.16673904376E+02 -0.32711432165E+02 -0.27790633100E+01  0.54367081023E+02  0.39999992809E+02 0.  0.
         12    1    3    3    0    0 -0.16673904376E+02  0.32711432165E+02  0.27790633100E+01  0.36820918977E+02  0.00000000000E+00 0. -1.
         11    1    4    4    0    0  0.38396974396E+01 -0.26384881212E+01  0.69578904983E+01  0.83735975805E+01  0.51100000000E-03 0. -1.
        -11    1    4    4    0    0  0.83376442446E+01 -0.10691113012E+02  0.10848705505E+02  0.17364061172E+02  0.51100000000E-03 0.  1.
         12    1    4    4    0    0  0.44965626919E+01 -0.19381831032E+02 -0.20585659314E+02  0.28629422271E+02  0.00000000000E+00 0. -1.
</event>
<event>
 8    1  0.1280925E-006  0.9118800E+02  0.7816164E-02  0.1184000E+00
        -11   -1    0    0    0    0  0.00000000000E+00  0.00000000000E+00  0.45593999997E+02  0.45594000000E+02  0.51100000000E-03 0.  1.
         11   -1    0    0    0    0 -0.00000000000E+00 -0.00000000000E+00 -0.45593999997E+02  0.45594000000E+02  0.51100000000E-03 0. -1.
         23    2    1    2    0    0  0.00000000000E+00  0.00000000000E+00  0.00000000000E+00  0.91188000000E+02  0.91188000000E+02 0.  0.
    9900012    2    3    3    0    0 -0.11450472662E+02 -0.34066430016E+02  0.80085768344E+01  0.54367186848E+02  0.40000234058E+02 0.  0.
         12    1    3    3    0    0  0.11450472662E+02  0.34066430016E+02 -0.80085768344E+01  0.36820813152E+02  0.00000000000E+00 0. -1.
         11    1    4    4    0    0 -0.30571626741E+01  0.60412492755E+01 -0.95993010547E+00  0.68384502991E+01  0.51100000000E-03 0. -1.
        -11    1    4    4    0    0  0.26227835549E+01 -0.46890939686E+01  0.89473346508E+01  0.10436541258E+02  0.51100000000E-03 0.  1.
         12    1    4    4    0    0 -0.11016093543E+02 -0.35418585323E+02  0.21172289029E-01  0.37092195291E+02  0.00000000000E+00 0. -1.
</event>
<event>
 8    1  0.1280925E-006  0.9118800E+02  0.7816164E-02  0.1184000E+00
        -11   -1    0    0    0    0  0.00000000000E+00  0.00000000000E+00  0.45593999997E+02  0.45594000000E+02  0.51100000000E-03 0. -1.
         11   -1    0    0    0    0 -0.00000000000E+00 -0.00000000000E+00 -0.45593999997E+02  0.45594000000E+02  0.51100000000E-03 0.  1.
         23    2    1    2    0    0  0.00000000000E+00  0.35527136788E-14  0.00000000000E+00  0.91188000000E+02  0.91188000000E+02 0.  0.
    9900012    2    3    3    0    0 -0.19638691986E+02 -0.25416149732E+02 -0.18003362048E+02  0.54367082913E+02  0.39999997116E+02 0.  0.
         12    1    3    3    0    0  0.19638691986E+02  0.25416149732E+02  0.18003362048E+02  0.36820917087E+02  0.00000000000E+00 0. -1.
         11    1    4    4    0    0 -0.20272051056E+02 -0.23962621921E+02 -0.92365022944E+01  0.32718133783E+02  0.51100000000E-03 0.  1.
        -11    1    4    4    0    0 -0.85864626376E+01 -0.19833250916E+01 -0.87432083475E+01  0.12413887848E+02  0.51100000000E-03 0. -1.
         12    1    4    4    0    0  0.92198217075E+01  0.52979728115E+00 -0.23651406343E-01  0.92350612811E+01  0.00000000000E+00 0. -1.
</event>
<event>
 8    1  0.1280925E-006  0.9118800E+02  0.7816164E-02  0.1184000E+00
        -11   -1    0    0    0    0  0.00000000000E+00  0.00000000000E+00  0.45593999997E+02  0.45594000000E+02  0.51100000000E-03 0. -1.
         11   -1    0    0    0    0 -0.00000000000E+00 -0.00000000000E+00 -0.45593999997E+02  0.45594000000E+02  0.51100000000E-03 0.  1.
         23    2    1    2    0    0  0.44408920985E-15 -0.35527136788E-14  0.00000000000E+00  0.91188000000E+02  0.91188000000E+02 0.  0.
    9900012    2    3    3    0    0 -0.31024248710E+01  0.18874052263E+02 -0.31463049957E+02  0.54367103739E+02  0.40000044594E+02 0.  0.
         12    1    3    3    0    0  0.31024248710E+01 -0.18874052263E+02  0.31463049957E+02  0.36820896261E+02  0.00000000000E+00 0. -1.
         11    1    4    4    0    0 -0.73189424862E+01  0.11210475050E+02 -0.10497760571E+02  0.17013072833E+02  0.51100000000E-03 0.  1.
        -11    1    4    4    0    0  0.66013827435E+01 -0.22332394207E+01 -0.25334799992E+02  0.26275800718E+02  0.51100000000E-03 0. -1.
         12    1    4    4    0    0 -0.23848651284E+01  0.98968166338E+01  0.43695106067E+01  0.11078230188E+02  0.00000000000E+00 0. -1.
</event>
<event>
 8    1  0.1280925E-006  0.9118800E+02  0.7816164E-02  0.1184000E+00
        -11   -1    0    0    0    0  0.00000000000E+00  0.00000000000E+00  0.45593999997E+02  0.45594000000E+02  0.51100000000E-03 0.  1.
         11   -1    0    0    0    0 -0.00000000000E+00 -0.00000000000E+00 -0.45593999997E+02  0.45594000000E+02  0.51100000000E-03 0. -1.
         23    2    1    2    0    0  0.17763568394E-14  0.35527136788E-14  0.00000000000E+00  0.91188000000E+02  0.91188000000E+02 0.  0.
    9900012    2    3    3    0    0  0.15273179686E+02  0.24158503257E+02  0.23213699248E+02  0.54367093845E+02  0.40000022037E+02 0.  0.
         12    1    3    3    0    0 -0.15273179686E+02 -0.24158503257E+02 -0.23213699248E+02  0.36820906155E+02  0.00000000000E+00 0. -1.
         11    1    4    4    0    0  0.17279252425E+02  0.23653514379E+02  0.14871084711E+02  0.32851338902E+02  0.51100000000E-03 0. -1.
        -11    1    4    4    0    0  0.72999029624E+01  0.56200749484E+01  0.39664187198E+01  0.10030269359E+02  0.51100000000E-03 0.  1.
         12    1    4    4    0    0 -0.93059757021E+01 -0.51150860706E+01  0.43761958166E+01  0.11485485584E+02  0.00000000000E+00 0. -1.
</event>
<event>
 8    1  0.1280925E-006  0.9118800E+02  0.7816164E-02  0.1184000E+00
        -11   -1    0    0    0    0  0.00000000000E+00  0.00000000000E+00  0.45593999997E+02  0.45594000000E+02  0.51100000000E-03 0.  1.
         11   -1    0    0    0    0 -0.00000000000E+00 -0.00000000000E+00 -0.45593999997E+02  0.45594000000E+02  0.51100000000E-03 0. -1.
         23    2    1    2    0    0 -0.35527136788E-14  0.35527136788E-14  0.35527136788E-14  0.91188000000E+02  0.91188000000E+02 0.  0.
    9900012    2    3    3    0    0  0.18439624634E+02 -0.27729604974E+02  0.15711172045E+02  0.54366923486E+02  0.39999633668E+02 0.  0.
         12    1    3    3    0    0 -0.18439624634E+02  0.27729604974E+02 -0.15711172045E+02  0.36821076514E+02  0.00000000000E+00 0. -1.
         11    1    4    4    0    0  0.25924238478E+02 -0.14351293101E+02  0.78443688215E+01  0.30652240976E+02  0.51100000000E-03 0. -1.
        -11    1    4    4    0    0 -0.12677949001E+02 -0.86905687371E+01  0.51707890939E+01  0.16217072361E+02  0.51100000000E-03 0.  1.
        -12    1    4    4    0    0  0.51933351565E+01 -0.46877431359E+01  0.26960141293E+01  0.74976101487E+01  0.00000000000E+00 0.  1.
</event>
<event>
 8    1  0.1280925E-006  0.9118800E+02  0.7816164E-02  0.1184000E+00
        -11   -1    0    0    0    0  0.00000000000E+00  0.00000000000E+00  0.45593999997E+02  0.45594000000E+02  0.51100000000E-03 0.  1.
         11   -1    0    0    0    0 -0.00000000000E+00 -0.00000000000E+00 -0.45593999997E+02  0.45594000000E+02  0.51100000000E-03 0. -1.
         23    2    1    2    0    0  0.00000000000E+00  0.00000000000E+00  0.00000000000E+00  0.91188000000E+02  0.91188000000E+02 0.  0.
    9900012    2    3    3    0    0  0.14557518230E+02  0.25289598290E+02  0.22456549488E+02  0.54367058492E+02  0.39999941443E+02 0.  0.
        -12    1    3    3    0    0 -0.14557518230E+02 -0.25289598290E+02 -0.22456549488E+02  0.36820941508E+02  0.00000000000E+00 0.  1.
         11    1    4    4    0    0  0.89842842026E+01 -0.53764216646E+01  0.84148590810E+01  0.13432539826E+02  0.51100000000E-03 0. -1.
        -11    1    4    4    0    0 -0.57592893046E+01  0.99872493075E-01  0.11221685413E+01  0.58684453056E+01  0.51100000000E-03 0.  1.
         12    1    4    4    0    0  0.11332523332E+02  0.30566147461E+02  0.12919521865E+02  0.35066073360E+02  0.00000000000E+00 0. -1.
</event>
<event>
 8    1  0.1280925E-006  0.9118800E+02  0.7816164E-02  0.1184000E+00
        -11   -1    0    0    0    0  0.00000000000E+00  0.00000000000E+00  0.45593999997E+02  0.45594000000E+02  0.51100000000E-03 0. -1.
         11   -1    0    0    0    0 -0.00000000000E+00 -0.00000000000E+00 -0.45593999997E+02  0.45594000000E+02  0.51100000000E-03 0.  1.
         23    2    1    2    0    0 -0.35527136788E-14  0.00000000000E+00  0.00000000000E+00  0.91188000000E+02  0.91188000000E+02 0.  0.
    9900012    2    3    3    0    0 -0.20027706695E+02 -0.16241794278E+02 -0.26284489728E+02  0.54367091305E+02  0.40000016248E+02 0.  0.
         12    1    3    3    0    0  0.20027706695E+02  0.16241794278E+02  0.26284489728E+02  0.36820908695E+02  0.00000000000E+00 0. -1.
         11    1    4    4    0    0 -0.79502976840E+01 -0.84670703523E+00  0.78862567723E+01  0.11230191103E+02  0.51100000000E-03 0. -1.
        -11    1    4    4    0    0 -0.13977185733E+02 -0.10184639875E+02 -0.33299915063E+02  0.37522965686E+02  0.51100000000E-03 0.  1.
        -12    1    4    4    0    0  0.18997767216E+01 -0.52104473674E+01 -0.87083143720E+00  0.56139345163E+01  0.00000000000E+00 0.  1.
</event>
<event>
 8    1  0.1280925E-006  0.9118800E+02  0.7816164E-02  0.1184000E+00
        -11   -1    0    0    0    0  0.00000000000E+00  0.00000000000E+00  0.45593999997E+02  0.45594000000E+02  0.51100000000E-03 0. -1.
         11   -1    0    0    0    0 -0.00000000000E+00 -0.00000000000E+00 -0.45593999997E+02  0.45594000000E+02  0.51100000000E-03 0.  1.
         23    2    1    2    0    0  0.00000000000E+00 -0.17763568394E-14  0.00000000000E+00  0.91188000000E+02  0.91188000000E+02 0.  0.
    9900012    2    3    3    0    0  0.90196151112E+01 -0.11422684076E+02  0.33822326167E+02  0.54367069599E+02  0.39999966765E+02 0.  0.
        -12    1    3    3    0    0 -0.90196151112E+01  0.11422684076E+02 -0.33822326167E+02  0.36820930401E+02  0.00000000000E+00 0.  1.
         11    1    4    4    0    0  0.14688247031E+02 -0.16734066971E+02  0.16378936171E+02  0.27641330442E+02  0.51100000000E-03 0. -1.
        -11    1    4    4    0    0 -0.82864906111E+00  0.11030838032E+02  0.48639947845E+01  0.12084059437E+02  0.51100000000E-03 0.  1.
         12    1    4    4    0    0 -0.48399828589E+01 -0.57194551371E+01  0.12579395212E+02  0.14641679720E+02  0.00000000000E+00 0. -1.
</event>
<event>
 8    1  0.1280925E-006  0.9118800E+02  0.7816164E-02  0.1184000E+00
        -11   -1    0    0    0    0  0.00000000000E+00  0.00000000000E+00  0.45593999997E+02  0.45594000000E+02  0.51100000000E-03 0.  1.
         11   -1    0    0    0    0 -0.00000000000E+00 -0.00000000000E+00 -0.45593999997E+02  0.45594000000E+02  0.51100000000E-03 0. -1.
         23    2    1    2    0    0  0.88817841970E-15  0.71054273576E-14  0.00000000000E+00  0.91188000000E+02  0.91188000000E+02 0.  0.
    9900012    2    3    3    0    0 -0.45324431770E+01 -0.34073577339E+02  0.13199530457E+02  0.54367091292E+02  0.40000016219E+02 0.  0.
         12    1    3    3    0    0  0.45324431770E+01  0.34073577339E+02 -0.13199530457E+02  0.36820908708E+02  0.00000000000E+00 0. -1.
         11    1    4    4    0    0 -0.23431263587E+01 -0.36045502953E+01  0.94183288041E+01  0.10353160951E+02  0.51100000000E-03 0. -1.
        -11    1    4    4    0    0  0.75298809136E+01 -0.83936026898E+01 -0.10977081597E+02  0.15736835557E+02  0.51100000000E-03 0.  1.
        -12    1    4    4    0    0 -0.97191977319E+01 -0.22075424354E+02  0.14758283250E+02  0.28277094784E+02  0.00000000000E+00 0.  1.
</event>
<event>
 8    1  0.1280925E-006  0.9118800E+02  0.7816164E-02  0.1184000E+00
        -11   -1    0    0    0    0  0.00000000000E+00  0.00000000000E+00  0.45593999997E+02  0.45594000000E+02  0.51100000000E-03 0.  1.
         11   -1    0    0    0    0 -0.00000000000E+00 -0.00000000000E+00 -0.45593999997E+02  0.45594000000E+02  0.51100000000E-03 0. -1.
         23    2    1    2    0    0 -0.82919782152E-15  0.17763568394E-14  0.00000000000E+00  0.91188000000E+02  0.91188000000E+02 0.  0.
    9900012    2    3    3    0    0 -0.26615161060E-01  0.15203478139E+02  0.33535552179E+02  0.54367085891E+02  0.40000003906E+02 0.  0.
         12    1    3    3    0    0  0.26615161060E-01 -0.15203478139E+02 -0.33535552179E+02  0.36820914109E+02  0.00000000000E+00 0. -1.
         11    1    4    4    0    0 -0.62867264868E+01  0.96021464559E+01 -0.56098296782E+00  0.11490815838E+02  0.51100000000E-03 0. -1.
        -11    1    4    4    0    0  0.11539665547E+02  0.12578121059E+02  0.20099700646E+02  0.26369887687E+02  0.51100000000E-03 0.  1.
        -12    1    4    4    0    0 -0.52795542211E+01 -0.69767893756E+01  0.13996834501E+02  0.16506382366E+02  0.00000000000E+00 0.  1.
</event>
<event>
 8    1  0.1280925E-006  0.9118800E+02  0.7816164E-02  0.1184000E+00
        -11   -1    0    0    0    0  0.00000000000E+00  0.00000000000E+00  0.45593999997E+02  0.45594000000E+02  0.51100000000E-03 0. -1.
         11   -1    0    0    0    0 -0.00000000000E+00 -0.00000000000E+00 -0.45593999997E+02  0.45594000000E+02  0.51100000000E-03 0.  1.
         23    2    1    2    0    0 -0.35527136788E-14  0.00000000000E+00  0.88817841970E-15  0.91188000000E+02  0.91188000000E+02 0.  0.
    9900012    2    3    3    0    0  0.17087775297E+02  0.32509896083E+02 -0.26258461608E+01  0.54367075568E+02  0.39999980373E+02 0.  0.
        -12    1    3    3    0    0 -0.17087775297E+02 -0.32509896083E+02  0.26258461608E+01  0.36820924432E+02  0.00000000000E+00 0.  1.
         11    1    4    4    0    0  0.11877648615E+02  0.21300384051E+02  0.65194148927E+01  0.25244557199E+02  0.51100000000E-03 0. -1.
        -11    1    4    4    0    0 -0.20576653476E+01  0.12958601662E+02 -0.14778228161E+02  0.19762473822E+02  0.51100000000E-03 0.  1.
         12    1    4    4    0    0  0.72677920292E+01 -0.17490896296E+01  0.56329671074E+01  0.93600445482E+01  0.00000000000E+00 0. -1.
</event>
<event>
 8    1  0.1280925E-006  0.9118800E+02  0.7816164E-02  0.1184000E+00
        -11   -1    0    0    0    0  0.00000000000E+00  0.00000000000E+00  0.45593999997E+02  0.45594000000E+02  0.51100000000E-03 0.  1.
         11   -1    0    0    0    0 -0.00000000000E+00 -0.00000000000E+00 -0.45593999997E+02  0.45594000000E+02  0.51100000000E-03 0. -1.
         23    2    1    2    0    0  0.55511151231E-16 -0.35527136788E-14  0.00000000000E+00  0.91188000000E+02  0.91188000000E+02 0.  0.
    9900012    2    3    3    0    0 -0.14800034522E+00 -0.24229745330E+02  0.27725146555E+02  0.54366997646E+02  0.39999802732E+02 0.  0.
         12    1    3    3    0    0  0.14800034522E+00  0.24229745330E+02 -0.27725146555E+02  0.36821002354E+02  0.00000000000E+00 0. -1.
         11    1    4    4    0    0 -0.32716893192E+01  0.37121685179E+01 -0.22532869385E+01  0.54370440862E+01  0.51100000000E-03 0. -1.
        -11    1    4    4    0    0  0.57870197345E+01 -0.74643528947E+01 -0.30951423487E+01  0.99391180677E+01  0.51100000000E-03 0.  1.
        -12    1    4    4    0    0 -0.26633307605E+01 -0.20477560954E+02  0.33073575842E+02  0.38990835492E+02  0.00000000000E+00 0.  1.
</event>
<event>
 8    1  0.1280925E-006  0.9118800E+02  0.7816164E-02  0.1184000E+00
        -11   -1    0    0    0    0  0.00000000000E+00  0.00000000000E+00  0.45593999997E+02  0.45594000000E+02  0.51100000000E-03 0. -1.
         11   -1    0    0    0    0 -0.00000000000E+00 -0.00000000000E+00 -0.45593999997E+02  0.45594000000E+02  0.51100000000E-03 0.  1.
         23    2    1    2    0    0  0.00000000000E+00  0.00000000000E+00  0.00000000000E+00  0.91188000000E+02  0.91188000000E+02 0.  0.
    9900012    2    3    3    0    0  0.49860324585E+01 -0.13641716435E+02 -0.33835276933E+02  0.54367042488E+02  0.39999904961E+02 0.  0.
         12    1    3    3    0    0 -0.49860324585E+01  0.13641716435E+02  0.33835276933E+02  0.36820957512E+02  0.00000000000E+00 0. -1.
         11    1    4    4    0    0  0.65267830497E+01  0.96113595400E+00 -0.86624965393E+01  0.10888596138E+02  0.51100000000E-03 0. -1.
        -11    1    4    4    0    0  0.13413933292E+02 -0.45909856944E+01 -0.20429573021E+02  0.24867211546E+02  0.51100000000E-03 0.  1.
        -12    1    4    4    0    0 -0.14954683883E+02 -0.10011866695E+02 -0.47432073725E+01  0.18611234804E+02  0.00000000000E+00 0.  1.
</event>
<event>
 8    1  0.1280925E-006  0.9118800E+02  0.7816164E-02  0.1184000E+00
        -11   -1    0    0    0    0  0.00000000000E+00  0.00000000000E+00  0.45593999997E+02  0.45594000000E+02  0.51100000000E-03 0. -1.
         11   -1    0    0    0    0 -0.00000000000E+00 -0.00000000000E+00 -0.45593999997E+02  0.45594000000E+02  0.51100000000E-03 0.  1.
         23    2    1    2    0    0  0.17763568394E-14 -0.35527136788E-14  0.00000000000E+00  0.91188000000E+02  0.91188000000E+02 0.  0.
    9900012    2    3    3    0    0 -0.13184632085E+02 -0.25743540992E+02  0.22786336765E+02  0.54367060723E+02  0.39999946531E+02 0.  0.
        -12    1    3    3    0    0  0.13184632085E+02  0.25743540992E+02 -0.22786336765E+02  0.36820939277E+02  0.00000000000E+00 0.  1.
         11    1    4    4    0    0 -0.16912657775E+02 -0.12623499032E+02  0.98005186871E+01  0.23268882388E+02  0.51100000000E-03 0. -1.
        -11    1    4    4    0    0 -0.60233688702E+01  0.48961385930E+01  0.39191860117E+01  0.86955830698E+01  0.51100000000E-03 0.  1.
         12    1    4    4    0    0  0.97513945595E+01 -0.18016180554E+02  0.90666320661E+01  0.22402595265E+02  0.00000000000E+00 0. -1.
</event>
<event>
 8    1  0.1280925E-006  0.9118800E+02  0.7816164E-02  0.1184000E+00
        -11   -1    0    0    0    0  0.00000000000E+00  0.00000000000E+00  0.45593999997E+02  0.45594000000E+02  0.51100000000E-03 0.  1.
         11   -1    0    0    0    0 -0.00000000000E+00 -0.00000000000E+00 -0.45593999997E+02  0.45594000000E+02  0.51100000000E-03 0. -1.
         23    2    1    2    0    0 -0.35527136788E-14  0.35527136788E-14  0.17763568394E-14  0.91188000000E+02  0.91188000000E+02 0.  0.
    9900012    2    3    3    0    0  0.25797086620E+02 -0.22998727348E+02 -0.12702398031E+02  0.54367054147E+02  0.39999931540E+02 0.  0.
        -12    1    3    3    0    0 -0.25797086620E+02  0.22998727348E+02  0.12702398031E+02  0.36820945853E+02  0.00000000000E+00 0.  1.
         11    1    4    4    0    0  0.68852367251E+01 -0.55346324713E+01 -0.12607623447E+02  0.15394505857E+02  0.51100000000E-03 0. -1.
        -11    1    4    4    0    0  0.35551761071E+01  0.82617374828E+01 -0.51405871617E+00  0.90088756242E+01  0.51100000000E-03 0.  1.
         12    1    4    4    0    0  0.15356673788E+02 -0.25725832360E+02  0.41928413190E+00  0.29963672666E+02  0.00000000000E+00 0. -1.
</event>
<event>
 8    1  0.1280925E-006  0.9118800E+02  0.7816164E-02  0.1184000E+00
        -11   -1    0    0    0    0  0.00000000000E+00  0.00000000000E+00  0.45593999997E+02  0.45594000000E+02  0.51100000000E-03 0.  1.
         11   -1    0    0    0    0 -0.00000000000E+00 -0.00000000000E+00 -0.45593999997E+02  0.45594000000E+02  0.51100000000E-03 0. -1.
         23    2    1    2    0    0  0.00000000000E+00 -0.22204460493E-15  0.00000000000E+00  0.91188000000E+02  0.91188000000E+02 0.  0.
    9900012    2    3    3    0    0 -0.22652994906E+02  0.15838836565E+01  0.28984716200E+02  0.54367073357E+02  0.39999975332E+02 0.  0.
         12    1    3    3    0    0  0.22652994906E+02 -0.15838836565E+01 -0.28984716200E+02  0.36820926643E+02  0.00000000000E+00 0. -1.
         11    1    4    4    0    0 -0.70906834057E+01  0.16848236340E+01  0.45831664481E+01  0.86094039741E+01  0.51100000000E-03 0. -1.
        -11    1    4    4    0    0  0.24286359458E+01  0.14578307013E+02  0.13844054077E+02  0.20250509660E+02  0.51100000000E-03 0.  1.
         12    1    4    4    0    0 -0.17990947446E+02 -0.14679246991E+02  0.10557495676E+02  0.25507159723E+02  0.00000000000E+00 0. -1.
</event>
<event>
 8    1  0.1280925E-006  0.9118800E+02  0.7816164E-02  0.1184000E+00
        -11   -1    0    0    0    0  0.00000000000E+00  0.00000000000E+00  0.45593999997E+02  0.45594000000E+02  0.51100000000E-03 0.  1.
         11   -1    0    0    0    0 -0.00000000000E+00 -0.00000000000E+00 -0.45593999997E+02  0.45594000000E+02  0.51100000000E-03 0. -1.
         23    2    1    2    0    0  0.13322676296E-14  0.00000000000E+00  0.00000000000E+00  0.91188000000E+02  0.91188000000E+02 0.  0.
    9900012    2    3    3    0    0  0.37268109185E+01  0.19541375128E+02  0.30984272138E+02  0.54367087716E+02  0.40000008066E+02 0.  0.
         12    1    3    3    0    0 -0.37268109185E+01 -0.19541375128E+02 -0.30984272138E+02  0.36820912284E+02  0.00000000000E+00 0. -1.
         11    1    4    4    0    0 -0.40089429741E+01 -0.23401067955E+01 -0.60808200070E+01  0.76501043001E+01  0.51100000000E-03 0. -1.
        -11    1    4    4    0    0  0.12536111927E+02  0.18390122123E+02  0.26573651565E+02  0.34662799248E+02  0.51100000000E-03 0.  1.
         12    1    4    4    0    0 -0.48003580348E+01  0.34913598007E+01  0.10491440580E+02  0.12054184168E+02  0.00000000000E+00 0. -1.
</event>
<event>
 8    1  0.1280925E-006  0.9118800E+02  0.7816164E-02  0.1184000E+00
        -11   -1    0    0    0    0  0.00000000000E+00  0.00000000000E+00  0.45593999997E+02  0.45594000000E+02  0.51100000000E-03 0.  1.
         11   -1    0    0    0    0 -0.00000000000E+00 -0.00000000000E+00 -0.45593999997E+02  0.45594000000E+02  0.51100000000E-03 0. -1.
         23    2    1    2    0    0  0.00000000000E+00  0.00000000000E+00 -0.17763568394E-14  0.91188000000E+02  0.91188000000E+02 0.  0.
    9900012    2    3    3    0    0 -0.11152727959E+02  0.31421565155E+02 -0.15623119898E+02  0.54367082398E+02  0.39999995943E+02 0.  0.
        -12    1    3    3    0    0  0.11152727959E+02 -0.31421565155E+02  0.15623119898E+02  0.36820917602E+02  0.00000000000E+00 0.  1.
         11    1    4    4    0    0  0.67925506588E+01  0.62386475021E+01 -0.67454815774E+00  0.92474040999E+01  0.51100000000E-03 0. -1.
        -11    1    4    4    0    0  0.48714253899E+01  0.17226123129E+02 -0.98161982634E+01  0.20416362359E+02  0.51100000000E-03 0.  1.
        -12    1    4    4    0    0 -0.22816704008E+02  0.79567945239E+01 -0.51323734772E+01  0.24703315939E+02  0.00000000000E+00 0.  1.
</event>
<event>
 8    1  0.1280925E-006  0.9118800E+02  0.7816164E-02  0.1184000E+00
        -11   -1    0    0    0    0  0.00000000000E+00  0.00000000000E+00  0.45593999997E+02  0.45594000000E+02  0.51100000000E-03 0. -1.
         11   -1    0    0    0    0 -0.00000000000E+00 -0.00000000000E+00 -0.45593999997E+02  0.45594000000E+02  0.51100000000E-03 0.  1.
         23    2    1    2    0    0  0.00000000000E+00  0.88817841970E-15  0.00000000000E+00  0.91188000000E+02  0.91188000000E+02 0.  0.
    9900012    2    3    3    0    0  0.17573439046E+02  0.74564394348E+01 -0.31485794019E+02  0.54367089176E+02  0.40000011394E+02 0.  0.
         12    1    3    3    0    0 -0.17573439046E+02 -0.74564394348E+01  0.31485794019E+02  0.36820910824E+02  0.00000000000E+00 0. -1.
         11    1    4    4    0    0  0.14320616069E+02 -0.13404543956E+02 -0.13087409389E+02  0.23580545541E+02  0.51100000000E-03 0. -1.
        -11    1    4    4    0    0  0.11324169862E+01 -0.28466109559E+00 -0.61458081076E+01  0.62557459769E+01  0.51100000000E-03 0.  1.
         12    1    4    4    0    0  0.21204059909E+01  0.21145644486E+02 -0.12252576522E+02  0.24530797658E+02  0.00000000000E+00 0. -1.
</event>
<event>
 8    1  0.1280925E-006  0.9118800E+02  0.7816164E-02  0.1184000E+00
        -11   -1    0    0    0    0  0.00000000000E+00  0.00000000000E+00  0.45593999997E+02  0.45594000000E+02  0.51100000000E-03 0.  1.
         11   -1    0    0    0    0 -0.00000000000E+00 -0.00000000000E+00 -0.45593999997E+02  0.45594000000E+02  0.51100000000E-03 0. -1.
         23    2    1    2    0    0  0.00000000000E+00  0.00000000000E+00  0.00000000000E+00  0.91188000000E+02  0.91188000000E+02 0.  0.
    9900012    2    3    3    0    0 -0.26009275841E+02  0.17395797438E+02 -0.19408568566E+02  0.54366963458E+02  0.39999724794E+02 0.  0.
        -12    1    3    3    0    0  0.26009275841E+02 -0.17395797438E+02  0.19408568566E+02  0.36821036542E+02  0.00000000000E+00 0.  1.
         11    1    4    4    0    0 -0.96617378721E+01  0.78105977762E+01 -0.21569547477E+02  0.24891765606E+02  0.51100000000E-03 0. -1.
        -11    1    4    4    0    0  0.32688440980E+01 -0.10835555430E+01 -0.49591502814E+01  0.60375993678E+01  0.51100000000E-03 0.  1.
         12    1    4    4    0    0 -0.19616382067E+02  0.10668755205E+02  0.71201291930E+01  0.23437598485E+02  0.00000000000E+00 0. -1.
</event>
<event>
 8    1  0.1280925E-006  0.9118800E+02  0.7816164E-02  0.1184000E+00
        -11   -1    0    0    0    0  0.00000000000E+00  0.00000000000E+00  0.45593999997E+02  0.45594000000E+02  0.51100000000E-03 0. -1.
         11   -1    0    0    0    0 -0.00000000000E+00 -0.00000000000E+00 -0.45593999997E+02  0.45594000000E+02  0.51100000000E-03 0.  1.
         23    2    1    2    0    0  0.00000000000E+00  0.00000000000E+00 -0.44408920985E-15  0.91188000000E+02  0.91188000000E+02 0.  0.
    9900012    2    3    3    0    0  0.36686459371E+02  0.21762931058E+01  0.22683819914E+01  0.54367107701E+02  0.40000053625E+02 0.  0.
         12    1    3    3    0    0 -0.36686459371E+02 -0.21762931058E+01 -0.22683819914E+01  0.36820892299E+02  0.00000000000E+00 0. -1.
         11    1    4    4    0    0 -0.35354132243E+01  0.44123717490E+01  0.46958034841E+01  0.73497443316E+01  0.51100000000E-03 0. -1.
        -11    1    4    4    0    0  0.17586536056E+02 -0.17150456536E+01  0.10883820457E+02  0.20752955935E+02  0.51100000000E-03 0.  1.
        -12    1    4    4    0    0  0.22635336539E+02 -0.52103298954E+00 -0.13311241949E+02  0.26264407434E+02  0.00000000000E+00 0.  1.
</event>
<event>
 8    1  0.1280925E-006  0.9118800E+02  0.7816164E-02  0.1184000E+00
        -11   -1    0    0    0    0  0.00000000000E+00  0.00000000000E+00  0.45593999997E+02  0.45594000000E+02  0.51100000000E-03 0.  1.
         11   -1    0    0    0    0 -0.00000000000E+00 -0.00000000000E+00 -0.45593999997E+02  0.45594000000E+02  0.51100000000E-03 0. -1.
         23    2    1    2    0    0  0.11102230246E-14  0.00000000000E+00  0.71054273576E-14  0.91188000000E+02  0.91188000000E+02 0.  0.
    9900012    2    3    3    0    0  0.12704444781E+01 -0.72229660920E+01  0.36083160394E+02  0.54367085666E+02  0.40000003394E+02 0.  0.
         12    1    3    3    0    0 -0.12704444781E+01  0.72229660920E+01 -0.36083160394E+02  0.36820914334E+02  0.00000000000E+00 0. -1.
         11    1    4    4    0    0 -0.75170916801E+01 -0.10604124031E+02  0.10371119068E+02  0.16628716871E+02  0.51100000000E-03 0. -1.
        -11    1    4    4    0    0 -0.50670470222E+01 -0.32498445809E+01  0.20737035643E+02  0.21593079976E+02  0.51100000000E-03 0.  1.
         12    1    4    4    0    0  0.13854583180E+02  0.66310025199E+01  0.49750056830E+01  0.16145288820E+02  0.00000000000E+00 0. -1.
</event>
<event>
 8    1  0.1280925E-006  0.9118800E+02  0.7816164E-02  0.1184000E+00
        -11   -1    0    0    0    0  0.00000000000E+00  0.00000000000E+00  0.45593999997E+02  0.45594000000E+02  0.51100000000E-03 0.  1.
         11   -1    0    0    0    0 -0.00000000000E+00 -0.00000000000E+00 -0.45593999997E+02  0.45594000000E+02  0.51100000000E-03 0. -1.
         23    2    1    2    0    0  0.88817841970E-15  0.00000000000E+00  0.17763568394E-14  0.91188000000E+02  0.91188000000E+02 0.  0.
    9900012    2    3    3    0    0 -0.67034870221E+01 -0.32661885661E+02  0.15621924702E+02  0.54367081427E+02  0.39999993729E+02 0.  0.
         12    1    3    3    0    0  0.67034870221E+01  0.32661885661E+02 -0.15621924702E+02  0.36820918573E+02  0.00000000000E+00 0. -1.
         11    1    4    4    0    0  0.73992375977E+01 -0.30408666819E+02  0.34102680787E+01  0.31481195393E+02  0.51100000000E-03 0. -1.
        -11    1    4    4    0    0 -0.11839914222E+01 -0.34884797489E+01  0.86904251706E+01  0.94390050616E+01  0.51100000000E-03 0.  1.
         12    1    4    4    0    0 -0.12918733198E+02  0.12352609070E+01  0.35212314531E+01  0.13446880972E+02  0.00000000000E+00 0. -1.
</event>
<event>
 8    1  0.1280925E-006  0.9118800E+02  0.7816164E-02  0.1184000E+00
        -11   -1    0    0    0    0  0.00000000000E+00  0.00000000000E+00  0.45593999997E+02  0.45594000000E+02  0.51100000000E-03 0.  1.
         11   -1    0    0    0    0 -0.00000000000E+00 -0.00000000000E+00 -0.45593999997E+02  0.45594000000E+02  0.51100000000E-03 0. -1.
         23    2    1    2    0    0  0.00000000000E+00 -0.35527136788E-14 -0.35527136788E-14  0.91188000000E+02  0.91188000000E+02 0.  0.
    9900012    2    3    3    0    0  0.20414838636E+02 -0.27519951350E+02 -0.13478418970E+02  0.54367066596E+02  0.39999959919E+02 0.  0.
        -12    1    3    3    0    0 -0.20414838636E+02  0.27519951350E+02  0.13478418970E+02  0.36820933404E+02  0.00000000000E+00 0.  1.
         11    1    4    4    0    0  0.41817217954E+01 -0.61703114132E+01  0.96910614068E+01  0.12226046440E+02  0.51100000000E-03 0. -1.
        -11    1    4    4    0    0  0.10651563463E+02 -0.82339811116E+01  0.16053004054E+01  0.13558437919E+02  0.51100000000E-03 0.  1.
         12    1    4    4    0    0  0.55815533768E+01 -0.13115658825E+02 -0.24774780782E+02  0.28582582236E+02  0.00000000000E+00 0. -1.
</event>
<event>
 8    1  0.1280925E-006  0.9118800E+02  0.7816164E-02  0.1184000E+00
        -11   -1    0    0    0    0  0.00000000000E+00  0.00000000000E+00  0.45593999997E+02  0.45594000000E+02  0.51100000000E-03 0. -1.
         11   -1    0    0    0    0 -0.00000000000E+00 -0.00000000000E+00 -0.45593999997E+02  0.45594000000E+02  0.51100000000E-03 0.  1.
         23    2    1    2    0    0 -0.17763568394E-14  0.00000000000E+00 -0.35527136788E-14  0.91188000000E+02  0.91188000000E+02 0.  0.
    9900012    2    3    3    0    0 -0.10280504610E+02  0.21278193304E+02  0.28237019480E+02  0.54367088082E+02  0.40000008901E+02 0.  0.
        -12    1    3    3    0    0  0.10280504610E+02 -0.21278193304E+02 -0.28237019480E+02  0.36820911918E+02  0.00000000000E+00 0.  1.
         11    1    4    4    0    0 -0.15970693896E+02  0.18339798428E+02  0.27832816285E+02  0.36960477980E+02  0.51100000000E-03 0. -1.
        -11    1    4    4    0    0 -0.31894244025E+01  0.69395705848E+01  0.64113322509E+00  0.76642755688E+01  0.51100000000E-03 0.  1.
        -12    1    4    4    0    0  0.88796136887E+01 -0.40011757094E+01 -0.23693002970E+00  0.97423345332E+01  0.00000000000E+00 0.  1.
</event>
<event>
 8    1  0.1280925E-006  0.9118800E+02  0.7816164E-02  0.1184000E+00
        -11   -1    0    0    0    0  0.00000000000E+00  0.00000000000E+00  0.45593999997E+02  0.45594000000E+02  0.51100000000E-03 0. -1.
         11   -1    0    0    0    0 -0.00000000000E+00 -0.00000000000E+00 -0.45593999997E+02  0.45594000000E+02  0.51100000000E-03 0.  1.
         23    2    1    2    0    0  0.00000000000E+00  0.35527136788E-14  0.00000000000E+00  0.91188000000E+02  0.91188000000E+02 0.  0.
    9900012    2    3    3    0    0  0.92419384144E+01  0.29670828217E+02  0.19748605878E+02  0.54367096876E+02  0.40000028948E+02 0.  0.
        -12    1    3    3    0    0 -0.92419384144E+01 -0.29670828217E+02 -0.19748605878E+02  0.36820903124E+02  0.00000000000E+00 0.  1.
         11    1    4    4    0    0 -0.81577988334E+01  0.10146471928E+02  0.10967692946E+01  0.13065354092E+02  0.51100000000E-03 0. -1.
        -11    1    4    4    0    0  0.11581585277E+02 -0.39956763065E+01  0.35651686255E+01  0.12759661996E+02  0.51100000000E-03 0.  1.
         12    1    4    4    0    0  0.58181519710E+01  0.23520032595E+02  0.15086667958E+02  0.28542080788E+02  0.00000000000E+00 0. -1.
</event>
<event>
 8    1  0.1280925E-006  0.9118800E+02  0.7816164E-02  0.1184000E+00
        -11   -1    0    0    0    0  0.00000000000E+00  0.00000000000E+00  0.45593999997E+02  0.45594000000E+02  0.51100000000E-03 0. -1.
         11   -1    0    0    0    0 -0.00000000000E+00 -0.00000000000E+00 -0.45593999997E+02  0.45594000000E+02  0.51100000000E-03 0.  1.
         23    2    1    2    0    0 -0.35527136788E-14  0.00000000000E+00  0.00000000000E+00  0.91188000000E+02  0.91188000000E+02 0.  0.
    9900012    2    3    3    0    0  0.41104140383E+01  0.16199753316E+02 -0.32809313521E+02  0.54367101521E+02  0.40000039537E+02 0.  0.
         12    1    3    3    0    0 -0.41104140383E+01 -0.16199753316E+02  0.32809313521E+02  0.36820898479E+02  0.00000000000E+00 0. -1.
         11    1    4    4    0    0 -0.40359807950E+00 -0.36366169912E+01  0.17994542796E+01  0.40774882607E+01  0.51100000000E-03 0. -1.
        -11    1    4    4    0    0 -0.13017134765E+02  0.84783353835E+01 -0.13307828878E+02  0.20455470615E+02  0.51100000000E-03 0.  1.
        -12    1    4    4    0    0  0.17531146883E+02  0.11358034924E+02 -0.21300938923E+02  0.29834142645E+02  0.00000000000E+00 0.  1.
</event>
<event>
 8    1  0.1280925E-006  0.9118800E+02  0.7816164E-02  0.1184000E+00
        -11   -1    0    0    0    0  0.00000000000E+00  0.00000000000E+00  0.45593999997E+02  0.45594000000E+02  0.51100000000E-03 0.  1.
         11   -1    0    0    0    0 -0.00000000000E+00 -0.00000000000E+00 -0.45593999997E+02  0.45594000000E+02  0.51100000000E-03 0. -1.
         23    2    1    2    0    0 -0.35527136788E-14  0.71054273576E-14  0.00000000000E+00  0.91188000000E+02  0.91188000000E+02 0.  0.
    9900012    2    3    3    0    0 -0.26980072767E+02  0.16255587325E+02  0.19068624846E+02  0.54367069820E+02  0.39999967269E+02 0.  0.
         12    1    3    3    0    0  0.26980072767E+02 -0.16255587325E+02 -0.19068624846E+02  0.36820930180E+02  0.00000000000E+00 0. -1.
         11    1    4    4    0    0  0.30935788750E+00 -0.48360124105E+00  0.45400495287E+00  0.73191066480E+00  0.51100000000E-03 0. -1.
        -11    1    4    4    0    0  0.22953024561E+01  0.14397938779E+02  0.19007596786E+02  0.23955329058E+02  0.51100000000E-03 0.  1.
         12    1    4    4    0    0 -0.29584733110E+02  0.23412497878E+01 -0.39297689268E+00  0.29679830097E+02  0.00000000000E+00 0. -1.
</event>
<event>
 8    1  0.1280925E-006  0.9118800E+02  0.7816164E-02  0.1184000E+00
        -11   -1    0    0    0    0  0.00000000000E+00  0.00000000000E+00  0.45593999997E+02  0.45594000000E+02  0.51100000000E-03 0. -1.
         11   -1    0    0    0    0 -0.00000000000E+00 -0.00000000000E+00 -0.45593999997E+02  0.45594000000E+02  0.51100000000E-03 0.  1.
         23    2    1    2    0    0  0.17763568394E-14  0.00000000000E+00  0.35527136788E-14  0.91188000000E+02  0.91188000000E+02 0.  0.
    9900012    2    3    3    0    0  0.80475592199E+01 -0.22601942052E+02  0.27931490021E+02  0.54367093863E+02  0.40000022080E+02 0.  0.
        -12    1    3    3    0    0 -0.80475592199E+01  0.22601942052E+02 -0.27931490021E+02  0.36820906137E+02  0.00000000000E+00 0.  1.
         11    1    4    4    0    0  0.93924964338E+00  0.62492527450E+00  0.37537362159E+00  0.11889605158E+01  0.51100000000E-03 0.  1.
        -11    1    4    4    0    0 -0.35658710123E+01 -0.15309549083E+02 -0.62017065871E+01  0.16898487922E+02  0.51100000000E-03 0. -1.
         12    1    4    4    0    0  0.10674180589E+02 -0.79173182439E+01  0.33757822986E+02  0.36279645426E+02  0.00000000000E+00 0. -1.
</event>
<event>
 8    1  0.1280925E-006  0.9118800E+02  0.7816164E-02  0.1184000E+00
        -11   -1    0    0    0    0  0.00000000000E+00  0.00000000000E+00  0.45593999997E+02  0.45594000000E+02  0.51100000000E-03 0.  1.
         11   -1    0    0    0    0 -0.00000000000E+00 -0.00000000000E+00 -0.45593999997E+02  0.45594000000E+02  0.51100000000E-03 0. -1.
         23    2    1    2    0    0  0.00000000000E+00 -0.71054273576E-14  0.35527136788E-14  0.91188000000E+02  0.91188000000E+02 0.  0.
    9900012    2    3    3    0    0 -0.25688827413E+01  0.32244582329E+02 -0.17591673829E+02  0.54367092404E+02  0.40000018753E+02 0.  0.
        -12    1    3    3    0    0  0.25688827413E+01 -0.32244582329E+02  0.17591673829E+02  0.36820907596E+02  0.00000000000E+00 0.  1.
         11    1    4    4    0    0 -0.36386109901E+01  0.11095659076E+01 -0.75254340904E+01  0.84322467321E+01  0.51100000000E-03 0. -1.
        -11    1    4    4    0    0 -0.37580354441E+01 -0.39142145487E+01 -0.90355297708E+01  0.10539672881E+02  0.51100000000E-03 0.  1.
        -12    1    4    4    0    0  0.48277636930E+01  0.35049230970E+02 -0.10307099678E+01  0.35395172791E+02  0.00000000000E+00 0.  1.
</event>
<event>
 8    1  0.1280925E-006  0.9118800E+02  0.7816164E-02  0.1184000E+00
        -11   -1    0    0    0    0  0.00000000000E+00  0.00000000000E+00  0.45593999997E+02  0.45594000000E+02  0.51100000000E-03 0.  1.
         11   -1    0    0    0    0 -0.00000000000E+00 -0.00000000000E+00 -0.45593999997E+02  0.45594000000E+02  0.51100000000E-03 0. -1.
         23    2    1    2    0    0 -0.71054273576E-14  0.00000000000E+00  0.11102230246E-15  0.91188000000E+02  0.91188000000E+02 0.  0.
    9900012    2    3    3    0    0 -0.36577748632E+02 -0.41714522630E+01 -0.66903757504E+00  0.54367077683E+02  0.39999985194E+02 0.  0.
         12    1    3    3    0    0  0.36577748632E+02  0.41714522630E+01  0.66903757504E+00  0.36820922317E+02  0.00000000000E+00 0. -1.
         11    1    4    4    0    0  0.66522583960E+01 -0.26307142301E+01  0.58625928755E+00  0.71775273835E+01  0.51100000000E-03 0. -1.
        -11    1    4    4    0    0 -0.38451504584E+02 -0.68737010438E+01 -0.45164177476E+01  0.39321291947E+02  0.51100000000E-03 0.  1.
         12    1    4    4    0    0 -0.47785024438E+01  0.53329630109E+01  0.32611208851E+01  0.78682583529E+01  0.00000000000E+00 0. -1.
</event>
<event>
 8    1  0.1280925E-006  0.9118800E+02  0.7816164E-02  0.1184000E+00
        -11   -1    0    0    0    0  0.00000000000E+00  0.00000000000E+00  0.45593999997E+02  0.45594000000E+02  0.51100000000E-03 0.  1.
         11   -1    0    0    0    0 -0.00000000000E+00 -0.00000000000E+00 -0.45593999997E+02  0.45594000000E+02  0.51100000000E-03 0. -1.
         23    2    1    2    0    0 -0.10547118734E-14  0.22204460493E-15  0.71054273576E-14  0.91188000000E+02  0.91188000000E+02 0.  0.
    9900012    2    3    3    0    0  0.28717656794E+00 -0.12840622823E+01  0.36797403613E+02  0.54367079330E+02  0.39999988949E+02 0.  0.
         12    1    3    3    0    0 -0.28717656794E+00  0.12840622823E+01 -0.36797403613E+02  0.36820920670E+02  0.00000000000E+00 0. -1.
         11    1    4    4    0    0  0.71714196738E+01 -0.17439381063E+01 -0.34960967504E+01  0.81665949456E+01  0.51100000000E-03 0. -1.
        -11    1    4    4    0    0 -0.24714278934E+01  0.83127880688E+01  0.55220891280E+01  0.10281238734E+02  0.51100000000E-03 0.  1.
         12    1    4    4    0    0 -0.44128152125E+01 -0.78529122448E+01  0.34771411235E+02  0.35919245651E+02  0.00000000000E+00 0. -1.
</event>
<event>
 8    1  0.1280925E-006  0.9118800E+02  0.7816164E-02  0.1184000E+00
        -11   -1    0    0    0    0  0.00000000000E+00  0.00000000000E+00  0.45593999997E+02  0.45594000000E+02  0.51100000000E-03 0. -1.
         11   -1    0    0    0    0 -0.00000000000E+00 -0.00000000000E+00 -0.45593999997E+02  0.45594000000E+02  0.51100000000E-03 0.  1.
         23    2    1    2    0    0 -0.88817841970E-15  0.00000000000E+00  0.17763568394E-14  0.91188000000E+02  0.91188000000E+02 0.  0.
    9900012    2    3    3    0    0  0.72949271750E+01 -0.33755243120E+02  0.12772824000E+02  0.54367116883E+02  0.40000074557E+02 0.  0.
        -12    1    3    3    0    0 -0.72949271750E+01  0.33755243120E+02 -0.12772824000E+02  0.36820883117E+02  0.00000000000E+00 0.  1.
         11    1    4    4    0    0 -0.26347761802E+01 -0.18125370481E+02  0.93969972124E+01  0.20585787754E+02  0.51100000000E-03 0. -1.
        -11    1    4    4    0    0 -0.98186680322E+01 -0.66156438451E+01  0.19452395284E+00  0.11841065207E+02  0.51100000000E-03 0.  1.
         12    1    4    4    0    0  0.19748371387E+02 -0.90142287944E+01  0.31813028347E+01  0.21940263921E+02  0.00000000000E+00 0. -1.
</event>
<event>
 8    1  0.1280925E-006  0.9118800E+02  0.7816164E-02  0.1184000E+00
        -11   -1    0    0    0    0  0.00000000000E+00  0.00000000000E+00  0.45593999997E+02  0.45594000000E+02  0.51100000000E-03 0. -1.
         11   -1    0    0    0    0 -0.00000000000E+00 -0.00000000000E+00 -0.45593999997E+02  0.45594000000E+02  0.51100000000E-03 0.  1.
         23    2    1    2    0    0  0.71054273576E-14  0.00000000000E+00  0.00000000000E+00  0.91188000000E+02  0.91188000000E+02 0.  0.
    9900012    2    3    3    0    0 -0.36184268919E+02 -0.49416961454E+01  0.46963632838E+01  0.54367115898E+02  0.40000072312E+02 0.  0.
         12    1    3    3    0    0  0.36184268919E+02  0.49416961454E+01 -0.46963632838E+01  0.36820884102E+02  0.00000000000E+00 0. -1.
         11    1    4    4    0    0 -0.32706122556E+02  0.90775026244E+01 -0.75573053644E+01  0.34773616021E+02  0.51100000000E-03 0. -1.
        -11    1    4    4    0    0 -0.26699618149E+01 -0.31412977520E+01  0.18464158583E+01  0.45172668111E+01  0.51100000000E-03 0.  1.
         12    1    4    4    0    0 -0.80818454803E+00 -0.10877901018E+02  0.10407252790E+02  0.15076233066E+02  0.00000000000E+00 0. -1.
</event>
<event>
 8    1  0.1280925E-006  0.9118800E+02  0.7816164E-02  0.1184000E+00
        -11   -1    0    0    0    0  0.00000000000E+00  0.00000000000E+00  0.45593999997E+02  0.45594000000E+02  0.51100000000E-03 0. -1.
         11   -1    0    0    0    0 -0.00000000000E+00 -0.00000000000E+00 -0.45593999997E+02  0.45594000000E+02  0.51100000000E-03 0.  1.
         23    2    1    2    0    0  0.00000000000E+00  0.38857805862E-15  0.17763568394E-14  0.91188000000E+02  0.91188000000E+02 0.  0.
    9900012    2    3    3    0    0  0.35645374054E+02 -0.43838101901E+00 -0.92193054746E+01  0.54367075748E+02  0.39999980782E+02 0.  0.
        -12    1    3    3    0    0 -0.35645374054E+02  0.43838101901E+00  0.92193054746E+01  0.36820924252E+02  0.00000000000E+00 0.  1.
         11    1    4    4    0    0  0.11410223555E+02  0.31116507493E+01  0.98182177923E+01  0.15371173437E+02  0.51100000000E-03 0. -1.
        -11    1    4    4    0    0  0.27270066423E+02  0.12127503120E+01 -0.11605759713E+02  0.29661775821E+02  0.51100000000E-03 0.  1.
        -12    1    4    4    0    0 -0.30349159244E+01 -0.47627820803E+01 -0.74317635537E+01  0.93341264900E+01  0.00000000000E+00 0.  1.
</event>
<event>
 8    1  0.1280925E-006  0.9118800E+02  0.7816164E-02  0.1184000E+00
        -11   -1    0    0    0    0  0.00000000000E+00  0.00000000000E+00  0.45593999997E+02  0.45594000000E+02  0.51100000000E-03 0.  1.
         11   -1    0    0    0    0 -0.00000000000E+00 -0.00000000000E+00 -0.45593999997E+02  0.45594000000E+02  0.51100000000E-03 0. -1.
         23    2    1    2    0    0  0.00000000000E+00  0.00000000000E+00  0.35527136788E-14  0.91188000000E+02  0.91188000000E+02 0.  0.
    9900012    2    3    3    0    0 -0.17185772106E+02 -0.16267429891E+02  0.28209878534E+02  0.54367118899E+02  0.40000079154E+02 0.  0.
         12    1    3    3    0    0  0.17185772106E+02  0.16267429891E+02 -0.28209878534E+02  0.36820881101E+02  0.00000000000E+00 0. -1.
         11    1    4    4    0    0 -0.49044132627E+01 -0.20259502412E+02  0.31346727208E+02  0.37644627961E+02  0.51100000000E-03 0. -1.
        -11    1    4    4    0    0  0.36065144553E+00 -0.12930992992E+01  0.17226675849E+01  0.21839778232E+01  0.51100000000E-03 0.  1.
         12    1    4    4    0    0 -0.12642010289E+02  0.52851718193E+01 -0.48595162596E+01  0.14538513115E+02  0.00000000000E+00 0. -1.
</event>
<event>
 8    1  0.1280925E-006  0.9118800E+02  0.7816164E-02  0.1184000E+00
        -11   -1    0    0    0    0  0.00000000000E+00  0.00000000000E+00  0.45593999997E+02  0.45594000000E+02  0.51100000000E-03 0.  1.
         11   -1    0    0    0    0 -0.00000000000E+00 -0.00000000000E+00 -0.45593999997E+02  0.45594000000E+02  0.51100000000E-03 0. -1.
         23    2    1    2    0    0  0.35527136788E-14  0.00000000000E+00  0.00000000000E+00  0.91188000000E+02  0.91188000000E+02 0.  0.
    9900012    2    3    3    0    0  0.30714353268E+02  0.23450558265E+01  0.20171980619E+02  0.54367087659E+02  0.40000007937E+02 0.  0.
        -12    1    3    3    0    0 -0.30714353268E+02 -0.23450558265E+01 -0.20171980619E+02  0.36820912341E+02  0.00000000000E+00 0.  1.
         11    1    4    4    0    0  0.23777294295E+02 -0.48062721962E+01  0.16911309038E+02  0.29571140493E+02  0.51100000000E-03 0. -1.
        -11    1    4    4    0    0  0.77364567625E+01  0.39157700635E+01  0.12364127666E+02  0.15101578449E+02  0.51100000000E-03 0.  1.
         12    1    4    4    0    0 -0.79939778951E+00  0.32355579592E+01 -0.91034560857E+01  0.96943687178E+01  0.00000000000E+00 0. -1.
</event>
<event>
 8    1  0.1280925E-006  0.9118800E+02  0.7816164E-02  0.1184000E+00
        -11   -1    0    0    0    0  0.00000000000E+00  0.00000000000E+00  0.45593999997E+02  0.45594000000E+02  0.51100000000E-03 0. -1.
         11   -1    0    0    0    0 -0.00000000000E+00 -0.00000000000E+00 -0.45593999997E+02  0.45594000000E+02  0.51100000000E-03 0.  1.
         23    2    1    2    0    0 -0.17763568394E-14 -0.17763568394E-14  0.71054273576E-14  0.91188000000E+02  0.91188000000E+02 0.  0.
    9900012    2    3    3    0    0  0.85184131515E+01  0.11448205999E+02 -0.33943414694E+02  0.54367079529E+02  0.39999989403E+02 0.  0.
         12    1    3    3    0    0 -0.85184131515E+01 -0.11448205999E+02  0.33943414694E+02  0.36820920471E+02  0.00000000000E+00 0. -1.
         11    1    4    4    0    0 -0.85995172762E+00 -0.11157551567E+02 -0.92104730801E+01  0.14493560245E+02  0.51100000000E-03 0. -1.
        -11    1    4    4    0    0  0.11526483974E+02  0.18294812705E+02 -0.26965790264E+02  0.34564632929E+02  0.51100000000E-03 0.  1.
        -12    1    4    4    0    0 -0.21481190951E+01  0.43109448614E+01  0.22328486494E+01  0.53088863556E+01  0.00000000000E+00 0.  1.
</event>
<event>
 8    1  0.1280925E-006  0.9118800E+02  0.7816164E-02  0.1184000E+00
        -11   -1    0    0    0    0  0.00000000000E+00  0.00000000000E+00  0.45593999997E+02  0.45594000000E+02  0.51100000000E-03 0. -1.
         11   -1    0    0    0    0 -0.00000000000E+00 -0.00000000000E+00 -0.45593999997E+02  0.45594000000E+02  0.51100000000E-03 0.  1.
         23    2    1    2    0    0  0.00000000000E+00  0.00000000000E+00  0.88817841970E-15  0.91188000000E+02  0.91188000000E+02 0.  0.
    9900012    2    3    3    0    0  0.16768231013E+02 -0.32447724833E+02 -0.46637361446E+01  0.54367097608E+02  0.40000030617E+02 0.  0.
        -12    1    3    3    0    0 -0.16768231013E+02  0.32447724833E+02  0.46637361446E+01  0.36820902392E+02  0.00000000000E+00 0.  1.
         11    1    4    4    0    0 -0.17002728397E+01 -0.36589458254E-02  0.69957385127E+01  0.71993957189E+01  0.51100000000E-03 0. -1.
        -11    1    4    4    0    0  0.25820444128E+01 -0.29357063133E+02 -0.64682646195E+01  0.30171883544E+02  0.51100000000E-03 0.  1.
        -12    1    4    4    0    0  0.15886459440E+02 -0.30870027532E+01 -0.51912100379E+01  0.16995818345E+02  0.00000000000E+00 0.  1.
</event>
<event>
 8    1  0.1280925E-006  0.9118800E+02  0.7816164E-02  0.1184000E+00
        -11   -1    0    0    0    0  0.00000000000E+00  0.00000000000E+00  0.45593999997E+02  0.45594000000E+02  0.51100000000E-03 0.  1.
         11   -1    0    0    0    0 -0.00000000000E+00 -0.00000000000E+00 -0.45593999997E+02  0.45594000000E+02  0.51100000000E-03 0. -1.
         23    2    1    2    0    0 -0.35527136788E-14 -0.11102230246E-15 -0.35527136788E-14  0.91188000000E+02  0.91188000000E+02 0.  0.
    9900012    2    3    3    0    0  0.27574475400E+02 -0.58525015604E+00  0.24394363541E+02  0.54367093114E+02  0.40000020371E+02 0.  0.
         12    1    3    3    0    0 -0.27574475400E+02  0.58525015604E+00 -0.24394363541E+02  0.36820906886E+02  0.00000000000E+00 0. -1.
         11    1    4    4    0    0 -0.61635297815E+01  0.24822214437E+00 -0.72215329862E+00  0.62106536893E+01  0.51100000000E-03 0. -1.
        -11    1    4    4    0    0  0.70527557139E+01 -0.88830786605E+01  0.14314724744E+02  0.18263674176E+02  0.51100000000E-03 0.  1.
         12    1    4    4    0    0  0.26685249468E+02  0.80496063601E+01  0.10801792096E+02  0.29892765248E+02  0.00000000000E+00 0. -1.
</event>
<event>
 8    1  0.1280925E-006  0.9118800E+02  0.7816164E-02  0.1184000E+00
        -11   -1    0    0    0    0  0.00000000000E+00  0.00000000000E+00  0.45593999997E+02  0.45594000000E+02  0.51100000000E-03 0.  1.
         11   -1    0    0    0    0 -0.00000000000E+00 -0.00000000000E+00 -0.45593999997E+02  0.45594000000E+02  0.51100000000E-03 0. -1.
         23    2    1    2    0    0  0.00000000000E+00  0.17763568394E-14  0.00000000000E+00  0.91188000000E+02  0.91188000000E+02 0.  0.
    9900012    2    3    3    0    0 -0.34584609884E+02  0.11306646508E+02 -0.56430125132E+01  0.54367094439E+02  0.40000023393E+02 0.  0.
        -12    1    3    3    0    0  0.34584609884E+02 -0.11306646508E+02  0.56430125132E+01  0.36820905561E+02  0.00000000000E+00 0.  1.
         11    1    4    4    0    0 -0.85933094169E+01  0.10842001509E+02 -0.41859017535E+01  0.14453917711E+02  0.51100000000E-03 0. -1.
        -11    1    4    4    0    0  0.46326613781E+00 -0.96570172033E+01 -0.57744105948E+01  0.11261279446E+02  0.51100000000E-03 0.  1.
        -12    1    4    4    0    0 -0.26454566605E+02  0.10121662203E+02  0.43172998351E+01  0.28651897282E+02  0.00000000000E+00 0.  1.
</event>
<event>
 8    1  0.1280925E-006  0.9118800E+02  0.7816164E-02  0.1184000E+00
        -11   -1    0    0    0    0  0.00000000000E+00  0.00000000000E+00  0.45593999997E+02  0.45594000000E+02  0.51100000000E-03 0.  1.
         11   -1    0    0    0    0 -0.00000000000E+00 -0.00000000000E+00 -0.45593999997E+02  0.45594000000E+02  0.51100000000E-03 0. -1.
         23    2    1    2    0    0  0.00000000000E+00  0.00000000000E+00  0.00000000000E+00  0.91188000000E+02  0.91188000000E+02 0.  0.
    9900012    2    3    3    0    0 -0.35623846566E+02  0.50918911642E+01 -0.77970558954E+01  0.54367083656E+02  0.39999998810E+02 0.  0.
        -12    1    3    3    0    0  0.35623846566E+02 -0.50918911642E+01  0.77970558954E+01  0.36820916344E+02  0.00000000000E+00 0.  1.
         11    1    4    4    0    0 -0.18244997267E+01 -0.84369011820E+00 -0.69110313160E+01  0.71974277614E+01  0.51100000000E-03 0. -1.
        -11    1    4    4    0    0 -0.11915288928E+02  0.25718308865E+01 -0.16181527026E+02  0.20259078003E+02  0.51100000000E-03 0.  1.
        -12    1    4    4    0    0 -0.21884057911E+02  0.33637503959E+01  0.15295502447E+02  0.26910577892E+02  0.00000000000E+00 0.  1.
</event>
<event>
 8    1  0.1280925E-006  0.9118800E+02  0.7816164E-02  0.1184000E+00
        -11   -1    0    0    0    0  0.00000000000E+00  0.00000000000E+00  0.45593999997E+02  0.45594000000E+02  0.51100000000E-03 0.  1.
         11   -1    0    0    0    0 -0.00000000000E+00 -0.00000000000E+00 -0.45593999997E+02  0.45594000000E+02  0.51100000000E-03 0. -1.
         23    2    1    2    0    0  0.35527136788E-14  0.00000000000E+00  0.35527136788E-14  0.91188000000E+02  0.91188000000E+02 0.  0.
    9900012    2    3    3    0    0  0.19560439370E+02  0.18722022800E+02  0.24953051618E+02  0.54367085954E+02  0.40000004050E+02 0.  0.
         12    1    3    3    0    0 -0.19560439370E+02 -0.18722022800E+02 -0.24953051618E+02  0.36820914046E+02  0.00000000000E+00 0. -1.
         11    1    4    4    0    0  0.11332766305E+01  0.83863712905E+01 -0.94160274683E+00  0.85148197478E+01  0.51100000000E-03 0. -1.
        -11    1    4    4    0    0  0.24972613094E+02  0.16499885510E+01  0.10824794174E+02  0.27267747177E+02  0.51100000000E-03 0.  1.
         12    1    4    4    0    0 -0.65454503539E+01  0.86856629588E+01  0.15069860191E+02  0.18584519029E+02  0.00000000000E+00 0. -1.
</event>
<event>
 8    1  0.1280925E-006  0.9118800E+02  0.7816164E-02  0.1184000E+00
        -11   -1    0    0    0    0  0.00000000000E+00  0.00000000000E+00  0.45593999997E+02  0.45594000000E+02  0.51100000000E-03 0.  1.
         11   -1    0    0    0    0 -0.00000000000E+00 -0.00000000000E+00 -0.45593999997E+02  0.45594000000E+02  0.51100000000E-03 0. -1.
         23    2    1    2    0    0  0.00000000000E+00 -0.35527136788E-14  0.00000000000E+00  0.91188000000E+02  0.91188000000E+02 0.  0.
    9900012    2    3    3    0    0  0.82171841921E+01 -0.25647791988E+02 -0.25108740594E+02  0.54367079260E+02  0.39999988789E+02 0.  0.
         12    1    3    3    0    0 -0.82171841921E+01  0.25647791988E+02  0.25108740594E+02  0.36820920740E+02  0.00000000000E+00 0. -1.
         11    1    4    4    0    0  0.10493413550E+00  0.23262778944E+00  0.68063795491E+01  0.68111621393E+01  0.51100000000E-03 0. -1.
        -11    1    4    4    0    0  0.79386080884E+01 -0.27413958564E+02 -0.18409878281E+02  0.33962777288E+02  0.51100000000E-03 0.  1.
         12    1    4    4    0    0  0.17364196815E+00  0.15335387866E+01 -0.13505241863E+02  0.13593139833E+02  0.00000000000E+00 0. -1.
</event>
<event>
 8    1  0.1280925E-006  0.9118800E+02  0.7816164E-02  0.1184000E+00
        -11   -1    0    0    0    0  0.00000000000E+00  0.00000000000E+00  0.45593999997E+02  0.45594000000E+02  0.51100000000E-03 0.  1.
         11   -1    0    0    0    0 -0.00000000000E+00 -0.00000000000E+00 -0.45593999997E+02  0.45594000000E+02  0.51100000000E-03 0. -1.
         23    2    1    2    0    0 -0.71054273576E-14  0.00000000000E+00  0.00000000000E+00  0.91188000000E+02  0.91188000000E+02 0.  0.
    9900012    2    3    3    0    0  0.32616835101E+02  0.79790344039E+01 -0.15108201326E+02  0.54367072943E+02  0.39999974389E+02 0.  0.
         12    1    3    3    0    0 -0.32616835101E+02 -0.79790344039E+01  0.15108201326E+02  0.36820927057E+02  0.00000000000E+00 0. -1.
         11    1    4    4    0    0  0.34747645432E+02 -0.51450431901E+01 -0.34421017897E+01  0.35294736116E+02  0.51100000000E-03 0.  1.
        -11    1    4    4    0    0 -0.42892733294E+01  0.58934333473E+01 -0.39957057004E+01  0.83124055855E+01  0.51100000000E-03 0. -1.
        -12    1    4    4    0    0  0.21584629979E+01  0.72306442467E+01 -0.76703938356E+01  0.10759931242E+02  0.00000000000E+00 0.  1.
</event>
<event>
 8    1  0.1280925E-006  0.9118800E+02  0.7816164E-02  0.1184000E+00
        -11   -1    0    0    0    0  0.00000000000E+00  0.00000000000E+00  0.45593999997E+02  0.45594000000E+02  0.51100000000E-03 0.  1.
         11   -1    0    0    0    0 -0.00000000000E+00 -0.00000000000E+00 -0.45593999997E+02  0.45594000000E+02  0.51100000000E-03 0. -1.
         23    2    1    2    0    0  0.00000000000E+00 -0.35527136788E-14  0.71054273576E-14  0.91188000000E+02  0.91188000000E+02 0.  0.
    9900012    2    3    3    0    0 -0.11337030500E+02  0.18526684441E+02 -0.29732337907E+02  0.54367106280E+02  0.40000050387E+02 0.  0.
        -12    1    3    3    0    0  0.11337030500E+02 -0.18526684441E+02  0.29732337907E+02  0.36820893720E+02  0.00000000000E+00 0.  1.
         11    1    4    4    0    0 -0.14428759016E+02  0.46050608407E+01 -0.66254125979E+00  0.15160297929E+02  0.51100000000E-03 0. -1.
        -11    1    4    4    0    0  0.43221243842E+01 -0.26565517803E+01  0.68879258514E+00  0.51198107426E+01  0.51100000000E-03 0.  1.
         12    1    4    4    0    0 -0.12303958676E+01  0.16578175380E+02 -0.29758589232E+02  0.34086997609E+02  0.00000000000E+00 0. -1.
</event>
<event>
 8    1  0.1280925E-006  0.9118800E+02  0.7816164E-02  0.1184000E+00
        -11   -1    0    0    0    0  0.00000000000E+00  0.00000000000E+00  0.45593999997E+02  0.45594000000E+02  0.51100000000E-03 0. -1.
         11   -1    0    0    0    0 -0.00000000000E+00 -0.00000000000E+00 -0.45593999997E+02  0.45594000000E+02  0.51100000000E-03 0.  1.
         23    2    1    2    0    0  0.00000000000E+00  0.88817841970E-15  0.35527136788E-14  0.91188000000E+02  0.91188000000E+02 0.  0.
    9900012    2    3    3    0    0  0.31394040765E+02 -0.70373656416E+01 -0.17907251345E+02  0.54367082556E+02  0.39999996303E+02 0.  0.
         12    1    3    3    0    0 -0.31394040765E+02  0.70373656416E+01  0.17907251345E+02  0.36820917444E+02  0.00000000000E+00 0. -1.
         11    1    4    4    0    0  0.11565391481E+01 -0.55288332534E+01  0.10315591324E+02  0.11760824996E+02  0.51100000000E-03 0. -1.
        -11    1    4    4    0    0  0.17260552477E+02  0.16713589641E+01 -0.10025677657E+02  0.20030834364E+02  0.51100000000E-03 0.  1.
         12    1    4    4    0    0  0.12976949139E+02 -0.31798913523E+01 -0.18197165012E+02  0.22575423196E+02  0.00000000000E+00 0. -1.
</event>
<event>
 8    1  0.1280925E-006  0.9118800E+02  0.7816164E-02  0.1184000E+00
        -11   -1    0    0    0    0  0.00000000000E+00  0.00000000000E+00  0.45593999997E+02  0.45594000000E+02  0.51100000000E-03 0. -1.
         11   -1    0    0    0    0 -0.00000000000E+00 -0.00000000000E+00 -0.45593999997E+02  0.45594000000E+02  0.51100000000E-03 0.  1.
         23    2    1    2    0    0  0.00000000000E+00  0.35527136788E-14  0.00000000000E+00  0.91188000000E+02  0.91188000000E+02 0.  0.
    9900012    2    3    3    0    0 -0.12728211504E+02 -0.30906360018E+02  0.15445686494E+02  0.54367086256E+02  0.40000004738E+02 0.  0.
        -12    1    3    3    0    0  0.12728211504E+02  0.30906360018E+02 -0.15445686494E+02  0.36820913744E+02  0.00000000000E+00 0.  1.
         11    1    4    4    0    0  0.31113629699E+00 -0.17814646659E+02  0.15433967816E+02  0.23572564650E+02  0.51100000000E-03 0. -1.
        -11    1    4    4    0    0 -0.11043046342E+02 -0.39356941069E+01  0.11190820565E+02  0.16207190558E+02  0.51100000000E-03 0.  1.
        -12    1    4    4    0    0 -0.19963014590E+01 -0.91560192525E+01 -0.11179101888E+02  0.14587331048E+02  0.00000000000E+00 0.  1.
</event>
<event>
 8    1  0.1280925E-006  0.9118800E+02  0.7816164E-02  0.1184000E+00
        -11   -1    0    0    0    0  0.00000000000E+00  0.00000000000E+00  0.45593999997E+02  0.45594000000E+02  0.51100000000E-03 0. -1.
         11   -1    0    0    0    0 -0.00000000000E+00 -0.00000000000E+00 -0.45593999997E+02  0.45594000000E+02  0.51100000000E-03 0.  1.
         23    2    1    2    0    0  0.00000000000E+00  0.00000000000E+00 -0.35527136788E-14  0.91188000000E+02  0.91188000000E+02 0.  0.
    9900012    2    3    3    0    0  0.70644885122E+01  0.18116960091E+02 -0.31267368082E+02  0.54367088174E+02  0.40000009111E+02 0.  0.
         12    1    3    3    0    0 -0.70644885122E+01 -0.18116960091E+02  0.31267368082E+02  0.36820911826E+02  0.00000000000E+00 0. -1.
         11    1    4    4    0    0  0.85932879212E+01  0.54808306913E+01 -0.20771399661E+02  0.23137310701E+02  0.51100000000E-03 0. -1.
        -11    1    4    4    0    0  0.54633574442E+01  0.17759687101E+02 -0.12420871438E+02  0.22350230604E+02  0.51100000000E-03 0.  1.
        -12    1    4    4    0    0 -0.69921568532E+01 -0.51235577016E+01  0.19249030166E+01  0.88795468693E+01  0.00000000000E+00 0.  1.
</event>
<event>
 8    1  0.1280925E-006  0.9118800E+02  0.7816164E-02  0.1184000E+00
        -11   -1    0    0    0    0  0.00000000000E+00  0.00000000000E+00  0.45593999997E+02  0.45594000000E+02  0.51100000000E-03 0. -1.
         11   -1    0    0    0    0 -0.00000000000E+00 -0.00000000000E+00 -0.45593999997E+02  0.45594000000E+02  0.51100000000E-03 0.  1.
         23    2    1    2    0    0  0.00000000000E+00 -0.35527136788E-14 -0.17763568394E-14  0.91188000000E+02  0.91188000000E+02 0.  0.
    9900012    2    3    3    0    0 -0.20906908728E+02 -0.26853710128E+02 -0.14055726812E+02  0.54367027221E+02  0.39999870155E+02 0.  0.
         12    1    3    3    0    0  0.20906908728E+02  0.26853710128E+02  0.14055726812E+02  0.36820972779E+02  0.00000000000E+00 0. -1.
         11    1    4    4    0    0  0.89495324188E+01  0.21452994026E+01 -0.23240827993E+00  0.92060009729E+01  0.51100000000E-03 0. -1.
        -11    1    4    4    0    0 -0.17077923969E+02 -0.10744524661E+02 -0.30335929090E+01  0.20403504196E+02  0.51100000000E-03 0.  1.
         12    1    4    4    0    0 -0.12778517178E+02 -0.18254484870E+02 -0.10789725623E+02  0.24757522052E+02  0.00000000000E+00 0. -1.
</event>
<event>
 8    1  0.1280925E-006  0.9118800E+02  0.7816164E-02  0.1184000E+00
        -11   -1    0    0    0    0  0.00000000000E+00  0.00000000000E+00  0.45593999997E+02  0.45594000000E+02  0.51100000000E-03 0. -1.
         11   -1    0    0    0    0 -0.00000000000E+00 -0.00000000000E+00 -0.45593999997E+02  0.45594000000E+02  0.51100000000E-03 0.  1.
         23    2    1    2    0    0  0.00000000000E+00 -0.80491169285E-15  0.00000000000E+00  0.91188000000E+02  0.91188000000E+02 0.  0.
    9900012    2    3    3    0    0 -0.25338549792E+02 -0.15523930753E+00 -0.26715411435E+02  0.54367090004E+02  0.40000013282E+02 0.  0.
         12    1    3    3    0    0  0.25338549792E+02  0.15523930753E+00  0.26715411435E+02  0.36820909996E+02  0.00000000000E+00 0. -1.
         11    1    4    4    0    0 -0.28550094231E+02 -0.68604287657E+01 -0.23537302206E+02  0.37632139972E+02  0.51100000000E-03 0. -1.
        -11    1    4    4    0    0 -0.15600306493E+01  0.97071303462E+01  0.75581796393E+00  0.98606965393E+01  0.51100000000E-03 0.  1.
         12    1    4    4    0    0  0.47715750886E+01 -0.30019408880E+01 -0.39339271931E+01  0.68742534927E+01  0.00000000000E+00 0. -1.
</event>
<event>
 8    1  0.1280925E-006  0.9118800E+02  0.7816164E-02  0.1184000E+00
        -11   -1    0    0    0    0  0.00000000000E+00  0.00000000000E+00  0.45593999997E+02  0.45594000000E+02  0.51100000000E-03 0.  1.
         11   -1    0    0    0    0 -0.00000000000E+00 -0.00000000000E+00 -0.45593999997E+02  0.45594000000E+02  0.51100000000E-03 0. -1.
         23    2    1    2    0    0  0.35527136788E-14  0.35527136788E-14  0.35527136788E-14  0.91188000000E+02  0.91188000000E+02 0.  0.
    9900012    2    3    3    0    0 -0.25621102060E+02 -0.19249278808E+02 -0.18132967899E+02  0.54367080263E+02  0.39999991077E+02 0.  0.
        -12    1    3    3    0    0  0.25621102060E+02  0.19249278808E+02  0.18132967899E+02  0.36820919737E+02  0.00000000000E+00 0.  1.
         11    1    4    4    0    0 -0.24927417903E+02 -0.13913678043E+02  0.78291724957E+00  0.28558353588E+02  0.51100000000E-03 0. -1.
        -11    1    4    4    0    0 -0.57607468915E+01 -0.70013463691E+00 -0.17960915281E+02  0.18875138973E+02  0.51100000000E-03 0.  1.
        -12    1    4    4    0    0  0.50670627340E+01 -0.46354661281E+01 -0.95496986746E+00  0.69335877021E+01  0.00000000000E+00 0.  1.
</event>
<event>
 8    1  0.1280925E-006  0.9118800E+02  0.7816164E-02  0.1184000E+00
        -11   -1    0    0    0    0  0.00000000000E+00  0.00000000000E+00  0.45593999997E+02  0.45594000000E+02  0.51100000000E-03 0.  1.
         11   -1    0    0    0    0 -0.00000000000E+00 -0.00000000000E+00 -0.45593999997E+02  0.45594000000E+02  0.51100000000E-03 0. -1.
         23    2    1    2    0    0  0.00000000000E+00  0.00000000000E+00  0.35527136788E-14  0.91188000000E+02  0.91188000000E+02 0.  0.
    9900012    2    3    3    0    0  0.16145603281E+02  0.16226215845E+02  0.28841041684E+02  0.54367132664E+02  0.40000110534E+02 0.  0.
         12    1    3    3    0    0 -0.16145603281E+02 -0.16226215845E+02 -0.28841041684E+02  0.36820867336E+02  0.00000000000E+00 0. -1.
         11    1    4    4    0    0  0.13739738999E+02  0.12421820893E+02  0.12554196536E+01  0.18564970801E+02  0.51100000000E-03 0. -1.
        -11    1    4    4    0    0 -0.38261939099E+01 -0.13119387747E+01 -0.24325038213E+01  0.47199595641E+01  0.51100000000E-03 0.  1.
        -12    1    4    4    0    0  0.62320581918E+01  0.51163337268E+01  0.30018125852E+02  0.31082202299E+02  0.00000000000E+00 0.  1.
</event>
<event>
 8    1  0.1280925E-006  0.9118800E+02  0.7816164E-02  0.1184000E+00
        -11   -1    0    0    0    0  0.00000000000E+00  0.00000000000E+00  0.45593999997E+02  0.45594000000E+02  0.51100000000E-03 0.  1.
         11   -1    0    0    0    0 -0.00000000000E+00 -0.00000000000E+00 -0.45593999997E+02  0.45594000000E+02  0.51100000000E-03 0. -1.
         23    2    1    2    0    0  0.35527136788E-14  0.00000000000E+00  0.14210854715E-13  0.91188000000E+02  0.91188000000E+02 0.  0.
    9900012    2    3    3    0    0 -0.54285378168E+01  0.30296997146E+01 -0.36292216934E+02  0.54367175550E+02  0.40000208301E+02 0.  0.
        -12    1    3    3    0    0  0.54285378168E+01 -0.30296997146E+01  0.36292216934E+02  0.36820824450E+02  0.00000000000E+00 0.  1.
         11    1    4    4    0    0  0.99153290941E+01  0.80949862507E+01 -0.21307249964E+02  0.24856416772E+02  0.51100000000E-03 0. -1.
        -11    1    4    4    0    0  0.39926357034E+01 -0.45705518374E+01 -0.39597344295E+01  0.72464184928E+01  0.51100000000E-03 0.  1.
        -12    1    4    4    0    0 -0.19336502614E+02 -0.49473469875E+00 -0.11025232540E+02  0.22264340285E+02  0.00000000000E+00 0.  1.
</event>
<event>
 8    1  0.1280925E-006  0.9118800E+02  0.7816164E-02  0.1184000E+00
        -11   -1    0    0    0    0  0.00000000000E+00  0.00000000000E+00  0.45593999997E+02  0.45594000000E+02  0.51100000000E-03 0.  1.
         11   -1    0    0    0    0 -0.00000000000E+00 -0.00000000000E+00 -0.45593999997E+02  0.45594000000E+02  0.51100000000E-03 0. -1.
         23    2    1    2    0    0  0.00000000000E+00 -0.71054273576E-14  0.00000000000E+00  0.91188000000E+02  0.91188000000E+02 0.  0.
    9900012    2    3    3    0    0  0.95175815774E+01 -0.34042563432E+02  0.10310133451E+02  0.54367091050E+02  0.40000015667E+02 0.  0.
        -12    1    3    3    0    0 -0.95175815774E+01  0.34042563432E+02 -0.10310133451E+02  0.36820908950E+02  0.00000000000E+00 0.  1.
         11    1    4    4    0    0 -0.21744151593E+01 -0.78357176855E+00 -0.89613502746E-01  0.23130276355E+01  0.51100000000E-03 0. -1.
        -11    1    4    4    0    0 -0.81918288604E+01  0.66476625893E+00  0.97168306424E+01  0.12726538109E+02  0.51100000000E-03 0.  1.
         12    1    4    4    0    0  0.19883825597E+02 -0.33923757922E+02  0.68291631167E+00  0.39327525305E+02  0.00000000000E+00 0. -1.
</event>
<event>
 8    1  0.1280925E-006  0.9118800E+02  0.7816164E-02  0.1184000E+00
        -11   -1    0    0    0    0  0.00000000000E+00  0.00000000000E+00  0.45593999997E+02  0.45594000000E+02  0.51100000000E-03 0.  1.
         11   -1    0    0    0    0 -0.00000000000E+00 -0.00000000000E+00 -0.45593999997E+02  0.45594000000E+02  0.51100000000E-03 0. -1.
         23    2    1    2    0    0  0.00000000000E+00  0.00000000000E+00  0.00000000000E+00  0.91188000000E+02  0.91188000000E+02 0.  0.
    9900012    2    3    3    0    0  0.16650419612E+02  0.20980214487E+02 -0.25266099189E+02  0.54367059744E+02  0.39999944297E+02 0.  0.
        -12    1    3    3    0    0 -0.16650419612E+02 -0.20980214487E+02  0.25266099189E+02  0.36820940256E+02  0.00000000000E+00 0.  1.
         11    1    4    4    0    0 -0.53526684145E+01 -0.60115175485E+01 -0.27753918923E+01  0.85142353038E+01  0.51100000000E-03 0. -1.
        -11    1    4    4    0    0  0.19973603399E+02  0.14644203734E+02 -0.66084321734E+01  0.25633355454E+02  0.51100000000E-03 0.  1.
         12    1    4    4    0    0  0.20294846268E+01  0.12347528301E+02 -0.15882275123E+02  0.20219468986E+02  0.00000000000E+00 0. -1.
</event>
<event>
 8    1  0.1280925E-006  0.9118800E+02  0.7816164E-02  0.1184000E+00
        -11   -1    0    0    0    0  0.00000000000E+00  0.00000000000E+00  0.45593999997E+02  0.45594000000E+02  0.51100000000E-03 0. -1.
         11   -1    0    0    0    0 -0.00000000000E+00 -0.00000000000E+00 -0.45593999997E+02  0.45594000000E+02  0.51100000000E-03 0.  1.
         23    2    1    2    0    0 -0.35527136788E-14  0.88817841970E-15 -0.35527136788E-14  0.91188000000E+02  0.91188000000E+02 0.  0.
    9900012    2    3    3    0    0 -0.30789635702E+02  0.64349985397E+01  0.19140812460E+02  0.54367060652E+02  0.39999946368E+02 0.  0.
        -12    1    3    3    0    0  0.30789635702E+02 -0.64349985397E+01 -0.19140812460E+02  0.36820939348E+02  0.00000000000E+00 0.  1.
         11    1    4    4    0    0 -0.52201291278E+01  0.58344742431E+00  0.22244967069E+02  0.22856699656E+02  0.51100000000E-03 0. -1.
        -11    1    4    4    0    0 -0.12564947107E+02  0.10627157579E+02  0.23466459626E+01  0.16622909539E+02  0.51100000000E-03 0.  1.
        -12    1    4    4    0    0 -0.13004559467E+02 -0.47756064634E+01 -0.54508005710E+01  0.14887451457E+02  0.00000000000E+00 0.  1.
</event>
<event>
 8    1  0.1280925E-006  0.9118800E+02  0.7816164E-02  0.1184000E+00
        -11   -1    0    0    0    0  0.00000000000E+00  0.00000000000E+00  0.45593999997E+02  0.45594000000E+02  0.51100000000E-03 0.  1.
         11   -1    0    0    0    0 -0.00000000000E+00 -0.00000000000E+00 -0.45593999997E+02  0.45594000000E+02  0.51100000000E-03 0. -1.
         23    2    1    2    0    0  0.00000000000E+00  0.35527136788E-14  0.00000000000E+00  0.91188000000E+02  0.91188000000E+02 0.  0.
    9900012    2    3    3    0    0  0.18397622092E+02  0.19760502633E+02  0.25036560669E+02  0.54367091088E+02  0.40000015753E+02 0.  0.
         12    1    3    3    0    0 -0.18397622092E+02 -0.19760502633E+02 -0.25036560669E+02  0.36820908912E+02  0.00000000000E+00 0. -1.
         11    1    4    4    0    0 -0.36623393900E+01 -0.74110089106E+01  0.12245260260E+01  0.83567485980E+01  0.51100000000E-03 0. -1.
        -11    1    4    4    0    0  0.90125444789E+01  0.23931694395E+02  0.12616280422E+02  0.28515302673E+02  0.51100000000E-03 0.  1.
        -12    1    4    4    0    0  0.13047417003E+02  0.32398171492E+01  0.11195754222E+02  0.17495039817E+02  0.00000000000E+00 0.  1.
</event>
<event>
 8    1  0.1280925E-006  0.9118800E+02  0.7816164E-02  0.1184000E+00
        -11   -1    0    0    0    0  0.00000000000E+00  0.00000000000E+00  0.45593999997E+02  0.45594000000E+02  0.51100000000E-03 0.  1.
         11   -1    0    0    0    0 -0.00000000000E+00 -0.00000000000E+00 -0.45593999997E+02  0.45594000000E+02  0.51100000000E-03 0. -1.
         23    2    1    2    0    0 -0.35527136788E-14  0.17763568394E-14 -0.35527136788E-14  0.91188000000E+02  0.91188000000E+02 0.  0.
    9900012    2    3    3    0    0 -0.28649441447E+02 -0.14516921514E+02 -0.18006882406E+02  0.54367091274E+02  0.40000016177E+02 0.  0.
        -12    1    3    3    0    0  0.28649441447E+02  0.14516921514E+02  0.18006882406E+02  0.36820908726E+02  0.00000000000E+00 0.  1.
         11    1    4    4    0    0 -0.10940112779E+01 -0.88310428104E+01  0.32415029567E+01  0.94705606737E+01  0.51100000000E-03 0. -1.
        -11    1    4    4    0    0  0.38289525045E+01  0.38977138572E+01  0.56490850447E+00  0.54929202137E+01  0.51100000000E-03 0.  1.
         12    1    4    4    0    0 -0.31384382673E+02 -0.95835925608E+01 -0.21813293867E+02  0.39403610386E+02  0.00000000000E+00 0. -1.
</event>
<event>
 8    1  0.1280925E-006  0.9118800E+02  0.7816164E-02  0.1184000E+00
        -11   -1    0    0    0    0  0.00000000000E+00  0.00000000000E+00  0.45593999997E+02  0.45594000000E+02  0.51100000000E-03 0. -1.
         11   -1    0    0    0    0 -0.00000000000E+00 -0.00000000000E+00 -0.45593999997E+02  0.45594000000E+02  0.51100000000E-03 0.  1.
         23    2    1    2    0    0 -0.35527136788E-14 -0.35527136788E-14  0.15543122345E-14  0.91188000000E+02  0.91188000000E+02 0.  0.
    9900012    2    3    3    0    0 -0.28064418077E+02 -0.23795039829E+02 -0.14017992965E+01  0.54367074920E+02  0.39999978895E+02 0.  0.
         12    1    3    3    0    0  0.28064418077E+02  0.23795039829E+02  0.14017992965E+01  0.36820925080E+02  0.00000000000E+00 0. -1.
         11    1    4    4    0    0  0.67391532123E+00 -0.43028065974E+01 -0.79243092749E+01  0.90422886605E+01  0.51100000000E-03 0.  1.
        -11    1    4    4    0    0 -0.24078650329E+02 -0.19402641687E+02  0.15960237152E+02  0.34799038439E+02  0.51100000000E-03 0. -1.
         12    1    4    4    0    0 -0.46596830699E+01 -0.89591544325E-01 -0.94377271741E+01  0.10525747820E+02  0.00000000000E+00 0. -1.
</event>
<event>
 8    1  0.1280925E-006  0.9118800E+02  0.7816164E-02  0.1184000E+00
        -11   -1    0    0    0    0  0.00000000000E+00  0.00000000000E+00  0.45593999997E+02  0.45594000000E+02  0.51100000000E-03 0.  1.
         11   -1    0    0    0    0 -0.00000000000E+00 -0.00000000000E+00 -0.45593999997E+02  0.45594000000E+02  0.51100000000E-03 0. -1.
         23    2    1    2    0    0  0.17763568394E-14 -0.71054273576E-14  0.00000000000E+00  0.91188000000E+02  0.91188000000E+02 0.  0.
    9900012    2    3    3    0    0  0.11636081400E+02 -0.34665888281E+02 -0.43194528604E+01  0.54367083747E+02  0.39999999019E+02 0.  0.
         12    1    3    3    0    0 -0.11636081400E+02  0.34665888281E+02  0.43194528604E+01  0.36820916253E+02  0.00000000000E+00 0. -1.
         11    1    4    4    0    0  0.86370705055E+01 -0.20522292242E+02  0.21747697178E+01  0.22371702871E+02  0.51100000000E-03 0. -1.
        -11    1    4    4    0    0  0.12176805816E+02 -0.17049398549E+02 -0.76395816572E+01  0.22300668128E+02  0.51100000000E-03 0.  1.
         12    1    4    4    0    0 -0.91777949219E+01  0.29058025100E+01  0.11453590790E+01  0.96947127485E+01  0.00000000000E+00 0. -1.
</event>
<event>
 8    1  0.1280925E-006  0.9118800E+02  0.7816164E-02  0.1184000E+00
        -11   -1    0    0    0    0  0.00000000000E+00  0.00000000000E+00  0.45593999997E+02  0.45594000000E+02  0.51100000000E-03 0. -1.
         11   -1    0    0    0    0 -0.00000000000E+00 -0.00000000000E+00 -0.45593999997E+02  0.45594000000E+02  0.51100000000E-03 0.  1.
         23    2    1    2    0    0  0.00000000000E+00  0.00000000000E+00  0.22204460493E-15  0.91188000000E+02  0.91188000000E+02 0.  0.
    9900012    2    3    3    0    0  0.36759329072E+02  0.11134324950E+01  0.18140749776E+01  0.54367097326E+02  0.40000029974E+02 0.  0.
        -12    1    3    3    0    0 -0.36759329072E+02 -0.11134324950E+01 -0.18140749776E+01  0.36820902674E+02  0.00000000000E+00 0.  1.
         11    1    4    4    0    0 -0.29316991635E+01  0.77463523652E+00 -0.67449603345E+01  0.73952288612E+01  0.51100000000E-03 0. -1.
        -11    1    4    4    0    0  0.78576015248E+00  0.63791435578E+01  0.33782319515E+01  0.72610841427E+01  0.51100000000E-03 0.  1.
         12    1    4    4    0    0  0.38905268083E+02 -0.60403462994E+01  0.51808033606E+01  0.39710784322E+02  0.00000000000E+00 0. -1.
</event>
<event>
 8    1  0.1280925E-006  0.9118800E+02  0.7816164E-02  0.1184000E+00
        -11   -1    0    0    0    0  0.00000000000E+00  0.00000000000E+00  0.45593999997E+02  0.45594000000E+02  0.51100000000E-03 0. -1.
         11   -1    0    0    0    0 -0.00000000000E+00 -0.00000000000E+00 -0.45593999997E+02  0.45594000000E+02  0.51100000000E-03 0.  1.
         23    2    1    2    0    0  0.00000000000E+00  0.22204460493E-15  0.00000000000E+00  0.91188000000E+02  0.91188000000E+02 0.  0.
    9900012    2    3    3    0    0  0.17827521495E+02  0.17234720339E+01 -0.32171245385E+02  0.54367083280E+02  0.39999997953E+02 0.  0.
         12    1    3    3    0    0 -0.17827521495E+02 -0.17234720339E+01  0.32171245385E+02  0.36820916720E+02  0.00000000000E+00 0. -1.
         11    1    4    4    0    0  0.22118008335E+02 -0.64647333066E+00 -0.20319055639E+02  0.30041442089E+02  0.51100000000E-03 0. -1.
        -11    1    4    4    0    0  0.29448252551E+01  0.35110612428E+01 -0.15485479935E+02  0.16149292118E+02  0.51100000000E-03 0.  1.
         12    1    4    4    0    0 -0.72353120956E+01 -0.11411158782E+01  0.36332901886E+01  0.81763490729E+01  0.00000000000E+00 0. -1.
</event>
<event>
 8    1  0.1280925E-006  0.9118800E+02  0.7816164E-02  0.1184000E+00
        -11   -1    0    0    0    0  0.00000000000E+00  0.00000000000E+00  0.45593999997E+02  0.45594000000E+02  0.51100000000E-03 0.  1.
         11   -1    0    0    0    0 -0.00000000000E+00 -0.00000000000E+00 -0.45593999997E+02  0.45594000000E+02  0.51100000000E-03 0. -1.
         23    2    1    2    0    0  0.00000000000E+00  0.17763568394E-14  0.22204460493E-15  0.91188000000E+02  0.91188000000E+02 0.  0.
    9900012    2    3    3    0    0 -0.35638388385E+02  0.91891749746E+01  0.11155297987E+01  0.54367081080E+02  0.39999992937E+02 0.  0.
         12    1    3    3    0    0  0.35638388385E+02 -0.91891749746E+01 -0.11155297987E+01  0.36820918920E+02  0.00000000000E+00 0. -1.
         11    1    4    4    0    0 -0.93766594912E+01  0.54476152529E+01  0.10152539994E+02  0.14855043714E+02  0.51100000000E-03 0.  1.
        -11    1    4    4    0    0 -0.11523521547E+01  0.11608510936E+02 -0.57149751378E+01  0.12990241827E+02  0.51100000000E-03 0. -1.
        -12    1    4    4    0    0 -0.25109376739E+02 -0.78669512146E+01 -0.33220350573E+01  0.26521795538E+02  0.00000000000E+00 0.  1.
</event>
<event>
 8    1  0.1280925E-006  0.9118800E+02  0.7816164E-02  0.1184000E+00
        -11   -1    0    0    0    0  0.00000000000E+00  0.00000000000E+00  0.45593999997E+02  0.45594000000E+02  0.51100000000E-03 0.  1.
         11   -1    0    0    0    0 -0.00000000000E+00 -0.00000000000E+00 -0.45593999997E+02  0.45594000000E+02  0.51100000000E-03 0. -1.
         23    2    1    2    0    0 -0.35527136788E-14  0.19984014443E-14  0.00000000000E+00  0.91188000000E+02  0.91188000000E+02 0.  0.
    9900012    2    3    3    0    0 -0.18135591219E+02  0.10372651737E+01 -0.32028099124E+02  0.54367153712E+02  0.40000158516E+02 0.  0.
        -12    1    3    3    0    0  0.18135591219E+02 -0.10372651737E+01  0.32028099124E+02  0.36820846288E+02  0.00000000000E+00 0.  1.
         11    1    4    4    0    0 -0.11159883925E+02  0.15616826516E+02 -0.14372487011E+02  0.23979088031E+02  0.51100000000E-03 0. -1.
        -11    1    4    4    0    0 -0.98163357599E+01 -0.17225617237E+02 -0.10974646408E+02  0.22661094435E+02  0.51100000000E-03 0.  1.
         12    1    4    4    0    0  0.28406284662E+01  0.26460558949E+01 -0.66809657050E+01  0.77269712459E+01  0.00000000000E+00 0. -1.
</event>
<event>
 8    1  0.1280925E-006  0.9118800E+02  0.7816164E-02  0.1184000E+00
        -11   -1    0    0    0    0  0.00000000000E+00  0.00000000000E+00  0.45593999997E+02  0.45594000000E+02  0.51100000000E-03 0.  1.
         11   -1    0    0    0    0 -0.00000000000E+00 -0.00000000000E+00 -0.45593999997E+02  0.45594000000E+02  0.51100000000E-03 0. -1.
         23    2    1    2    0    0  0.00000000000E+00  0.00000000000E+00 -0.35527136788E-14  0.91188000000E+02  0.91188000000E+02 0.  0.
    9900012    2    3    3    0    0  0.18671138888E+02 -0.89592674835E+01 -0.30445068871E+02  0.54367053247E+02  0.39999929488E+02 0.  0.
        -12    1    3    3    0    0 -0.18671138888E+02  0.89592674835E+01  0.30445068871E+02  0.36820946753E+02  0.00000000000E+00 0.  1.
         11    1    4    4    0    0 -0.22729747132E+01  0.51652345391E+01 -0.56256841374E+01  0.79683363487E+01  0.51100000000E-03 0. -1.
        -11    1    4    4    0    0  0.28313208548E+02 -0.14304024229E+02 -0.18735563614E+02  0.36841067189E+02  0.51100000000E-03 0.  1.
        -12    1    4    4    0    0 -0.73690949472E+01  0.17952220588E+00 -0.60838211192E+01  0.95576497097E+01  0.00000000000E+00 0.  1.
</event>
<event>
 8    1  0.1280925E-006  0.9118800E+02  0.7816164E-02  0.1184000E+00
        -11   -1    0    0    0    0  0.00000000000E+00  0.00000000000E+00  0.45593999997E+02  0.45594000000E+02  0.51100000000E-03 0.  1.
         11   -1    0    0    0    0 -0.00000000000E+00 -0.00000000000E+00 -0.45593999997E+02  0.45594000000E+02  0.51100000000E-03 0. -1.
         23    2    1    2    0    0 -0.88817841970E-15  0.00000000000E+00  0.00000000000E+00  0.91188000000E+02  0.91188000000E+02 0.  0.
    9900012    2    3    3    0    0 -0.47352185731E+01  0.33065713411E+02  0.15492432838E+02  0.54367093255E+02  0.40000020693E+02 0.  0.
         12    1    3    3    0    0  0.47352185731E+01 -0.33065713411E+02 -0.15492432838E+02  0.36820906745E+02  0.00000000000E+00 0. -1.
         11    1    4    4    0    0  0.22973203115E+01  0.20138269626E+02  0.29019202288E+01  0.20475564105E+02  0.51100000000E-03 0. -1.
        -11    1    4    4    0    0 -0.74279729013E+01  0.21164296069E+02  0.12429520713E+02  0.25643618990E+02  0.51100000000E-03 0.  1.
        -12    1    4    4    0    0  0.39543401668E+00 -0.82368522838E+01  0.16099189590E+00  0.82479101594E+01  0.00000000000E+00 0.  1.
</event>
<event>
 8    1  0.1280925E-006  0.9118800E+02  0.7816164E-02  0.1184000E+00
        -11   -1    0    0    0    0  0.00000000000E+00  0.00000000000E+00  0.45593999997E+02  0.45594000000E+02  0.51100000000E-03 0.  1.
         11   -1    0    0    0    0 -0.00000000000E+00 -0.00000000000E+00 -0.45593999997E+02  0.45594000000E+02  0.51100000000E-03 0. -1.
         23    2    1    2    0    0 -0.35527136788E-14  0.35527136788E-14  0.17763568394E-14  0.91188000000E+02  0.91188000000E+02 0.  0.
    9900012    2    3    3    0    0 -0.14254305935E+02  0.31917231464E+02 -0.11570901111E+02  0.54367073144E+02  0.39999974846E+02 0.  0.
        -12    1    3    3    0    0  0.14254305935E+02 -0.31917231464E+02  0.11570901111E+02  0.36820926856E+02  0.00000000000E+00 0.  1.
         11    1    4    4    0    0  0.68871952963E+01  0.62962968005E+01  0.19498465302E+01  0.95330327914E+01  0.51100000000E-03 0. -1.
        -11    1    4    4    0    0 -0.61132680669E+01 -0.12194219879E+01 -0.12601548428E+02  0.14059091702E+02  0.51100000000E-03 0.  1.
         12    1    4    4    0    0 -0.15028233165E+02  0.26840356652E+02 -0.91919921314E+00  0.30774948650E+02  0.00000000000E+00 0. -1.
</event>
<event>
 8    1  0.1280925E-006  0.9118800E+02  0.7816164E-02  0.1184000E+00
        -11   -1    0    0    0    0  0.00000000000E+00  0.00000000000E+00  0.45593999997E+02  0.45594000000E+02  0.51100000000E-03 0.  1.
         11   -1    0    0    0    0 -0.00000000000E+00 -0.00000000000E+00 -0.45593999997E+02  0.45594000000E+02  0.51100000000E-03 0. -1.
         23    2    1    2    0    0 -0.17763568394E-14  0.00000000000E+00  0.44408920985E-15  0.91188000000E+02  0.91188000000E+02 0.  0.
    9900012    2    3    3    0    0  0.15456289500E+02 -0.33305915760E+02 -0.27566225273E+01  0.54367083696E+02  0.39999998901E+02 0.  0.
         12    1    3    3    0    0 -0.15456289500E+02  0.33305915760E+02  0.27566225273E+01  0.36820916304E+02  0.00000000000E+00 0. -1.
         11    1    4    4    0    0  0.43018078824E+01 -0.75100697953E+01 -0.58963832797E+01  0.10472537201E+02  0.51100000000E-03 0. -1.
        -11    1    4    4    0    0 -0.40194746703E+01 -0.23865498399E+02 -0.74128312172E+01  0.25311425432E+02  0.51100000000E-03 0.  1.
        -12    1    4    4    0    0  0.15173956288E+02 -0.19303475655E+01  0.10552591970E+02  0.18583121063E+02  0.00000000000E+00 0.  1.
</event>
<event>
 8    1  0.1280925E-006  0.9118800E+02  0.7816164E-02  0.1184000E+00
        -11   -1    0    0    0    0  0.00000000000E+00  0.00000000000E+00  0.45593999997E+02  0.45594000000E+02  0.51100000000E-03 0. -1.
         11   -1    0    0    0    0 -0.00000000000E+00 -0.00000000000E+00 -0.45593999997E+02  0.45594000000E+02  0.51100000000E-03 0.  1.
         23    2    1    2    0    0  0.00000000000E+00  0.00000000000E+00  0.00000000000E+00  0.91188000000E+02  0.91188000000E+02 0.  0.
    9900012    2    3    3    0    0  0.18204409218E+02 -0.11048488435E+02  0.30038469387E+02  0.54367092152E+02  0.40000018178E+02 0.  0.
        -12    1    3    3    0    0 -0.18204409218E+02  0.11048488435E+02 -0.30038469387E+02  0.36820907848E+02  0.00000000000E+00 0.  1.
         11    1    4    4    0    0  0.80806246011E+01  0.23769737495E+00  0.98618250773E+00  0.81440499866E+01  0.51100000000E-03 0. -1.
        -11    1    4    4    0    0 -0.83767377500E+01 -0.10965943026E+02  0.27601995640E+01  0.14072680757E+02  0.51100000000E-03 0.  1.
        -12    1    4    4    0    0  0.18500522367E+02 -0.32024278396E+00  0.26292087315E+02  0.32150361408E+02  0.00000000000E+00 0.  1.
</event>
<event>
 8    1  0.1280925E-006  0.9118800E+02  0.7816164E-02  0.1184000E+00
        -11   -1    0    0    0    0  0.00000000000E+00  0.00000000000E+00  0.45593999997E+02  0.45594000000E+02  0.51100000000E-03 0.  1.
         11   -1    0    0    0    0 -0.00000000000E+00 -0.00000000000E+00 -0.45593999997E+02  0.45594000000E+02  0.51100000000E-03 0. -1.
         23    2    1    2    0    0 -0.88817841970E-15  0.17763568394E-14  0.00000000000E+00  0.91188000000E+02  0.91188000000E+02 0.  0.
    9900012    2    3    3    0    0 -0.70191852773E+01  0.10412889935E+02 -0.34613355146E+02  0.54367060397E+02  0.39999945788E+02 0.  0.
        -12    1    3    3    0    0  0.70191852773E+01 -0.10412889935E+02  0.34613355146E+02  0.36820939603E+02  0.00000000000E+00 0.  1.
         11    1    4    4    0    0  0.55050636249E+01 -0.32370538339E+01 -0.90436513675E+01  0.11071218242E+02  0.51100000000E-03 0. -1.
        -11    1    4    4    0    0 -0.59121411533E+01  0.92307429741E+01 -0.31514558893E+02  0.33366561875E+02  0.51100000000E-03 0.  1.
        -12    1    4    4    0    0 -0.66121077488E+01  0.44192007949E+01  0.59448551149E+01  0.99292802803E+01  0.00000000000E+00 0.  1.
</event>
<event>
 8    1  0.1280925E-006  0.9118800E+02  0.7816164E-02  0.1184000E+00
        -11   -1    0    0    0    0  0.00000000000E+00  0.00000000000E+00  0.45593999997E+02  0.45594000000E+02  0.51100000000E-03 0. -1.
         11   -1    0    0    0    0 -0.00000000000E+00 -0.00000000000E+00 -0.45593999997E+02  0.45594000000E+02  0.51100000000E-03 0.  1.
         23    2    1    2    0    0  0.00000000000E+00  0.00000000000E+00  0.00000000000E+00  0.91188000000E+02  0.91188000000E+02 0.  0.
    9900012    2    3    3    0    0  0.16725690307E+02  0.24523511134E+02 -0.21785970866E+02  0.54367084189E+02  0.40000000026E+02 0.  0.
         12    1    3    3    0    0 -0.16725690307E+02 -0.24523511134E+02  0.21785970866E+02  0.36820915811E+02  0.00000000000E+00 0. -1.
         11    1    4    4    0    0 -0.82140879589E+00 -0.35366735265E+01 -0.11384694037E+02  0.11949645627E+02  0.51100000000E-03 0. -1.
        -11    1    4    4    0    0  0.15812056967E+02  0.16281815565E+02 -0.17407736237E+02  0.28603285560E+02  0.51100000000E-03 0.  1.
        -12    1    4    4    0    0  0.17350421354E+01  0.11778369095E+02  0.70064594078E+01  0.13814153003E+02  0.00000000000E+00 0.  1.
</event>
<event>
 8    1  0.1280925E-006  0.9118800E+02  0.7816164E-02  0.1184000E+00
        -11   -1    0    0    0    0  0.00000000000E+00  0.00000000000E+00  0.45593999997E+02  0.45594000000E+02  0.51100000000E-03 0.  1.
         11   -1    0    0    0    0 -0.00000000000E+00 -0.00000000000E+00 -0.45593999997E+02  0.45594000000E+02  0.51100000000E-03 0. -1.
         23    2    1    2    0    0  0.00000000000E+00  0.00000000000E+00 -0.35527136788E-14  0.91188000000E+02  0.91188000000E+02 0.  0.
    9900012    2    3    3    0    0 -0.21702604516E+02  0.99132085319E+01 -0.28044719234E+02  0.54367068139E+02  0.39999963436E+02 0.  0.
        -12    1    3    3    0    0  0.21702604516E+02 -0.99132085319E+01  0.28044719234E+02  0.36820931861E+02  0.00000000000E+00 0.  1.
         11    1    4    4    0    0 -0.20554594964E+02  0.54708125812E+00 -0.47973465576E+01  0.21114099703E+02  0.51100000000E-03 0. -1.
        -11    1    4    4    0    0 -0.60700007877E+01 -0.16325196351E+01  0.81871343872E+00  0.63387949863E+01  0.51100000000E-03 0.  1.
         12    1    4    4    0    0  0.49219912352E+01  0.10998646909E+02 -0.24066086115E+02  0.26914173449E+02  0.00000000000E+00 0. -1.
</event>
<event>
 8    1  0.1280925E-006  0.9118800E+02  0.7816164E-02  0.1184000E+00
        -11   -1    0    0    0    0  0.00000000000E+00  0.00000000000E+00  0.45593999997E+02  0.45594000000E+02  0.51100000000E-03 0.  1.
         11   -1    0    0    0    0 -0.00000000000E+00 -0.00000000000E+00 -0.45593999997E+02  0.45594000000E+02  0.51100000000E-03 0. -1.
         23    2    1    2    0    0 -0.35527136788E-14  0.88817841970E-15  0.00000000000E+00  0.91188000000E+02  0.91188000000E+02 0.  0.
    9900012    2    3    3    0    0 -0.20905102067E+02 -0.45326280715E+01 -0.29970252148E+02  0.54367027396E+02  0.39999870555E+02 0.  0.
        -12    1    3    3    0    0  0.20905102067E+02  0.45326280715E+01  0.29970252148E+02  0.36820972604E+02  0.00000000000E+00 0.  1.
         11    1    4    4    0    0 -0.67585930891E+01  0.91350637482E+01 -0.26903760484E+02  0.29205141648E+02  0.51100000000E-03 0. -1.
        -11    1    4    4    0    0 -0.14254085694E+02 -0.35740814433E+01 -0.31209881653E+00  0.14698653784E+02  0.51100000000E-03 0.  1.
        -12    1    4    4    0    0  0.10757671621E+00 -0.10093610376E+02 -0.27543928473E+01  0.10463231964E+02  0.00000000000E+00 0.  1.
</event>
<event>
 8    1  0.1280925E-006  0.9118800E+02  0.7816164E-02  0.1184000E+00
        -11   -1    0    0    0    0  0.00000000000E+00  0.00000000000E+00  0.45593999997E+02  0.45594000000E+02  0.51100000000E-03 0.  1.
         11   -1    0    0    0    0 -0.00000000000E+00 -0.00000000000E+00 -0.45593999997E+02  0.45594000000E+02  0.51100000000E-03 0. -1.
         23    2    1    2    0    0  0.00000000000E+00  0.35527136788E-14  0.44408920985E-15  0.91188000000E+02  0.91188000000E+02 0.  0.
    9900012    2    3    3    0    0  0.32041345281E+02 -0.17948692508E+02  0.26412587131E+01  0.54367087223E+02  0.40000006941E+02 0.  0.
         12    1    3    3    0    0 -0.32041345281E+02  0.17948692508E+02 -0.26412587131E+01  0.36820912777E+02  0.00000000000E+00 0. -1.
         11    1    4    4    0    0  0.12717687999E+02 -0.79958307793E+00 -0.57765621713E+01  0.13990982521E+02  0.51100000000E-03 0. -1.
        -11    1    4    4    0    0  0.25218294851E+02 -0.18914572162E+02  0.21561510516E+01  0.31597031868E+02  0.51100000000E-03 0.  1.
        -12    1    4    4    0    0 -0.58946375683E+01  0.17654627316E+01  0.62616698327E+01  0.87790728333E+01  0.00000000000E+00 0.  1.
</event>
<event>
 8    1  0.1280925E-006  0.9118800E+02  0.7816164E-02  0.1184000E+00
        -11   -1    0    0    0    0  0.00000000000E+00  0.00000000000E+00  0.45593999997E+02  0.45594000000E+02  0.51100000000E-03 0. -1.
         11   -1    0    0    0    0 -0.00000000000E+00 -0.00000000000E+00 -0.45593999997E+02  0.45594000000E+02  0.51100000000E-03 0.  1.
         23    2    1    2    0    0  0.00000000000E+00  0.44408920985E-15  0.00000000000E+00  0.91188000000E+02  0.91188000000E+02 0.  0.
    9900012    2    3    3    0    0 -0.18914886329E+02  0.23940417052E+01 -0.31500474533E+02  0.54367024235E+02  0.39999863347E+02 0.  0.
         12    1    3    3    0    0  0.18914886329E+02 -0.23940417052E+01  0.31500474533E+02  0.36820975765E+02  0.00000000000E+00 0. -1.
         11    1    4    4    0    0 -0.16189232819E+02 -0.11641237804E+01 -0.87254963609E+01  0.18427716366E+02  0.51100000000E-03 0. -1.
        -11    1    4    4    0    0  0.75950792793E+00 -0.67896620666E+00 -0.28203119645E+02  0.28221513166E+02  0.51100000000E-03 0.  1.
         12    1    4    4    0    0 -0.34851614380E+01  0.42371316923E+01  0.54281414731E+01  0.77177947031E+01  0.00000000000E+00 0. -1.
</event>
<event>
 8    1  0.1280925E-006  0.9118800E+02  0.7816164E-02  0.1184000E+00
        -11   -1    0    0    0    0  0.00000000000E+00  0.00000000000E+00  0.45593999997E+02  0.45594000000E+02  0.51100000000E-03 0.  1.
         11   -1    0    0    0    0 -0.00000000000E+00 -0.00000000000E+00 -0.45593999997E+02  0.45594000000E+02  0.51100000000E-03 0. -1.
         23    2    1    2    0    0  0.00000000000E+00  0.00000000000E+00  0.00000000000E+00  0.91188000000E+02  0.91188000000E+02 0.  0.
    9900012    2    3    3    0    0 -0.32620821822E+02 -0.79932635322E+01  0.15092019703E+02  0.54367091036E+02  0.40000015634E+02 0.  0.
         12    1    3    3    0    0  0.32620821822E+02  0.79932635322E+01 -0.15092019703E+02  0.36820908964E+02  0.00000000000E+00 0. -1.
         11    1    4    4    0    0 -0.92351414546E+01 -0.79850214604E+01  0.81953442213E+01  0.14704151542E+02  0.51100000000E-03 0. -1.
        -11    1    4    4    0    0 -0.30695904390E+02 -0.33758360330E+01  0.67648335777E+01  0.31613253373E+02  0.51100000000E-03 0.  1.
         12    1    4    4    0    0  0.73102240226E+01  0.33675939612E+01  0.13184190426E+00  0.80496861203E+01  0.00000000000E+00 0. -1.
</event>
<event>
 8    1  0.1280925E-006  0.9118800E+02  0.7816164E-02  0.1184000E+00
        -11   -1    0    0    0    0  0.00000000000E+00  0.00000000000E+00  0.45593999997E+02  0.45594000000E+02  0.51100000000E-03 0. -1.
         11   -1    0    0    0    0 -0.00000000000E+00 -0.00000000000E+00 -0.45593999997E+02  0.45594000000E+02  0.51100000000E-03 0.  1.
         23    2    1    2    0    0  0.17763568394E-14  0.00000000000E+00  0.35527136788E-14  0.91188000000E+02  0.91188000000E+02 0.  0.
    9900012    2    3    3    0    0  0.98658978722E+01  0.29793359771E+02 -0.19256171807E+02  0.54367076873E+02  0.39999983346E+02 0.  0.
         12    1    3    3    0    0 -0.98658978722E+01 -0.29793359771E+02  0.19256171807E+02  0.36820923127E+02  0.00000000000E+00 0. -1.
         11    1    4    4    0    0  0.18840633414E+02  0.13420832370E+02 -0.18595375430E+02  0.29679558565E+02  0.51100000000E-03 0. -1.
        -11    1    4    4    0    0 -0.10439102785E+02  0.18006103032E+02 -0.34936458579E+01  0.21104506036E+02  0.51100000000E-03 0.  1.
         12    1    4    4    0    0  0.14643672432E+01 -0.16335756311E+01  0.28328494804E+01  0.35830122724E+01  0.00000000000E+00 0. -1.
</event>
<event>
 8    1  0.1280925E-006  0.9118800E+02  0.7816164E-02  0.1184000E+00
        -11   -1    0    0    0    0  0.00000000000E+00  0.00000000000E+00  0.45593999997E+02  0.45594000000E+02  0.51100000000E-03 0.  1.
         11   -1    0    0    0    0 -0.00000000000E+00 -0.00000000000E+00 -0.45593999997E+02  0.45594000000E+02  0.51100000000E-03 0. -1.
         23    2    1    2    0    0  0.88817841970E-15  0.00000000000E+00 -0.17763568394E-14  0.91188000000E+02  0.91188000000E+02 0.  0.
    9900012    2    3    3    0    0 -0.37428813827E+01 -0.35451467682E+02 -0.92174385464E+01  0.54367124193E+02  0.40000091223E+02 0.  0.
        -12    1    3    3    0    0  0.37428813827E+01  0.35451467682E+02  0.92174385464E+01  0.36820875807E+02  0.00000000000E+00 0.  1.
         11    1    4    4    0    0 -0.95172499277E+01 -0.13416525985E+01  0.40358571851E+00  0.96198211820E+01  0.51100000000E-03 0. -1.
        -11    1    4    4    0    0 -0.45171311806E+01 -0.77414947296E+01  0.74824232622E+01  0.11675695820E+02  0.51100000000E-03 0.  1.
         12    1    4    4    0    0  0.10291499726E+02 -0.26368320354E+02 -0.17103447527E+02  0.33071607191E+02  0.00000000000E+00 0. -1.
</event>
<event>
 8    1  0.1280925E-006  0.9118800E+02  0.7816164E-02  0.1184000E+00
        -11   -1    0    0    0    0  0.00000000000E+00  0.00000000000E+00  0.45593999997E+02  0.45594000000E+02  0.51100000000E-03 0.  1.
         11   -1    0    0    0    0 -0.00000000000E+00 -0.00000000000E+00 -0.45593999997E+02  0.45594000000E+02  0.51100000000E-03 0. -1.
         23    2    1    2    0    0  0.00000000000E+00  0.17763568394E-14  0.00000000000E+00  0.91188000000E+02  0.91188000000E+02 0.  0.
    9900012    2    3    3    0    0  0.34246079254E+02 -0.13469977133E+02 -0.12426041541E+01  0.54367105207E+02  0.40000047941E+02 0.  0.
         12    1    3    3    0    0 -0.34246079254E+02  0.13469977133E+02  0.12426041541E+01  0.36820894793E+02  0.00000000000E+00 0. -1.
         11    1    4    4    0    0  0.12127577242E+02 -0.16456437015E+02  0.87297148504E+01  0.22228368600E+02  0.51100000000E-03 0. -1.
        -11    1    4    4    0    0  0.17012897918E+02 -0.30486994654E+01  0.24070192060E+01  0.17450702155E+02  0.51100000000E-03 0.  1.
         12    1    4    4    0    0  0.51056040947E+01  0.60351593480E+01 -0.12379338211E+02  0.14688034452E+02  0.00000000000E+00 0. -1.
</event>
<event>
 8    1  0.1280925E-006  0.9118800E+02  0.7816164E-02  0.1184000E+00
        -11   -1    0    0    0    0  0.00000000000E+00  0.00000000000E+00  0.45593999997E+02  0.45594000000E+02  0.51100000000E-03 0. -1.
         11   -1    0    0    0    0 -0.00000000000E+00 -0.00000000000E+00 -0.45593999997E+02  0.45594000000E+02  0.51100000000E-03 0.  1.
         23    2    1    2    0    0  0.88817841970E-15  0.00000000000E+00  0.00000000000E+00  0.91188000000E+02  0.91188000000E+02 0.  0.
    9900012    2    3    3    0    0 -0.55096667369E+01  0.35435654772E+02 -0.83509315946E+01  0.54367080469E+02  0.39999991544E+02 0.  0.
         12    1    3    3    0    0  0.55096667369E+01 -0.35435654772E+02  0.83509315946E+01  0.36820919531E+02  0.00000000000E+00 0. -1.
         11    1    4    4    0    0 -0.11651276454E+02  0.11757475084E+02 -0.14874131255E+02  0.22253769214E+02  0.51100000000E-03 0. -1.
        -11    1    4    4    0    0  0.57798998747E+00  0.91674504201E+00 -0.56190281417E+01  0.57225843302E+01  0.51100000000E-03 0.  1.
         12    1    4    4    0    0  0.55636197299E+01  0.22761434645E+02  0.12142227802E+02  0.26390726924E+02  0.00000000000E+00 0. -1.
</event>
<event>
 8    1  0.1280925E-006  0.9118800E+02  0.7816164E-02  0.1184000E+00
        -11   -1    0    0    0    0  0.00000000000E+00  0.00000000000E+00  0.45593999997E+02  0.45594000000E+02  0.51100000000E-03 0. -1.
         11   -1    0    0    0    0 -0.00000000000E+00 -0.00000000000E+00 -0.45593999997E+02  0.45594000000E+02  0.51100000000E-03 0.  1.
         23    2    1    2    0    0  0.00000000000E+00  0.88817841970E-15  0.17763568394E-14  0.91188000000E+02  0.91188000000E+02 0.  0.
    9900012    2    3    3    0    0  0.32860596939E+02  0.61285727488E+01  0.15440288309E+02  0.54367072008E+02  0.39999972256E+02 0.  0.
        -12    1    3    3    0    0 -0.32860596939E+02 -0.61285727488E+01 -0.15440288309E+02  0.36820927992E+02  0.00000000000E+00 0.  1.
         11    1    4    4    0    0  0.24207253346E+02  0.13406600456E+01  0.68713551321E+01  0.25199285814E+02  0.51100000000E-03 0. -1.
        -11    1    4    4    0    0  0.76572575819E+01  0.27368984962E+01 -0.86072143034E+01  0.11840960492E+02  0.51100000000E-03 0.  1.
        -12    1    4    4    0    0  0.99608601128E+00  0.20510142069E+01  0.17176147481E+02  0.17326825702E+02  0.00000000000E+00 0.  1.
</event>
<event>
 8    1  0.1280925E-006  0.9118800E+02  0.7816164E-02  0.1184000E+00
        -11   -1    0    0    0    0  0.00000000000E+00  0.00000000000E+00  0.45593999997E+02  0.45594000000E+02  0.51100000000E-03 0. -1.
         11   -1    0    0    0    0 -0.00000000000E+00 -0.00000000000E+00 -0.45593999997E+02  0.45594000000E+02  0.51100000000E-03 0.  1.
         23    2    1    2    0    0 -0.35527136788E-14  0.00000000000E+00  0.88817841970E-15  0.91188000000E+02  0.91188000000E+02 0.  0.
    9900012    2    3    3    0    0  0.27399483492E+02  0.23470693342E+02  0.73603002576E+01  0.54367093419E+02  0.40000021066E+02 0.  0.
        -12    1    3    3    0    0 -0.27399483492E+02 -0.23470693342E+02 -0.73603002576E+01  0.36820906581E+02  0.00000000000E+00 0.  1.
         11    1    4    4    0    0 -0.11669703813E+01  0.10961553757E+01  0.46872568595E+01  0.49531559239E+01  0.51100000000E-03 0. -1.
        -11    1    4    4    0    0 -0.65886127083E+01  0.29508594509E+01  0.56097566726E+01  0.91425794558E+01  0.51100000000E-03 0.  1.
        -12    1    4    4    0    0  0.35155066582E+02  0.19423678516E+02 -0.29367132745E+01  0.40271358039E+02  0.00000000000E+00 0.  1.
</event>
<event>
 8    1  0.1280925E-006  0.9118800E+02  0.7816164E-02  0.1184000E+00
        -11   -1    0    0    0    0  0.00000000000E+00  0.00000000000E+00  0.45593999997E+02  0.45594000000E+02  0.51100000000E-03 0.  1.
         11   -1    0    0    0    0 -0.00000000000E+00 -0.00000000000E+00 -0.45593999997E+02  0.45594000000E+02  0.51100000000E-03 0. -1.
         23    2    1    2    0    0  0.00000000000E+00  0.71054273576E-14 -0.71054273576E-14  0.91188000000E+02  0.91188000000E+02 0.  0.
    9900012    2    3    3    0    0  0.61488518433E+01  0.23463059706E+02 -0.27702861004E+02  0.54367189885E+02  0.40000240979E+02 0.  0.
        -12    1    3    3    0    0 -0.61488518433E+01 -0.23463059706E+02  0.27702861004E+02  0.36820810115E+02  0.00000000000E+00 0.  1.
         11    1    4    4    0    0 -0.10078944540E+02  0.55887500507E+01 -0.18762380346E+02  0.22019222662E+02  0.51100000000E-03 0. -1.
        -11    1    4    4    0    0 -0.23165124145E+01  0.96390581604E+01 -0.66299414836E+01  0.11926181129E+02  0.51100000000E-03 0.  1.
        -12    1    4    4    0    0  0.18544308797E+02  0.82352514949E+01 -0.23105391744E+01  0.20421786093E+02  0.00000000000E+00 0.  1.
</event>
<event>
 8    1  0.1280925E-006  0.9118800E+02  0.7816164E-02  0.1184000E+00
        -11   -1    0    0    0    0  0.00000000000E+00  0.00000000000E+00  0.45593999997E+02  0.45594000000E+02  0.51100000000E-03 0.  1.
         11   -1    0    0    0    0 -0.00000000000E+00 -0.00000000000E+00 -0.45593999997E+02  0.45594000000E+02  0.51100000000E-03 0. -1.
         23    2    1    2    0    0  0.00000000000E+00  0.00000000000E+00  0.00000000000E+00  0.91188000000E+02  0.91188000000E+02 0.  0.
    9900012    2    3    3    0    0 -0.21702367602E+02 -0.22723843598E+02  0.19194158496E+02  0.54367061015E+02  0.39999947196E+02 0.  0.
         12    1    3    3    0    0  0.21702367602E+02  0.22723843598E+02 -0.19194158496E+02  0.36820938985E+02  0.00000000000E+00 0. -1.
         11    1    4    4    0    0 -0.17575162587E+02 -0.96445245932E+01  0.17953002520E+02  0.26911215029E+02  0.51100000000E-03 0. -1.
        -11    1    4    4    0    0 -0.10892047744E+02 -0.15030229841E+02  0.53327138654E+01  0.19312750984E+02  0.51100000000E-03 0.  1.
         12    1    4    4    0    0  0.67648427292E+01  0.19509108367E+01 -0.40915578901E+01  0.81430950020E+01  0.00000000000E+00 0. -1.
</event>
<event>
 8    1  0.1280925E-006  0.9118800E+02  0.7816164E-02  0.1184000E+00
        -11   -1    0    0    0    0  0.00000000000E+00  0.00000000000E+00  0.45593999997E+02  0.45594000000E+02  0.51100000000E-03 0. -1.
         11   -1    0    0    0    0 -0.00000000000E+00 -0.00000000000E+00 -0.45593999997E+02  0.45594000000E+02  0.51100000000E-03 0.  1.
         23    2    1    2    0    0  0.00000000000E+00  0.00000000000E+00  0.00000000000E+00  0.91188000000E+02  0.91188000000E+02 0.  0.
    9900012    2    3    3    0    0 -0.15185851062E+02  0.12531299667E+02 -0.31114890119E+02  0.54367082970E+02  0.39999997247E+02 0.  0.
         12    1    3    3    0    0  0.15185851062E+02 -0.12531299667E+02  0.31114890119E+02  0.36820917030E+02  0.00000000000E+00 0. -1.
         11    1    4    4    0    0 -0.17243214940E+02 -0.37982661499E+01 -0.73848864246E+00  0.17672030245E+02  0.51100000000E-03 0. -1.
        -11    1    4    4    0    0 -0.58486747319E+00  0.12559061335E+02 -0.29418249009E+02  0.31992271983E+02  0.51100000000E-03 0.  1.
         12    1    4    4    0    0  0.26422313521E+01  0.37705044820E+01 -0.95815246693E+00  0.47027807430E+01  0.00000000000E+00 0. -1.
</event>
<event>
 8    1  0.1280925E-006  0.9118800E+02  0.7816164E-02  0.1184000E+00
        -11   -1    0    0    0    0  0.00000000000E+00  0.00000000000E+00  0.45593999997E+02  0.45594000000E+02  0.51100000000E-03 0.  1.
         11   -1    0    0    0    0 -0.00000000000E+00 -0.00000000000E+00 -0.45593999997E+02  0.45594000000E+02  0.51100000000E-03 0. -1.
         23    2    1    2    0    0  0.00000000000E+00  0.00000000000E+00  0.35527136788E-14  0.91188000000E+02  0.91188000000E+02 0.  0.
    9900012    2    3    3    0    0  0.14747398267E+02 -0.20673060302E+02 -0.26662818324E+02  0.54367257763E+02  0.40000395721E+02 0.  0.
        -12    1    3    3    0    0 -0.14747398267E+02  0.20673060302E+02  0.26662818324E+02  0.36820742237E+02  0.00000000000E+00 0.  1.
         11    1    4    4    0    0  0.20401720874E+01 -0.52389940765E+01 -0.68576836353E+01  0.88677610581E+01  0.51100000000E-03 0. -1.
        -11    1    4    4    0    0 -0.53366259220E+01  0.67342744565E+01  0.28220145232E+01  0.90439922002E+01  0.51100000000E-03 0.  1.
        -12    1    4    4    0    0  0.18043852101E+02 -0.22168340682E+02 -0.22627149212E+02  0.36455504505E+02  0.00000000000E+00 0.  1.
</event>
<event>
 8    1  0.1280925E-006  0.9118800E+02  0.7816164E-02  0.1184000E+00
        -11   -1    0    0    0    0  0.00000000000E+00  0.00000000000E+00  0.45593999997E+02  0.45594000000E+02  0.51100000000E-03 0.  1.
         11   -1    0    0    0    0 -0.00000000000E+00 -0.00000000000E+00 -0.45593999997E+02  0.45594000000E+02  0.51100000000E-03 0. -1.
         23    2    1    2    0    0  0.00000000000E+00  0.17763568394E-14  0.00000000000E+00  0.91188000000E+02  0.91188000000E+02 0.  0.
    9900012    2    3    3    0    0  0.33209005225E+02  0.10242708918E+02 -0.12166707724E+02  0.54367083515E+02  0.39999998488E+02 0.  0.
        -12    1    3    3    0    0 -0.33209005225E+02 -0.10242708918E+02  0.12166707724E+02  0.36820916485E+02  0.00000000000E+00 0.  1.
         11    1    4    4    0    0  0.49758054679E+01  0.97308769568E+01 -0.62484319362E+01  0.12589341060E+02  0.51100000000E-03 0. -1.
        -11    1    4    4    0    0  0.17440224925E+02  0.42288049721E+01  0.11235749513E+02  0.21172772712E+02  0.51100000000E-03 0.  1.
        -12    1    4    4    0    0  0.10792974832E+02 -0.37169730111E+01 -0.17154025301E+02  0.20604969743E+02  0.00000000000E+00 0.  1.
</event>
<event>
 8    1  0.1280925E-006  0.9118800E+02  0.7816164E-02  0.1184000E+00
        -11   -1    0    0    0    0  0.00000000000E+00  0.00000000000E+00  0.45593999997E+02  0.45594000000E+02  0.51100000000E-03 0. -1.
         11   -1    0    0    0    0 -0.00000000000E+00 -0.00000000000E+00 -0.45593999997E+02  0.45594000000E+02  0.51100000000E-03 0.  1.
         23    2    1    2    0    0  0.00000000000E+00  0.17763568394E-14  0.00000000000E+00  0.91188000000E+02  0.91188000000E+02 0.  0.
    9900012    2    3    3    0    0 -0.30147343538E+02  0.13061585107E+02  0.16622663225E+02  0.54367078494E+02  0.39999987042E+02 0.  0.
         12    1    3    3    0    0  0.30147343538E+02 -0.13061585107E+02 -0.16622663225E+02  0.36820921506E+02  0.00000000000E+00 0. -1.
         11    1    4    4    0    0  0.11617018674E+01  0.14874205299E+02  0.22580039562E+00  0.14921210426E+02  0.51100000000E-03 0. -1.
        -11    1    4    4    0    0 -0.19801562012E+02  0.27190146357E+01  0.14416910505E+01  0.20039295697E+02  0.51100000000E-03 0.  1.
         12    1    4    4    0    0 -0.11507483393E+02 -0.45316348269E+01  0.14955171779E+02  0.19406572371E+02  0.00000000000E+00 0. -1.
</event>
<event>
 8    1  0.1280925E-006  0.9118800E+02  0.7816164E-02  0.1184000E+00
        -11   -1    0    0    0    0  0.00000000000E+00  0.00000000000E+00  0.45593999997E+02  0.45594000000E+02  0.51100000000E-03 0. -1.
         11   -1    0    0    0    0 -0.00000000000E+00 -0.00000000000E+00 -0.45593999997E+02  0.45594000000E+02  0.51100000000E-03 0.  1.
         23    2    1    2    0    0  0.00000000000E+00  0.26645352591E-14 -0.17763568394E-14  0.91188000000E+02  0.91188000000E+02 0.  0.
    9900012    2    3    3    0    0 -0.36215983247E+02  0.45731956912E+01  0.48236974418E+01  0.54367087214E+02  0.40000006923E+02 0.  0.
         12    1    3    3    0    0  0.36215983247E+02 -0.45731956912E+01 -0.48236974418E+01  0.36820912786E+02  0.00000000000E+00 0. -1.
         11    1    4    4    0    0 -0.26784427199E+02 -0.13722445380E+01  0.12965699282E+02  0.29789225462E+02  0.51100000000E-03 0. -1.
        -11    1    4    4    0    0 -0.52554924291E+01  0.13536235580E+02 -0.53624366268E+01  0.15479198984E+02  0.51100000000E-03 0.  1.
        -12    1    4    4    0    0 -0.41760636181E+01 -0.75907953508E+01 -0.27795652135E+01  0.90986627686E+01  0.00000000000E+00 0.  1.
</event>
<event>
 8    1  0.1280925E-006  0.9118800E+02  0.7816164E-02  0.1184000E+00
        -11   -1    0    0    0    0  0.00000000000E+00  0.00000000000E+00  0.45593999997E+02  0.45594000000E+02  0.51100000000E-03 0. -1.
         11   -1    0    0    0    0 -0.00000000000E+00 -0.00000000000E+00 -0.45593999997E+02  0.45594000000E+02  0.51100000000E-03 0.  1.
         23    2    1    2    0    0  0.00000000000E+00 -0.88817841970E-15  0.00000000000E+00  0.91188000000E+02  0.91188000000E+02 0.  0.
    9900012    2    3    3    0    0  0.47222866455E+01 -0.77455973218E+01 -0.35685905001E+02  0.54367108039E+02  0.40000054397E+02 0.  0.
         12    1    3    3    0    0 -0.47222866455E+01  0.77455973218E+01  0.35685905001E+02  0.36820891961E+02  0.00000000000E+00 0. -1.
         11    1    4    4    0    0  0.13702128161E+01  0.21151148161E+01  0.32084526677E+01  0.40798728691E+01  0.51100000000E-03 0. -1.
        -11    1    4    4    0    0  0.98847059849E+01  0.57719497917E+01 -0.51985930392E+01  0.12571721706E+02  0.51100000000E-03 0.  1.
        -12    1    4    4    0    0 -0.65326321554E+01 -0.15632661930E+02 -0.33695764630E+02  0.37715513464E+02  0.00000000000E+00 0.  1.
</event>
<event>
 8    1  0.1280925E-006  0.9118800E+02  0.7816164E-02  0.1184000E+00
        -11   -1    0    0    0    0  0.00000000000E+00  0.00000000000E+00  0.45593999997E+02  0.45594000000E+02  0.51100000000E-03 0. -1.
         11   -1    0    0    0    0 -0.00000000000E+00 -0.00000000000E+00 -0.45593999997E+02  0.45594000000E+02  0.51100000000E-03 0.  1.
         23    2    1    2    0    0  0.00000000000E+00  0.00000000000E+00  0.00000000000E+00  0.91188000000E+02  0.91188000000E+02 0.  0.
    9900012    2    3    3    0    0 -0.12519903249E+02  0.83998054039E+01 -0.33592787937E+02  0.54367080544E+02  0.39999991717E+02 0.  0.
         12    1    3    3    0    0  0.12519903249E+02 -0.83998054039E+01  0.33592787937E+02  0.36820919456E+02  0.00000000000E+00 0. -1.
         11    1    4    4    0    0 -0.73996554945E+01 -0.52164701942E+01  0.22685321672E+00  0.90563748469E+01  0.51100000000E-03 0. -1.
        -11    1    4    4    0    0 -0.96071915395E+01  0.19854756499E+02 -0.28144204247E+02  0.35757596646E+02  0.51100000000E-03 0.  1.
        -12    1    4    4    0    0  0.44869437846E+01 -0.62384809008E+01 -0.56754369062E+01  0.95531090516E+01  0.00000000000E+00 0.  1.
</event>
<event>
 8    1  0.1280925E-006  0.9118800E+02  0.7816164E-02  0.1184000E+00
        -11   -1    0    0    0    0  0.00000000000E+00  0.00000000000E+00  0.45593999997E+02  0.45594000000E+02  0.51100000000E-03 0.  1.
         11   -1    0    0    0    0 -0.00000000000E+00 -0.00000000000E+00 -0.45593999997E+02  0.45594000000E+02  0.51100000000E-03 0. -1.
         23    2    1    2    0    0 -0.35527136788E-14  0.00000000000E+00 -0.17763568394E-14  0.91188000000E+02  0.91188000000E+02 0.  0.
    9900012    2    3    3    0    0 -0.27457360737E+02 -0.24153420984E+02 -0.42994507178E+01  0.54367086372E+02  0.40000005003E+02 0.  0.
         12    1    3    3    0    0  0.27457360737E+02  0.24153420984E+02  0.42994507178E+01  0.36820913628E+02  0.00000000000E+00 0. -1.
         11    1    4    4    0    0  0.24529448361E+00  0.61834711985E+01 -0.36578027543E+01  0.71885330003E+01  0.51100000000E-03 0. -1.
        -11    1    4    4    0    0 -0.20415825690E+02 -0.12652920166E+02 -0.98386922179E+01  0.25955773773E+02  0.51100000000E-03 0.  1.
        -12    1    4    4    0    0 -0.72868295308E+01 -0.17683972017E+02  0.91970442544E+01  0.21222779599E+02  0.00000000000E+00 0.  1.
</event>
<event>
 8    1  0.1280925E-006  0.9118800E+02  0.7816164E-02  0.1184000E+00
        -11   -1    0    0    0    0  0.00000000000E+00  0.00000000000E+00  0.45593999997E+02  0.45594000000E+02  0.51100000000E-03 0. -1.
         11   -1    0    0    0    0 -0.00000000000E+00 -0.00000000000E+00 -0.45593999997E+02  0.45594000000E+02  0.51100000000E-03 0.  1.
         23    2    1    2    0    0  0.35527136788E-14  0.00000000000E+00  0.00000000000E+00  0.91188000000E+02  0.91188000000E+02 0.  0.
    9900012    2    3    3    0    0  0.25215529561E+02 -0.78128927926E+01  0.25669322622E+02  0.54367104455E+02  0.40000046227E+02 0.  0.
        -12    1    3    3    0    0 -0.25215529561E+02  0.78128927926E+01 -0.25669322622E+02  0.36820895545E+02  0.00000000000E+00 0.  1.
         11    1    4    4    0    0  0.29715580019E+02 -0.57275489633E+01  0.20714359528E+02  0.36672949212E+02  0.51100000000E-03 0. -1.
        -11    1    4    4    0    0  0.47137739450E+00  0.64467826889E+01 -0.37096367794E+00  0.64746287923E+01  0.51100000000E-03 0.  1.
        -12    1    4    4    0    0 -0.49714278522E+01 -0.85321265181E+01  0.53259267714E+01  0.11219526451E+02  0.00000000000E+00 0.  1.
</event>
<event>
 8    1  0.1280925E-006  0.9118800E+02  0.7816164E-02  0.1184000E+00
        -11   -1    0    0    0    0  0.00000000000E+00  0.00000000000E+00  0.45593999997E+02  0.45594000000E+02  0.51100000000E-03 0.  1.
         11   -1    0    0    0    0 -0.00000000000E+00 -0.00000000000E+00 -0.45593999997E+02  0.45594000000E+02  0.51100000000E-03 0. -1.
         23    2    1    2    0    0  0.35527136788E-14  0.00000000000E+00  0.88817841970E-15  0.91188000000E+02  0.91188000000E+02 0.  0.
    9900012    2    3    3    0    0  0.13539583837E+02  0.33409484212E+02  0.75018900778E+01  0.54366914729E+02  0.39999613706E+02 0.  0.
         12    1    3    3    0    0 -0.13539583837E+02 -0.33409484212E+02 -0.75018900778E+01  0.36821085271E+02  0.00000000000E+00 0. -1.
         11    1    4    4    0    0 -0.50503230260E+01  0.55147671941E+01  0.87459985406E+01  0.11506993987E+02  0.51100000000E-03 0. -1.
        -11    1    4    4    0    0  0.20688736471E+02  0.85141842716E+01  0.38746037362E+01  0.22705235188E+02  0.51100000000E-03 0.  1.
         12    1    4    4    0    0 -0.20988296075E+01  0.19380532746E+02 -0.51187121990E+01  0.20154685555E+02  0.00000000000E+00 0. -1.
</event>
<event>
 8    1  0.1280925E-006  0.9118800E+02  0.7816164E-02  0.1184000E+00
        -11   -1    0    0    0    0  0.00000000000E+00  0.00000000000E+00  0.45593999997E+02  0.45594000000E+02  0.51100000000E-03 0.  1.
         11   -1    0    0    0    0 -0.00000000000E+00 -0.00000000000E+00 -0.45593999997E+02  0.45594000000E+02  0.51100000000E-03 0. -1.
         23    2    1    2    0    0  0.35527136788E-14  0.17763568394E-14 -0.35527136788E-14  0.91188000000E+02  0.91188000000E+02 0.  0.
    9900012    2    3    3    0    0  0.28692217957E+02  0.11620419329E+02 -0.19937462079E+02  0.54367083243E+02  0.39999997869E+02 0.  0.
         12    1    3    3    0    0 -0.28692217957E+02 -0.11620419329E+02  0.19937462079E+02  0.36820916757E+02  0.00000000000E+00 0. -1.
         11    1    4    4    0    0  0.99308397176E+01 -0.59297925826E+01 -0.55238842545E+01  0.12817851422E+02  0.51100000000E-03 0. -1.
        -11    1    4    4    0    0  0.23869641408E+01  0.96808938793E+01 -0.20163264842E+02  0.22493878133E+02  0.51100000000E-03 0.  1.
         12    1    4    4    0    0  0.16374414098E+02  0.78693180328E+01  0.57496870174E+01  0.19055353688E+02  0.00000000000E+00 0. -1.
</event>
<event>
 8    1  0.1280925E-006  0.9118800E+02  0.7816164E-02  0.1184000E+00
        -11   -1    0    0    0    0  0.00000000000E+00  0.00000000000E+00  0.45593999997E+02  0.45594000000E+02  0.51100000000E-03 0.  1.
         11   -1    0    0    0    0 -0.00000000000E+00 -0.00000000000E+00 -0.45593999997E+02  0.45594000000E+02  0.51100000000E-03 0. -1.
         23    2    1    2    0    0  0.00000000000E+00 -0.35527136788E-14  0.00000000000E+00  0.91188000000E+02  0.91188000000E+02 0.  0.
    9900012    2    3    3    0    0 -0.18188308503E+02 -0.11397971423E+02 -0.29917418910E+02  0.54367078326E+02  0.39999986659E+02 0.  0.
        -12    1    3    3    0    0  0.18188308503E+02  0.11397971423E+02  0.29917418910E+02  0.36820921674E+02  0.00000000000E+00 0.  1.
         11    1    4    4    0    0 -0.52380663268E+01 -0.13668546497E+02 -0.19360418353E+02  0.24271223728E+02  0.51100000000E-03 0. -1.
        -11    1    4    4    0    0 -0.92069781161E+01  0.42274841919E+01 -0.18504075730E+02  0.21095992214E+02  0.51100000000E-03 0.  1.
        -12    1    4    4    0    0 -0.37432640599E+01 -0.19569091174E+01  0.79470751731E+01  0.89998623836E+01  0.00000000000E+00 0.  1.
</event>
<event>
 8    1  0.1280925E-006  0.9118800E+02  0.7816164E-02  0.1184000E+00
        -11   -1    0    0    0    0  0.00000000000E+00  0.00000000000E+00  0.45593999997E+02  0.45594000000E+02  0.51100000000E-03 0. -1.
         11   -1    0    0    0    0 -0.00000000000E+00 -0.00000000000E+00 -0.45593999997E+02  0.45594000000E+02  0.51100000000E-03 0.  1.
         23    2    1    2    0    0  0.00000000000E+00  0.88817841970E-15  0.71054273576E-14  0.91188000000E+02  0.91188000000E+02 0.  0.
    9900012    2    3    3    0    0  0.83558365176E+01  0.53557732802E+01  0.35458117023E+02  0.54367049793E+02  0.39999921613E+02 0.  0.
        -12    1    3    3    0    0 -0.83558365176E+01 -0.53557732802E+01 -0.35458117023E+02  0.36820950207E+02  0.00000000000E+00 0.  1.
         11    1    4    4    0    0  0.59952834437E+01 -0.67195487848E+01  0.11155908425E+02  0.14337016861E+02  0.51100000000E-03 0. -1.
        -11    1    4    4    0    0 -0.19229353929E+01 -0.67511845348E+01  0.18626646582E+02  0.19905480057E+02  0.51100000000E-03 0.  1.
        -12    1    4    4    0    0  0.42834884668E+01  0.18826506600E+02  0.56755620156E+01  0.20124552874E+02  0.00000000000E+00 0.  1.
</event>
<event>
 8    1  0.1280925E-006  0.9118800E+02  0.7816164E-02  0.1184000E+00
        -11   -1    0    0    0    0  0.00000000000E+00  0.00000000000E+00  0.45593999997E+02  0.45594000000E+02  0.51100000000E-03 0. -1.
         11   -1    0    0    0    0 -0.00000000000E+00 -0.00000000000E+00 -0.45593999997E+02  0.45594000000E+02  0.51100000000E-03 0.  1.
         23    2    1    2    0    0  0.00000000000E+00  0.00000000000E+00  0.00000000000E+00  0.91188000000E+02  0.91188000000E+02 0.  0.
    9900012    2    3    3    0    0 -0.25373496825E+02 -0.89734869948E+01  0.25128507206E+02  0.54367086319E+02  0.40000004880E+02 0.  0.
        -12    1    3    3    0    0  0.25373496825E+02  0.89734869948E+01 -0.25128507206E+02  0.36820913681E+02  0.00000000000E+00 0.  1.
         11    1    4    4    0    0 -0.12661520130E+02 -0.10597409591E+02  0.16926576098E+02  0.23645890990E+02  0.51100000000E-03 0. -1.
        -11    1    4    4    0    0  0.73709372301E+01  0.54394809136E+01  0.27475703457E+01  0.95638805579E+01  0.51100000000E-03 0.  1.
         12    1    4    4    0    0 -0.20082913925E+02 -0.38155583169E+01  0.54543607623E+01  0.21157314771E+02  0.00000000000E+00 0. -1.
</event>
<event>
 8    1  0.1280925E-006  0.9118800E+02  0.7816164E-02  0.1184000E+00
        -11   -1    0    0    0    0  0.00000000000E+00  0.00000000000E+00  0.45593999997E+02  0.45594000000E+02  0.51100000000E-03 0.  1.
         11   -1    0    0    0    0 -0.00000000000E+00 -0.00000000000E+00 -0.45593999997E+02  0.45594000000E+02  0.51100000000E-03 0. -1.
         23    2    1    2    0    0  0.55511151231E-15  0.00000000000E+00 -0.35527136788E-14  0.91188000000E+02  0.91188000000E+02 0.  0.
    9900012    2    3    3    0    0 -0.54887938591E+00  0.19222241192E+02 -0.31400341074E+02  0.54367119448E+02  0.40000080406E+02 0.  0.
        -12    1    3    3    0    0  0.54887938591E+00 -0.19222241192E+02  0.31400341074E+02  0.36820880552E+02  0.00000000000E+00 0.  1.
         11    1    4    4    0    0  0.60045269988E+00  0.56597930240E+01 -0.18974784040E+02  0.19810003285E+02  0.51100000000E-03 0. -1.
        -11    1    4    4    0    0 -0.14949670856E+02  0.98624617627E+01 -0.59692460080E+01  0.18878366161E+02  0.51100000000E-03 0.  1.
        -12    1    4    4    0    0  0.13800338771E+02  0.36999864051E+01 -0.64563110262E+01  0.15678750003E+02  0.00000000000E+00 0.  1.
</event>
<event>
 8    1  0.1280925E-006  0.9118800E+02  0.7816164E-02  0.1184000E+00
        -11   -1    0    0    0    0  0.00000000000E+00  0.00000000000E+00  0.45593999997E+02  0.45594000000E+02  0.51100000000E-03 0.  1.
         11   -1    0    0    0    0 -0.00000000000E+00 -0.00000000000E+00 -0.45593999997E+02  0.45594000000E+02  0.51100000000E-03 0. -1.
         23    2    1    2    0    0  0.00000000000E+00  0.00000000000E+00  0.00000000000E+00  0.91188000000E+02  0.91188000000E+02 0.  0.
    9900012    2    3    3    0    0 -0.19131136752E+02  0.26941471045E+02  0.16246138577E+02  0.54367078310E+02  0.39999986623E+02 0.  0.
         12    1    3    3    0    0  0.19131136752E+02 -0.26941471045E+02 -0.16246138577E+02  0.36820921690E+02  0.00000000000E+00 0. -1.
         11    1    4    4    0    0  0.56080158192E+01  0.69336401999E+01 -0.55261919828E+00  0.89347969249E+01  0.51100000000E-03 0. -1.
        -11    1    4    4    0    0 -0.12274789947E+02  0.54148676317E+01 -0.67787548294E+01  0.15031393049E+02  0.51100000000E-03 0.  1.
        -12    1    4    4    0    0 -0.12464362624E+02  0.14592963213E+02  0.23577512605E+02  0.30400888335E+02  0.00000000000E+00 0.  1.
</event>
<event>
 8    1  0.1280925E-006  0.9118800E+02  0.7816164E-02  0.1184000E+00
        -11   -1    0    0    0    0  0.00000000000E+00  0.00000000000E+00  0.45593999997E+02  0.45594000000E+02  0.51100000000E-03 0.  1.
         11   -1    0    0    0    0 -0.00000000000E+00 -0.00000000000E+00 -0.45593999997E+02  0.45594000000E+02  0.51100000000E-03 0. -1.
         23    2    1    2    0    0  0.17763568394E-14 -0.44408920985E-15  0.00000000000E+00  0.91188000000E+02  0.91188000000E+02 0.  0.
    9900012    2    3    3    0    0  0.13642397569E+02 -0.12876310864E+01  0.34176100753E+02  0.54367097405E+02  0.40000030154E+02 0.  0.
         12    1    3    3    0    0 -0.13642397569E+02  0.12876310864E+01 -0.34176100753E+02  0.36820902595E+02  0.00000000000E+00 0. -1.
         11    1    4    4    0    0 -0.53316510796E+01 -0.76892879629E+01  0.23061472072E+02  0.24887409407E+02  0.51100000000E-03 0. -1.
        -11    1    4    4    0    0  0.47951172145E+01  0.77481969013E+01  0.12163978206E+02  0.15198357489E+02  0.51100000000E-03 0.  1.
        -12    1    4    4    0    0  0.14178931435E+02 -0.13465400248E+01 -0.10493495248E+01  0.14281330508E+02  0.00000000000E+00 0.  1.
</event>
<event>
 8    1  0.1280925E-006  0.9118800E+02  0.7816164E-02  0.1184000E+00
        -11   -1    0    0    0    0  0.00000000000E+00  0.00000000000E+00  0.45593999997E+02  0.45594000000E+02  0.51100000000E-03 0. -1.
         11   -1    0    0    0    0 -0.00000000000E+00 -0.00000000000E+00 -0.45593999997E+02  0.45594000000E+02  0.51100000000E-03 0.  1.
         23    2    1    2    0    0  0.35527136788E-14 -0.44408920985E-15  0.00000000000E+00  0.91188000000E+02  0.91188000000E+02 0.  0.
    9900012    2    3    3    0    0  0.22589466524E+02 -0.11544786285E+01 -0.29054465002E+02  0.54367098934E+02  0.40000033640E+02 0.  0.
        -12    1    3    3    0    0 -0.22589466524E+02  0.11544786285E+01  0.29054465002E+02  0.36820901066E+02  0.00000000000E+00 0.  1.
         11    1    4    4    0    0  0.16855317147E+02 -0.96486138384E+01  0.13606809760E+01  0.19469178671E+02  0.51100000000E-03 0. -1.
        -11    1    4    4    0    0  0.17487364396E+01  0.38303741312E+01 -0.36331717323E+00  0.42263275724E+01  0.51100000000E-03 0.  1.
         12    1    4    4    0    0  0.39854129370E+01  0.46637610787E+01 -0.30051828805E+02  0.30671592691E+02  0.00000000000E+00 0. -1.
</event>
<event>
 8    1  0.1280925E-006  0.9118800E+02  0.7816164E-02  0.1184000E+00
        -11   -1    0    0    0    0  0.00000000000E+00  0.00000000000E+00  0.45593999997E+02  0.45594000000E+02  0.51100000000E-03 0.  1.
         11   -1    0    0    0    0 -0.00000000000E+00 -0.00000000000E+00 -0.45593999997E+02  0.45594000000E+02  0.51100000000E-03 0. -1.
         23    2    1    2    0    0  0.00000000000E+00  0.00000000000E+00  0.00000000000E+00  0.91188000000E+02  0.91188000000E+02 0.  0.
    9900012    2    3    3    0    0 -0.20712998385E+02 -0.14294853172E+02  0.26877648460E+02  0.54367094036E+02  0.40000022474E+02 0.  0.
         12    1    3    3    0    0  0.20712998385E+02  0.14294853172E+02 -0.26877648460E+02  0.36820905964E+02  0.00000000000E+00 0. -1.
         11    1    4    4    0    0 -0.75086007035E+01  0.63778846484E+01  0.67475700534E+00  0.98748060431E+01  0.51100000000E-03 0. -1.
        -11    1    4    4    0    0 -0.15307003063E+02 -0.76380751776E+00  0.73677765377E+01  0.17005054427E+02  0.51100000000E-03 0.  1.
        -12    1    4    4    0    0  0.21026053817E+01 -0.19908930302E+02  0.18835114917E+02  0.27487233566E+02  0.00000000000E+00 0.  1.
</event>
<event>
 8    1  0.1280925E-006  0.9118800E+02  0.7816164E-02  0.1184000E+00
        -11   -1    0    0    0    0  0.00000000000E+00  0.00000000000E+00  0.45593999997E+02  0.45594000000E+02  0.51100000000E-03 0. -1.
         11   -1    0    0    0    0 -0.00000000000E+00 -0.00000000000E+00 -0.45593999997E+02  0.45594000000E+02  0.51100000000E-03 0.  1.
         23    2    1    2    0    0 -0.88817841970E-15 -0.44408920985E-15  0.00000000000E+00  0.91188000000E+02  0.91188000000E+02 0.  0.
    9900012    2    3    3    0    0  0.75646402747E+01  0.31093980836E+01 -0.35901076459E+02  0.54367089775E+02  0.40000012759E+02 0.  0.
         12    1    3    3    0    0 -0.75646402747E+01 -0.31093980836E+01  0.35901076459E+02  0.36820910225E+02  0.00000000000E+00 0. -1.
         11    1    4    4    0    0 -0.35431714407E+00  0.57253455671E+01  0.18417801998E+00  0.57392546821E+01  0.51100000000E-03 0. -1.
        -11    1    4    4    0    0 -0.45554588846E+01 -0.14591428562E+02 -0.16125540496E+02  0.22219249530E+02  0.51100000000E-03 0.  1.
        -12    1    4    4    0    0  0.12474416303E+02  0.11975481078E+02 -0.19959713982E+02  0.26408585562E+02  0.00000000000E+00 0.  1.
</event>
<event>
 8    1  0.1280925E-006  0.9118800E+02  0.7816164E-02  0.1184000E+00
        -11   -1    0    0    0    0  0.00000000000E+00  0.00000000000E+00  0.45593999997E+02  0.45594000000E+02  0.51100000000E-03 0.  1.
         11   -1    0    0    0    0 -0.00000000000E+00 -0.00000000000E+00 -0.45593999997E+02  0.45594000000E+02  0.51100000000E-03 0. -1.
         23    2    1    2    0    0  0.00000000000E+00 -0.71054273576E-14  0.00000000000E+00  0.91188000000E+02  0.91188000000E+02 0.  0.
    9900012    2    3    3    0    0 -0.10632616784E+02 -0.34204142376E+02 -0.85324519176E+01  0.54367100621E+02  0.40000037485E+02 0.  0.
        -12    1    3    3    0    0  0.10632616784E+02  0.34204142376E+02  0.85324519176E+01  0.36820899379E+02  0.00000000000E+00 0.  1.
         11    1    4    4    0    0 -0.11093173905E+02 -0.13269735763E+02  0.68941465744E+01  0.18619174304E+02  0.51100000000E-03 0. -1.
        -11    1    4    4    0    0 -0.50995814607E+01 -0.25381959388E+01 -0.15517076210E+02  0.16529604474E+02  0.51100000000E-03 0.  1.
        -12    1    4    4    0    0  0.55601385814E+01 -0.18396210674E+02  0.90477718338E-01  0.19218321843E+02  0.00000000000E+00 0.  1.
</event>
<event>
 8    1  0.1280925E-006  0.9118800E+02  0.7816164E-02  0.1184000E+00
        -11   -1    0    0    0    0  0.00000000000E+00  0.00000000000E+00  0.45593999997E+02  0.45594000000E+02  0.51100000000E-03 0.  1.
         11   -1    0    0    0    0 -0.00000000000E+00 -0.00000000000E+00 -0.45593999997E+02  0.45594000000E+02  0.51100000000E-03 0. -1.
         23    2    1    2    0    0  0.00000000000E+00  0.00000000000E+00  0.35527136788E-14  0.91188000000E+02  0.91188000000E+02 0.  0.
    9900012    2    3    3    0    0  0.12225372272E+02  0.19668040020E+02 -0.28626688485E+02  0.54367098068E+02  0.40000031666E+02 0.  0.
        -12    1    3    3    0    0 -0.12225372272E+02 -0.19668040020E+02  0.28626688485E+02  0.36820901932E+02  0.00000000000E+00 0.  1.
         11    1    4    4    0    0  0.16084438877E+02  0.35262344640E+01 -0.19041941997E+01  0.16576171430E+02  0.51100000000E-03 0. -1.
        -11    1    4    4    0    0 -0.21681378363E+01  0.24055578301E+01  0.33666825883E+01  0.46714111425E+01  0.51100000000E-03 0.  1.
         12    1    4    4    0    0 -0.16909287682E+01  0.13736247726E+02 -0.30089176874E+02  0.33119515495E+02  0.00000000000E+00 0. -1.
</event>
<event>
 8    1  0.1280925E-006  0.9118800E+02  0.7816164E-02  0.1184000E+00
        -11   -1    0    0    0    0  0.00000000000E+00  0.00000000000E+00  0.45593999997E+02  0.45594000000E+02  0.51100000000E-03 0. -1.
         11   -1    0    0    0    0 -0.00000000000E+00 -0.00000000000E+00 -0.45593999997E+02  0.45594000000E+02  0.51100000000E-03 0.  1.
         23    2    1    2    0    0 -0.35527136788E-14  0.00000000000E+00 -0.35527136788E-14  0.91188000000E+02  0.91188000000E+02 0.  0.
    9900012    2    3    3    0    0  0.28558428338E+02 -0.15493941101E+02  0.17324449182E+02  0.54367047005E+02  0.39999915258E+02 0.  0.
        -12    1    3    3    0    0 -0.28558428338E+02  0.15493941101E+02 -0.17324449182E+02  0.36820952995E+02  0.00000000000E+00 0.  1.
         11    1    4    4    0    0  0.21310824418E+02 -0.51850084347E+01  0.10541440812E+02  0.24334287014E+02  0.51100000000E-03 0. -1.
        -11    1    4    4    0    0 -0.36357481372E+01 -0.12811003857E+02  0.11797751434E+02  0.17791217594E+02  0.51100000000E-03 0.  1.
        -12    1    4    4    0    0  0.10883352057E+02  0.25020711904E+01 -0.50147430645E+01  0.12241542397E+02  0.00000000000E+00 0.  1.
</event>
<event>
 8    1  0.1280925E-006  0.9118800E+02  0.7816164E-02  0.1184000E+00
        -11   -1    0    0    0    0  0.00000000000E+00  0.00000000000E+00  0.45593999997E+02  0.45594000000E+02  0.51100000000E-03 0.  1.
         11   -1    0    0    0    0 -0.00000000000E+00 -0.00000000000E+00 -0.45593999997E+02  0.45594000000E+02  0.51100000000E-03 0. -1.
         23    2    1    2    0    0  0.00000000000E+00  0.17763568394E-14 -0.88817841970E-15  0.91188000000E+02  0.91188000000E+02 0.  0.
    9900012    2    3    3    0    0  0.34044201723E+02 -0.12926982538E+02  0.54465950430E+01  0.54367082765E+02  0.39999996780E+02 0.  0.
         12    1    3    3    0    0 -0.34044201723E+02  0.12926982538E+02 -0.54465950430E+01  0.36820917235E+02  0.00000000000E+00 0. -1.
         11    1    4    4    0    0 -0.59193784723E+01 -0.75544882085E+01 -0.37618559586E+01  0.10308292492E+02  0.51100000000E-03 0. -1.
        -11    1    4    4    0    0 -0.46585626964E+00 -0.46260889072E+00 -0.17622443930E+01  0.18805676301E+01  0.51100000000E-03 0.  1.
        -12    1    4    4    0    0  0.40429436465E+02 -0.49098854383E+01  0.10970695395E+02  0.42178222643E+02  0.00000000000E+00 0.  1.
</event>
<event>
 8    1  0.1280925E-006  0.9118800E+02  0.7816164E-02  0.1184000E+00
        -11   -1    0    0    0    0  0.00000000000E+00  0.00000000000E+00  0.45593999997E+02  0.45594000000E+02  0.51100000000E-03 0.  1.
         11   -1    0    0    0    0 -0.00000000000E+00 -0.00000000000E+00 -0.45593999997E+02  0.45594000000E+02  0.51100000000E-03 0. -1.
         23    2    1    2    0    0  0.88817841970E-15 -0.35527136788E-14  0.00000000000E+00  0.91188000000E+02  0.91188000000E+02 0.  0.
    9900012    2    3    3    0    0  0.70476854266E+01  0.21970591210E+02  0.28694996659E+02  0.54367087718E+02  0.40000008071E+02 0.  0.
         12    1    3    3    0    0 -0.70476854266E+01 -0.21970591210E+02 -0.28694996659E+02  0.36820912282E+02  0.00000000000E+00 0. -1.
         11    1    4    4    0    0  0.77933519042E+01  0.10568068782E+02 -0.73975813451E+00  0.13151716771E+02  0.51100000000E-03 0.  1.
        -11    1    4    4    0    0  0.10615485663E+02 -0.17648252405E+01  0.70341873685E+01  0.12856241137E+02  0.51100000000E-03 0. -1.
        -12    1    4    4    0    0 -0.11361152140E+02  0.13167347668E+02  0.22400567425E+02  0.28359129810E+02  0.00000000000E+00 0.  1.
</event>
<event>
 8    1  0.1280925E-006  0.9118800E+02  0.7816164E-02  0.1184000E+00
        -11   -1    0    0    0    0  0.00000000000E+00  0.00000000000E+00  0.45593999997E+02  0.45594000000E+02  0.51100000000E-03 0.  1.
         11   -1    0    0    0    0 -0.00000000000E+00 -0.00000000000E+00 -0.45593999997E+02  0.45594000000E+02  0.51100000000E-03 0. -1.
         23    2    1    2    0    0  0.00000000000E+00  0.00000000000E+00  0.00000000000E+00  0.91188000000E+02  0.91188000000E+02 0.  0.
    9900012    2    3    3    0    0 -0.14297621390E+02  0.17052544114E+02  0.29335438634E+02  0.54367092922E+02  0.40000019935E+02 0.  0.
         12    1    3    3    0    0  0.14297621390E+02 -0.17052544114E+02 -0.29335438634E+02  0.36820907078E+02  0.00000000000E+00 0. -1.
         11    1    4    4    0    0 -0.22965218794E+02  0.15241933915E+02  0.11793359704E+02  0.29980012627E+02  0.51100000000E-03 0. -1.
        -11    1    4    4    0    0 -0.10112999871E+01  0.41104673263E+01  0.12573540479E+02  0.13266973647E+02  0.51100000000E-03 0.  1.
         12    1    4    4    0    0  0.96788973919E+01 -0.22998571280E+01  0.49685384511E+01  0.11120106648E+02  0.00000000000E+00 0. -1.
</event>
<event>
 8    1  0.1280925E-006  0.9118800E+02  0.7816164E-02  0.1184000E+00
        -11   -1    0    0    0    0  0.00000000000E+00  0.00000000000E+00  0.45593999997E+02  0.45594000000E+02  0.51100000000E-03 0.  1.
         11   -1    0    0    0    0 -0.00000000000E+00 -0.00000000000E+00 -0.45593999997E+02  0.45594000000E+02  0.51100000000E-03 0. -1.
         23    2    1    2    0    0 -0.44408920985E-15  0.55511151231E-15  0.00000000000E+00  0.91188000000E+02  0.91188000000E+02 0.  0.
    9900012    2    3    3    0    0 -0.19126897312E+01  0.34695747223E+00  0.36769571399E+02  0.54367080099E+02  0.39999990702E+02 0.  0.
         12    1    3    3    0    0  0.19126897312E+01 -0.34695747223E+00 -0.36769571399E+02  0.36820919901E+02  0.00000000000E+00 0. -1.
         11    1    4    4    0    0  0.14978405584E+02 -0.22746322694E+01  0.30408601547E+02  0.33973660888E+02  0.51100000000E-03 0.  1.
        -11    1    4    4    0    0 -0.10113766239E+02 -0.12596615259E+00  0.80035903987E+01  0.12898123683E+02  0.51100000000E-03 0. -1.
         12    1    4    4    0    0 -0.67773290762E+01  0.27475558942E+01 -0.16426205468E+01  0.74952955286E+01  0.00000000000E+00 0. -1.
</event>
<event>
 8    1  0.1280925E-006  0.9118800E+02  0.7816164E-02  0.1184000E+00
        -11   -1    0    0    0    0  0.00000000000E+00  0.00000000000E+00  0.45593999997E+02  0.45594000000E+02  0.51100000000E-03 0.  1.
         11   -1    0    0    0    0 -0.00000000000E+00 -0.00000000000E+00 -0.45593999997E+02  0.45594000000E+02  0.51100000000E-03 0. -1.
         23    2    1    2    0    0  0.00000000000E+00 -0.35527136788E-14  0.71054273576E-14  0.91188000000E+02  0.91188000000E+02 0.  0.
    9900012    2    3    3    0    0  0.96442744720E+01 -0.24750604770E+02  0.25498529287E+02  0.54367089333E+02  0.40000011752E+02 0.  0.
         12    1    3    3    0    0 -0.96442744720E+01  0.24750604770E+02 -0.25498529287E+02  0.36820910667E+02  0.00000000000E+00 0. -1.
         11    1    4    4    0    0  0.61058834343E+01 -0.69888996261E+00 -0.54462450257E+01  0.82116895237E+01  0.51100000000E-03 0. -1.
        -11    1    4    4    0    0  0.61324729975E+01 -0.13316617640E+02  0.15357471638E+01  0.14741032869E+02  0.51100000000E-03 0.  1.
        -12    1    4    4    0    0 -0.25940819598E+01 -0.10735097167E+02  0.29409027149E+02  0.31414366940E+02  0.00000000000E+00 0.  1.
</event>
<event>
 8    1  0.1280925E-006  0.9118800E+02  0.7816164E-02  0.1184000E+00
        -11   -1    0    0    0    0  0.00000000000E+00  0.00000000000E+00  0.45593999997E+02  0.45594000000E+02  0.51100000000E-03 0.  1.
         11   -1    0    0    0    0 -0.00000000000E+00 -0.00000000000E+00 -0.45593999997E+02  0.45594000000E+02  0.51100000000E-03 0. -1.
         23    2    1    2    0    0  0.99920072216E-15  0.00000000000E+00  0.00000000000E+00  0.91188000000E+02  0.91188000000E+02 0.  0.
    9900012    2    3    3    0    0 -0.82518636426E+00 -0.12682384635E+02 -0.34558261217E+02  0.54366848051E+02  0.39999461697E+02 0.  0.
        -12    1    3    3    0    0  0.82518636426E+00  0.12682384635E+02  0.34558261217E+02  0.36821151949E+02  0.00000000000E+00 0.  1.
         11    1    4    4    0    0  0.80506925659E+01 -0.24982516852E+02 -0.24109572053E+02  0.35640023343E+02  0.51100000000E-03 0. -1.
        -11    1    4    4    0    0 -0.69480839069E+01  0.69309494041E+01 -0.61220103530E+01  0.11566889843E+02  0.51100000000E-03 0.  1.
         12    1    4    4    0    0 -0.19277950233E+01  0.53691828132E+01 -0.43266788106E+01  0.71599348644E+01  0.00000000000E+00 0. -1.
</event>
<event>
 8    1  0.1280925E-006  0.9118800E+02  0.7816164E-02  0.1184000E+00
        -11   -1    0    0    0    0  0.00000000000E+00  0.00000000000E+00  0.45593999997E+02  0.45594000000E+02  0.51100000000E-03 0.  1.
         11   -1    0    0    0    0 -0.00000000000E+00 -0.00000000000E+00 -0.45593999997E+02  0.45594000000E+02  0.51100000000E-03 0. -1.
         23    2    1    2    0    0 -0.35527136788E-14  0.00000000000E+00  0.17763568394E-14  0.91188000000E+02  0.91188000000E+02 0.  0.
    9900012    2    3    3    0    0  0.31354604791E+02 -0.16046346303E+02 -0.10732327909E+02  0.54367091081E+02  0.40000015737E+02 0.  0.
         12    1    3    3    0    0 -0.31354604791E+02  0.16046346303E+02  0.10732327909E+02  0.36820908919E+02  0.00000000000E+00 0. -1.
         11    1    4    4    0    0  0.49571584880E+01 -0.10032175408E+02  0.67061444216E+01  0.13045701858E+02  0.51100000000E-03 0. -1.
        -11    1    4    4    0    0  0.77304870497E+01 -0.81452258952E+01  0.47967493067E+01  0.12211221850E+02  0.51100000000E-03 0.  1.
         12    1    4    4    0    0  0.18666959253E+02  0.21310550005E+01 -0.22235221638E+02  0.29110167373E+02  0.00000000000E+00 0. -1.
</event>
<event>
 8    1  0.1280925E-006  0.9118800E+02  0.7816164E-02  0.1184000E+00
        -11   -1    0    0    0    0  0.00000000000E+00  0.00000000000E+00  0.45593999997E+02  0.45594000000E+02  0.51100000000E-03 0.  1.
         11   -1    0    0    0    0 -0.00000000000E+00 -0.00000000000E+00 -0.45593999997E+02  0.45594000000E+02  0.51100000000E-03 0. -1.
         23    2    1    2    0    0 -0.35527136788E-14  0.71054273576E-14 -0.88817841970E-15  0.91188000000E+02  0.91188000000E+02 0.  0.
    9900012    2    3    3    0    0  0.29753668065E+02 -0.21438516923E+02 -0.32998160469E+01  0.54367088046E+02  0.40000008819E+02 0.  0.
        -12    1    3    3    0    0 -0.29753668065E+02  0.21438516923E+02  0.32998160469E+01  0.36820911954E+02  0.00000000000E+00 0.  1.
         11    1    4    4    0    0  0.97160477862E+01 -0.42659659926E+01  0.80170475613E+01  0.13299364733E+02  0.51100000000E-03 0. -1.
        -11    1    4    4    0    0 -0.46112779313E+01  0.45575816621E+01 -0.31502872499E+01  0.72083108135E+01  0.51100000000E-03 0.  1.
         12    1    4    4    0    0  0.24648898210E+02 -0.21730132592E+02 -0.81665763583E+01  0.33859412500E+02  0.00000000000E+00 0. -1.
</event>
<event>
 8    1  0.1280925E-006  0.9118800E+02  0.7816164E-02  0.1184000E+00
        -11   -1    0    0    0    0  0.00000000000E+00  0.00000000000E+00  0.45593999997E+02  0.45594000000E+02  0.51100000000E-03 0.  1.
         11   -1    0    0    0    0 -0.00000000000E+00 -0.00000000000E+00 -0.45593999997E+02  0.45594000000E+02  0.51100000000E-03 0. -1.
         23    2    1    2    0    0  0.00000000000E+00  0.00000000000E+00 -0.88817841970E-15  0.91188000000E+02  0.91188000000E+02 0.  0.
    9900012    2    3    3    0    0  0.35116039206E+02  0.97663987131E+01  0.52212212438E+01  0.54367083328E+02  0.39999998062E+02 0.  0.
        -12    1    3    3    0    0 -0.35116039206E+02 -0.97663987131E+01 -0.52212212438E+01  0.36820916672E+02  0.00000000000E+00 0.  1.
         11    1    4    4    0    0  0.20722475079E+02  0.19763141697E+02  0.69300409229E+01  0.29462318486E+02  0.51100000000E-03 0. -1.
        -11    1    4    4    0    0  0.36921312676E+01 -0.41743146307E+01  0.77046321677E+01  0.95088428862E+01  0.51100000000E-03 0.  1.
         12    1    4    4    0    0  0.10701432860E+02 -0.58224283535E+01 -0.94134518468E+01  0.15395921955E+02  0.00000000000E+00 0. -1.
</event>
<event>
 8    1  0.1280925E-006  0.9118800E+02  0.7816164E-02  0.1184000E+00
        -11   -1    0    0    0    0  0.00000000000E+00  0.00000000000E+00  0.45593999997E+02  0.45594000000E+02  0.51100000000E-03 0.  1.
         11   -1    0    0    0    0 -0.00000000000E+00 -0.00000000000E+00 -0.45593999997E+02  0.45594000000E+02  0.51100000000E-03 0. -1.
         23    2    1    2    0    0 -0.17763568394E-14 -0.88817841970E-15  0.00000000000E+00  0.91188000000E+02  0.91188000000E+02 0.  0.
    9900012    2    3    3    0    0 -0.14912203645E+02  0.76073989824E+01  0.32795323694E+02  0.54367087558E+02  0.40000007707E+02 0.  0.
         12    1    3    3    0    0  0.14912203645E+02 -0.76073989824E+01 -0.32795323694E+02  0.36820912442E+02  0.00000000000E+00 0. -1.
         11    1    4    4    0    0 -0.65978517693E+01  0.94852243421E+01 -0.50124274231E+01  0.12594663859E+02  0.51100000000E-03 0. -1.
        -11    1    4    4    0    0  0.38599014024E+01  0.74320329746E+00  0.34594849366E+01  0.52363371039E+01  0.51100000000E-03 0.  1.
        -12    1    4    4    0    0 -0.12174253278E+02 -0.26210286572E+01  0.34348266181E+02  0.36536086596E+02  0.00000000000E+00 0.  1.
</event>
<event>
 8    1  0.1280925E-006  0.9118800E+02  0.7816164E-02  0.1184000E+00
        -11   -1    0    0    0    0  0.00000000000E+00  0.00000000000E+00  0.45593999997E+02  0.45594000000E+02  0.51100000000E-03 0.  1.
         11   -1    0    0    0    0 -0.00000000000E+00 -0.00000000000E+00 -0.45593999997E+02  0.45594000000E+02  0.51100000000E-03 0. -1.
         23    2    1    2    0    0  0.00000000000E+00 -0.71054273576E-14 -0.88817841970E-15  0.91188000000E+02  0.91188000000E+02 0.  0.
    9900012    2    3    3    0    0  0.11772071573E+02 -0.34171546642E+02 -0.70359542455E+01  0.54367069523E+02  0.39999966591E+02 0.  0.
        -12    1    3    3    0    0 -0.11772071573E+02  0.34171546642E+02  0.70359542455E+01  0.36820930477E+02  0.00000000000E+00 0.  1.
         11    1    4    4    0    0  0.71376318352E+01 -0.24223679756E+01 -0.28434750042E+01  0.80559918809E+01  0.51100000000E-03 0. -1.
        -11    1    4    4    0    0  0.15907110120E+02 -0.14002853421E+02  0.72210557622E+01  0.22388829868E+02  0.51100000000E-03 0.  1.
         12    1    4    4    0    0 -0.11272670382E+02 -0.17746325246E+02 -0.11413535003E+02  0.23922247774E+02  0.00000000000E+00 0. -1.
</event>
<event>
 8    1  0.1280925E-006  0.9118800E+02  0.7816164E-02  0.1184000E+00
        -11   -1    0    0    0    0  0.00000000000E+00  0.00000000000E+00  0.45593999997E+02  0.45594000000E+02  0.51100000000E-03 0. -1.
         11   -1    0    0    0    0 -0.00000000000E+00 -0.00000000000E+00 -0.45593999997E+02  0.45594000000E+02  0.51100000000E-03 0.  1.
         23    2    1    2    0    0  0.00000000000E+00 -0.44408920985E-15  0.00000000000E+00  0.91188000000E+02  0.91188000000E+02 0.  0.
    9900012    2    3    3    0    0  0.24214802322E+02  0.34961169406E+01 -0.27517257812E+02  0.54367096118E+02  0.40000027221E+02 0.  0.
         12    1    3    3    0    0 -0.24214802322E+02 -0.34961169406E+01  0.27517257812E+02  0.36820903882E+02  0.00000000000E+00 0. -1.
         11    1    4    4    0    0 -0.18792313666E+01  0.17787630395E+01  0.29163578323E+01  0.38988013218E+01  0.51100000000E-03 0. -1.
        -11    1    4    4    0    0  0.15479219105E+02 -0.12859806514E+02 -0.24004513474E+02  0.31324072454E+02  0.51100000000E-03 0.  1.
         12    1    4    4    0    0  0.10614814583E+02  0.14577160415E+02 -0.64291021704E+01  0.19144222343E+02  0.00000000000E+00 0. -1.
</event>
<event>
 8    1  0.1280925E-006  0.9118800E+02  0.7816164E-02  0.1184000E+00
        -11   -1    0    0    0    0  0.00000000000E+00  0.00000000000E+00  0.45593999997E+02  0.45594000000E+02  0.51100000000E-03 0.  1.
         11   -1    0    0    0    0 -0.00000000000E+00 -0.00000000000E+00 -0.45593999997E+02  0.45594000000E+02  0.51100000000E-03 0. -1.
         23    2    1    2    0    0 -0.88817841970E-15  0.17763568394E-14  0.00000000000E+00  0.91188000000E+02  0.91188000000E+02 0.  0.
    9900012    2    3    3    0    0 -0.58137309670E+01  0.59874518926E+01  0.35862665836E+02  0.54367084085E+02  0.39999999789E+02 0.  0.
         12    1    3    3    0    0  0.58137309670E+01 -0.59874518926E+01 -0.35862665836E+02  0.36820915915E+02  0.00000000000E+00 0. -1.
         11    1    4    4    0    0  0.25537726255E+01 -0.53071778070E+01  0.16046214874E+02  0.17092948925E+02  0.51100000000E-03 0. -1.
        -11    1    4    4    0    0  0.67947287712E+01  0.14463117517E+02  0.11548225499E+02  0.19715770840E+02  0.51100000000E-03 0.  1.
        -12    1    4    4    0    0 -0.15162232364E+02 -0.31684878169E+01  0.82682254632E+01  0.17558364320E+02  0.00000000000E+00 0.  1.
</event>
<event>
 8    1  0.1280925E-006  0.9118800E+02  0.7816164E-02  0.1184000E+00
        -11   -1    0    0    0    0  0.00000000000E+00  0.00000000000E+00  0.45593999997E+02  0.45594000000E+02  0.51100000000E-03 0. -1.
         11   -1    0    0    0    0 -0.00000000000E+00 -0.00000000000E+00 -0.45593999997E+02  0.45594000000E+02  0.51100000000E-03 0.  1.
         23    2    1    2    0    0 -0.35527136788E-14  0.35527136788E-14  0.35527136788E-14  0.91188000000E+02  0.91188000000E+02 0.  0.
    9900012    2    3    3    0    0 -0.18529172494E+02  0.27215789522E+02  0.16484878034E+02  0.54367073390E+02  0.39999975407E+02 0.  0.
        -12    1    3    3    0    0  0.18529172494E+02 -0.27215789522E+02 -0.16484878034E+02  0.36820926610E+02  0.00000000000E+00 0.  1.
         11    1    4    4    0    0  0.30005237057E+01  0.18668301372E+01 -0.25327844721E+01  0.43477804352E+01  0.51100000000E-03 0. -1.
        -11    1    4    4    0    0 -0.17210631231E+02 -0.28555629233E+01  0.45590295293E+01  0.18031772445E+02  0.51100000000E-03 0.  1.
         12    1    4    4    0    0 -0.43190649683E+01  0.28204522308E+02  0.14458632977E+02  0.31987520510E+02  0.00000000000E+00 0. -1.
</event>
<event>
 8    1  0.1280925E-006  0.9118800E+02  0.7816164E-02  0.1184000E+00
        -11   -1    0    0    0    0  0.00000000000E+00  0.00000000000E+00  0.45593999997E+02  0.45594000000E+02  0.51100000000E-03 0.  1.
         11   -1    0    0    0    0 -0.00000000000E+00 -0.00000000000E+00 -0.45593999997E+02  0.45594000000E+02  0.51100000000E-03 0. -1.
         23    2    1    2    0    0 -0.35527136788E-14  0.00000000000E+00  0.00000000000E+00  0.91188000000E+02  0.91188000000E+02 0.  0.
    9900012    2    3    3    0    0  0.28861179722E+02 -0.22720308309E+02 -0.25687409046E+01  0.54367101933E+02  0.40000040477E+02 0.  0.
        -12    1    3    3    0    0 -0.28861179722E+02  0.22720308309E+02  0.25687409046E+01  0.36820898067E+02  0.00000000000E+00 0.  1.
         11    1    4    4    0    0  0.23639829679E+02 -0.17840337736E+02 -0.56708727148E+01  0.30154236773E+02  0.51100000000E-03 0. -1.
        -11    1    4    4    0    0  0.46871436328E+01  0.89162179978E+01  0.25712588006E+01  0.10396135383E+02  0.51100000000E-03 0.  1.
        -12    1    4    4    0    0  0.53420641087E+00 -0.13796188571E+02  0.53087300961E+00  0.13816729777E+02  0.00000000000E+00 0.  1.
</event>
<event>
 8    1  0.1280925E-006  0.9118800E+02  0.7816164E-02  0.1184000E+00
        -11   -1    0    0    0    0  0.00000000000E+00  0.00000000000E+00  0.45593999997E+02  0.45594000000E+02  0.51100000000E-03 0.  1.
         11   -1    0    0    0    0 -0.00000000000E+00 -0.00000000000E+00 -0.45593999997E+02  0.45594000000E+02  0.51100000000E-03 0. -1.
         23    2    1    2    0    0  0.00000000000E+00  0.00000000000E+00  0.00000000000E+00  0.91188000000E+02  0.91188000000E+02 0.  0.
    9900012    2    3    3    0    0  0.18196825402E+02  0.21214057585E+02  0.23971168477E+02  0.54367114458E+02  0.40000069030E+02 0.  0.
         12    1    3    3    0    0 -0.18196825402E+02 -0.21214057585E+02 -0.23971168477E+02  0.36820885542E+02  0.00000000000E+00 0. -1.
         11    1    4    4    0    0  0.31928141802E+01  0.19993331989E+02  0.15262654609E+01  0.20304109755E+02  0.51100000000E-03 0. -1.
        -11    1    4    4    0    0  0.11031541904E+02  0.95147834074E+01  0.71782721802E+01  0.16240492968E+02  0.51100000000E-03 0.  1.
        -12    1    4    4    0    0  0.39724693178E+01 -0.82940578121E+01  0.15266630836E+02  0.17822511735E+02  0.00000000000E+00 0.  1.
</event>
<event>
 8    1  0.1280925E-006  0.9118800E+02  0.7816164E-02  0.1184000E+00
        -11   -1    0    0    0    0  0.00000000000E+00  0.00000000000E+00  0.45593999997E+02  0.45594000000E+02  0.51100000000E-03 0.  1.
         11   -1    0    0    0    0 -0.00000000000E+00 -0.00000000000E+00 -0.45593999997E+02  0.45594000000E+02  0.51100000000E-03 0. -1.
         23    2    1    2    0    0 -0.35527136788E-14  0.88817841970E-15  0.00000000000E+00  0.91188000000E+02  0.91188000000E+02 0.  0.
    9900012    2    3    3    0    0 -0.31128741223E+02 -0.42125040669E+01 -0.19210255582E+02  0.54367114076E+02  0.40000068160E+02 0.  0.
         12    1    3    3    0    0  0.31128741223E+02  0.42125040669E+01  0.19210255582E+02  0.36820885924E+02  0.00000000000E+00 0. -1.
         11    1    4    4    0    0 -0.18594597023E+02 -0.63706115835E+01 -0.85267293458E+01  0.21425425177E+02  0.51100000000E-03 0. -1.
        -11    1    4    4    0    0 -0.21275829221E+02  0.16714468843E+01 -0.11330354143E+02  0.24162606834E+02  0.51100000000E-03 0.  1.
         12    1    4    4    0    0  0.87416850210E+01  0.48666063231E+00  0.64682790717E+00  0.87790820658E+01  0.00000000000E+00 0. -1.
</event>
<event>
 8    1  0.1280925E-006  0.9118800E+02  0.7816164E-02  0.1184000E+00
        -11   -1    0    0    0    0  0.00000000000E+00  0.00000000000E+00  0.45593999997E+02  0.45594000000E+02  0.51100000000E-03 0.  1.
         11   -1    0    0    0    0 -0.00000000000E+00 -0.00000000000E+00 -0.45593999997E+02  0.45594000000E+02  0.51100000000E-03 0. -1.
         23    2    1    2    0    0  0.17763568394E-14  0.00000000000E+00  0.00000000000E+00  0.91188000000E+02  0.91188000000E+02 0.  0.
    9900012    2    3    3    0    0  0.12607045166E+02  0.26364095058E+02  0.22400372804E+02  0.54367084779E+02  0.40000001370E+02 0.  0.
         12    1    3    3    0    0 -0.12607045166E+02 -0.26364095058E+02 -0.22400372804E+02  0.36820915221E+02  0.00000000000E+00 0. -1.
         11    1    4    4    0    0 -0.11859605899E+02  0.35153680242E+01  0.11481328623E+02  0.16876876833E+02  0.51100000000E-03 0. -1.
        -11    1    4    4    0    0  0.25402511530E+02  0.19383482954E+02  0.11272915092E+02  0.33883412142E+02  0.51100000000E-03 0.  1.
         12    1    4    4    0    0 -0.93586046527E+00  0.34652440797E+01 -0.35387091173E+00  0.36067958030E+01  0.00000000000E+00 0. -1.
</event>
<event>
 8    1  0.1280925E-006  0.9118800E+02  0.7816164E-02  0.1184000E+00
        -11   -1    0    0    0    0  0.00000000000E+00  0.00000000000E+00  0.45593999997E+02  0.45594000000E+02  0.51100000000E-03 0.  1.
         11   -1    0    0    0    0 -0.00000000000E+00 -0.00000000000E+00 -0.45593999997E+02  0.45594000000E+02  0.51100000000E-03 0. -1.
         23    2    1    2    0    0  0.00000000000E+00  0.00000000000E+00  0.00000000000E+00  0.91188000000E+02  0.91188000000E+02 0.  0.
    9900012    2    3    3    0    0  0.20995617337E+02  0.25042558261E+02 -0.16965678486E+02  0.54367083144E+02  0.39999997644E+02 0.  0.
        -12    1    3    3    0    0 -0.20995617337E+02 -0.25042558261E+02  0.16965678486E+02  0.36820916856E+02  0.00000000000E+00 0.  1.
         11    1    4    4    0    0  0.86579966369E+01  0.42011460430E+01 -0.13276585696E+02  0.16397507794E+02  0.51100000000E-03 0. -1.
        -11    1    4    4    0    0 -0.34107403729E+01  0.42159277680E+01 -0.12348586691E+02  0.13486837671E+02  0.51100000000E-03 0.  1.
         12    1    4    4    0    0  0.15748361073E+02  0.16625484450E+02  0.86594939009E+01  0.24482737680E+02  0.00000000000E+00 0. -1.
</event>
<event>
 8    1  0.1280925E-006  0.9118800E+02  0.7816164E-02  0.1184000E+00
        -11   -1    0    0    0    0  0.00000000000E+00  0.00000000000E+00  0.45593999997E+02  0.45594000000E+02  0.51100000000E-03 0. -1.
         11   -1    0    0    0    0 -0.00000000000E+00 -0.00000000000E+00 -0.45593999997E+02  0.45594000000E+02  0.51100000000E-03 0.  1.
         23    2    1    2    0    0  0.00000000000E+00 -0.88817841970E-15  0.00000000000E+00  0.91188000000E+02  0.91188000000E+02 0.  0.
    9900012    2    3    3    0    0  0.16035316168E+02  0.73373718161E+01 -0.32323529573E+02  0.54367096239E+02  0.40000027495E+02 0.  0.
         12    1    3    3    0    0 -0.16035316168E+02 -0.73373718161E+01  0.32323529573E+02  0.36820903761E+02  0.00000000000E+00 0. -1.
         11    1    4    4    0    0  0.31141358971E+01 -0.75992392279E+01  0.62911644839E+01  0.10345290235E+02  0.51100000000E-03 0. -1.
        -11    1    4    4    0    0  0.70078546383E+01  0.81512854459E+01 -0.28618189996E+02  0.30570480532E+02  0.51100000000E-03 0.  1.
         12    1    4    4    0    0  0.59133256322E+01  0.67853255981E+01 -0.99965040608E+01  0.13451325472E+02  0.00000000000E+00 0. -1.
</event>
<event>
 8    1  0.1280925E-006  0.9118800E+02  0.7816164E-02  0.1184000E+00
        -11   -1    0    0    0    0  0.00000000000E+00  0.00000000000E+00  0.45593999997E+02  0.45594000000E+02  0.51100000000E-03 0.  1.
         11   -1    0    0    0    0 -0.00000000000E+00 -0.00000000000E+00 -0.45593999997E+02  0.45594000000E+02  0.51100000000E-03 0. -1.
         23    2    1    2    0    0  0.00000000000E+00 -0.35527136788E-14  0.00000000000E+00  0.91188000000E+02  0.91188000000E+02 0.  0.
    9900012    2    3    3    0    0  0.20275676180E+02 -0.11174432684E+02  0.28632285025E+02  0.54367099195E+02  0.40000034234E+02 0.  0.
         12    1    3    3    0    0 -0.20275676180E+02  0.11174432684E+02 -0.28632285025E+02  0.36820900805E+02  0.00000000000E+00 0. -1.
         11    1    4    4    0    0  0.16850908875E+02  0.53231439658E+00  0.23385443415E+02  0.28829073043E+02  0.51100000000E-03 0. -1.
        -11    1    4    4    0    0  0.53505984575E+01 -0.10315104913E+02  0.12995589566E+02  0.17433176465E+02  0.51100000000E-03 0.  1.
         12    1    4    4    0    0 -0.19258311526E+01 -0.13916421670E+01 -0.77487479564E+01  0.81048496866E+01  0.00000000000E+00 0. -1.
</event>
<event>
 8    1  0.1280925E-006  0.9118800E+02  0.7816164E-02  0.1184000E+00
        -11   -1    0    0    0    0  0.00000000000E+00  0.00000000000E+00  0.45593999997E+02  0.45594000000E+02  0.51100000000E-03 0.  1.
         11   -1    0    0    0    0 -0.00000000000E+00 -0.00000000000E+00 -0.45593999997E+02  0.45594000000E+02  0.51100000000E-03 0. -1.
         23    2    1    2    0    0  0.00000000000E+00  0.00000000000E+00  0.00000000000E+00  0.91188000000E+02  0.91188000000E+02 0.  0.
    9900012    2    3    3    0    0  0.28425203581E+02  0.15067605419E+02 -0.17909620337E+02  0.54367089742E+02  0.40000012684E+02 0.  0.
        -12    1    3    3    0    0 -0.28425203581E+02 -0.15067605419E+02  0.17909620337E+02  0.36820910258E+02  0.00000000000E+00 0.  1.
         11    1    4    4    0    0  0.31406108786E+02  0.14789736210E+02 -0.30406076035E+01  0.34847170058E+02  0.51100000000E-03 0. -1.
        -11    1    4    4    0    0 -0.50157116655E+01  0.51163927056E+01 -0.66970185551E+01  0.98073898474E+01  0.51100000000E-03 0.  1.
         12    1    4    4    0    0  0.20348064603E+01 -0.48385234968E+01 -0.81719941784E+01  0.97125298358E+01  0.00000000000E+00 0. -1.
</event>
<event>
 8    1  0.1280925E-006  0.9118800E+02  0.7816164E-02  0.1184000E+00
        -11   -1    0    0    0    0  0.00000000000E+00  0.00000000000E+00  0.45593999997E+02  0.45594000000E+02  0.51100000000E-03 0.  1.
         11   -1    0    0    0    0 -0.00000000000E+00 -0.00000000000E+00 -0.45593999997E+02  0.45594000000E+02  0.51100000000E-03 0. -1.
         23    2    1    2    0    0  0.00000000000E+00 -0.44408920985E-15  0.35527136788E-14  0.91188000000E+02  0.91188000000E+02 0.  0.
    9900012    2    3    3    0    0 -0.26948194914E+02 -0.30061398915E+01 -0.24910607611E+02  0.54367075816E+02  0.39999980938E+02 0.  0.
        -12    1    3    3    0    0  0.26948194914E+02  0.30061398915E+01  0.24910607611E+02  0.36820924184E+02  0.00000000000E+00 0.  1.
         11    1    4    4    0    0  0.91736208724E+00 -0.10036034868E+02  0.29962419377E+00  0.10082327310E+02  0.51100000000E-03 0. -1.
        -11    1    4    4    0    0 -0.14961972063E+02  0.87523166073E+01 -0.17078325132E+01  0.17417816917E+02  0.51100000000E-03 0.  1.
         12    1    4    4    0    0 -0.12903584939E+02 -0.17224216310E+01 -0.23502399292E+02  0.26866931589E+02  0.00000000000E+00 0. -1.
</event>
<event>
 8    1  0.1280925E-006  0.9118800E+02  0.7816164E-02  0.1184000E+00
        -11   -1    0    0    0    0  0.00000000000E+00  0.00000000000E+00  0.45593999997E+02  0.45594000000E+02  0.51100000000E-03 0. -1.
         11   -1    0    0    0    0 -0.00000000000E+00 -0.00000000000E+00 -0.45593999997E+02  0.45594000000E+02  0.51100000000E-03 0.  1.
         23    2    1    2    0    0  0.88817841970E-15  0.00000000000E+00  0.00000000000E+00  0.91188000000E+02  0.91188000000E+02 0.  0.
    9900012    2    3    3    0    0  0.64963039126E+01  0.17440907561E+02 -0.31770940466E+02  0.54367083673E+02  0.39999998849E+02 0.  0.
         12    1    3    3    0    0 -0.64963039126E+01 -0.17440907561E+02  0.31770940466E+02  0.36820916327E+02  0.00000000000E+00 0. -1.
         11    1    4    4    0    0  0.16575112644E+02  0.15611562577E+02 -0.23395378995E+02  0.32646577215E+02  0.51100000000E-03 0.  1.
        -11    1    4    4    0    0 -0.11822367779E+02  0.46849098277E+01 -0.11497956793E+02  0.17144088505E+02  0.51100000000E-03 0. -1.
         12    1    4    4    0    0  0.17435590475E+01 -0.28555648433E+01  0.31223953226E+01  0.45764179526E+01  0.00000000000E+00 0. -1.
</event>
<event>
 8    1  0.1280925E-006  0.9118800E+02  0.7816164E-02  0.1184000E+00
        -11   -1    0    0    0    0  0.00000000000E+00  0.00000000000E+00  0.45593999997E+02  0.45594000000E+02  0.51100000000E-03 0.  1.
         11   -1    0    0    0    0 -0.00000000000E+00 -0.00000000000E+00 -0.45593999997E+02  0.45594000000E+02  0.51100000000E-03 0. -1.
         23    2    1    2    0    0 -0.88817841970E-15 -0.17763568394E-14  0.00000000000E+00  0.91188000000E+02  0.91188000000E+02 0.  0.
    9900012    2    3    3    0    0  0.59315924422E+01  0.14519404319E+02  0.33313430852E+02  0.54367060769E+02  0.39999946636E+02 0.  0.
        -12    1    3    3    0    0 -0.59315924422E+01 -0.14519404319E+02 -0.33313430852E+02  0.36820939231E+02  0.00000000000E+00 0.  1.
         11    1    4    4    0    0  0.98572448338E+01  0.10139971444E+02  0.26364634374E+02  0.29917858255E+02  0.51100000000E-03 0. -1.
        -11    1    4    4    0    0 -0.10667984116E+02  0.52116589914E+01  0.11292616935E+02  0.16385678871E+02  0.51100000000E-03 0.  1.
         12    1    4    4    0    0  0.67423317247E+01 -0.83222611579E+00 -0.43438204572E+01  0.80635236440E+01  0.00000000000E+00 0. -1.
</event>
<event>
 8    1  0.1280925E-006  0.9118800E+02  0.7816164E-02  0.1184000E+00
        -11   -1    0    0    0    0  0.00000000000E+00  0.00000000000E+00  0.45593999997E+02  0.45594000000E+02  0.51100000000E-03 0. -1.
         11   -1    0    0    0    0 -0.00000000000E+00 -0.00000000000E+00 -0.45593999997E+02  0.45594000000E+02  0.51100000000E-03 0.  1.
         23    2    1    2    0    0  0.00000000000E+00  0.00000000000E+00  0.00000000000E+00  0.91188000000E+02  0.91188000000E+02 0.  0.
    9900012    2    3    3    0    0  0.24293613410E+02  0.16058440355E+02  0.22532785878E+02  0.54367087483E+02  0.40000007535E+02 0.  0.
        -12    1    3    3    0    0 -0.24293613410E+02 -0.16058440355E+02 -0.22532785878E+02  0.36820912517E+02  0.00000000000E+00 0.  1.
         11    1    4    4    0    0  0.16559440628E+02  0.38135369618E+01  0.18275122018E+02  0.24954723463E+02  0.51100000000E-03 0. -1.
        -11    1    4    4    0    0  0.14346168073E+02  0.14821760680E+02 -0.88805131977E+00  0.20646688922E+02  0.51100000000E-03 0.  1.
        -12    1    4    4    0    0 -0.66119952908E+01 -0.25768572877E+01  0.51457151801E+01  0.87656750979E+01  0.00000000000E+00 0.  1.
</event>
<event>
 8    1  0.1280925E-006  0.9118800E+02  0.7816164E-02  0.1184000E+00
        -11   -1    0    0    0    0  0.00000000000E+00  0.00000000000E+00  0.45593999997E+02  0.45594000000E+02  0.51100000000E-03 0. -1.
         11   -1    0    0    0    0 -0.00000000000E+00 -0.00000000000E+00 -0.45593999997E+02  0.45594000000E+02  0.51100000000E-03 0.  1.
         23    2    1    2    0    0  0.88817841970E-15 -0.71054273576E-14 -0.17763568394E-14  0.91188000000E+02  0.91188000000E+02 0.  0.
    9900012    2    3    3    0    0 -0.72685469818E+01  0.35388486499E+02 -0.71135156443E+01  0.54367097556E+02  0.40000030499E+02 0.  0.
         12    1    3    3    0    0  0.72685469818E+01 -0.35388486499E+02  0.71135156443E+01  0.36820902444E+02  0.00000000000E+00 0. -1.
         11    1    4    4    0    0  0.58661439690E+01 -0.21358168813E+01 -0.11448251343E+02  0.13039778291E+02  0.51100000000E-03 0. -1.
        -11    1    4    4    0    0 -0.13567966424E+02  0.34368902938E+02  0.64431540465E+01  0.37507671700E+02  0.51100000000E-03 0.  1.
        -12    1    4    4    0    0  0.43327547278E+00  0.31554004425E+01 -0.21084183480E+01  0.38196475646E+01  0.00000000000E+00 0.  1.
</event>
<event>
 8    1  0.1280925E-006  0.9118800E+02  0.7816164E-02  0.1184000E+00
        -11   -1    0    0    0    0  0.00000000000E+00  0.00000000000E+00  0.45593999997E+02  0.45594000000E+02  0.51100000000E-03 0.  1.
         11   -1    0    0    0    0 -0.00000000000E+00 -0.00000000000E+00 -0.45593999997E+02  0.45594000000E+02  0.51100000000E-03 0. -1.
         23    2    1    2    0    0 -0.35527136788E-14  0.00000000000E+00  0.35527136788E-14  0.91188000000E+02  0.91188000000E+02 0.  0.
    9900012    2    3    3    0    0 -0.27109674250E+02  0.12052267416E+02  0.21807986036E+02  0.54367084167E+02  0.39999999976E+02 0.  0.
         12    1    3    3    0    0  0.27109674250E+02 -0.12052267416E+02 -0.21807986036E+02  0.36820915833E+02  0.00000000000E+00 0. -1.
         11    1    4    4    0    0 -0.81891837065E+00 -0.73496140724E+01  0.93185073212E+01  0.11896303345E+02  0.51100000000E-03 0. -1.
        -11    1    4    4    0    0 -0.68206707427E+01  0.19875396441E+02  0.49636709233E+01  0.21591455773E+02  0.51100000000E-03 0.  1.
        -12    1    4    4    0    0 -0.19470085136E+02 -0.47351495275E+00  0.75258077917E+01  0.20879325050E+02  0.00000000000E+00 0.  1.
</event>
<event>
 8    1  0.1280925E-006  0.9118800E+02  0.7816164E-02  0.1184000E+00
        -11   -1    0    0    0    0  0.00000000000E+00  0.00000000000E+00  0.45593999997E+02  0.45594000000E+02  0.51100000000E-03 0.  1.
         11   -1    0    0    0    0 -0.00000000000E+00 -0.00000000000E+00 -0.45593999997E+02  0.45594000000E+02  0.51100000000E-03 0. -1.
         23    2    1    2    0    0  0.88817841970E-15  0.17763568394E-14  0.00000000000E+00  0.91188000000E+02  0.91188000000E+02 0.  0.
    9900012    2    3    3    0    0  0.53419366783E+01 -0.12204996541E+02  0.34326103564E+02  0.54367087274E+02  0.40000007060E+02 0.  0.
         12    1    3    3    0    0 -0.53419366783E+01  0.12204996541E+02 -0.34326103564E+02  0.36820912726E+02  0.00000000000E+00 0. -1.
         11    1    4    4    0    0  0.98531372561E-01 -0.36428077350E+00 -0.28816885933E+01  0.29062928832E+01  0.51100000000E-03 0. -1.
        -11    1    4    4    0    0 -0.52907924853E+01 -0.18128838867E+02  0.33816498926E+02  0.38732452590E+02  0.51100000000E-03 0.  1.
         12    1    4    4    0    0  0.10534197791E+02  0.62881230998E+01  0.33912932316E+01  0.12728341801E+02  0.00000000000E+00 0. -1.
</event>
<event>
 8    1  0.1280925E-006  0.9118800E+02  0.7816164E-02  0.1184000E+00
        -11   -1    0    0    0    0  0.00000000000E+00  0.00000000000E+00  0.45593999997E+02  0.45594000000E+02  0.51100000000E-03 0.  1.
         11   -1    0    0    0    0 -0.00000000000E+00 -0.00000000000E+00 -0.45593999997E+02  0.45594000000E+02  0.51100000000E-03 0. -1.
         23    2    1    2    0    0  0.17763568394E-14 -0.17763568394E-14 -0.35527136788E-14  0.91188000000E+02  0.91188000000E+02 0.  0.
    9900012    2    3    3    0    0  0.11855069019E+02 -0.14519241147E+02  0.31692737301E+02  0.54367073579E+02  0.39999975837E+02 0.  0.
         12    1    3    3    0    0 -0.11855069019E+02  0.14519241147E+02 -0.31692737301E+02  0.36820926421E+02  0.00000000000E+00 0. -1.
         11    1    4    4    0    0  0.20657868927E+02  0.24449879200E+01  0.62435158478E+01  0.21718816841E+02  0.51100000000E-03 0. -1.
        -11    1    4    4    0    0  0.44144800050E+00 -0.32359808988E+01  0.16477710708E+01  0.36580867236E+01  0.51100000000E-03 0.  1.
         12    1    4    4    0    0 -0.92442479091E+01 -0.13728248168E+02  0.23801450382E+02  0.28990170014E+02  0.00000000000E+00 0. -1.
</event>
<event>
 8    1  0.1280925E-006  0.9118800E+02  0.7816164E-02  0.1184000E+00
        -11   -1    0    0    0    0  0.00000000000E+00  0.00000000000E+00  0.45593999997E+02  0.45594000000E+02  0.51100000000E-03 0.  1.
         11   -1    0    0    0    0 -0.00000000000E+00 -0.00000000000E+00 -0.45593999997E+02  0.45594000000E+02  0.51100000000E-03 0. -1.
         23    2    1    2    0    0  0.00000000000E+00  0.35527136788E-14 -0.99920072216E-15  0.91188000000E+02  0.91188000000E+02 0.  0.
    9900012    2    3    3    0    0  0.19158729928E+02 -0.31437907467E+02 -0.61429944670E+00  0.54367131975E+02  0.40000108963E+02 0.  0.
        -12    1    3    3    0    0 -0.19158729928E+02  0.31437907467E+02  0.61429944670E+00  0.36820868025E+02  0.00000000000E+00 0.  1.
         11    1    4    4    0    0  0.47590743749E+01 -0.88741325650E+01 -0.17940429570E+00  0.10071305965E+02  0.51100000000E-03 0. -1.
        -11    1    4    4    0    0  0.14319728795E+02 -0.28406322684E+02  0.91225708526E+01  0.33093732041E+02  0.51100000000E-03 0.  1.
         12    1    4    4    0    0  0.79926757983E-01  0.58425477820E+01 -0.95574660036E+01  0.11202093969E+02  0.00000000000E+00 0. -1.
</event>
<event>
 8    1  0.1280925E-006  0.9118800E+02  0.7816164E-02  0.1184000E+00
        -11   -1    0    0    0    0  0.00000000000E+00  0.00000000000E+00  0.45593999997E+02  0.45594000000E+02  0.51100000000E-03 0.  1.
         11   -1    0    0    0    0 -0.00000000000E+00 -0.00000000000E+00 -0.45593999997E+02  0.45594000000E+02  0.51100000000E-03 0. -1.
         23    2    1    2    0    0  0.00000000000E+00  0.27755575616E-15  0.00000000000E+00  0.91188000000E+02  0.91188000000E+02 0.  0.
    9900012    2    3    3    0    0 -0.29793380121E+02 -0.48194759283E+00 -0.21631042680E+02  0.54367085020E+02  0.40000001920E+02 0.  0.
        -12    1    3    3    0    0  0.29793380121E+02  0.48194759283E+00  0.21631042680E+02  0.36820914980E+02  0.00000000000E+00 0.  1.
         11    1    4    4    0    0 -0.11177621325E+02 -0.23297276251E+01  0.53054029346E+01  0.12590240262E+02  0.51100000000E-03 0. -1.
        -11    1    4    4    0    0 -0.16803522389E+02 -0.88814964151E+01 -0.95614608881E+01  0.21275828488E+02  0.51100000000E-03 0.  1.
         12    1    4    4    0    0 -0.18122364068E+01  0.10729276447E+02 -0.17374984726E+02  0.20501016270E+02  0.00000000000E+00 0. -1.
</event>
<event>
 8    1  0.1280925E-006  0.9118800E+02  0.7816164E-02  0.1184000E+00
        -11   -1    0    0    0    0  0.00000000000E+00  0.00000000000E+00  0.45593999997E+02  0.45594000000E+02  0.51100000000E-03 0.  1.
         11   -1    0    0    0    0 -0.00000000000E+00 -0.00000000000E+00 -0.45593999997E+02  0.45594000000E+02  0.51100000000E-03 0. -1.
         23    2    1    2    0    0 -0.35527136788E-14  0.00000000000E+00  0.00000000000E+00  0.91188000000E+02  0.91188000000E+02 0.  0.
    9900012    2    3    3    0    0 -0.22053594014E+02  0.46306978502E+01  0.29119987919E+02  0.54367108269E+02  0.40000054920E+02 0.  0.
         12    1    3    3    0    0  0.22053594014E+02 -0.46306978502E+01 -0.29119987919E+02  0.36820891731E+02  0.00000000000E+00 0. -1.
         11    1    4    4    0    0 -0.10164209695E+01 -0.30039652831E-01  0.75170631982E+00  0.12645460136E+01  0.51100000000E-03 0. -1.
        -11    1    4    4    0    0 -0.30294253416E+02 -0.42856951912E+01  0.25694958216E+02  0.39954221946E+02  0.51100000000E-03 0.  1.
         12    1    4    4    0    0  0.92570803722E+01  0.89464326943E+01  0.26733233828E+01  0.13148340309E+02  0.00000000000E+00 0. -1.
</event>
<event>
 8    1  0.1280925E-006  0.9118800E+02  0.7816164E-02  0.1184000E+00
        -11   -1    0    0    0    0  0.00000000000E+00  0.00000000000E+00  0.45593999997E+02  0.45594000000E+02  0.51100000000E-03 0.  1.
         11   -1    0    0    0    0 -0.00000000000E+00 -0.00000000000E+00 -0.45593999997E+02  0.45594000000E+02  0.51100000000E-03 0. -1.
         23    2    1    2    0    0  0.00000000000E+00  0.00000000000E+00  0.34694469520E-16  0.91188000000E+02  0.91188000000E+02 0.  0.
    9900012    2    3    3    0    0 -0.17456327731E+02 -0.32419964254E+02  0.41004706386E-01  0.54367093690E+02  0.40000021686E+02 0.  0.
        -12    1    3    3    0    0  0.17456327731E+02  0.32419964254E+02 -0.41004706386E-01  0.36820906310E+02  0.00000000000E+00 0.  1.
         11    1    4    4    0    0 -0.27757517867E+01  0.57977254488E+01 -0.45815932697E+01  0.78936313260E+01  0.51100000000E-03 0. -1.
        -11    1    4    4    0    0  0.92526269551E-01 -0.21484265159E+02  0.97142233748E+01  0.23578556923E+02  0.51100000000E-03 0.  1.
         12    1    4    4    0    0 -0.14773102213E+02 -0.16733424544E+02 -0.50916253987E+01  0.22894905442E+02  0.00000000000E+00 0. -1.
</event>
<event>
 8    1  0.1280925E-006  0.9118800E+02  0.7816164E-02  0.1184000E+00
        -11   -1    0    0    0    0  0.00000000000E+00  0.00000000000E+00  0.45593999997E+02  0.45594000000E+02  0.51100000000E-03 0.  1.
         11   -1    0    0    0    0 -0.00000000000E+00 -0.00000000000E+00 -0.45593999997E+02  0.45594000000E+02  0.51100000000E-03 0. -1.
         23    2    1    2    0    0  0.00000000000E+00  0.88817841970E-15 -0.71054273576E-14  0.91188000000E+02  0.91188000000E+02 0.  0.
    9900012    2    3    3    0    0  0.99141407284E+01  0.57242685491E+01 -0.34996006736E+02  0.54367110219E+02  0.40000059365E+02 0.  0.
        -12    1    3    3    0    0 -0.99141407284E+01 -0.57242685491E+01  0.34996006736E+02  0.36820889781E+02  0.00000000000E+00 0.  1.
         11    1    4    4    0    0  0.22021850172E+02  0.68775858685E+01 -0.25630626060E+02  0.34484664198E+02  0.51100000000E-03 0. -1.
        -11    1    4    4    0    0  0.77162655985E+00 -0.96263299805E+00  0.22318377620E+01  0.25501313484E+01  0.51100000000E-03 0.  1.
        -12    1    4    4    0    0 -0.12879336003E+02 -0.19068432135E+00 -0.11597218438E+02  0.17332314672E+02  0.00000000000E+00 0.  1.
</event>
<event>
 8    1  0.1280925E-006  0.9118800E+02  0.7816164E-02  0.1184000E+00
        -11   -1    0    0    0    0  0.00000000000E+00  0.00000000000E+00  0.45593999997E+02  0.45594000000E+02  0.51100000000E-03 0. -1.
         11   -1    0    0    0    0 -0.00000000000E+00 -0.00000000000E+00 -0.45593999997E+02  0.45594000000E+02  0.51100000000E-03 0.  1.
         23    2    1    2    0    0  0.88817841970E-15  0.00000000000E+00  0.00000000000E+00  0.91188000000E+02  0.91188000000E+02 0.  0.
    9900012    2    3    3    0    0 -0.43281683342E+01  0.25489639213E+02  0.26216879959E+02  0.54367088236E+02  0.40000009252E+02 0.  0.
        -12    1    3    3    0    0  0.43281683342E+01 -0.25489639213E+02 -0.26216879959E+02  0.36820911764E+02  0.00000000000E+00 0.  1.
         11    1    4    4    0    0 -0.16432720232E+02  0.18580259713E+02  0.22281407858E+02  0.33342487634E+02  0.51100000000E-03 0. -1.
        -11    1    4    4    0    0  0.26455564259E+01  0.14289491310E+01 -0.57051239425E+01  0.64489769640E+01  0.51100000000E-03 0.  1.
        -12    1    4    4    0    0  0.94589954723E+01  0.54804303690E+01  0.96405960429E+01  0.14575623638E+02  0.00000000000E+00 0.  1.
</event>
<event>
 8    1  0.1280925E-006  0.9118800E+02  0.7816164E-02  0.1184000E+00
        -11   -1    0    0    0    0  0.00000000000E+00  0.00000000000E+00  0.45593999997E+02  0.45594000000E+02  0.51100000000E-03 0. -1.
         11   -1    0    0    0    0 -0.00000000000E+00 -0.00000000000E+00 -0.45593999997E+02  0.45594000000E+02  0.51100000000E-03 0.  1.
         23    2    1    2    0    0  0.00000000000E+00  0.00000000000E+00  0.00000000000E+00  0.91188000000E+02  0.91188000000E+02 0.  0.
    9900012    2    3    3    0    0 -0.28341127712E+02 -0.19278671040E+02  0.13449964755E+02  0.54366970289E+02  0.39999740367E+02 0.  0.
        -12    1    3    3    0    0  0.28341127712E+02  0.19278671040E+02 -0.13449964755E+02  0.36821029711E+02  0.00000000000E+00 0.  1.
         11    1    4    4    0    0 -0.17255711805E+02 -0.13866067859E+02  0.74569533486E+01  0.23358800939E+02  0.51100000000E-03 0. -1.
        -11    1    4    4    0    0 -0.14998795564E+02  0.75303917115E+01  0.46773659248E+01  0.17422641015E+02  0.51100000000E-03 0.  1.
         12    1    4    4    0    0  0.39133796565E+01 -0.12942994892E+02  0.13156454817E+01  0.13585528335E+02  0.00000000000E+00 0. -1.
</event>
<event>
 8    1  0.1280925E-006  0.9118800E+02  0.7816164E-02  0.1184000E+00
        -11   -1    0    0    0    0  0.00000000000E+00  0.00000000000E+00  0.45593999997E+02  0.45594000000E+02  0.51100000000E-03 0.  1.
         11   -1    0    0    0    0 -0.00000000000E+00 -0.00000000000E+00 -0.45593999997E+02  0.45594000000E+02  0.51100000000E-03 0. -1.
         23    2    1    2    0    0  0.00000000000E+00  0.00000000000E+00 -0.17763568394E-14  0.91188000000E+02  0.91188000000E+02 0.  0.
    9900012    2    3    3    0    0 -0.33075071680E+02 -0.10673496144E+02  0.12161298561E+02  0.54367067512E+02  0.39999962008E+02 0.  0.
         12    1    3    3    0    0  0.33075071680E+02  0.10673496144E+02 -0.12161298561E+02  0.36820932488E+02  0.00000000000E+00 0. -1.
         11    1    4    4    0    0 -0.92062604652E+00  0.12015080374E+01 -0.10943946825E+01  0.18678527414E+01  0.51100000000E-03 0. -1.
        -11    1    4    4    0    0 -0.20945479084E+02 -0.12491285354E+02  0.25910850341E+02  0.35582544450E+02  0.51100000000E-03 0.  1.
        -12    1    4    4    0    0 -0.11208966550E+02  0.61628117276E+00 -0.12655157098E+02  0.16916670321E+02  0.00000000000E+00 0.  1.
</event>
<event>
 8    1  0.1280925E-006  0.9118800E+02  0.7816164E-02  0.1184000E+00
        -11   -1    0    0    0    0  0.00000000000E+00  0.00000000000E+00  0.45593999997E+02  0.45594000000E+02  0.51100000000E-03 0.  1.
         11   -1    0    0    0    0 -0.00000000000E+00 -0.00000000000E+00 -0.45593999997E+02  0.45594000000E+02  0.51100000000E-03 0. -1.
         23    2    1    2    0    0  0.00000000000E+00  0.00000000000E+00 -0.35527136788E-14  0.91188000000E+02  0.91188000000E+02 0.  0.
    9900012    2    3    3    0    0  0.27862396284E+02 -0.15902865940E+02  0.18071133375E+02  0.54367080223E+02  0.39999990984E+02 0.  0.
         12    1    3    3    0    0 -0.27862396284E+02  0.15902865940E+02 -0.18071133375E+02  0.36820919777E+02  0.00000000000E+00 0. -1.
         11    1    4    4    0    0 -0.11246192674E+01 -0.30398088183E+01 -0.96365067038E+01  0.10166979289E+02  0.51100000000E-03 0. -1.
        -11    1    4    4    0    0  0.27242393225E+02 -0.69401375050E+01  0.21050426017E+02  0.35120278088E+02  0.51100000000E-03 0.  1.
         12    1    4    4    0    0  0.17446223262E+01 -0.59229196164E+01  0.66572140619E+01  0.90798228457E+01  0.00000000000E+00 0. -1.
</event>
<event>
 8    1  0.1280925E-006  0.9118800E+02  0.7816164E-02  0.1184000E+00
        -11   -1    0    0    0    0  0.00000000000E+00  0.00000000000E+00  0.45593999997E+02  0.45594000000E+02  0.51100000000E-03 0.  1.
         11   -1    0    0    0    0 -0.00000000000E+00 -0.00000000000E+00 -0.45593999997E+02  0.45594000000E+02  0.51100000000E-03 0. -1.
         23    2    1    2    0    0  0.00000000000E+00  0.00000000000E+00  0.71054273576E-14  0.91188000000E+02  0.91188000000E+02 0.  0.
    9900012    2    3    3    0    0 -0.96201418103E+01 -0.13449956786E+02  0.32898827479E+02  0.54367064169E+02  0.39999954386E+02 0.  0.
         12    1    3    3    0    0  0.96201418103E+01  0.13449956786E+02 -0.32898827479E+02  0.36820935831E+02  0.00000000000E+00 0. -1.
         11    1    4    4    0    0  0.21408751143E+01 -0.14490939345E+02  0.18750965305E+02  0.23794313805E+02  0.51100000000E-03 0. -1.
        -11    1    4    4    0    0 -0.27977179351E+01  0.23517279432E+01  0.19641379562E+02  0.19978529508E+02  0.51100000000E-03 0.  1.
         12    1    4    4    0    0 -0.89632989895E+01 -0.13107453841E+01 -0.54935173877E+01  0.10594220855E+02  0.00000000000E+00 0. -1.
</event>
<event>
 8    1  0.1280925E-006  0.9118800E+02  0.7816164E-02  0.1184000E+00
        -11   -1    0    0    0    0  0.00000000000E+00  0.00000000000E+00  0.45593999997E+02  0.45594000000E+02  0.51100000000E-03 0.  1.
         11   -1    0    0    0    0 -0.00000000000E+00 -0.00000000000E+00 -0.45593999997E+02  0.45594000000E+02  0.51100000000E-03 0. -1.
         23    2    1    2    0    0  0.35527136788E-14  0.00000000000E+00  0.00000000000E+00  0.91188000000E+02  0.91188000000E+02 0.  0.
    9900012    2    3    3    0    0  0.23008931603E+02  0.85365402255E+01 -0.27449905377E+02  0.54367071743E+02  0.39999971652E+02 0.  0.
        -12    1    3    3    0    0 -0.23008931603E+02 -0.85365402255E+01  0.27449905377E+02  0.36820928257E+02  0.00000000000E+00 0.  1.
         11    1    4    4    0    0  0.35289432039E+01  0.53550499969E+01 -0.37437700574E+00  0.64241854744E+01  0.51100000000E-03 0. -1.
        -11    1    4    4    0    0 -0.19342499962E+01  0.13852294369E+02 -0.36419617617E+01  0.14453071233E+02  0.51100000000E-03 0.  1.
         12    1    4    4    0    0  0.21414238395E+02 -0.10670804140E+02 -0.23433566610E+02  0.33489815035E+02  0.00000000000E+00 0. -1.
</event>
<event>
 8    1  0.1280925E-006  0.9118800E+02  0.7816164E-02  0.1184000E+00
        -11   -1    0    0    0    0  0.00000000000E+00  0.00000000000E+00  0.45593999997E+02  0.45594000000E+02  0.51100000000E-03 0. -1.
         11   -1    0    0    0    0 -0.00000000000E+00 -0.00000000000E+00 -0.45593999997E+02  0.45594000000E+02  0.51100000000E-03 0.  1.
         23    2    1    2    0    0  0.00000000000E+00 -0.44408920985E-15  0.35527136788E-14  0.91188000000E+02  0.91188000000E+02 0.  0.
    9900012    2    3    3    0    0  0.26278536045E+02 -0.23516452635E+00 -0.25790754448E+02  0.54367085101E+02  0.40000002105E+02 0.  0.
         12    1    3    3    0    0 -0.26278536045E+02  0.23516452635E+00  0.25790754448E+02  0.36820914899E+02  0.00000000000E+00 0. -1.
         11    1    4    4    0    0  0.32487670373E+01 -0.33130458782E+01 -0.80929583082E+01  0.93288120730E+01  0.51100000000E-03 0. -1.
        -11    1    4    4    0    0  0.31657335230E+02  0.30054515471E+01 -0.96295618599E+01  0.33225714059E+02  0.51100000000E-03 0.  1.
         12    1    4    4    0    0 -0.86275662225E+01  0.72429804759E-01 -0.80682342798E+01  0.11812558969E+02  0.00000000000E+00 0. -1.
</event>
<event>
 8    1  0.1280925E-006  0.9118800E+02  0.7816164E-02  0.1184000E+00
        -11   -1    0    0    0    0  0.00000000000E+00  0.00000000000E+00  0.45593999997E+02  0.45594000000E+02  0.51100000000E-03 0. -1.
         11   -1    0    0    0    0 -0.00000000000E+00 -0.00000000000E+00 -0.45593999997E+02  0.45594000000E+02  0.51100000000E-03 0.  1.
         23    2    1    2    0    0 -0.35527136788E-14  0.00000000000E+00  0.00000000000E+00  0.91188000000E+02  0.91188000000E+02 0.  0.
    9900012    2    3    3    0    0  0.13627612793E+02 -0.24480933453E+02 -0.23890324331E+02  0.54367142734E+02  0.40000133490E+02 0.  0.
         12    1    3    3    0    0 -0.13627612793E+02  0.24480933453E+02  0.23890324331E+02  0.36820857266E+02  0.00000000000E+00 0. -1.
         11    1    4    4    0    0  0.17901934091E+02 -0.58732641901E+00 -0.20723010348E+01  0.18031046235E+02  0.51100000000E-03 0. -1.
        -11    1    4    4    0    0  0.24954845759E+01 -0.21055125652E+02 -0.19009369931E+02  0.28476339387E+02  0.51100000000E-03 0.  1.
        -12    1    4    4    0    0 -0.67698058732E+01 -0.28384813825E+01 -0.28086533649E+01  0.78597571110E+01  0.00000000000E+00 0.  1.
</event>
<event>
 8    1  0.1280925E-006  0.9118800E+02  0.7816164E-02  0.1184000E+00
        -11   -1    0    0    0    0  0.00000000000E+00  0.00000000000E+00  0.45593999997E+02  0.45594000000E+02  0.51100000000E-03 0. -1.
         11   -1    0    0    0    0 -0.00000000000E+00 -0.00000000000E+00 -0.45593999997E+02  0.45594000000E+02  0.51100000000E-03 0.  1.
         23    2    1    2    0    0 -0.26645352591E-14  0.22204460493E-15  0.00000000000E+00  0.91188000000E+02  0.91188000000E+02 0.  0.
    9900012    2    3    3    0    0 -0.62310757382E+01  0.10943229132E+01  0.36273357144E+02  0.54367078149E+02  0.39999986255E+02 0.  0.
        -12    1    3    3    0    0  0.62310757382E+01 -0.10943229132E+01 -0.36273357144E+02  0.36820921851E+02  0.00000000000E+00 0.  1.
         11    1    4    4    0    0 -0.17936871026E+02 -0.38668755384E+01  0.30954480518E+02  0.35984217833E+02  0.51100000000E-03 0. -1.
        -11    1    4    4    0    0  0.12382405082E+02  0.30811022465E+01  0.63171466168E-01  0.12760138619E+02  0.51100000000E-03 0.  1.
        -12    1    4    4    0    0 -0.67660979400E+00  0.18800962051E+01  0.52557051603E+01  0.56227216974E+01  0.00000000000E+00 0.  1.
</event>
<event>
 8    1  0.1280925E-006  0.9118800E+02  0.7816164E-02  0.1184000E+00
        -11   -1    0    0    0    0  0.00000000000E+00  0.00000000000E+00  0.45593999997E+02  0.45594000000E+02  0.51100000000E-03 0. -1.
         11   -1    0    0    0    0 -0.00000000000E+00 -0.00000000000E+00 -0.45593999997E+02  0.45594000000E+02  0.51100000000E-03 0.  1.
         23    2    1    2    0    0  0.71054273576E-14 -0.88817841970E-15  0.35527136788E-14  0.91188000000E+02  0.91188000000E+02 0.  0.
    9900012    2    3    3    0    0  0.30705237551E+02 -0.59169124841E+01  0.19441149778E+02  0.54367085140E+02  0.40000002194E+02 0.  0.
        -12    1    3    3    0    0 -0.30705237551E+02  0.59169124841E+01 -0.19441149778E+02  0.36820914860E+02  0.00000000000E+00 0.  1.
         11    1    4    4    0    0 -0.31776496881E+01  0.21528995079E+01  0.91961694964E+01  0.99650372552E+01  0.51100000000E-03 0. -1.
        -11    1    4    4    0    0  0.25961519443E+01 -0.49550426262E+01 -0.66652930418E+01  0.87016426001E+01  0.51100000000E-03 0.  1.
         12    1    4    4    0    0  0.31286735295E+02 -0.31147693658E+01  0.16910273324E+02  0.35700405285E+02  0.00000000000E+00 0. -1.
</event>
<event>
 8    1  0.1280925E-006  0.9118800E+02  0.7816164E-02  0.1184000E+00
        -11   -1    0    0    0    0  0.00000000000E+00  0.00000000000E+00  0.45593999997E+02  0.45594000000E+02  0.51100000000E-03 0.  1.
         11   -1    0    0    0    0 -0.00000000000E+00 -0.00000000000E+00 -0.45593999997E+02  0.45594000000E+02  0.51100000000E-03 0. -1.
         23    2    1    2    0    0  0.22204460493E-15  0.17763568394E-14 -0.71054273576E-14  0.91188000000E+02  0.91188000000E+02 0.  0.
    9900012    2    3    3    0    0 -0.99237773211E+00 -0.52432252072E+01  0.36432186321E+02  0.54367076271E+02  0.39999981975E+02 0.  0.
         12    1    3    3    0    0  0.99237773211E+00  0.52432252072E+01 -0.36432186321E+02  0.36820923729E+02  0.00000000000E+00 0. -1.
         11    1    4    4    0    0 -0.29697097297E+01  0.43746208595E+01  0.58306741065E+01  0.78710383267E+01  0.51100000000E-03 0. -1.
        -11    1    4    4    0    0  0.78482872057E+01  0.47360703828E+01 -0.28708675968E+01  0.96056158445E+01  0.51100000000E-03 0.  1.
        -12    1    4    4    0    0 -0.58709552081E+01 -0.14353916450E+02  0.33472379811E+02  0.36890422100E+02  0.00000000000E+00 0.  1.
</event>
<event>
 8    1  0.1280925E-006  0.9118800E+02  0.7816164E-02  0.1184000E+00
        -11   -1    0    0    0    0  0.00000000000E+00  0.00000000000E+00  0.45593999997E+02  0.45594000000E+02  0.51100000000E-03 0. -1.
         11   -1    0    0    0    0 -0.00000000000E+00 -0.00000000000E+00 -0.45593999997E+02  0.45594000000E+02  0.51100000000E-03 0.  1.
         23    2    1    2    0    0 -0.35527136788E-14  0.17763568394E-14 -0.35527136788E-14  0.91188000000E+02  0.91188000000E+02 0.  0.
    9900012    2    3    3    0    0 -0.20515270908E+02  0.10031183579E+02 -0.28883877389E+02  0.54367090758E+02  0.40000015001E+02 0.  0.
         12    1    3    3    0    0  0.20515270908E+02 -0.10031183579E+02  0.28883877389E+02  0.36820909242E+02  0.00000000000E+00 0. -1.
         11    1    4    4    0    0 -0.14402255535E+00 -0.30708332638E+01 -0.38964307986E+01  0.49631575293E+01  0.51100000000E-03 0. -1.
        -11    1    4    4    0    0  0.53149687522E+01 -0.22798036446E+01 -0.17656951004E+02  0.18579943932E+02  0.51100000000E-03 0.  1.
        -12    1    4    4    0    0 -0.25686217105E+02  0.15381820487E+02 -0.73304955863E+01  0.30823989297E+02  0.00000000000E+00 0.  1.
</event>
<event>
 8    1  0.1280925E-006  0.9118800E+02  0.7816164E-02  0.1184000E+00
        -11   -1    0    0    0    0  0.00000000000E+00  0.00000000000E+00  0.45593999997E+02  0.45594000000E+02  0.51100000000E-03 0.  1.
         11   -1    0    0    0    0 -0.00000000000E+00 -0.00000000000E+00 -0.45593999997E+02  0.45594000000E+02  0.51100000000E-03 0. -1.
         23    2    1    2    0    0 -0.35527136788E-14  0.00000000000E+00  0.00000000000E+00  0.91188000000E+02  0.91188000000E+02 0.  0.
    9900012    2    3    3    0    0 -0.17459864312E+02 -0.47057405939E+01  0.32074736786E+02  0.54367087515E+02  0.40000007609E+02 0.  0.
         12    1    3    3    0    0  0.17459864312E+02  0.47057405939E+01 -0.32074736786E+02  0.36820912485E+02  0.00000000000E+00 0. -1.
         11    1    4    4    0    0 -0.10795176457E+01  0.36334576065E+01 -0.20163572854E+01  0.42933750697E+01  0.51100000000E-03 0. -1.
        -11    1    4    4    0    0  0.52202502044E+01 -0.24187500567E+01  0.25409522483E+02  0.26052738764E+02  0.51100000000E-03 0.  1.
        -12    1    4    4    0    0 -0.21600596870E+02 -0.59204481437E+01  0.86815715883E+01  0.24020973682E+02  0.00000000000E+00 0.  1.
</event>
<event>
 8    1  0.1280925E-006  0.9118800E+02  0.7816164E-02  0.1184000E+00
        -11   -1    0    0    0    0  0.00000000000E+00  0.00000000000E+00  0.45593999997E+02  0.45594000000E+02  0.51100000000E-03 0. -1.
         11   -1    0    0    0    0 -0.00000000000E+00 -0.00000000000E+00 -0.45593999997E+02  0.45594000000E+02  0.51100000000E-03 0.  1.
         23    2    1    2    0    0  0.00000000000E+00 -0.17763568394E-14  0.00000000000E+00  0.91188000000E+02  0.91188000000E+02 0.  0.
    9900012    2    3    3    0    0  0.32019378860E+02  0.66077006616E+01 -0.16937437007E+02  0.54367094213E+02  0.40000022878E+02 0.  0.
         12    1    3    3    0    0 -0.32019378860E+02 -0.66077006616E+01  0.16937437007E+02  0.36820905787E+02  0.00000000000E+00 0. -1.
         11    1    4    4    0    0 -0.19697902308E+01 -0.19837552266E+01  0.44641533686E+01  0.52672596207E+01  0.51100000000E-03 0. -1.
        -11    1    4    4    0    0  0.13375381785E+02  0.17209262242E+02 -0.11754258058E+02  0.24763322224E+02  0.51100000000E-03 0.  1.
        -12    1    4    4    0    0  0.20613787305E+02 -0.86178063537E+01 -0.96473323178E+01  0.24336512369E+02  0.00000000000E+00 0.  1.
</event>
<event>
 8    1  0.1280925E-006  0.9118800E+02  0.7816164E-02  0.1184000E+00
        -11   -1    0    0    0    0  0.00000000000E+00  0.00000000000E+00  0.45593999997E+02  0.45594000000E+02  0.51100000000E-03 0. -1.
         11   -1    0    0    0    0 -0.00000000000E+00 -0.00000000000E+00 -0.45593999997E+02  0.45594000000E+02  0.51100000000E-03 0.  1.
         23    2    1    2    0    0  0.35527136788E-14 -0.17763568394E-14  0.00000000000E+00  0.91188000000E+02  0.91188000000E+02 0.  0.
    9900012    2    3    3    0    0 -0.14082226508E+02 -0.96564278257E+01 -0.32622483380E+02  0.54367053195E+02  0.39999929368E+02 0.  0.
         12    1    3    3    0    0  0.14082226508E+02  0.96564278257E+01  0.32622483380E+02  0.36820946805E+02  0.00000000000E+00 0. -1.
         11    1    4    4    0    0  0.77600485655E+01  0.47221105449E+01 -0.12608005148E+02  0.15539577723E+02  0.51100000000E-03 0. -1.
        -11    1    4    4    0    0  0.34231981784E+00  0.16463846991E+01 -0.92789511695E+01  0.94300954663E+01  0.51100000000E-03 0.  1.
         12    1    4    4    0    0 -0.22184594891E+02 -0.16024923070E+02 -0.10735527062E+02  0.29397380005E+02  0.00000000000E+00 0. -1.
</event>
<event>
 8    1  0.1280925E-006  0.9118800E+02  0.7816164E-02  0.1184000E+00
        -11   -1    0    0    0    0  0.00000000000E+00  0.00000000000E+00  0.45593999997E+02  0.45594000000E+02  0.51100000000E-03 0.  1.
         11   -1    0    0    0    0 -0.00000000000E+00 -0.00000000000E+00 -0.45593999997E+02  0.45594000000E+02  0.51100000000E-03 0. -1.
         23    2    1    2    0    0  0.00000000000E+00  0.00000000000E+00  0.00000000000E+00  0.91188000000E+02  0.91188000000E+02 0.  0.
    9900012    2    3    3    0    0 -0.53063289309E+01 -0.24365411850E+02 -0.27091488518E+02  0.54367093283E+02  0.40000020758E+02 0.  0.
        -12    1    3    3    0    0  0.53063289309E+01  0.24365411850E+02  0.27091488518E+02  0.36820906717E+02  0.00000000000E+00 0.  1.
         11    1    4    4    0    0  0.67854490870E+01 -0.10894992524E+02 -0.26411778471E+02  0.29365374571E+02  0.51100000000E-03 0. -1.
        -11    1    4    4    0    0  0.87387080193E+00 -0.94508627501E+01  0.44599939273E+01  0.10486849050E+02  0.51100000000E-03 0.  1.
         12    1    4    4    0    0 -0.12965648820E+02 -0.40195565752E+01 -0.51397039745E+01  0.14514869663E+02  0.00000000000E+00 0. -1.
</event>
<event>
 8    1  0.1280925E-006  0.9118800E+02  0.7816164E-02  0.1184000E+00
        -11   -1    0    0    0    0  0.00000000000E+00  0.00000000000E+00  0.45593999997E+02  0.45594000000E+02  0.51100000000E-03 0. -1.
         11   -1    0    0    0    0 -0.00000000000E+00 -0.00000000000E+00 -0.45593999997E+02  0.45594000000E+02  0.51100000000E-03 0.  1.
         23    2    1    2    0    0  0.00000000000E+00  0.17763568394E-14  0.35527136788E-14  0.91188000000E+02  0.91188000000E+02 0.  0.
    9900012    2    3    3    0    0 -0.18158905627E+02  0.10041023141E+02  0.30417336488E+02  0.54367050008E+02  0.39999922104E+02 0.  0.
        -12    1    3    3    0    0  0.18158905627E+02 -0.10041023141E+02 -0.30417336488E+02  0.36820949992E+02  0.00000000000E+00 0.  1.
         11    1    4    4    0    0  0.29514805961E+01  0.43993862346E+01  0.41445210047E+01  0.67262836374E+01  0.51100000000E-03 0. -1.
        -11    1    4    4    0    0  0.58293808235E+01 -0.50284032040E+01 -0.11041596900E+01  0.77772545574E+01  0.51100000000E-03 0.  1.
         12    1    4    4    0    0 -0.26939767047E+02  0.10670040110E+02  0.27376975173E+02  0.39863511814E+02  0.00000000000E+00 0. -1.
</event>
<event>
 8    1  0.1280925E-006  0.9118800E+02  0.7816164E-02  0.1184000E+00
        -11   -1    0    0    0    0  0.00000000000E+00  0.00000000000E+00  0.45593999997E+02  0.45594000000E+02  0.51100000000E-03 0. -1.
         11   -1    0    0    0    0 -0.00000000000E+00 -0.00000000000E+00 -0.45593999997E+02  0.45594000000E+02  0.51100000000E-03 0.  1.
         23    2    1    2    0    0 -0.17763568394E-14 -0.71054273576E-14 -0.11102230246E-14  0.91188000000E+02  0.91188000000E+02 0.  0.
    9900012    2    3    3    0    0  0.14537340939E+02  0.33817010594E+02 -0.92492556109E+00  0.54367082380E+02  0.39999995901E+02 0.  0.
         12    1    3    3    0    0 -0.14537340939E+02 -0.33817010594E+02  0.92492556109E+00  0.36820917620E+02  0.00000000000E+00 0. -1.
         11    1    4    4    0    0 -0.73212816710E+01  0.55526103677E+01 -0.72254989454E+01  0.11689331994E+02  0.51100000000E-03 0. -1.
        -11    1    4    4    0    0  0.11186149943E+02  0.29037172281E+02  0.72005513079E+01  0.31939556415E+02  0.51100000000E-03 0.  1.
         12    1    4    4    0    0  0.10672472667E+02 -0.77277205390E+00 -0.89997792354E+00  0.10738193970E+02  0.00000000000E+00 0. -1.
</event>
<event>
 8    1  0.1280925E-006  0.9118800E+02  0.7816164E-02  0.1184000E+00
        -11   -1    0    0    0    0  0.00000000000E+00  0.00000000000E+00  0.45593999997E+02  0.45594000000E+02  0.51100000000E-03 0. -1.
         11   -1    0    0    0    0 -0.00000000000E+00 -0.00000000000E+00 -0.45593999997E+02  0.45594000000E+02  0.51100000000E-03 0.  1.
         23    2    1    2    0    0  0.00000000000E+00  0.00000000000E+00  0.00000000000E+00  0.91188000000E+02  0.91188000000E+02 0.  0.
    9900012    2    3    3    0    0  0.29774087288E+02 -0.13002261743E+02 -0.17327283571E+02  0.54366948410E+02  0.39999690489E+02 0.  0.
         12    1    3    3    0    0 -0.29774087288E+02  0.13002261743E+02  0.17327283571E+02  0.36821051590E+02  0.00000000000E+00 0. -1.
         11    1    4    4    0    0  0.21135687795E+02 -0.63385676920E+01  0.19106756724E+01  0.22148259994E+02  0.51100000000E-03 0. -1.
        -11    1    4    4    0    0  0.78467677419E+01 -0.11894550598E+02 -0.22029884740E+02  0.26236766566E+02  0.51100000000E-03 0.  1.
        -12    1    4    4    0    0  0.79163175097E+00  0.52308565473E+01  0.27919254966E+01  0.59819218505E+01  0.00000000000E+00 0.  1.
</event>
<event>
 8    1  0.1280925E-006  0.9118800E+02  0.7816164E-02  0.1184000E+00
        -11   -1    0    0    0    0  0.00000000000E+00  0.00000000000E+00  0.45593999997E+02  0.45594000000E+02  0.51100000000E-03 0.  1.
         11   -1    0    0    0    0 -0.00000000000E+00 -0.00000000000E+00 -0.45593999997E+02  0.45594000000E+02  0.51100000000E-03 0. -1.
         23    2    1    2    0    0  0.00000000000E+00  0.00000000000E+00  0.35527136788E-14  0.91188000000E+02  0.91188000000E+02 0.  0.
    9900012    2    3    3    0    0 -0.17163834988E+02  0.92088812353E+01 -0.31247083450E+02  0.54367069142E+02  0.39999965724E+02 0.  0.
        -12    1    3    3    0    0  0.17163834988E+02 -0.92088812353E+01  0.31247083450E+02  0.36820930858E+02  0.00000000000E+00 0.  1.
         11    1    4    4    0    0  0.60390143860E+01  0.12435396675E+02 -0.88548007741E+00  0.13852539856E+02  0.51100000000E-03 0. -1.
        -11    1    4    4    0    0 -0.66996377298E+01 -0.71845148463E+01 -0.10208206824E+02  0.14167211656E+02  0.51100000000E-03 0.  1.
         12    1    4    4    0    0 -0.16503211644E+02  0.39579994061E+01 -0.20153396549E+02  0.26347317630E+02  0.00000000000E+00 0. -1.
</event>
<event>
 8    1  0.1280925E-006  0.9118800E+02  0.7816164E-02  0.1184000E+00
        -11   -1    0    0    0    0  0.00000000000E+00  0.00000000000E+00  0.45593999997E+02  0.45594000000E+02  0.51100000000E-03 0.  1.
         11   -1    0    0    0    0 -0.00000000000E+00 -0.00000000000E+00 -0.45593999997E+02  0.45594000000E+02  0.51100000000E-03 0. -1.
         23    2    1    2    0    0 -0.88817841970E-15 -0.71054273576E-14 -0.17763568394E-14  0.91188000000E+02  0.91188000000E+02 0.  0.
    9900012    2    3    3    0    0  0.52967460919E+01 -0.34518023173E+02  0.11671781665E+02  0.54367082980E+02  0.39999997269E+02 0.  0.
         12    1    3    3    0    0 -0.52967460919E+01  0.34518023173E+02 -0.11671781665E+02  0.36820917020E+02  0.00000000000E+00 0. -1.
         11    1    4    4    0    0  0.10278666730E+02 -0.11442120272E+02  0.92982535183E+01  0.17973052741E+02  0.51100000000E-03 0. -1.
        -11    1    4    4    0    0  0.55344797764E+01 -0.24952629820E+02  0.27379997064E+01  0.25705268798E+02  0.51100000000E-03 0.  1.
         12    1    4    4    0    0 -0.10516400415E+02  0.18767269192E+01 -0.36447155937E+00  0.10688761440E+02  0.00000000000E+00 0. -1.
</event>
<event>
 8    1  0.1280925E-006  0.9118800E+02  0.7816164E-02  0.1184000E+00
        -11   -1    0    0    0    0  0.00000000000E+00  0.00000000000E+00  0.45593999997E+02  0.45594000000E+02  0.51100000000E-03 0. -1.
         11   -1    0    0    0    0 -0.00000000000E+00 -0.00000000000E+00 -0.45593999997E+02  0.45594000000E+02  0.51100000000E-03 0.  1.
         23    2    1    2    0    0  0.35527136788E-14 -0.35527136788E-14  0.00000000000E+00  0.91188000000E+02  0.91188000000E+02 0.  0.
    9900012    2    3    3    0    0  0.27263313200E+02 -0.22162059759E+02 -0.11015236072E+02  0.54367074358E+02  0.39999977614E+02 0.  0.
         12    1    3    3    0    0 -0.27263313200E+02  0.22162059759E+02  0.11015236072E+02  0.36820925642E+02  0.00000000000E+00 0. -1.
         11    1    4    4    0    0  0.11862604892E+01 -0.53950541813E+01  0.67095781226E+01  0.86909298934E+01  0.51100000000E-03 0. -1.
        -11    1    4    4    0    0  0.97093337627E+01  0.78770665296E+01 -0.48189755832E+01  0.13399323310E+02  0.51100000000E-03 0.  1.
        -12    1    4    4    0    0  0.16367718948E+02 -0.24644072107E+02 -0.12905838611E+02  0.32276821155E+02  0.00000000000E+00 0.  1.
</event>
<event>
 8    1  0.1280925E-006  0.9118800E+02  0.7816164E-02  0.1184000E+00
        -11   -1    0    0    0    0  0.00000000000E+00  0.00000000000E+00  0.45593999997E+02  0.45594000000E+02  0.51100000000E-03 0. -1.
         11   -1    0    0    0    0 -0.00000000000E+00 -0.00000000000E+00 -0.45593999997E+02  0.45594000000E+02  0.51100000000E-03 0.  1.
         23    2    1    2    0    0  0.35527136788E-14 -0.17763568394E-14 -0.35527136788E-14  0.91188000000E+02  0.91188000000E+02 0.  0.
    9900012    2    3    3    0    0 -0.25855602950E+02  0.14572491742E+02  0.21792422847E+02  0.54367090002E+02  0.40000013278E+02 0.  0.
        -12    1    3    3    0    0  0.25855602950E+02 -0.14572491742E+02 -0.21792422847E+02  0.36820909998E+02  0.00000000000E+00 0.  1.
         11    1    4    4    0    0 -0.68757531270E+01  0.91844801518E+01 -0.73971889529E+01  0.13650972910E+02  0.51100000000E-03 0. -1.
        -11    1    4    4    0    0 -0.69694462781E+00 -0.18196273519E+01 -0.26563990528E+01  0.32944243356E+01  0.51100000000E-03 0.  1.
         12    1    4    4    0    0 -0.18282905196E+02  0.72076389423E+01  0.31846010853E+02  0.37421692757E+02  0.00000000000E+00 0. -1.
</event>
<event>
 8    1  0.1280925E-006  0.9118800E+02  0.7816164E-02  0.1184000E+00
        -11   -1    0    0    0    0  0.00000000000E+00  0.00000000000E+00  0.45593999997E+02  0.45594000000E+02  0.51100000000E-03 0. -1.
         11   -1    0    0    0    0 -0.00000000000E+00 -0.00000000000E+00 -0.45593999997E+02  0.45594000000E+02  0.51100000000E-03 0.  1.
         23    2    1    2    0    0  0.00000000000E+00 -0.35527136788E-14  0.00000000000E+00  0.91188000000E+02  0.91188000000E+02 0.  0.
    9900012    2    3    3    0    0  0.31426488863E+02 -0.17253642096E+02 -0.83944617361E+01  0.54367090782E+02  0.40000015055E+02 0.  0.
         12    1    3    3    0    0 -0.31426488863E+02  0.17253642096E+02  0.83944617361E+01  0.36820909218E+02  0.00000000000E+00 0. -1.
         11    1    4    4    0    0 -0.89726233632E+01 -0.73713280603E+00 -0.32068309071E+01  0.95569398617E+01  0.51100000000E-03 0. -1.
        -11    1    4    4    0    0  0.31122091546E+02 -0.87449279598E+01 -0.25787527813E+01  0.32430052627E+02  0.51100000000E-03 0.  1.
         12    1    4    4    0    0  0.92770206801E+01 -0.77715813304E+01 -0.26088780477E+01  0.12380098293E+02  0.00000000000E+00 0. -1.
</event>
<event>
 8    1  0.1280925E-006  0.9118800E+02  0.7816164E-02  0.1184000E+00
        -11   -1    0    0    0    0  0.00000000000E+00  0.00000000000E+00  0.45593999997E+02  0.45594000000E+02  0.51100000000E-03 0.  1.
         11   -1    0    0    0    0 -0.00000000000E+00 -0.00000000000E+00 -0.45593999997E+02  0.45594000000E+02  0.51100000000E-03 0. -1.
         23    2    1    2    0    0  0.88817841970E-15  0.00000000000E+00  0.71054273576E-14  0.91188000000E+02  0.91188000000E+02 0.  0.
    9900012    2    3    3    0    0 -0.66912749568E+01  0.23267407883E+02 -0.27742292023E+02  0.54367079359E+02  0.39999989016E+02 0.  0.
         12    1    3    3    0    0  0.66912749568E+01 -0.23267407883E+02  0.27742292023E+02  0.36820920641E+02  0.00000000000E+00 0. -1.
         11    1    4    4    0    0 -0.90536489418E+01  0.11256540521E+02 -0.21456255440E+01  0.14604176557E+02  0.51100000000E-03 0.  1.
        -11    1    4    4    0    0 -0.77303284297E+01  0.97791085564E+01 -0.26601817467E+02  0.29377638343E+02  0.51100000000E-03 0. -1.
         12    1    4    4    0    0  0.10092702415E+02  0.22317588053E+01  0.10051509880E+01  0.10385264460E+02  0.00000000000E+00 0. -1.
</event>
<event>
 8    1  0.1280925E-006  0.9118800E+02  0.7816164E-02  0.1184000E+00
        -11   -1    0    0    0    0  0.00000000000E+00  0.00000000000E+00  0.45593999997E+02  0.45594000000E+02  0.51100000000E-03 0.  1.
         11   -1    0    0    0    0 -0.00000000000E+00 -0.00000000000E+00 -0.45593999997E+02  0.45594000000E+02  0.51100000000E-03 0. -1.
         23    2    1    2    0    0  0.00000000000E+00  0.88817841970E-15  0.00000000000E+00  0.91188000000E+02  0.91188000000E+02 0.  0.
    9900012    2    3    3    0    0  0.34165912193E+02 -0.13124312277E+01 -0.13665422102E+02  0.54367139161E+02  0.40000125345E+02 0.  0.
         12    1    3    3    0    0 -0.34165912193E+02  0.13124312277E+01  0.13665422102E+02  0.36820860839E+02  0.00000000000E+00 0. -1.
         11    1    4    4    0    0  0.19114905915E+00  0.11959984346E+02 -0.20236615371E+01  0.12131486710E+02  0.51100000000E-03 0. -1.
        -11    1    4    4    0    0  0.15059192264E+02 -0.15420233596E+02 -0.57462147479E+01  0.22306542986E+02  0.51100000000E-03 0.  1.
         12    1    4    4    0    0  0.18915570870E+02  0.21478180225E+01 -0.58955458172E+01  0.19929109465E+02  0.00000000000E+00 0. -1.
</event>
<event>
 8    1  0.1280925E-006  0.9118800E+02  0.7816164E-02  0.1184000E+00
        -11   -1    0    0    0    0  0.00000000000E+00  0.00000000000E+00  0.45593999997E+02  0.45594000000E+02  0.51100000000E-03 0. -1.
         11   -1    0    0    0    0 -0.00000000000E+00 -0.00000000000E+00 -0.45593999997E+02  0.45594000000E+02  0.51100000000E-03 0.  1.
         23    2    1    2    0    0  0.00000000000E+00 -0.88817841970E-15  0.00000000000E+00  0.91188000000E+02  0.91188000000E+02 0.  0.
    9900012    2    3    3    0    0  0.34618133671E+02 -0.45205767017E+01  0.11701930139E+02  0.54367001079E+02  0.39999810559E+02 0.  0.
        -12    1    3    3    0    0 -0.34618133671E+02  0.45205767017E+01 -0.11701930139E+02  0.36820998921E+02  0.00000000000E+00 0.  1.
         11    1    4    4    0    0  0.65060670035E+01  0.59397609851E+01  0.14983316280E+02  0.17381295562E+02  0.51100000000E-03 0. -1.
        -11    1    4    4    0    0  0.13526500328E+02  0.60202162246E+01 -0.63570955247E+00  0.14819356984E+02  0.51100000000E-03 0.  1.
         12    1    4    4    0    0  0.14585566340E+02 -0.16480553911E+02 -0.26456765881E+01  0.22166348533E+02  0.00000000000E+00 0. -1.
</event>
<event>
 8    1  0.1280925E-006  0.9118800E+02  0.7816164E-02  0.1184000E+00
        -11   -1    0    0    0    0  0.00000000000E+00  0.00000000000E+00  0.45593999997E+02  0.45594000000E+02  0.51100000000E-03 0.  1.
         11   -1    0    0    0    0 -0.00000000000E+00 -0.00000000000E+00 -0.45593999997E+02  0.45594000000E+02  0.51100000000E-03 0. -1.
         23    2    1    2    0    0 -0.17763568394E-14  0.17763568394E-14  0.00000000000E+00  0.91188000000E+02  0.91188000000E+02 0.  0.
    9900012    2    3    3    0    0  0.57901704926E+01  0.14734870507E+02 -0.33243596187E+02  0.54367093294E+02  0.40000020783E+02 0.  0.
        -12    1    3    3    0    0 -0.57901704926E+01 -0.14734870507E+02  0.33243596187E+02  0.36820906706E+02  0.00000000000E+00 0.  1.
         11    1    4    4    0    0 -0.10400590895E+02 -0.64127903488E+00 -0.12541076417E+02  0.16305279136E+02  0.51100000000E-03 0. -1.
        -11    1    4    4    0    0  0.18670821830E+02  0.33165935872E+01 -0.16238012715E+02  0.24965424852E+02  0.51100000000E-03 0.  1.
        -12    1    4    4    0    0 -0.24800604428E+01  0.12059555955E+02 -0.44645070547E+01  0.13096389306E+02  0.00000000000E+00 0.  1.
</event>
<event>
 8    1  0.1280925E-006  0.9118800E+02  0.7816164E-02  0.1184000E+00
        -11   -1    0    0    0    0  0.00000000000E+00  0.00000000000E+00  0.45593999997E+02  0.45594000000E+02  0.51100000000E-03 0. -1.
         11   -1    0    0    0    0 -0.00000000000E+00 -0.00000000000E+00 -0.45593999997E+02  0.45594000000E+02  0.51100000000E-03 0.  1.
         23    2    1    2    0    0  0.17763568394E-14  0.00000000000E+00  0.00000000000E+00  0.91188000000E+02  0.91188000000E+02 0.  0.
    9900012    2    3    3    0    0  0.11617651489E+02 -0.20048598668E+02  0.28615775023E+02  0.54367099484E+02  0.40000034894E+02 0.  0.
        -12    1    3    3    0    0 -0.11617651489E+02  0.20048598668E+02 -0.28615775023E+02  0.36820900516E+02  0.00000000000E+00 0.  1.
         11    1    4    4    0    0  0.46151176110E+01  0.22729489854E+01  0.24555134342E+02  0.25088248852E+02  0.51100000000E-03 0. -1.
        -11    1    4    4    0    0 -0.22475123403E+01  0.17867733805E+01  0.17294792372E+01  0.33518606066E+01  0.51100000000E-03 0.  1.
         12    1    4    4    0    0  0.92500462182E+01 -0.24108321034E+02  0.23311614435E+01  0.25926990025E+02  0.00000000000E+00 0. -1.
</event>
<event>
 8    1  0.1280925E-006  0.9118800E+02  0.7816164E-02  0.1184000E+00
        -11   -1    0    0    0    0  0.00000000000E+00  0.00000000000E+00  0.45593999997E+02  0.45594000000E+02  0.51100000000E-03 0.  1.
         11   -1    0    0    0    0 -0.00000000000E+00 -0.00000000000E+00 -0.45593999997E+02  0.45594000000E+02  0.51100000000E-03 0. -1.
         23    2    1    2    0    0  0.35527136788E-14  0.00000000000E+00  0.35527136788E-14  0.91188000000E+02  0.91188000000E+02 0.  0.
    9900012    2    3    3    0    0  0.17273094338E+02 -0.18812610553E+02 -0.26523866831E+02  0.54366951462E+02  0.39999697446E+02 0.  0.
        -12    1    3    3    0    0 -0.17273094338E+02  0.18812610553E+02  0.26523866831E+02  0.36821048538E+02  0.00000000000E+00 0.  1.
         11    1    4    4    0    0 -0.81129402960E+01  0.10715742275E+01 -0.15146799291E+02  0.17216085519E+02  0.51100000000E-03 0. -1.
        -11    1    4    4    0    0  0.47295735581E+01 -0.12456836099E+02 -0.30182498713E+01  0.13662044657E+02  0.51100000000E-03 0.  1.
         12    1    4    4    0    0  0.20656461076E+02 -0.74273486808E+01 -0.83588176690E+01  0.23488821286E+02  0.00000000000E+00 0. -1.
</event>
<event>
 8    1  0.1280925E-006  0.9118800E+02  0.7816164E-02  0.1184000E+00
        -11   -1    0    0    0    0  0.00000000000E+00  0.00000000000E+00  0.45593999997E+02  0.45594000000E+02  0.51100000000E-03 0.  1.
         11   -1    0    0    0    0 -0.00000000000E+00 -0.00000000000E+00 -0.45593999997E+02  0.45594000000E+02  0.51100000000E-03 0. -1.
         23    2    1    2    0    0  0.71054273576E-14 -0.17763568394E-14  0.00000000000E+00  0.91188000000E+02  0.91188000000E+02 0.  0.
    9900012    2    3    3    0    0 -0.33710448637E+02 -0.81053629906E+01  0.12397112373E+02  0.54367086761E+02  0.40000005890E+02 0.  0.
        -12    1    3    3    0    0  0.33710448637E+02  0.81053629906E+01 -0.12397112373E+02  0.36820913239E+02  0.00000000000E+00 0.  1.
         11    1    4    4    0    0 -0.19511317214E+02 -0.80698889445E+01  0.19562356169E+02  0.28783682637E+02  0.51100000000E-03 0. -1.
        -11    1    4    4    0    0 -0.19199167040E+01 -0.89670235402E+01 -0.11123207774E+01  0.92374698427E+01  0.51100000000E-03 0.  1.
         12    1    4    4    0    0 -0.12279214719E+02  0.89315494942E+01 -0.60529230180E+01  0.16345934282E+02  0.00000000000E+00 0. -1.
</event>
<event>
 8    1  0.1280925E-006  0.9118800E+02  0.7816164E-02  0.1184000E+00
        -11   -1    0    0    0    0  0.00000000000E+00  0.00000000000E+00  0.45593999997E+02  0.45594000000E+02  0.51100000000E-03 0.  1.
         11   -1    0    0    0    0 -0.00000000000E+00 -0.00000000000E+00 -0.45593999997E+02  0.45594000000E+02  0.51100000000E-03 0. -1.
         23    2    1    2    0    0  0.17763568394E-14 -0.88817841970E-15  0.71054273576E-14  0.91188000000E+02  0.91188000000E+02 0.  0.
    9900012    2    3    3    0    0 -0.14520301301E+02  0.22422982391E+01 -0.33762585262E+02  0.54367092694E+02  0.40000019415E+02 0.  0.
        -12    1    3    3    0    0  0.14520301301E+02 -0.22422982391E+01  0.33762585262E+02  0.36820907306E+02  0.00000000000E+00 0.  1.
         11    1    4    4    0    0 -0.15034199390E+02 -0.66741164228E+01 -0.51671759190E+01  0.17241539623E+02  0.51100000000E-03 0. -1.
        -11    1    4    4    0    0 -0.54625539849E+01 -0.51442151746E+01 -0.50037421028E+01  0.90188625166E+01  0.51100000000E-03 0.  1.
        -12    1    4    4    0    0  0.59764520743E+01  0.14060629836E+02 -0.23591667240E+02  0.28106690555E+02  0.00000000000E+00 0.  1.
</event>
<event>
 8    1  0.1280925E-006  0.9118800E+02  0.7816164E-02  0.1184000E+00
        -11   -1    0    0    0    0  0.00000000000E+00  0.00000000000E+00  0.45593999997E+02  0.45594000000E+02  0.51100000000E-03 0.  1.
         11   -1    0    0    0    0 -0.00000000000E+00 -0.00000000000E+00 -0.45593999997E+02  0.45594000000E+02  0.51100000000E-03 0. -1.
         23    2    1    2    0    0  0.00000000000E+00  0.66613381478E-15  0.35527136788E-14  0.91188000000E+02  0.91188000000E+02 0.  0.
    9900012    2    3    3    0    0 -0.22306661330E+02 -0.11473515886E+01 -0.29272445205E+02  0.54367087414E+02  0.40000007379E+02 0.  0.
         12    1    3    3    0    0  0.22306661330E+02  0.11473515886E+01  0.29272445205E+02  0.36820912586E+02  0.00000000000E+00 0. -1.
         11    1    4    4    0    0  0.36013506394E+01  0.57999331404E+01 -0.11364812888E+01  0.69210216617E+01  0.51100000000E-03 0. -1.
        -11    1    4    4    0    0 -0.21011069100E+01 -0.29195430011E+01  0.51764722744E+01  0.63035106926E+01  0.51100000000E-03 0.  1.
         12    1    4    4    0    0 -0.23806905059E+02 -0.40277417280E+01 -0.33312436191E+02  0.41142555060E+02  0.00000000000E+00 0. -1.
</event>
<event>
 8    1  0.1280925E-006  0.9118800E+02  0.7816164E-02  0.1184000E+00
        -11   -1    0    0    0    0  0.00000000000E+00  0.00000000000E+00  0.45593999997E+02  0.45594000000E+02  0.51100000000E-03 0.  1.
         11   -1    0    0    0    0 -0.00000000000E+00 -0.00000000000E+00 -0.45593999997E+02  0.45594000000E+02  0.51100000000E-03 0. -1.
         23    2    1    2    0    0 -0.35527136788E-14  0.00000000000E+00  0.00000000000E+00  0.91188000000E+02  0.91188000000E+02 0.  0.
    9900012    2    3    3    0    0 -0.22710685895E+02 -0.18380985737E+01  0.28924480542E+02  0.54367089707E+02  0.40000012604E+02 0.  0.
         12    1    3    3    0    0  0.22710685895E+02  0.18380985737E+01 -0.28924480542E+02  0.36820910293E+02  0.00000000000E+00 0. -1.
         11    1    4    4    0    0  0.92147301162E+01  0.25744038661E+01 -0.68437543997E-01  0.95678362412E+01  0.51100000000E-03 0. -1.
        -11    1    4    4    0    0 -0.77501042280E+01 -0.11262987925E+01  0.13802541246E+01  0.79522176922E+01  0.51100000000E-03 0.  1.
        -12    1    4    4    0    0 -0.24175311783E+02 -0.32862036473E+01  0.27612663962E+02  0.36847035773E+02  0.00000000000E+00 0.  1.
</event>
<event>
 8    1  0.1280925E-006  0.9118800E+02  0.7816164E-02  0.1184000E+00
        -11   -1    0    0    0    0  0.00000000000E+00  0.00000000000E+00  0.45593999997E+02  0.45594000000E+02  0.51100000000E-03 0. -1.
         11   -1    0    0    0    0 -0.00000000000E+00 -0.00000000000E+00 -0.45593999997E+02  0.45594000000E+02  0.51100000000E-03 0.  1.
         23    2    1    2    0    0  0.35527136788E-14  0.00000000000E+00  0.00000000000E+00  0.91188000000E+02  0.91188000000E+02 0.  0.
    9900012    2    3    3    0    0  0.24646659707E+02 -0.10585163262E+02 -0.25224586342E+02  0.54367037600E+02  0.39999893816E+02 0.  0.
         12    1    3    3    0    0 -0.24646659707E+02  0.10585163262E+02  0.25224586342E+02  0.36820962400E+02  0.00000000000E+00 0. -1.
         11    1    4    4    0    0 -0.13260507489E+01  0.16070167347E+01  0.30382223045E+01  0.36839799683E+01  0.51100000000E-03 0. -1.
        -11    1    4    4    0    0  0.32270635135E+02 -0.54626435020E+01 -0.23622089046E+02  0.40363813710E+02  0.51100000000E-03 0.  1.
        -12    1    4    4    0    0 -0.62979246794E+01 -0.67295364945E+01 -0.46407196002E+01  0.10319243921E+02  0.00000000000E+00 0.  1.
</event>
<event>
 8    1  0.1280925E-006  0.9118800E+02  0.7816164E-02  0.1184000E+00
        -11   -1    0    0    0    0  0.00000000000E+00  0.00000000000E+00  0.45593999997E+02  0.45594000000E+02  0.51100000000E-03 0.  1.
         11   -1    0    0    0    0 -0.00000000000E+00 -0.00000000000E+00 -0.45593999997E+02  0.45594000000E+02  0.51100000000E-03 0. -1.
         23    2    1    2    0    0  0.00000000000E+00  0.00000000000E+00  0.35527136788E-14  0.91188000000E+02  0.91188000000E+02 0.  0.
    9900012    2    3    3    0    0 -0.24436753975E+02  0.19852488590E+02 -0.19091981763E+02  0.54367081819E+02  0.39999994624E+02 0.  0.
        -12    1    3    3    0    0  0.24436753975E+02 -0.19852488590E+02  0.19091981763E+02  0.36820918181E+02  0.00000000000E+00 0.  1.
         11    1    4    4    0    0 -0.96331679639E+01  0.73931262248E+01  0.84006464763E+01  0.14765740817E+02  0.51100000000E-03 0. -1.
        -11    1    4    4    0    0 -0.34499240966E+01 -0.59320344803E+01 -0.59003710645E+01  0.90501595736E+01  0.51100000000E-03 0.  1.
         12    1    4    4    0    0 -0.11353661914E+02  0.18391396845E+02 -0.21592257175E+02  0.30551181429E+02  0.00000000000E+00 0. -1.
</event>
<event>
 8    1  0.1280925E-006  0.9118800E+02  0.7816164E-02  0.1184000E+00
        -11   -1    0    0    0    0  0.00000000000E+00  0.00000000000E+00  0.45593999997E+02  0.45594000000E+02  0.51100000000E-03 0. -1.
         11   -1    0    0    0    0 -0.00000000000E+00 -0.00000000000E+00 -0.45593999997E+02  0.45594000000E+02  0.51100000000E-03 0.  1.
         23    2    1    2    0    0  0.35527136788E-14 -0.35527136788E-14  0.00000000000E+00  0.91188000000E+02  0.91188000000E+02 0.  0.
    9900012    2    3    3    0    0 -0.22601949117E+02  0.27973879692E+02  0.78990805887E+01  0.54367061350E+02  0.39999947960E+02 0.  0.
        -12    1    3    3    0    0  0.22601949117E+02 -0.27973879692E+02 -0.78990805887E+01  0.36820938650E+02  0.00000000000E+00 0.  1.
         11    1    4    4    0    0 -0.54024283044E+01  0.16058494047E+02  0.11462819699E+02  0.20456238617E+02  0.51100000000E-03 0. -1.
        -11    1    4    4    0    0 -0.17292948738E+02  0.18148170872E+02  0.25278730066E+01  0.25195085320E+02  0.51100000000E-03 0.  1.
        -12    1    4    4    0    0  0.93427925961E-01 -0.62327852272E+01 -0.60916121172E+01  0.87157374129E+01  0.00000000000E+00 0.  1.
</event>
<event>
 8    1  0.1280925E-006  0.9118800E+02  0.7816164E-02  0.1184000E+00
        -11   -1    0    0    0    0  0.00000000000E+00  0.00000000000E+00  0.45593999997E+02  0.45594000000E+02  0.51100000000E-03 0.  1.
         11   -1    0    0    0    0 -0.00000000000E+00 -0.00000000000E+00 -0.45593999997E+02  0.45594000000E+02  0.51100000000E-03 0. -1.
         23    2    1    2    0    0  0.00000000000E+00 -0.35527136788E-14  0.88817841970E-15  0.91188000000E+02  0.91188000000E+02 0.  0.
    9900012    2    3    3    0    0 -0.26736517361E+02 -0.24144986104E+02  0.76130465703E+01  0.54367079416E+02  0.39999989145E+02 0.  0.
        -12    1    3    3    0    0  0.26736517361E+02  0.24144986104E+02 -0.76130465703E+01  0.36820920584E+02  0.00000000000E+00 0.  1.
         11    1    4    4    0    0 -0.52050297473E+01 -0.24159369808E+02  0.19135969388E+01  0.24787685202E+02  0.51100000000E-03 0. -1.
        -11    1    4    4    0    0 -0.17897191666E+02 -0.24697670223E+00  0.12522397750E+02  0.21844470987E+02  0.51100000000E-03 0.  1.
        -12    1    4    4    0    0 -0.36342959480E+01  0.26136040620E+00 -0.68229481183E+01  0.77349232268E+01  0.00000000000E+00 0.  1.
</event>
<event>
 8    1  0.1280925E-006  0.9118800E+02  0.7816164E-02  0.1184000E+00
        -11   -1    0    0    0    0  0.00000000000E+00  0.00000000000E+00  0.45593999997E+02  0.45594000000E+02  0.51100000000E-03 0. -1.
         11   -1    0    0    0    0 -0.00000000000E+00 -0.00000000000E+00 -0.45593999997E+02  0.45594000000E+02  0.51100000000E-03 0.  1.
         23    2    1    2    0    0 -0.13322676296E-14 -0.88817841970E-15  0.00000000000E+00  0.91188000000E+02  0.91188000000E+02 0.  0.
    9900012    2    3    3    0    0  0.12983687343E+01  0.74613679233E+01 -0.36033624042E+02  0.54367084283E+02  0.40000000240E+02 0.  0.
         12    1    3    3    0    0 -0.12983687343E+01 -0.74613679233E+01  0.36033624042E+02  0.36820915717E+02  0.00000000000E+00 0. -1.
         11    1    4    4    0    0  0.13579536455E+02 -0.82622283570E+01 -0.93064453552E+01  0.18419504694E+02  0.51100000000E-03 0. -1.
        -11    1    4    4    0    0 -0.10739715339E+02  0.29360227271E+01 -0.13216267843E+02  0.17280956310E+02  0.51100000000E-03 0.  1.
         12    1    4    4    0    0 -0.15414523810E+01  0.12787573553E+02 -0.13510910844E+02  0.18666623279E+02  0.00000000000E+00 0. -1.
</event>
<event>
 8    1  0.1280925E-006  0.9118800E+02  0.7816164E-02  0.1184000E+00
        -11   -1    0    0    0    0  0.00000000000E+00  0.00000000000E+00  0.45593999997E+02  0.45594000000E+02  0.51100000000E-03 0.  1.
         11   -1    0    0    0    0 -0.00000000000E+00 -0.00000000000E+00 -0.45593999997E+02  0.45594000000E+02  0.51100000000E-03 0. -1.
         23    2    1    2    0    0  0.00000000000E+00  0.71054273576E-14  0.00000000000E+00  0.91188000000E+02  0.91188000000E+02 0.  0.
    9900012    2    3    3    0    0  0.16150746351E+02 -0.32589308707E+02  0.57331888793E+01  0.54367094194E+02  0.40000022833E+02 0.  0.
        -12    1    3    3    0    0 -0.16150746351E+02  0.32589308707E+02 -0.57331888793E+01  0.36820905806E+02  0.00000000000E+00 0.  1.
         11    1    4    4    0    0  0.15146150860E+02 -0.78007553900E+00 -0.36338200609E+01  0.15595481788E+02  0.51100000000E-03 0. -1.
        -11    1    4    4    0    0  0.16113890334E+01 -0.25688857536E+02 -0.20317749464E+01  0.25819412964E+02  0.51100000000E-03 0.  1.
        -12    1    4    4    0    0 -0.60679354190E+00 -0.61203756313E+01  0.11398783887E+02  0.12952199441E+02  0.00000000000E+00 0.  1.
</event>
<event>
 8    1  0.1280925E-006  0.9118800E+02  0.7816164E-02  0.1184000E+00
        -11   -1    0    0    0    0  0.00000000000E+00  0.00000000000E+00  0.45593999997E+02  0.45594000000E+02  0.51100000000E-03 0.  1.
         11   -1    0    0    0    0 -0.00000000000E+00 -0.00000000000E+00 -0.45593999997E+02  0.45594000000E+02  0.51100000000E-03 0. -1.
         23    2    1    2    0    0  0.71054273576E-14  0.35527136788E-14  0.66613381478E-15  0.91188000000E+02  0.91188000000E+02 0.  0.
    9900012    2    3    3    0    0  0.29406473914E+02  0.22111282524E+02  0.14596463695E+01  0.54367080804E+02  0.39999992310E+02 0.  0.
        -12    1    3    3    0    0 -0.29406473914E+02 -0.22111282524E+02 -0.14596463695E+01  0.36820919196E+02  0.00000000000E+00 0.  1.
         11    1    4    4    0    0 -0.17835482361E+01 -0.39800268149E+00  0.15577488206E+01  0.24012563575E+01  0.51100000000E-03 0. -1.
        -11    1    4    4    0    0  0.85684769755E+01  0.86618679367E+00  0.14931888060E+02  0.17237469610E+02  0.51100000000E-03 0.  1.
         12    1    4    4    0    0  0.22621545174E+02  0.21643098412E+02 -0.15029990511E+02  0.34728354837E+02  0.00000000000E+00 0. -1.
</event>
<event>
 8    1  0.1280925E-006  0.9118800E+02  0.7816164E-02  0.1184000E+00
        -11   -1    0    0    0    0  0.00000000000E+00  0.00000000000E+00  0.45593999997E+02  0.45594000000E+02  0.51100000000E-03 0.  1.
         11   -1    0    0    0    0 -0.00000000000E+00 -0.00000000000E+00 -0.45593999997E+02  0.45594000000E+02  0.51100000000E-03 0. -1.
         23    2    1    2    0    0  0.35527136788E-14  0.00000000000E+00  0.48849813084E-14  0.91188000000E+02  0.91188000000E+02 0.  0.
    9900012    2    3    3    0    0  0.11735442648E+02  0.34760250184E+02  0.31291691990E+01  0.54366982811E+02  0.39999768913E+02 0.  0.
         12    1    3    3    0    0 -0.11735442648E+02 -0.34760250184E+02 -0.31291691990E+01  0.36821017189E+02  0.00000000000E+00 0. -1.
         11    1    4    4    0    0 -0.14987274656E+01  0.20578550098E+02 -0.15881939728E+02  0.26037644247E+02  0.51100000000E-03 0. -1.
        -11    1    4    4    0    0  0.20250127454E+01  0.40504338761E+01  0.93680768421E+01  0.10405169637E+02  0.51100000000E-03 0.  1.
         12    1    4    4    0    0  0.11209157368E+02  0.10131266210E+02  0.96430320847E+01  0.17924168927E+02  0.00000000000E+00 0. -1.
</event>
<event>
 8    1  0.1280925E-006  0.9118800E+02  0.7816164E-02  0.1184000E+00
        -11   -1    0    0    0    0  0.00000000000E+00  0.00000000000E+00  0.45593999997E+02  0.45594000000E+02  0.51100000000E-03 0. -1.
         11   -1    0    0    0    0 -0.00000000000E+00 -0.00000000000E+00 -0.45593999997E+02  0.45594000000E+02  0.51100000000E-03 0.  1.
         23    2    1    2    0    0  0.00000000000E+00  0.00000000000E+00  0.35527136788E-14  0.91188000000E+02  0.91188000000E+02 0.  0.
    9900012    2    3    3    0    0 -0.18259374108E+02 -0.26067439876E+02 -0.18516546853E+02  0.54367100067E+02  0.40000036223E+02 0.  0.
         12    1    3    3    0    0  0.18259374108E+02  0.26067439876E+02  0.18516546853E+02  0.36820899933E+02  0.00000000000E+00 0. -1.
         11    1    4    4    0    0 -0.82153873816E+01 -0.10832099590E+00  0.79201249668E+01  0.11411954391E+02  0.51100000000E-03 0. -1.
        -11    1    4    4    0    0 -0.10851065855E+02 -0.14558465346E+02 -0.25746438821E+02  0.31505136973E+02  0.51100000000E-03 0.  1.
        -12    1    4    4    0    0  0.80707912812E+00 -0.11400653534E+02 -0.69023299883E+00  0.11450008704E+02  0.00000000000E+00 0.  1.
</event>
<event>
 8    1  0.1280925E-006  0.9118800E+02  0.7816164E-02  0.1184000E+00
        -11   -1    0    0    0    0  0.00000000000E+00  0.00000000000E+00  0.45593999997E+02  0.45594000000E+02  0.51100000000E-03 0. -1.
         11   -1    0    0    0    0 -0.00000000000E+00 -0.00000000000E+00 -0.45593999997E+02  0.45594000000E+02  0.51100000000E-03 0.  1.
         23    2    1    2    0    0  0.00000000000E+00  0.00000000000E+00  0.88817841970E-15  0.91188000000E+02  0.91188000000E+02 0.  0.
    9900012    2    3    3    0    0 -0.20116324296E+02 -0.30113343379E+02 -0.66557909268E+01  0.54367088747E+02  0.40000010416E+02 0.  0.
         12    1    3    3    0    0  0.20116324296E+02  0.30113343379E+02  0.66557909268E+01  0.36820911253E+02  0.00000000000E+00 0. -1.
         11    1    4    4    0    0 -0.11962697271E+02 -0.14348679831E+02  0.89976955908E+01  0.20735217990E+02  0.51100000000E-03 0. -1.
        -11    1    4    4    0    0 -0.35000099604E+01 -0.21779258848E+02 -0.12839048690E+02  0.25523074996E+02  0.51100000000E-03 0.  1.
         12    1    4    4    0    0 -0.46536170642E+01  0.60145953002E+01 -0.28144378277E+01  0.81087957609E+01  0.00000000000E+00 0. -1.
</event>
<event>
 8    1  0.1280925E-006  0.9118800E+02  0.7816164E-02  0.1184000E+00
        -11   -1    0    0    0    0  0.00000000000E+00  0.00000000000E+00  0.45593999997E+02  0.45594000000E+02  0.51100000000E-03 0. -1.
         11   -1    0    0    0    0 -0.00000000000E+00 -0.00000000000E+00 -0.45593999997E+02  0.45594000000E+02  0.51100000000E-03 0.  1.
         23    2    1    2    0    0  0.00000000000E+00  0.00000000000E+00  0.00000000000E+00  0.91188000000E+02  0.91188000000E+02 0.  0.
    9900012    2    3    3    0    0  0.27569506906E+02  0.18137478815E+02 -0.16331945839E+02  0.54367105067E+02  0.40000047621E+02 0.  0.
         12    1    3    3    0    0 -0.27569506906E+02 -0.18137478815E+02  0.16331945839E+02  0.36820894933E+02  0.00000000000E+00 0. -1.
         11    1    4    4    0    0  0.37741091226E+01  0.14229756872E+02 -0.11157945098E+02  0.18472401559E+02  0.51100000000E-03 0. -1.
        -11    1    4    4    0    0  0.10015011800E+00  0.64231695430E+01  0.66911059613E+01  0.92756690471E+01  0.51100000000E-03 0.  1.
        -12    1    4    4    0    0  0.23695247666E+02 -0.25154475995E+01 -0.11865106702E+02  0.26619034460E+02  0.00000000000E+00 0.  1.
</event>
<event>
 8    1  0.1280925E-006  0.9118800E+02  0.7816164E-02  0.1184000E+00
        -11   -1    0    0    0    0  0.00000000000E+00  0.00000000000E+00  0.45593999997E+02  0.45594000000E+02  0.51100000000E-03 0. -1.
         11   -1    0    0    0    0 -0.00000000000E+00 -0.00000000000E+00 -0.45593999997E+02  0.45594000000E+02  0.51100000000E-03 0.  1.
         23    2    1    2    0    0  0.00000000000E+00  0.17763568394E-14  0.35527136788E-14  0.91188000000E+02  0.91188000000E+02 0.  0.
    9900012    2    3    3    0    0  0.30242909897E+02  0.12510024883E+02  0.16871288499E+02  0.54367154039E+02  0.40000159263E+02 0.  0.
        -12    1    3    3    0    0 -0.30242909897E+02 -0.12510024883E+02 -0.16871288499E+02  0.36820845961E+02  0.00000000000E+00 0.  1.
         11    1    4    4    0    0  0.23919127209E+02  0.11593858349E+01  0.15398128038E+02  0.28470531595E+02  0.51100000000E-03 0. -1.
        -11    1    4    4    0    0  0.55227840679E+01 -0.18824945966E+01 -0.77833071264E+01  0.97275279415E+01  0.51100000000E-03 0.  1.
        -12    1    4    4    0    0  0.80099862078E+00  0.13233133645E+02  0.92564675871E+01  0.16169094503E+02  0.00000000000E+00 0.  1.
</event>
<event>
 8    1  0.1280925E-006  0.9118800E+02  0.7816164E-02  0.1184000E+00
        -11   -1    0    0    0    0  0.00000000000E+00  0.00000000000E+00  0.45593999997E+02  0.45594000000E+02  0.51100000000E-03 0. -1.
         11   -1    0    0    0    0 -0.00000000000E+00 -0.00000000000E+00 -0.45593999997E+02  0.45594000000E+02  0.51100000000E-03 0.  1.
         23    2    1    2    0    0  0.00000000000E+00  0.00000000000E+00  0.17763568394E-14  0.91188000000E+02  0.91188000000E+02 0.  0.
    9900012    2    3    3    0    0  0.21223144577E+02  0.28281445971E+02 -0.10272212886E+02  0.54367076471E+02  0.39999982432E+02 0.  0.
         12    1    3    3    0    0 -0.21223144577E+02 -0.28281445971E+02  0.10272212886E+02  0.36820923529E+02  0.00000000000E+00 0. -1.
         11    1    4    4    0    0 -0.53566395339E+00  0.12817995488E+02  0.78599111805E+01  0.15045469359E+02  0.51100000000E-03 0. -1.
        -11    1    4    4    0    0  0.18707582935E+01  0.44797045318E+01 -0.15745690675E+02  0.16477083006E+02  0.51100000000E-03 0.  1.
        -12    1    4    4    0    0  0.19888050237E+02  0.10983745951E+02 -0.23864333911E+01  0.22844524107E+02  0.00000000000E+00 0.  1.
</event>
<event>
 8    1  0.1280925E-006  0.9118800E+02  0.7816164E-02  0.1184000E+00
        -11   -1    0    0    0    0  0.00000000000E+00  0.00000000000E+00  0.45593999997E+02  0.45594000000E+02  0.51100000000E-03 0.  1.
         11   -1    0    0    0    0 -0.00000000000E+00 -0.00000000000E+00 -0.45593999997E+02  0.45594000000E+02  0.51100000000E-03 0. -1.
         23    2    1    2    0    0  0.35527136788E-14  0.38857805862E-15 -0.35527136788E-14  0.91188000000E+02  0.91188000000E+02 0.  0.
    9900012    2    3    3    0    0  0.23288145295E+02  0.45331992989E+00 -0.28517289424E+02  0.54367095525E+02  0.40000025869E+02 0.  0.
        -12    1    3    3    0    0 -0.23288145295E+02 -0.45331992989E+00  0.28517289424E+02  0.36820904475E+02  0.00000000000E+00 0.  1.
         11    1    4    4    0    0 -0.66868551662E+01  0.24681976309E+01  0.27695557977E+01  0.76469909857E+01  0.51100000000E-03 0. -1.
        -11    1    4    4    0    0  0.17926920397E+02 -0.95196855829E+01 -0.15881545916E+02  0.25772512285E+02  0.51100000000E-03 0.  1.
         12    1    4    4    0    0  0.12048080065E+02  0.75048078819E+01 -0.15405299305E+02  0.20947592255E+02  0.00000000000E+00 0. -1.
</event>
<event>
 8    1  0.1280925E-006  0.9118800E+02  0.7816164E-02  0.1184000E+00
        -11   -1    0    0    0    0  0.00000000000E+00  0.00000000000E+00  0.45593999997E+02  0.45594000000E+02  0.51100000000E-03 0.  1.
         11   -1    0    0    0    0 -0.00000000000E+00 -0.00000000000E+00 -0.45593999997E+02  0.45594000000E+02  0.51100000000E-03 0. -1.
         23    2    1    2    0    0  0.71054273576E-14  0.13322676296E-14  0.00000000000E+00  0.91188000000E+02  0.91188000000E+02 0.  0.
    9900012    2    3    3    0    0 -0.34469995668E+02  0.27800283816E+01  0.12643981960E+02  0.54367089651E+02  0.40000012477E+02 0.  0.
         12    1    3    3    0    0  0.34469995668E+02 -0.27800283816E+01 -0.12643981960E+02  0.36820910349E+02  0.00000000000E+00 0. -1.
         11    1    4    4    0    0 -0.43241176419E+01  0.95565997477E+01  0.64860850962E+01  0.12332716337E+02  0.51100000000E-03 0. -1.
        -11    1    4    4    0    0 -0.22856277157E+02 -0.48573315140E+01  0.16952364594E+02  0.28868421164E+02  0.51100000000E-03 0.  1.
         12    1    4    4    0    0 -0.72896008688E+01 -0.19192398521E+01 -0.10794467730E+02  0.13165952150E+02  0.00000000000E+00 0. -1.
</event>
<event>
 8    1  0.1280925E-006  0.9118800E+02  0.7816164E-02  0.1184000E+00
        -11   -1    0    0    0    0  0.00000000000E+00  0.00000000000E+00  0.45593999997E+02  0.45594000000E+02  0.51100000000E-03 0. -1.
         11   -1    0    0    0    0 -0.00000000000E+00 -0.00000000000E+00 -0.45593999997E+02  0.45594000000E+02  0.51100000000E-03 0.  1.
         23    2    1    2    0    0  0.00000000000E+00  0.00000000000E+00  0.35527136788E-14  0.91188000000E+02  0.91188000000E+02 0.  0.
    9900012    2    3    3    0    0 -0.91930671047E+01  0.19074278977E+02 -0.30123775384E+02  0.54367048835E+02  0.39999919430E+02 0.  0.
         12    1    3    3    0    0  0.91930671047E+01 -0.19074278977E+02  0.30123775384E+02  0.36820951165E+02  0.00000000000E+00 0. -1.
         11    1    4    4    0    0 -0.78392251848E+01  0.82880185454E+01 -0.15894287966E+02  0.19564587732E+02  0.51100000000E-03 0. -1.
        -11    1    4    4    0    0 -0.12043574581E+02  0.78768995927E+01 -0.18049180485E+02  0.23083893786E+02  0.51100000000E-03 0.  1.
         12    1    4    4    0    0  0.10689732661E+02  0.29093608388E+01  0.38196930670E+01  0.11718567317E+02  0.00000000000E+00 0. -1.
</event>
<event>
 8    1  0.1280925E-006  0.9118800E+02  0.7816164E-02  0.1184000E+00
        -11   -1    0    0    0    0  0.00000000000E+00  0.00000000000E+00  0.45593999997E+02  0.45594000000E+02  0.51100000000E-03 0.  1.
         11   -1    0    0    0    0 -0.00000000000E+00 -0.00000000000E+00 -0.45593999997E+02  0.45594000000E+02  0.51100000000E-03 0. -1.
         23    2    1    2    0    0  0.35527136788E-14  0.00000000000E+00  0.71054273576E-14  0.91188000000E+02  0.91188000000E+02 0.  0.
    9900012    2    3    3    0    0 -0.21409759541E+02  0.91335926102E+01  0.28530318422E+02  0.54367090359E+02  0.40000014091E+02 0.  0.
         12    1    3    3    0    0  0.21409759541E+02 -0.91335926102E+01 -0.28530318422E+02  0.36820909641E+02  0.00000000000E+00 0. -1.
         11    1    4    4    0    0 -0.36324786289E+01  0.19204870060E+01 -0.20460528286E+01  0.45901529133E+01  0.51100000000E-03 0. -1.
        -11    1    4    4    0    0 -0.24496576854E+01 -0.12304979561E+02  0.34523462904E+01  0.13012764500E+02  0.51100000000E-03 0.  1.
        -12    1    4    4    0    0 -0.15327623227E+02  0.19518085165E+02  0.27124024960E+02  0.36764172945E+02  0.00000000000E+00 0.  1.
</event>
<event>
 8    1  0.1280925E-006  0.9118800E+02  0.7816164E-02  0.1184000E+00
        -11   -1    0    0    0    0  0.00000000000E+00  0.00000000000E+00  0.45593999997E+02  0.45594000000E+02  0.51100000000E-03 0. -1.
         11   -1    0    0    0    0 -0.00000000000E+00 -0.00000000000E+00 -0.45593999997E+02  0.45594000000E+02  0.51100000000E-03 0.  1.
         23    2    1    2    0    0  0.17763568394E-14  0.00000000000E+00  0.22204460493E-14  0.91188000000E+02  0.91188000000E+02 0.  0.
    9900012    2    3    3    0    0  0.12091252752E+02 -0.34632782928E+02 -0.31855841359E+01  0.54367136448E+02  0.40000119159E+02 0.  0.
        -12    1    3    3    0    0 -0.12091252752E+02  0.34632782928E+02  0.31855841359E+01  0.36820863552E+02  0.00000000000E+00 0.  1.
         11    1    4    4    0    0  0.18827338634E+02 -0.23114969898E+02  0.97248626073E+01  0.31358307773E+02  0.51100000000E-03 0. -1.
        -11    1    4    4    0    0 -0.61791538760E+01 -0.11983481445E+02 -0.39926671780E+01  0.14061549048E+02  0.51100000000E-03 0.  1.
         12    1    4    4    0    0 -0.55693200639E+00  0.46566841506E+00 -0.89177795652E+01  0.89472796260E+01  0.00000000000E+00 0. -1.
</event>
<event>
 8    1  0.1280925E-006  0.9118800E+02  0.7816164E-02  0.1184000E+00
        -11   -1    0    0    0    0  0.00000000000E+00  0.00000000000E+00  0.45593999997E+02  0.45594000000E+02  0.51100000000E-03 0.  1.
         11   -1    0    0    0    0 -0.00000000000E+00 -0.00000000000E+00 -0.45593999997E+02  0.45594000000E+02  0.51100000000E-03 0. -1.
         23    2    1    2    0    0 -0.35527136788E-14  0.00000000000E+00  0.35527136788E-14  0.91188000000E+02  0.91188000000E+02 0.  0.
    9900012    2    3    3    0    0 -0.28633631912E+02 -0.11387595607E+02  0.20154838676E+02  0.54367085668E+02  0.40000003398E+02 0.  0.
         12    1    3    3    0    0  0.28633631912E+02  0.11387595607E+02 -0.20154838676E+02  0.36820914332E+02  0.00000000000E+00 0. -1.
         11    1    4    4    0    0 -0.12886377848E+02  0.36499368462E+01  0.13400444477E+02  0.18946046698E+02  0.51100000000E-03 0. -1.
        -11    1    4    4    0    0 -0.15537914528E+02 -0.21796585011E+02  0.90862825212E+01  0.28267975455E+02  0.51100000000E-03 0.  1.
         12    1    4    4    0    0 -0.20933953492E+00  0.67590525572E+01 -0.23318883223E+01  0.71530635157E+01  0.00000000000E+00 0. -1.
</event>
<event>
 8    1  0.1280925E-006  0.9118800E+02  0.7816164E-02  0.1184000E+00
        -11   -1    0    0    0    0  0.00000000000E+00  0.00000000000E+00  0.45593999997E+02  0.45594000000E+02  0.51100000000E-03 0.  1.
         11   -1    0    0    0    0 -0.00000000000E+00 -0.00000000000E+00 -0.45593999997E+02  0.45594000000E+02  0.51100000000E-03 0. -1.
         23    2    1    2    0    0  0.00000000000E+00 -0.61062266354E-15  0.17763568394E-14  0.91188000000E+02  0.91188000000E+02 0.  0.
    9900012    2    3    3    0    0  0.34514031924E+02 -0.48024332182E+00 -0.12819159665E+02  0.54367083555E+02  0.39999998581E+02 0.  0.
        -12    1    3    3    0    0 -0.34514031924E+02  0.48024332182E+00  0.12819159665E+02  0.36820916445E+02  0.00000000000E+00 0.  1.
         11    1    4    4    0    0  0.19012405362E+02 -0.76565827160E+00  0.46850750305E+01  0.19596114884E+02  0.51100000000E-03 0. -1.
        -11    1    4    4    0    0  0.12872335748E+02  0.64996178783E+01  0.16013753387E+01  0.14508840871E+02  0.51100000000E-03 0.  1.
        -12    1    4    4    0    0  0.26292908140E+01 -0.62142029285E+01 -0.19105610035E+02  0.20262127801E+02  0.00000000000E+00 0.  1.
</event>
<event>
 8    1  0.1280925E-006  0.9118800E+02  0.7816164E-02  0.1184000E+00
        -11   -1    0    0    0    0  0.00000000000E+00  0.00000000000E+00  0.45593999997E+02  0.45594000000E+02  0.51100000000E-03 0.  1.
         11   -1    0    0    0    0 -0.00000000000E+00 -0.00000000000E+00 -0.45593999997E+02  0.45594000000E+02  0.51100000000E-03 0. -1.
         23    2    1    2    0    0  0.00000000000E+00 -0.35527136788E-14 -0.35527136788E-14  0.91188000000E+02  0.91188000000E+02 0.  0.
    9900012    2    3    3    0    0  0.87348613569E+01 -0.27974010156E+02 -0.22292105261E+02  0.54367068397E+02  0.39999964024E+02 0.  0.
        -12    1    3    3    0    0 -0.87348613569E+01  0.27974010156E+02  0.22292105261E+02  0.36820931603E+02  0.00000000000E+00 0.  1.
         11    1    4    4    0    0  0.35192305727E+01  0.22197214780E+01 -0.12928617696E+02  0.13581653178E+02  0.51100000000E-03 0. -1.
        -11    1    4    4    0    0  0.49856211327E+01 -0.34432981649E+02 -0.10586948941E+02  0.36367157319E+02  0.51100000000E-03 0.  1.
         12    1    4    4    0    0  0.23000965141E+00  0.42392500149E+01  0.12234613762E+01  0.44182578996E+01  0.00000000000E+00 0. -1.
</event>
<event>
 8    1  0.1280925E-006  0.9118800E+02  0.7816164E-02  0.1184000E+00
        -11   -1    0    0    0    0  0.00000000000E+00  0.00000000000E+00  0.45593999997E+02  0.45594000000E+02  0.51100000000E-03 0. -1.
         11   -1    0    0    0    0 -0.00000000000E+00 -0.00000000000E+00 -0.45593999997E+02  0.45594000000E+02  0.51100000000E-03 0.  1.
         23    2    1    2    0    0  0.35527136788E-14  0.17763568394E-14  0.35527136788E-14  0.91188000000E+02  0.91188000000E+02 0.  0.
    9900012    2    3    3    0    0 -0.20089870167E+02 -0.10741279223E+02 -0.28927499614E+02  0.54367106521E+02  0.40000050936E+02 0.  0.
         12    1    3    3    0    0  0.20089870167E+02  0.10741279223E+02  0.28927499614E+02  0.36820893479E+02  0.00000000000E+00 0. -1.
         11    1    4    4    0    0  0.11968214146E+01  0.42048473885E+00 -0.44975601060E+01  0.46730328569E+01  0.51100000000E-03 0.  1.
        -11    1    4    4    0    0  0.44993606319E+01 -0.16224465522E+02 -0.74808792980E+01  0.18423926913E+02  0.51100000000E-03 0. -1.
         12    1    4    4    0    0 -0.25786052214E+02  0.50627015600E+01 -0.16949060210E+02  0.31270146751E+02  0.00000000000E+00 0. -1.
</event>
<event>
 8    1  0.1280925E-006  0.9118800E+02  0.7816164E-02  0.1184000E+00
        -11   -1    0    0    0    0  0.00000000000E+00  0.00000000000E+00  0.45593999997E+02  0.45594000000E+02  0.51100000000E-03 0.  1.
         11   -1    0    0    0    0 -0.00000000000E+00 -0.00000000000E+00 -0.45593999997E+02  0.45594000000E+02  0.51100000000E-03 0. -1.
         23    2    1    2    0    0 -0.17763568394E-14 -0.35527136788E-14  0.00000000000E+00  0.91188000000E+02  0.91188000000E+02 0.  0.
    9900012    2    3    3    0    0 -0.96124063444E+01  0.24740165406E+02  0.25520723958E+02  0.54367061781E+02  0.39999948941E+02 0.  0.
         12    1    3    3    0    0  0.96124063444E+01 -0.24740165406E+02 -0.25520723958E+02  0.36820938219E+02  0.00000000000E+00 0. -1.
         11    1    4    4    0    0 -0.49156418653E+00 -0.10073242378E+02  0.32291316338E+01  0.10589576891E+02  0.51100000000E-03 0. -1.
        -11    1    4    4    0    0  0.26387929257E+01  0.65488951020E+01  0.43999778309E+01  0.83193185018E+01  0.51100000000E-03 0.  1.
         12    1    4    4    0    0 -0.11759635084E+02  0.28264512682E+02  0.17891614493E+02  0.35458166388E+02  0.00000000000E+00 0. -1.
</event>
<event>
 8    1  0.1280925E-006  0.9118800E+02  0.7816164E-02  0.1184000E+00
        -11   -1    0    0    0    0  0.00000000000E+00  0.00000000000E+00  0.45593999997E+02  0.45594000000E+02  0.51100000000E-03 0. -1.
         11   -1    0    0    0    0 -0.00000000000E+00 -0.00000000000E+00 -0.45593999997E+02  0.45594000000E+02  0.51100000000E-03 0.  1.
         23    2    1    2    0    0  0.00000000000E+00 -0.35527136788E-14  0.35527136788E-14  0.91188000000E+02  0.91188000000E+02 0.  0.
    9900012    2    3    3    0    0  0.10989973940E+02  0.26936148196E+02 -0.22570867805E+02  0.54367086374E+02  0.40000005006E+02 0.  0.
         12    1    3    3    0    0 -0.10989973940E+02 -0.26936148196E+02  0.22570867805E+02  0.36820913626E+02  0.00000000000E+00 0. -1.
         11    1    4    4    0    0 -0.52411794128E+01  0.32050531006E+01 -0.39600657058E+01  0.73092029436E+01  0.51100000000E-03 0. -1.
        -11    1    4    4    0    0 -0.16899951958E+01  0.16178403593E+02  0.44765695635E+01  0.16871173697E+02  0.51100000000E-03 0.  1.
        -12    1    4    4    0    0  0.17921148549E+02  0.75526915016E+01 -0.23087371663E+02  0.30186709733E+02  0.00000000000E+00 0.  1.
</event>
<event>
 8    1  0.1280925E-006  0.9118800E+02  0.7816164E-02  0.1184000E+00
        -11   -1    0    0    0    0  0.00000000000E+00  0.00000000000E+00  0.45593999997E+02  0.45594000000E+02  0.51100000000E-03 0.  1.
         11   -1    0    0    0    0 -0.00000000000E+00 -0.00000000000E+00 -0.45593999997E+02  0.45594000000E+02  0.51100000000E-03 0. -1.
         23    2    1    2    0    0  0.88817841970E-15 -0.88817841970E-15 -0.71054273576E-14  0.91188000000E+02  0.91188000000E+02 0.  0.
    9900012    2    3    3    0    0  0.39850925204E+01  0.76650300079E+01 -0.35793096703E+02  0.54367089922E+02  0.40000013095E+02 0.  0.
        -12    1    3    3    0    0 -0.39850925204E+01 -0.76650300079E+01  0.35793096703E+02  0.36820910078E+02  0.00000000000E+00 0.  1.
         11    1    4    4    0    0  0.18877199620E+01  0.52896047749E+01 -0.25663279877E+02  0.26270655486E+02  0.51100000000E-03 0. -1.
        -11    1    4    4    0    0 -0.35802904826E+01  0.92361476530E+01 -0.14977675525E+02  0.17957050643E+02  0.51100000000E-03 0.  1.
        -12    1    4    4    0    0  0.56776630410E+01 -0.68607224200E+01  0.48478586996E+01  0.10139383793E+02  0.00000000000E+00 0.  1.
</event>
<event>
 8    1  0.1280925E-006  0.9118800E+02  0.7816164E-02  0.1184000E+00
        -11   -1    0    0    0    0  0.00000000000E+00  0.00000000000E+00  0.45593999997E+02  0.45594000000E+02  0.51100000000E-03 0.  1.
         11   -1    0    0    0    0 -0.00000000000E+00 -0.00000000000E+00 -0.45593999997E+02  0.45594000000E+02  0.51100000000E-03 0. -1.
         23    2    1    2    0    0  0.00000000000E+00 -0.26645352591E-14  0.00000000000E+00  0.91188000000E+02  0.91188000000E+02 0.  0.
    9900012    2    3    3    0    0 -0.64354959454E+01 -0.78490455116E+01 -0.35394345036E+02  0.54367044227E+02  0.39999908924E+02 0.  0.
        -12    1    3    3    0    0  0.64354959454E+01  0.78490455116E+01  0.35394345036E+02  0.36820955773E+02  0.00000000000E+00 0.  1.
         11    1    4    4    0    0 -0.13149942174E+02 -0.29760943468E+01 -0.12893933091E+02  0.18655605794E+02  0.51100000000E-03 0. -1.
        -11    1    4    4    0    0 -0.58590010598E+01  0.44277598077E+01 -0.17995030570E+02  0.19435896579E+02  0.51100000000E-03 0.  1.
        -12    1    4    4    0    0  0.12573447288E+02 -0.93007109724E+01 -0.45053813749E+01  0.16275541854E+02  0.00000000000E+00 0.  1.
</event>
<event>
 8    1  0.1280925E-006  0.9118800E+02  0.7816164E-02  0.1184000E+00
        -11   -1    0    0    0    0  0.00000000000E+00  0.00000000000E+00  0.45593999997E+02  0.45594000000E+02  0.51100000000E-03 0. -1.
         11   -1    0    0    0    0 -0.00000000000E+00 -0.00000000000E+00 -0.45593999997E+02  0.45594000000E+02  0.51100000000E-03 0.  1.
         23    2    1    2    0    0  0.00000000000E+00 -0.53290705182E-14  0.00000000000E+00  0.91188000000E+02  0.91188000000E+02 0.  0.
    9900012    2    3    3    0    0 -0.12312000129E+02  0.10741341518E+02 -0.32997232896E+02  0.54367093662E+02  0.40000021622E+02 0.  0.
         12    1    3    3    0    0  0.12312000129E+02 -0.10741341518E+02  0.32997232896E+02  0.36820906338E+02  0.00000000000E+00 0. -1.
         11    1    4    4    0    0 -0.49881632947E+01  0.19778012087E+02 -0.17961272631E+02  0.27178279010E+02  0.51100000000E-03 0. -1.
        -11    1    4    4    0    0 -0.12032860302E+02 -0.11662541697E+02 -0.13672701693E+02  0.21627468130E+02  0.51100000000E-03 0.  1.
        -12    1    4    4    0    0  0.47090234682E+01  0.26258711275E+01 -0.13632585714E+01  0.55613465217E+01  0.00000000000E+00 0.  1.
</event>
<event>
 8    1  0.1280925E-006  0.9118800E+02  0.7816164E-02  0.1184000E+00
        -11   -1    0    0    0    0  0.00000000000E+00  0.00000000000E+00  0.45593999997E+02  0.45594000000E+02  0.51100000000E-03 0. -1.
         11   -1    0    0    0    0 -0.00000000000E+00 -0.00000000000E+00 -0.45593999997E+02  0.45594000000E+02  0.51100000000E-03 0.  1.
         23    2    1    2    0    0  0.22204460493E-14  0.00000000000E+00  0.00000000000E+00  0.91188000000E+02  0.91188000000E+02 0.  0.
    9900012    2    3    3    0    0 -0.23959982312E+01  0.28666850633E+02  0.22983708118E+02  0.54367082418E+02  0.39999995988E+02 0.  0.
        -12    1    3    3    0    0  0.23959982312E+01 -0.28666850633E+02 -0.22983708118E+02  0.36820917582E+02  0.00000000000E+00 0.  1.
         11    1    4    4    0    0 -0.51825072520E+01  0.56427692212E+01 -0.10210877125E+01  0.77292849785E+01  0.51100000000E-03 0. -1.
        -11    1    4    4    0    0  0.16904326904E+02  0.18675780186E+02  0.15895879971E+02  0.29786239003E+02  0.51100000000E-03 0.  1.
        -12    1    4    4    0    0 -0.14117817883E+02  0.43483012250E+01  0.81089158596E+01  0.16851558436E+02  0.00000000000E+00 0.  1.
</event>
<event>
 8    1  0.1280925E-006  0.9118800E+02  0.7816164E-02  0.1184000E+00
        -11   -1    0    0    0    0  0.00000000000E+00  0.00000000000E+00  0.45593999997E+02  0.45594000000E+02  0.51100000000E-03 0. -1.
         11   -1    0    0    0    0 -0.00000000000E+00 -0.00000000000E+00 -0.45593999997E+02  0.45594000000E+02  0.51100000000E-03 0.  1.
         23    2    1    2    0    0 -0.35527136788E-14  0.33306690739E-15  0.35527136788E-14  0.91188000000E+02  0.91188000000E+02 0.  0.
    9900012    2    3    3    0    0 -0.28780153066E+02 -0.22963448107E+00 -0.22965850596E+02  0.54367078826E+02  0.39999987801E+02 0.  0.
         12    1    3    3    0    0  0.28780153066E+02  0.22963448107E+00  0.22965850596E+02  0.36820921174E+02  0.00000000000E+00 0. -1.
         11    1    4    4    0    0 -0.17928314009E+02 -0.12458545642E+02 -0.23822588597E+01  0.21961670252E+02  0.51100000000E-03 0. -1.
        -11    1    4    4    0    0 -0.13600267471E+02  0.11140913922E+02 -0.22742088597E+02  0.28745257562E+02  0.51100000000E-03 0.  1.
        -12    1    4    4    0    0  0.27484284141E+01  0.10879972393E+01  0.21584968604E+01  0.36601510128E+01  0.00000000000E+00 0.  1.
</event>
<event>
 8    1  0.1280925E-006  0.9118800E+02  0.7816164E-02  0.1184000E+00
        -11   -1    0    0    0    0  0.00000000000E+00  0.00000000000E+00  0.45593999997E+02  0.45594000000E+02  0.51100000000E-03 0.  1.
         11   -1    0    0    0    0 -0.00000000000E+00 -0.00000000000E+00 -0.45593999997E+02  0.45594000000E+02  0.51100000000E-03 0. -1.
         23    2    1    2    0    0  0.00000000000E+00  0.17763568394E-14  0.00000000000E+00  0.91188000000E+02  0.91188000000E+02 0.  0.
    9900012    2    3    3    0    0  0.16753849617E+02 -0.96933423022E+01 -0.31323011480E+02  0.54367035725E+02  0.39999889542E+02 0.  0.
        -12    1    3    3    0    0 -0.16753849617E+02  0.96933423022E+01  0.31323011480E+02  0.36820964275E+02  0.00000000000E+00 0.  1.
         11    1    4    4    0    0 -0.23293921351E+01  0.11849643214E+01 -0.11680783759E+02  0.11969583019E+02  0.51100000000E-03 0. -1.
        -11    1    4    4    0    0  0.18242007582E+01  0.10081501666E+02 -0.35898314572E+01  0.10855932683E+02  0.51100000000E-03 0.  1.
         12    1    4    4    0    0  0.17259040994E+02 -0.20959808290E+02 -0.16052396264E+02  0.31541520023E+02  0.00000000000E+00 0. -1.
</event>
<event>
 8    1  0.1280925E-006  0.9118800E+02  0.7816164E-02  0.1184000E+00
        -11   -1    0    0    0    0  0.00000000000E+00  0.00000000000E+00  0.45593999997E+02  0.45594000000E+02  0.51100000000E-03 0. -1.
         11   -1    0    0    0    0 -0.00000000000E+00 -0.00000000000E+00 -0.45593999997E+02  0.45594000000E+02  0.51100000000E-03 0.  1.
         23    2    1    2    0    0  0.00000000000E+00 -0.35527136788E-14 -0.88817841970E-15  0.91188000000E+02  0.91188000000E+02 0.  0.
    9900012    2    3    3    0    0 -0.32099845398E+02 -0.17319728874E+02  0.50404777729E+01  0.54367088835E+02  0.40000010618E+02 0.  0.
        -12    1    3    3    0    0  0.32099845398E+02  0.17319728874E+02 -0.50404777729E+01  0.36820911165E+02  0.00000000000E+00 0.  1.
         11    1    4    4    0    0 -0.16013320671E+02 -0.89448460368E+01  0.11827643122E+02  0.21824982283E+02  0.51100000000E-03 0. -1.
        -11    1    4    4    0    0 -0.24240866021E+01 -0.11986519096E+02 -0.12326376560E+02  0.17363536370E+02  0.51100000000E-03 0.  1.
         12    1    4    4    0    0 -0.13662438124E+02  0.36116362585E+01  0.55392112110E+01  0.15178570183E+02  0.00000000000E+00 0. -1.
</event>
<event>
 8    1  0.1280925E-006  0.9118800E+02  0.7816164E-02  0.1184000E+00
        -11   -1    0    0    0    0  0.00000000000E+00  0.00000000000E+00  0.45593999997E+02  0.45594000000E+02  0.51100000000E-03 0. -1.
         11   -1    0    0    0    0 -0.00000000000E+00 -0.00000000000E+00 -0.45593999997E+02  0.45594000000E+02  0.51100000000E-03 0.  1.
         23    2    1    2    0    0  0.00000000000E+00 -0.88817841970E-15  0.00000000000E+00  0.91188000000E+02  0.91188000000E+02 0.  0.
    9900012    2    3    3    0    0 -0.27843903849E+02  0.50319115742E+01 -0.23562175261E+02  0.54367092642E+02  0.40000019296E+02 0.  0.
         12    1    3    3    0    0  0.27843903849E+02 -0.50319115742E+01  0.23562175261E+02  0.36820907358E+02  0.00000000000E+00 0. -1.
         11    1    4    4    0    0 -0.11729575389E+02 -0.84850738921E+01 -0.78830476613E+01  0.16483987942E+02  0.51100000000E-03 0. -1.
        -11    1    4    4    0    0 -0.16732171928E+02 -0.57960101836E+00  0.63709635362E-01  0.16742328809E+02  0.51100000000E-03 0.  1.
         12    1    4    4    0    0  0.61784346824E+00  0.14096586485E+02 -0.15742837235E+02  0.21140775891E+02  0.00000000000E+00 0. -1.
</event>
<event>
 8    1  0.1280925E-006  0.9118800E+02  0.7816164E-02  0.1184000E+00
        -11   -1    0    0    0    0  0.00000000000E+00  0.00000000000E+00  0.45593999997E+02  0.45594000000E+02  0.51100000000E-03 0. -1.
         11   -1    0    0    0    0 -0.00000000000E+00 -0.00000000000E+00 -0.45593999997E+02  0.45594000000E+02  0.51100000000E-03 0.  1.
         23    2    1    2    0    0  0.35527136788E-14  0.00000000000E+00  0.00000000000E+00  0.91188000000E+02  0.91188000000E+02 0.  0.
    9900012    2    3    3    0    0  0.28451922148E+02 -0.18994706402E+02 -0.13618584715E+02  0.54367128271E+02  0.40000100520E+02 0.  0.
         12    1    3    3    0    0 -0.28451922148E+02  0.18994706402E+02  0.13618584715E+02  0.36820871729E+02  0.00000000000E+00 0. -1.
         11    1    4    4    0    0  0.22503825358E+02 -0.98231394067E+01 -0.19446614798E+02  0.31322309157E+02  0.51100000000E-03 0. -1.
        -11    1    4    4    0    0  0.74358445539E+01 -0.13281290096E+02 -0.64443947590E+00  0.15234820424E+02  0.51100000000E-03 0.  1.
         12    1    4    4    0    0 -0.14877477644E+01  0.41097231002E+01  0.64724695582E+01  0.78099986910E+01  0.00000000000E+00 0. -1.
</event>
<event>
 8    1  0.1280925E-006  0.9118800E+02  0.7816164E-02  0.1184000E+00
        -11   -1    0    0    0    0  0.00000000000E+00  0.00000000000E+00  0.45593999997E+02  0.45594000000E+02  0.51100000000E-03 0. -1.
         11   -1    0    0    0    0 -0.00000000000E+00 -0.00000000000E+00 -0.45593999997E+02  0.45594000000E+02  0.51100000000E-03 0.  1.
         23    2    1    2    0    0 -0.17763568394E-14  0.88817841970E-15  0.00000000000E+00  0.91188000000E+02  0.91188000000E+02 0.  0.
    9900012    2    3    3    0    0  0.15739239569E+02 -0.56206342091E+01 -0.32809517361E+02  0.54367087185E+02  0.40000006855E+02 0.  0.
         12    1    3    3    0    0 -0.15739239569E+02  0.56206342091E+01  0.32809517361E+02  0.36820912815E+02  0.00000000000E+00 0. -1.
         11    1    4    4    0    0 -0.91836391387E+01  0.52364501345E+01 -0.16389770671E+01  0.10697938303E+02  0.51100000000E-03 0. -1.
        -11    1    4    4    0    0  0.23193168676E+02 -0.64108963989E+01 -0.19203891933E+02  0.30786557643E+02  0.51100000000E-03 0.  1.
        -12    1    4    4    0    0  0.17297100314E+01 -0.44461879447E+01 -0.11966648361E+02  0.12882591239E+02  0.00000000000E+00 0.  1.
</event>
<event>
 8    1  0.1280925E-006  0.9118800E+02  0.7816164E-02  0.1184000E+00
        -11   -1    0    0    0    0  0.00000000000E+00  0.00000000000E+00  0.45593999997E+02  0.45594000000E+02  0.51100000000E-03 0.  1.
         11   -1    0    0    0    0 -0.00000000000E+00 -0.00000000000E+00 -0.45593999997E+02  0.45594000000E+02  0.51100000000E-03 0. -1.
         23    2    1    2    0    0  0.66613381478E-15  0.00000000000E+00  0.00000000000E+00  0.91188000000E+02  0.91188000000E+02 0.  0.
    9900012    2    3    3    0    0  0.16310680313E+01 -0.20446988880E+01 -0.36727865018E+02  0.54367119440E+02  0.40000080386E+02 0.  0.
        -12    1    3    3    0    0 -0.16310680313E+01  0.20446988880E+01  0.36727865018E+02  0.36820880560E+02  0.00000000000E+00 0.  1.
         11    1    4    4    0    0 -0.55956329354E+01  0.13894953435E+02 -0.15935888072E+02  0.21870833724E+02  0.51100000000E-03 0. -1.
        -11    1    4    4    0    0  0.63114718635E+01 -0.10248286092E+02 -0.12252176476E+01  0.12098066103E+02  0.51100000000E-03 0.  1.
         12    1    4    4    0    0  0.91522910318E+00 -0.56913662311E+01 -0.19566759299E+02  0.20398219612E+02  0.00000000000E+00 0. -1.
</event>
<event>
 8    1  0.1280925E-006  0.9118800E+02  0.7816164E-02  0.1184000E+00
        -11   -1    0    0    0    0  0.00000000000E+00  0.00000000000E+00  0.45593999997E+02  0.45594000000E+02  0.51100000000E-03 0.  1.
         11   -1    0    0    0    0 -0.00000000000E+00 -0.00000000000E+00 -0.45593999997E+02  0.45594000000E+02  0.51100000000E-03 0. -1.
         23    2    1    2    0    0  0.00000000000E+00  0.00000000000E+00  0.00000000000E+00  0.91188000000E+02  0.91188000000E+02 0.  0.
    9900012    2    3    3    0    0  0.29439741896E+02 -0.19230456494E+02 -0.10921174852E+02  0.54367069539E+02  0.39999966628E+02 0.  0.
         12    1    3    3    0    0 -0.29439741896E+02  0.19230456494E+02  0.10921174852E+02  0.36820930461E+02  0.00000000000E+00 0. -1.
         11    1    4    4    0    0  0.66429516260E+01  0.92099118573E+01  0.87997222963E+00  0.11389716156E+02  0.51100000000E-03 0. -1.
        -11    1    4    4    0    0  0.19370408054E+01 -0.16500977656E+02 -0.10500242710E+01  0.16647430490E+02  0.51100000000E-03 0.  1.
         12    1    4    4    0    0  0.20859749464E+02 -0.11939390695E+02 -0.10751122811E+02  0.26329922894E+02  0.00000000000E+00 0. -1.
</event>
<event>
 8    1  0.1280925E-006  0.9118800E+02  0.7816164E-02  0.1184000E+00
        -11   -1    0    0    0    0  0.00000000000E+00  0.00000000000E+00  0.45593999997E+02  0.45594000000E+02  0.51100000000E-03 0.  1.
         11   -1    0    0    0    0 -0.00000000000E+00 -0.00000000000E+00 -0.45593999997E+02  0.45594000000E+02  0.51100000000E-03 0. -1.
         23    2    1    2    0    0  0.00000000000E+00  0.00000000000E+00  0.88817841970E-15  0.91188000000E+02  0.91188000000E+02 0.  0.
    9900012    2    3    3    0    0  0.13440714781E+02  0.34006906689E+02  0.43194690554E+01  0.54367077560E+02  0.39999984914E+02 0.  0.
        -12    1    3    3    0    0 -0.13440714781E+02 -0.34006906689E+02 -0.43194690554E+01  0.36820922440E+02  0.00000000000E+00 0.  1.
         11    1    4    4    0    0  0.12984986164E+02  0.14916964413E+02  0.10169247355E+02  0.22238239251E+02  0.51100000000E-03 0.  1.
        -11    1    4    4    0    0 -0.84965982765E+01  0.16739257062E+02 -0.10774421347E+02  0.21644469614E+02  0.51100000000E-03 0. -1.
         12    1    4    4    0    0  0.89523268937E+01  0.23506852143E+01  0.49246430472E+01  0.10484368695E+02  0.00000000000E+00 0. -1.
</event>
<event>
 8    1  0.1280925E-006  0.9118800E+02  0.7816164E-02  0.1184000E+00
        -11   -1    0    0    0    0  0.00000000000E+00  0.00000000000E+00  0.45593999997E+02  0.45594000000E+02  0.51100000000E-03 0. -1.
         11   -1    0    0    0    0 -0.00000000000E+00 -0.00000000000E+00 -0.45593999997E+02  0.45594000000E+02  0.51100000000E-03 0.  1.
         23    2    1    2    0    0  0.00000000000E+00  0.17763568394E-14  0.44408920985E-15  0.91188000000E+02  0.91188000000E+02 0.  0.
    9900012    2    3    3    0    0  0.34475007335E+02 -0.12683082267E+02 -0.25283867805E+01  0.54367089552E+02  0.40000012251E+02 0.  0.
         12    1    3    3    0    0 -0.34475007335E+02  0.12683082267E+02  0.25283867805E+01  0.36820910448E+02  0.00000000000E+00 0. -1.
         11    1    4    4    0    0  0.88659256529E+01 -0.22745785437E+02 -0.73184088296E+01  0.25485966744E+02  0.51100000000E-03 0. -1.
        -11    1    4    4    0    0  0.33521291333E+01  0.29587314410E+01 -0.14475599744E+01  0.46996054735E+01  0.51100000000E-03 0.  1.
         12    1    4    4    0    0  0.22256952549E+02  0.71039717291E+01  0.62375820235E+01  0.24181517334E+02  0.00000000000E+00 0. -1.
</event>
<event>
 8    1  0.1280925E-006  0.9118800E+02  0.7816164E-02  0.1184000E+00
        -11   -1    0    0    0    0  0.00000000000E+00  0.00000000000E+00  0.45593999997E+02  0.45594000000E+02  0.51100000000E-03 0.  1.
         11   -1    0    0    0    0 -0.00000000000E+00 -0.00000000000E+00 -0.45593999997E+02  0.45594000000E+02  0.51100000000E-03 0. -1.
         23    2    1    2    0    0  0.00000000000E+00  0.00000000000E+00 -0.88817841970E-15  0.91188000000E+02  0.91188000000E+02 0.  0.
    9900012    2    3    3    0    0  0.34450370357E+02 -0.12330986972E+02 -0.41105555044E+01  0.54367110223E+02  0.40000059375E+02 0.  0.
        -12    1    3    3    0    0 -0.34450370357E+02  0.12330986972E+02  0.41105555044E+01  0.36820889777E+02  0.00000000000E+00 0.  1.
         11    1    4    4    0    0  0.17329470669E+02 -0.41646268700E+01  0.16706025984E+02  0.24428384619E+02  0.51100000000E-03 0. -1.
        -11    1    4    4    0    0  0.15139464389E+02 -0.30964532545E+01 -0.18271195122E+02  0.23929646387E+02  0.51100000000E-03 0.  1.
         12    1    4    4    0    0  0.19814352981E+01 -0.50699068480E+01 -0.25453863668E+01  0.60090792177E+01  0.00000000000E+00 0. -1.
</event>
<event>
 8    1  0.1280925E-006  0.9118800E+02  0.7816164E-02  0.1184000E+00
        -11   -1    0    0    0    0  0.00000000000E+00  0.00000000000E+00  0.45593999997E+02  0.45594000000E+02  0.51100000000E-03 0. -1.
         11   -1    0    0    0    0 -0.00000000000E+00 -0.00000000000E+00 -0.45593999997E+02  0.45594000000E+02  0.51100000000E-03 0.  1.
         23    2    1    2    0    0 -0.35527136788E-14  0.00000000000E+00  0.17763568394E-14  0.91188000000E+02  0.91188000000E+02 0.  0.
    9900012    2    3    3    0    0  0.31751754575E+02 -0.14492436927E+02 -0.11729209824E+02  0.54367095479E+02  0.40000025763E+02 0.  0.
        -12    1    3    3    0    0 -0.31751754575E+02  0.14492436927E+02  0.11729209824E+02  0.36820904521E+02  0.00000000000E+00 0.  1.
         11    1    4    4    0    0  0.25709882145E+02 -0.10770401654E+02 -0.20839358935E+02  0.34803426164E+02  0.51100000000E-03 0. -1.
        -11    1    4    4    0    0 -0.50492787008E+01 -0.36285081843E+01  0.30789515099E+01  0.69383881200E+01  0.51100000000E-03 0.  1.
        -12    1    4    4    0    0  0.11091151132E+02 -0.93527088224E-01  0.60311976013E+01  0.12625281195E+02  0.00000000000E+00 0.  1.
</event>
<event>
 8    1  0.1280925E-006  0.9118800E+02  0.7816164E-02  0.1184000E+00
        -11   -1    0    0    0    0  0.00000000000E+00  0.00000000000E+00  0.45593999997E+02  0.45594000000E+02  0.51100000000E-03 0.  1.
         11   -1    0    0    0    0 -0.00000000000E+00 -0.00000000000E+00 -0.45593999997E+02  0.45594000000E+02  0.51100000000E-03 0. -1.
         23    2    1    2    0    0 -0.17763568394E-14 -0.88817841970E-15  0.71054273576E-14  0.91188000000E+02  0.91188000000E+02 0.  0.
    9900012    2    3    3    0    0  0.13219296968E+02 -0.53091987332E+01  0.33953533513E+02  0.54367084184E+02  0.40000000013E+02 0.  0.
         12    1    3    3    0    0 -0.13219296968E+02  0.53091987332E+01 -0.33953533513E+02  0.36820915816E+02  0.00000000000E+00 0. -1.
         11    1    4    4    0    0 -0.58168011175E+00  0.39204264663E+01  0.40850387240E+01  0.56917165309E+01  0.51100000000E-03 0. -1.
        -11    1    4    4    0    0  0.12200736452E+02  0.60384176750E+00  0.35281924647E+02  0.37336802246E+02  0.51100000000E-03 0.  1.
         12    1    4    4    0    0  0.16002406278E+01 -0.98334669670E+01 -0.54134298582E+01  0.11338565407E+02  0.00000000000E+00 0. -1.
</event>
<event>
 8    1  0.1280925E-006  0.9118800E+02  0.7816164E-02  0.1184000E+00
        -11   -1    0    0    0    0  0.00000000000E+00  0.00000000000E+00  0.45593999997E+02  0.45594000000E+02  0.51100000000E-03 0.  1.
         11   -1    0    0    0    0 -0.00000000000E+00 -0.00000000000E+00 -0.45593999997E+02  0.45594000000E+02  0.51100000000E-03 0. -1.
         23    2    1    2    0    0 -0.71054273576E-14  0.00000000000E+00  0.17763568394E-14  0.91188000000E+02  0.91188000000E+02 0.  0.
    9900012    2    3    3    0    0 -0.32812699863E+02  0.76327693460E+01  0.14860986446E+02  0.54367063586E+02  0.39999953058E+02 0.  0.
        -12    1    3    3    0    0  0.32812699863E+02 -0.76327693460E+01 -0.14860986446E+02  0.36820936414E+02  0.00000000000E+00 0.  1.
         11    1    4    4    0    0 -0.16735134504E+02 -0.80023840179E+01  0.18346939746E+02  0.26090478629E+02  0.51100000000E-03 0. -1.
        -11    1    4    4    0    0 -0.15078175948E+02  0.10177155408E+02  0.43220783971E+01  0.18697760402E+02  0.51100000000E-03 0.  1.
         12    1    4    4    0    0 -0.99938941200E+00  0.54579979558E+01 -0.78080316966E+01  0.95788245551E+01  0.00000000000E+00 0. -1.
</event>
<event>
 8    1  0.1280925E-006  0.9118800E+02  0.7816164E-02  0.1184000E+00
        -11   -1    0    0    0    0  0.00000000000E+00  0.00000000000E+00  0.45593999997E+02  0.45594000000E+02  0.51100000000E-03 0. -1.
         11   -1    0    0    0    0 -0.00000000000E+00 -0.00000000000E+00 -0.45593999997E+02  0.45594000000E+02  0.51100000000E-03 0.  1.
         23    2    1    2    0    0  0.22204460493E-15  0.00000000000E+00  0.00000000000E+00  0.91188000000E+02  0.91188000000E+02 0.  0.
    9900012    2    3    3    0    0 -0.14946477920E+01  0.35588849999E+02 -0.93263901919E+01  0.54367057993E+02  0.39999940308E+02 0.  0.
         12    1    3    3    0    0  0.14946477920E+01 -0.35588849999E+02  0.93263901919E+01  0.36820942007E+02  0.00000000000E+00 0. -1.
         11    1    4    4    0    0  0.12922186272E+01  0.32657799026E+00  0.66374970640E+01  0.67699962850E+01  0.51100000000E-03 0. -1.
        -11    1    4    4    0    0 -0.65680151461E+01 -0.88328258671E-01  0.30918968102E+01  0.72599208664E+01  0.51100000000E-03 0.  1.
        -12    1    4    4    0    0  0.37811487269E+01  0.35350600267E+02 -0.19055784066E+02  0.40337140842E+02  0.00000000000E+00 0.  1.
</event>
<event>
 8    1  0.1280925E-006  0.9118800E+02  0.7816164E-02  0.1184000E+00
        -11   -1    0    0    0    0  0.00000000000E+00  0.00000000000E+00  0.45593999997E+02  0.45594000000E+02  0.51100000000E-03 0.  1.
         11   -1    0    0    0    0 -0.00000000000E+00 -0.00000000000E+00 -0.45593999997E+02  0.45594000000E+02  0.51100000000E-03 0. -1.
         23    2    1    2    0    0  0.00000000000E+00  0.00000000000E+00  0.35527136788E-14  0.91188000000E+02  0.91188000000E+02 0.  0.
    9900012    2    3    3    0    0 -0.17259202174E+02 -0.27612460304E+02 -0.17188723877E+02  0.54367078607E+02  0.39999987300E+02 0.  0.
        -12    1    3    3    0    0  0.17259202174E+02  0.27612460304E+02  0.17188723877E+02  0.36820921393E+02  0.00000000000E+00 0.  1.
         11    1    4    4    0    0 -0.69094916089E+01  0.26591922671E+01 -0.62629461113E+01  0.96972610598E+01  0.51100000000E-03 0. -1.
        -11    1    4    4    0    0 -0.15556564503E+02 -0.27644426138E+02  0.62833260857E+00  0.31727209108E+02  0.51100000000E-03 0.  1.
        -12    1    4    4    0    0  0.52068539388E+01 -0.26272264332E+01 -0.11554110374E+02  0.12942608439E+02  0.00000000000E+00 0.  1.
</event>
<event>
 8    1  0.1280925E-006  0.9118800E+02  0.7816164E-02  0.1184000E+00
        -11   -1    0    0    0    0  0.00000000000E+00  0.00000000000E+00  0.45593999997E+02  0.45594000000E+02  0.51100000000E-03 0.  1.
         11   -1    0    0    0    0 -0.00000000000E+00 -0.00000000000E+00 -0.45593999997E+02  0.45594000000E+02  0.51100000000E-03 0. -1.
         23    2    1    2    0    0  0.00000000000E+00 -0.44408920985E-15  0.00000000000E+00  0.91188000000E+02  0.91188000000E+02 0.  0.
    9900012    2    3    3    0    0  0.15565137433E+02  0.22725573001E+01  0.33291772038E+02  0.54367080601E+02  0.39999991845E+02 0.  0.
         12    1    3    3    0    0 -0.15565137433E+02 -0.22725573001E+01 -0.33291772038E+02  0.36820919399E+02  0.00000000000E+00 0. -1.
         11    1    4    4    0    0  0.98033822970E+01  0.29789145785E+01  0.26724157805E+01  0.10588769659E+02  0.51100000000E-03 0. -1.
        -11    1    4    4    0    0  0.12314831776E+02 -0.21007504891E+01  0.34036974089E+02  0.36257190179E+02  0.51100000000E-03 0.  1.
        -12    1    4    4    0    0 -0.65530766397E+01  0.13943932107E+01 -0.34176178322E+01  0.75211207622E+01  0.00000000000E+00 0.  1.
</event>
<event>
 8    1  0.1280925E-006  0.9118800E+02  0.7816164E-02  0.1184000E+00
        -11   -1    0    0    0    0  0.00000000000E+00  0.00000000000E+00  0.45593999997E+02  0.45594000000E+02  0.51100000000E-03 0. -1.
         11   -1    0    0    0    0 -0.00000000000E+00 -0.00000000000E+00 -0.45593999997E+02  0.45594000000E+02  0.51100000000E-03 0.  1.
         23    2    1    2    0    0  0.22204460493E-14  0.00000000000E+00 -0.35527136788E-14  0.91188000000E+02  0.91188000000E+02 0.  0.
    9900012    2    3    3    0    0 -0.27514501161E+01 -0.19467210037E+02  0.31132534877E+02  0.54367116357E+02  0.40000073360E+02 0.  0.
        -12    1    3    3    0    0  0.27514501161E+01  0.19467210037E+02 -0.31132534877E+02  0.36820883643E+02  0.00000000000E+00 0.  1.
         11    1    4    4    0    0  0.79790664632E+01 -0.18920583546E+02  0.42356526014E+00  0.20538582988E+02  0.51100000000E-03 0.  1.
        -11    1    4    4    0    0 -0.40855230076E+01  0.26303210138E+01  0.45655905100E+01  0.66674360775E+01  0.51100000000E-03 0. -1.
         12    1    4    4    0    0 -0.66449935717E+01 -0.31769475048E+01  0.26143379107E+02  0.27161097292E+02  0.00000000000E+00 0. -1.
</event>
<event>
 8    1  0.1280925E-006  0.9118800E+02  0.7816164E-02  0.1184000E+00
        -11   -1    0    0    0    0  0.00000000000E+00  0.00000000000E+00  0.45593999997E+02  0.45594000000E+02  0.51100000000E-03 0. -1.
         11   -1    0    0    0    0 -0.00000000000E+00 -0.00000000000E+00 -0.45593999997E+02  0.45594000000E+02  0.51100000000E-03 0.  1.
         23    2    1    2    0    0 -0.35527136788E-14  0.17763568394E-14  0.00000000000E+00  0.91188000000E+02  0.91188000000E+02 0.  0.
    9900012    2    3    3    0    0 -0.27320814209E+02 -0.79467219983E+01  0.23370977311E+02  0.54367083933E+02  0.39999999441E+02 0.  0.
        -12    1    3    3    0    0  0.27320814209E+02  0.79467219983E+01 -0.23370977311E+02  0.36820916067E+02  0.00000000000E+00 0.  1.
         11    1    4    4    0    0 -0.67707552333E+00 -0.85461970161E+00  0.24368671243E+02  0.24393051152E+02  0.51100000000E-03 0. -1.
        -11    1    4    4    0    0 -0.12493728878E+02  0.15044447558E+01 -0.38795387282E+01  0.13168425733E+02  0.51100000000E-03 0.  1.
         12    1    4    4    0    0 -0.14150009808E+02 -0.85965470524E+01  0.28818447963E+01  0.16805607047E+02  0.00000000000E+00 0. -1.
</event>
<event>
 8    1  0.1280925E-006  0.9118800E+02  0.7816164E-02  0.1184000E+00
        -11   -1    0    0    0    0  0.00000000000E+00  0.00000000000E+00  0.45593999997E+02  0.45594000000E+02  0.51100000000E-03 0.  1.
         11   -1    0    0    0    0 -0.00000000000E+00 -0.00000000000E+00 -0.45593999997E+02  0.45594000000E+02  0.51100000000E-03 0. -1.
         23    2    1    2    0    0  0.00000000000E+00  0.00000000000E+00 -0.88817841970E-15  0.91188000000E+02  0.91188000000E+02 0.  0.
    9900012    2    3    3    0    0  0.64363557858E+01  0.35807484996E+02  0.56724329729E+01  0.54367093529E+02  0.40000021318E+02 0.  0.
         12    1    3    3    0    0 -0.64363557858E+01 -0.35807484996E+02 -0.56724329729E+01  0.36820906471E+02  0.00000000000E+00 0. -1.
         11    1    4    4    0    0  0.14830226494E+02 -0.24654481161E+00  0.51586068275E+01  0.15703745632E+02  0.51100000000E-03 0. -1.
        -11    1    4    4    0    0 -0.11105928933E+02  0.26683221227E+02  0.57052679784E+00  0.28907809561E+02  0.51100000000E-03 0.  1.
        -12    1    4    4    0    0  0.27120582250E+01  0.93708085800E+01 -0.56700652471E-01  0.97555383358E+01  0.00000000000E+00 0.  1.
</event>
<event>
 8    1  0.1280925E-006  0.9118800E+02  0.7816164E-02  0.1184000E+00
        -11   -1    0    0    0    0  0.00000000000E+00  0.00000000000E+00  0.45593999997E+02  0.45594000000E+02  0.51100000000E-03 0. -1.
         11   -1    0    0    0    0 -0.00000000000E+00 -0.00000000000E+00 -0.45593999997E+02  0.45594000000E+02  0.51100000000E-03 0.  1.
         23    2    1    2    0    0  0.00000000000E+00  0.35527136788E-14 -0.35527136788E-14  0.91188000000E+02  0.91188000000E+02 0.  0.
    9900012    2    3    3    0    0 -0.12445351204E+02  0.21505364237E+02 -0.27173747186E+02  0.54367082118E+02  0.39999995306E+02 0.  0.
         12    1    3    3    0    0  0.12445351204E+02 -0.21505364237E+02  0.27173747186E+02  0.36820917882E+02  0.00000000000E+00 0. -1.
         11    1    4    4    0    0 -0.51178404862E+01  0.88042785958E+01  0.85463170569E+01  0.13294628552E+02  0.51100000000E-03 0. -1.
        -11    1    4    4    0    0  0.20376171067E+01  0.77865361000E+01 -0.77658383170E+01  0.11184376287E+02  0.51100000000E-03 0.  1.
         12    1    4    4    0    0 -0.93651278243E+01  0.49145495407E+01 -0.27954225926E+02  0.29888077279E+02  0.00000000000E+00 0. -1.
</event>
<event>
 8    1  0.1280925E-006  0.9118800E+02  0.7816164E-02  0.1184000E+00
        -11   -1    0    0    0    0  0.00000000000E+00  0.00000000000E+00  0.45593999997E+02  0.45594000000E+02  0.51100000000E-03 0.  1.
         11   -1    0    0    0    0 -0.00000000000E+00 -0.00000000000E+00 -0.45593999997E+02  0.45594000000E+02  0.51100000000E-03 0. -1.
         23    2    1    2    0    0  0.00000000000E+00 -0.17763568394E-14  0.17763568394E-14  0.91188000000E+02  0.91188000000E+02 0.  0.
    9900012    2    3    3    0    0  0.33186787837E+02 -0.11641300329E+02  0.10903971578E+02  0.54367090770E+02  0.40000015029E+02 0.  0.
        -12    1    3    3    0    0 -0.33186787837E+02  0.11641300329E+02 -0.10903971578E+02  0.36820909230E+02  0.00000000000E+00 0.  1.
         11    1    4    4    0    0  0.93832730848E+01 -0.87402364226E+01 -0.36790228065E+01  0.13340642997E+02  0.51100000000E-03 0. -1.
        -11    1    4    4    0    0  0.12739196311E+02 -0.16476440460E+02  0.83154047279E+01  0.22425569534E+02  0.51100000000E-03 0.  1.
        -12    1    4    4    0    0  0.11064318442E+02  0.13575376554E+02  0.62675896567E+01  0.18600878239E+02  0.00000000000E+00 0.  1.
</event>
<event>
 8    1  0.1280925E-006  0.9118800E+02  0.7816164E-02  0.1184000E+00
        -11   -1    0    0    0    0  0.00000000000E+00  0.00000000000E+00  0.45593999997E+02  0.45594000000E+02  0.51100000000E-03 0.  1.
         11   -1    0    0    0    0 -0.00000000000E+00 -0.00000000000E+00 -0.45593999997E+02  0.45594000000E+02  0.51100000000E-03 0. -1.
         23    2    1    2    0    0  0.88817841970E-15  0.00000000000E+00  0.00000000000E+00  0.91188000000E+02  0.91188000000E+02 0.  0.
    9900012    2    3    3    0    0 -0.50330767063E+01  0.21398873963E+02  0.29538691887E+02  0.54367109375E+02  0.40000057442E+02 0.  0.
         12    1    3    3    0    0  0.50330767063E+01 -0.21398873963E+02 -0.29538691887E+02  0.36820890625E+02  0.00000000000E+00 0. -1.
         11    1    4    4    0    0 -0.11325978571E+02  0.15994519671E+02  0.25696377189E+02  0.32317274808E+02  0.51100000000E-03 0. -1.
        -11    1    4    4    0    0  0.13280679894E+01  0.97900326572E+01 -0.49426842026E+01  0.11047109640E+02  0.51100000000E-03 0.  1.
         12    1    4    4    0    0  0.49648338750E+01 -0.43856783650E+01  0.87849989009E+01  0.11002724927E+02  0.00000000000E+00 0. -1.
</event>
<event>
 8    1  0.1280925E-006  0.9118800E+02  0.7816164E-02  0.1184000E+00
        -11   -1    0    0    0    0  0.00000000000E+00  0.00000000000E+00  0.45593999997E+02  0.45594000000E+02  0.51100000000E-03 0.  1.
         11   -1    0    0    0    0 -0.00000000000E+00 -0.00000000000E+00 -0.45593999997E+02  0.45594000000E+02  0.51100000000E-03 0. -1.
         23    2    1    2    0    0  0.00000000000E+00  0.35527136788E-14  0.00000000000E+00  0.91188000000E+02  0.91188000000E+02 0.  0.
    9900012    2    3    3    0    0 -0.18736429380E+02 -0.22936289714E+02  0.21878126837E+02  0.54367087387E+02  0.40000007315E+02 0.  0.
         12    1    3    3    0    0  0.18736429380E+02  0.22936289714E+02 -0.21878126837E+02  0.36820912613E+02  0.00000000000E+00 0. -1.
         11    1    4    4    0    0  0.15335887397E+01  0.85941086591E+01  0.15985318260E+01  0.88750156240E+01  0.51100000000E-03 0. -1.
        -11    1    4    4    0    0 -0.18725372107E+02 -0.22949370042E+02  0.84588798722E+01  0.30803665283E+02  0.51100000000E-03 0.  1.
         12    1    4    4    0    0 -0.15446460128E+01 -0.85810283308E+01  0.11820715139E+02  0.14688406480E+02  0.00000000000E+00 0. -1.
</event>
<event>
 8    1  0.1280925E-006  0.9118800E+02  0.7816164E-02  0.1184000E+00
        -11   -1    0    0    0    0  0.00000000000E+00  0.00000000000E+00  0.45593999997E+02  0.45594000000E+02  0.51100000000E-03 0. -1.
         11   -1    0    0    0    0 -0.00000000000E+00 -0.00000000000E+00 -0.45593999997E+02  0.45594000000E+02  0.51100000000E-03 0.  1.
         23    2    1    2    0    0  0.00000000000E+00  0.00000000000E+00  0.22204460493E-14  0.91188000000E+02  0.91188000000E+02 0.  0.
    9900012    2    3    3    0    0 -0.28357081423E+01  0.36535441069E+02  0.35916434664E+01  0.54367087497E+02  0.40000007566E+02 0.  0.
         12    1    3    3    0    0  0.28357081423E+01 -0.36535441069E+02 -0.35916434664E+01  0.36820912503E+02  0.00000000000E+00 0. -1.
         11    1    4    4    0    0  0.12662221357E+00 -0.16688532442E+01  0.50423399706E+01  0.53128426455E+01  0.51100000000E-03 0. -1.
        -11    1    4    4    0    0  0.10547283501E+02  0.13911143099E+02 -0.98133523965E+01  0.20026656662E+02  0.51100000000E-03 0.  1.
        -12    1    4    4    0    0 -0.13509613856E+02  0.24293151215E+02  0.83626558924E+01  0.29027588189E+02  0.00000000000E+00 0.  1.
</event>
<event>
 8    1  0.1280925E-006  0.9118800E+02  0.7816164E-02  0.1184000E+00
        -11   -1    0    0    0    0  0.00000000000E+00  0.00000000000E+00  0.45593999997E+02  0.45594000000E+02  0.51100000000E-03 0.  1.
         11   -1    0    0    0    0 -0.00000000000E+00 -0.00000000000E+00 -0.45593999997E+02  0.45594000000E+02  0.51100000000E-03 0. -1.
         23    2    1    2    0    0  0.00000000000E+00 -0.71054273576E-14  0.00000000000E+00  0.91188000000E+02  0.91188000000E+02 0.  0.
    9900012    2    3    3    0    0  0.22454022740E+02 -0.27563524918E+02 -0.95831891441E+01  0.54367237416E+02  0.40000349335E+02 0.  0.
        -12    1    3    3    0    0 -0.22454022740E+02  0.27563524918E+02  0.95831891441E+01  0.36820762584E+02  0.00000000000E+00 0.  1.
         11    1    4    4    0    0  0.35758380801E+01 -0.11643309805E+02 -0.17698004888E+02  0.21484242097E+02  0.51100000000E-03 0. -1.
        -11    1    4    4    0    0  0.30868269688E+01  0.20741637782E+01 -0.44871574269E+01  0.58279703284E+01  0.51100000000E-03 0.  1.
        -12    1    4    4    0    0  0.15791357691E+02 -0.17994378891E+02  0.12601973171E+02  0.27055024990E+02  0.00000000000E+00 0.  1.
</event>
<event>
 8    1  0.1280925E-006  0.9118800E+02  0.7816164E-02  0.1184000E+00
        -11   -1    0    0    0    0  0.00000000000E+00  0.00000000000E+00  0.45593999997E+02  0.45594000000E+02  0.51100000000E-03 0. -1.
         11   -1    0    0    0    0 -0.00000000000E+00 -0.00000000000E+00 -0.45593999997E+02  0.45594000000E+02  0.51100000000E-03 0.  1.
         23    2    1    2    0    0 -0.88817841970E-15  0.00000000000E+00  0.00000000000E+00  0.91188000000E+02  0.91188000000E+02 0.  0.
    9900012    2    3    3    0    0 -0.44250570183E+01  0.16620773765E+01  0.36516221495E+02  0.54367108334E+02  0.40000055068E+02 0.  0.
        -12    1    3    3    0    0  0.44250570183E+01 -0.16620773765E+01 -0.36516221495E+02  0.36820891666E+02  0.00000000000E+00 0.  1.
         11    1    4    4    0    0  0.10662407875E+02 -0.75660587634E+00  0.22535049769E+02  0.24941689247E+02  0.51100000000E-03 0. -1.
        -11    1    4    4    0    0  0.22314053837E+01  0.74984565396E+01  0.37029849177E+01  0.86555252888E+01  0.51100000000E-03 0.  1.
        -12    1    4    4    0    0 -0.17318870277E+02 -0.50797732868E+01  0.10278186809E+02  0.20769893798E+02  0.00000000000E+00 0.  1.
</event>
<event>
 8    1  0.1280925E-006  0.9118800E+02  0.7816164E-02  0.1184000E+00
        -11   -1    0    0    0    0  0.00000000000E+00  0.00000000000E+00  0.45593999997E+02  0.45594000000E+02  0.51100000000E-03 0. -1.
         11   -1    0    0    0    0 -0.00000000000E+00 -0.00000000000E+00 -0.45593999997E+02  0.45594000000E+02  0.51100000000E-03 0.  1.
         23    2    1    2    0    0  0.00000000000E+00  0.00000000000E+00 -0.35527136788E-14  0.91188000000E+02  0.91188000000E+02 0.  0.
    9900012    2    3    3    0    0  0.23344158865E+02 -0.18185376032E+02  0.21911687951E+02  0.54367085788E+02  0.40000003671E+02 0.  0.
        -12    1    3    3    0    0 -0.23344158865E+02  0.18185376032E+02 -0.21911687951E+02  0.36820914212E+02  0.00000000000E+00 0.  1.
         11    1    4    4    0    0  0.11958823793E+02 -0.86392902879E+01  0.14449768895E+02  0.20650584122E+02  0.51100000000E-03 0. -1.
        -11    1    4    4    0    0 -0.51951358635E+01 -0.87420098881E+01  0.12736982904E+02  0.16298555374E+02  0.51100000000E-03 0.  1.
        -12    1    4    4    0    0  0.16580470936E+02 -0.80407585628E+00 -0.52750638485E+01  0.17417946292E+02  0.00000000000E+00 0.  1.
</event>
<event>
 8    1  0.1280925E-006  0.9118800E+02  0.7816164E-02  0.1184000E+00
        -11   -1    0    0    0    0  0.00000000000E+00  0.00000000000E+00  0.45593999997E+02  0.45594000000E+02  0.51100000000E-03 0. -1.
         11   -1    0    0    0    0 -0.00000000000E+00 -0.00000000000E+00 -0.45593999997E+02  0.45594000000E+02  0.51100000000E-03 0.  1.
         23    2    1    2    0    0 -0.35527136788E-14  0.00000000000E+00  0.00000000000E+00  0.91188000000E+02  0.91188000000E+02 0.  0.
    9900012    2    3    3    0    0 -0.25037247639E+02  0.16915060745E+02 -0.21042667192E+02  0.54367124238E+02  0.40000091325E+02 0.  0.
         12    1    3    3    0    0  0.25037247639E+02 -0.16915060745E+02  0.21042667192E+02  0.36820875762E+02  0.00000000000E+00 0. -1.
         11    1    4    4    0    0 -0.13116469447E+02  0.12907406547E+02 -0.81754488816E+00  0.18420404296E+02  0.51100000000E-03 0.  1.
        -11    1    4    4    0    0 -0.11829133156E+01 -0.55833742766E+01  0.45452356777E+01  0.72960619413E+01  0.51100000000E-03 0. -1.
        -12    1    4    4    0    0 -0.10737864877E+02  0.95910284743E+01 -0.24770357982E+02  0.28650658000E+02  0.00000000000E+00 0.  1.
</event>
<event>
 8    1  0.1280925E-006  0.9118800E+02  0.7816164E-02  0.1184000E+00
        -11   -1    0    0    0    0  0.00000000000E+00  0.00000000000E+00  0.45593999997E+02  0.45594000000E+02  0.51100000000E-03 0.  1.
         11   -1    0    0    0    0 -0.00000000000E+00 -0.00000000000E+00 -0.45593999997E+02  0.45594000000E+02  0.51100000000E-03 0. -1.
         23    2    1    2    0    0  0.00000000000E+00  0.00000000000E+00  0.17763568394E-14  0.91188000000E+02  0.91188000000E+02 0.  0.
    9900012    2    3    3    0    0  0.30493120670E+02  0.20464596468E+02 -0.26739131570E+01  0.54367083005E+02  0.39999997327E+02 0.  0.
         12    1    3    3    0    0 -0.30493120670E+02 -0.20464596468E+02  0.26739131570E+01  0.36820916995E+02  0.00000000000E+00 0. -1.
         11    1    4    4    0    0  0.43422452654E+01 -0.42630503472E-01  0.49879758106E+01  0.66133814538E+01  0.51100000000E-03 0. -1.
        -11    1    4    4    0    0  0.23227384966E+01  0.15008326725E+02  0.94679373617E+01  0.17896558981E+02  0.51100000000E-03 0.  1.
         12    1    4    4    0    0  0.23828136908E+02  0.54989002472E+01 -0.17129826329E+02  0.29857142571E+02  0.00000000000E+00 0. -1.
</event>
<event>
 8    1  0.1280925E-006  0.9118800E+02  0.7816164E-02  0.1184000E+00
        -11   -1    0    0    0    0  0.00000000000E+00  0.00000000000E+00  0.45593999997E+02  0.45594000000E+02  0.51100000000E-03 0. -1.
         11   -1    0    0    0    0 -0.00000000000E+00 -0.00000000000E+00 -0.45593999997E+02  0.45594000000E+02  0.51100000000E-03 0.  1.
         23    2    1    2    0    0  0.71054273576E-14  0.17763568394E-14  0.00000000000E+00  0.91188000000E+02  0.91188000000E+02 0.  0.
    9900012    2    3    3    0    0 -0.32634524583E+02  0.13101360046E+02 -0.10914231257E+02  0.54367105474E+02  0.40000048549E+02 0.  0.
         12    1    3    3    0    0  0.32634524583E+02 -0.13101360046E+02  0.10914231257E+02  0.36820894526E+02  0.00000000000E+00 0. -1.
         11    1    4    4    0    0 -0.82327108115E+01  0.17707995806E+02  0.51545956359E+01  0.20197041843E+02  0.51100000000E-03 0. -1.
        -11    1    4    4    0    0 -0.39734324804E+01 -0.15184773461E+01 -0.12499584646E+02  0.13203543301E+02  0.51100000000E-03 0.  1.
         12    1    4    4    0    0 -0.20428381291E+02 -0.30881584137E+01 -0.35692422469E+01  0.20966520330E+02  0.00000000000E+00 0. -1.
</event>
<event>
 8    1  0.1280925E-006  0.9118800E+02  0.7816164E-02  0.1184000E+00
        -11   -1    0    0    0    0  0.00000000000E+00  0.00000000000E+00  0.45593999997E+02  0.45594000000E+02  0.51100000000E-03 0.  1.
         11   -1    0    0    0    0 -0.00000000000E+00 -0.00000000000E+00 -0.45593999997E+02  0.45594000000E+02  0.51100000000E-03 0. -1.
         23    2    1    2    0    0  0.35527136788E-14  0.00000000000E+00  0.00000000000E+00  0.91188000000E+02  0.91188000000E+02 0.  0.
    9900012    2    3    3    0    0  0.26068992583E+02 -0.24667662270E+02 -0.82276656232E+01  0.54367076359E+02  0.39999982175E+02 0.  0.
        -12    1    3    3    0    0 -0.26068992583E+02  0.24667662270E+02  0.82276656232E+01  0.36820923641E+02  0.00000000000E+00 0.  1.
         11    1    4    4    0    0 -0.39071164051E+01 -0.45465070066E+01 -0.16441369175E+01  0.62160655586E+01  0.51100000000E-03 0.  1.
        -11    1    4    4    0    0  0.15124365055E+02 -0.12505876527E+02  0.12133667260E+02  0.23073128255E+02  0.51100000000E-03 0. -1.
         12    1    4    4    0    0  0.14851743933E+02 -0.76152787372E+01 -0.18717195966E+02  0.25077882545E+02  0.00000000000E+00 0. -1.
</event>
<event>
 8    1  0.1280925E-006  0.9118800E+02  0.7816164E-02  0.1184000E+00
        -11   -1    0    0    0    0  0.00000000000E+00  0.00000000000E+00  0.45593999997E+02  0.45594000000E+02  0.51100000000E-03 0.  1.
         11   -1    0    0    0    0 -0.00000000000E+00 -0.00000000000E+00 -0.45593999997E+02  0.45594000000E+02  0.51100000000E-03 0. -1.
         23    2    1    2    0    0  0.00000000000E+00  0.17763568394E-14  0.00000000000E+00  0.91188000000E+02  0.91188000000E+02 0.  0.
    9900012    2    3    3    0    0  0.25875398444E+02  0.10352380977E+02 -0.24063888339E+02  0.54367098890E+02  0.40000033540E+02 0.  0.
        -12    1    3    3    0    0 -0.25875398444E+02 -0.10352380977E+02  0.24063888339E+02  0.36820901110E+02  0.00000000000E+00 0.  1.
         11    1    4    4    0    0 -0.50671780618E+00  0.24141966447E+01 -0.20691567683E+02  0.20838092087E+02  0.51100000000E-03 0. -1.
        -11    1    4    4    0    0  0.10061135620E+02  0.11934463029E+02  0.23346839086E+01  0.15783174806E+02  0.51100000000E-03 0.  1.
        -12    1    4    4    0    0  0.16320980631E+02 -0.39962786965E+01 -0.57070045648E+01  0.17745831997E+02  0.00000000000E+00 0.  1.
</event>
<event>
 8    1  0.1280925E-006  0.9118800E+02  0.7816164E-02  0.1184000E+00
        -11   -1    0    0    0    0  0.00000000000E+00  0.00000000000E+00  0.45593999997E+02  0.45594000000E+02  0.51100000000E-03 0. -1.
         11   -1    0    0    0    0 -0.00000000000E+00 -0.00000000000E+00 -0.45593999997E+02  0.45594000000E+02  0.51100000000E-03 0.  1.
         23    2    1    2    0    0  0.00000000000E+00  0.00000000000E+00  0.00000000000E+00  0.91188000000E+02  0.91188000000E+02 0.  0.
    9900012    2    3    3    0    0  0.28010835451E+02 -0.14331946530E+02  0.19125066917E+02  0.54367085039E+02  0.40000001964E+02 0.  0.
        -12    1    3    3    0    0 -0.28010835451E+02  0.14331946530E+02 -0.19125066917E+02  0.36820914961E+02  0.00000000000E+00 0.  1.
         11    1    4    4    0    0  0.16821800667E+02 -0.15501918253E+02  0.24634591130E+01  0.23007630870E+02  0.51100000000E-03 0.  1.
        -11    1    4    4    0    0  0.12615720116E+02  0.79244834810E+01  0.18430084902E+01  0.15011679221E+02  0.51100000000E-03 0. -1.
        -12    1    4    4    0    0 -0.14266853317E+01 -0.67545117579E+01  0.14818599314E+02  0.16347774948E+02  0.00000000000E+00 0.  1.
</event>
<event>
 8    1  0.1280925E-006  0.9118800E+02  0.7816164E-02  0.1184000E+00
        -11   -1    0    0    0    0  0.00000000000E+00  0.00000000000E+00  0.45593999997E+02  0.45594000000E+02  0.51100000000E-03 0.  1.
         11   -1    0    0    0    0 -0.00000000000E+00 -0.00000000000E+00 -0.45593999997E+02  0.45594000000E+02  0.51100000000E-03 0. -1.
         23    2    1    2    0    0  0.00000000000E+00 -0.44408920985E-15  0.00000000000E+00  0.91188000000E+02  0.91188000000E+02 0.  0.
    9900012    2    3    3    0    0 -0.64450508578E+01 -0.16623533917E+01  0.36214340756E+02  0.54367074213E+02  0.39999977284E+02 0.  0.
         12    1    3    3    0    0  0.64450508578E+01  0.16623533917E+01 -0.36214340756E+02  0.36820925787E+02  0.00000000000E+00 0. -1.
         11    1    4    4    0    0 -0.12890516626E+02 -0.14282631817E+01  0.11759913408E+02  0.17507167624E+02  0.51100000000E-03 0. -1.
        -11    1    4    4    0    0 -0.99047753463E+01 -0.45773044297E-01  0.40221508001E+01  0.10690386670E+02  0.51100000000E-03 0.  1.
        -12    1    4    4    0    0  0.16350241114E+02 -0.18831716570E+00  0.20432276549E+02  0.26169519919E+02  0.00000000000E+00 0.  1.
</event>
<event>
 8    1  0.1280925E-006  0.9118800E+02  0.7816164E-02  0.1184000E+00
        -11   -1    0    0    0    0  0.00000000000E+00  0.00000000000E+00  0.45593999997E+02  0.45594000000E+02  0.51100000000E-03 0. -1.
         11   -1    0    0    0    0 -0.00000000000E+00 -0.00000000000E+00 -0.45593999997E+02  0.45594000000E+02  0.51100000000E-03 0.  1.
         23    2    1    2    0    0 -0.17763568394E-14  0.00000000000E+00  0.00000000000E+00  0.91188000000E+02  0.91188000000E+02 0.  0.
    9900012    2    3    3    0    0 -0.80535144401E+01 -0.30013495968E+02  0.19751221706E+02  0.54367084830E+02  0.40000001487E+02 0.  0.
        -12    1    3    3    0    0  0.80535144401E+01  0.30013495968E+02 -0.19751221706E+02  0.36820915170E+02  0.00000000000E+00 0.  1.
         11    1    4    4    0    0 -0.15611417372E+02 -0.25021289114E+02  0.12336852080E+02  0.31968409106E+02  0.51100000000E-03 0. -1.
        -11    1    4    4    0    0  0.13439000342E+02 -0.65944970421E+01  0.44278238420E+01  0.15610885486E+02  0.51100000000E-03 0.  1.
        -12    1    4    4    0    0 -0.58810974098E+01  0.16022901876E+01  0.29865457845E+01  0.67877902378E+01  0.00000000000E+00 0.  1.
</event>
<event>
 8    1  0.1280925E-006  0.9118800E+02  0.7816164E-02  0.1184000E+00
        -11   -1    0    0    0    0  0.00000000000E+00  0.00000000000E+00  0.45593999997E+02  0.45594000000E+02  0.51100000000E-03 0.  1.
         11   -1    0    0    0    0 -0.00000000000E+00 -0.00000000000E+00 -0.45593999997E+02  0.45594000000E+02  0.51100000000E-03 0. -1.
         23    2    1    2    0    0  0.00000000000E+00  0.00000000000E+00 -0.17763568394E-14  0.91188000000E+02  0.91188000000E+02 0.  0.
    9900012    2    3    3    0    0 -0.35734622569E+02 -0.80415254082E+01  0.37615066515E+01  0.54367104936E+02  0.40000047323E+02 0.  0.
        -12    1    3    3    0    0  0.35734622569E+02  0.80415254082E+01 -0.37615066515E+01  0.36820895064E+02  0.00000000000E+00 0.  1.
         11    1    4    4    0    0 -0.19187189315E+02  0.21916784418E+01  0.95277894851E+01  0.21534401801E+02  0.51100000000E-03 0. -1.
        -11    1    4    4    0    0 -0.25193818077E+01  0.51352386337E+01 -0.10072888030E+02  0.11583653743E+02  0.51100000000E-03 0.  1.
         12    1    4    4    0    0 -0.14028051446E+02 -0.15368442484E+02  0.43066051963E+01  0.21249049392E+02  0.00000000000E+00 0. -1.
</event>
<event>
 8    1  0.1280925E-006  0.9118800E+02  0.7816164E-02  0.1184000E+00
        -11   -1    0    0    0    0  0.00000000000E+00  0.00000000000E+00  0.45593999997E+02  0.45594000000E+02  0.51100000000E-03 0.  1.
         11   -1    0    0    0    0 -0.00000000000E+00 -0.00000000000E+00 -0.45593999997E+02  0.45594000000E+02  0.51100000000E-03 0. -1.
         23    2    1    2    0    0 -0.71054273576E-14 -0.13322676296E-14  0.00000000000E+00  0.91188000000E+02  0.91188000000E+02 0.  0.
    9900012    2    3    3    0    0 -0.35184449840E+02  0.25613248225E+01  0.10548595894E+02  0.54367098725E+02  0.40000033162E+02 0.  0.
         12    1    3    3    0    0  0.35184449840E+02 -0.25613248225E+01 -0.10548595894E+02  0.36820901275E+02  0.00000000000E+00 0. -1.
         11    1    4    4    0    0  0.24881846293E+01 -0.80695230920E+01 -0.11657355835E+01  0.85245061672E+01  0.51100000000E-03 0.  1.
        -11    1    4    4    0    0 -0.15669089146E+02  0.25159564041E+01  0.15386993593E+02  0.22104523596E+02  0.51100000000E-03 0. -1.
         12    1    4    4    0    0 -0.22003545323E+02  0.81148915105E+01 -0.36726621153E+01  0.23738068961E+02  0.00000000000E+00 0. -1.
</event>
<event>
 8    1  0.1280925E-006  0.9118800E+02  0.7816164E-02  0.1184000E+00
        -11   -1    0    0    0    0  0.00000000000E+00  0.00000000000E+00  0.45593999997E+02  0.45594000000E+02  0.51100000000E-03 0.  1.
         11   -1    0    0    0    0 -0.00000000000E+00 -0.00000000000E+00 -0.45593999997E+02  0.45594000000E+02  0.51100000000E-03 0. -1.
         23    2    1    2    0    0  0.00000000000E+00  0.35527136788E-14  0.00000000000E+00  0.91188000000E+02  0.91188000000E+02 0.  0.
    9900012    2    3    3    0    0 -0.21343594563E+02  0.23210931143E+02  0.19012719926E+02  0.54367083765E+02  0.39999999059E+02 0.  0.
         12    1    3    3    0    0  0.21343594563E+02 -0.23210931143E+02 -0.19012719926E+02  0.36820916235E+02  0.00000000000E+00 0. -1.
         11    1    4    4    0    0 -0.25555561832E+02 -0.58669708301E+00  0.15533851976E+02  0.29912062976E+02  0.51100000000E-03 0.  1.
        -11    1    4    4    0    0  0.16209063910E+01  0.57904892214E+01  0.94079594730E+00  0.60862303790E+01  0.51100000000E-03 0. -1.
        -12    1    4    4    0    0  0.25910608782E+01  0.18007139005E+02  0.25380720027E+01  0.18368790410E+02  0.00000000000E+00 0.  1.
</event>
<event>
 8    1  0.1280925E-006  0.9118800E+02  0.7816164E-02  0.1184000E+00
        -11   -1    0    0    0    0  0.00000000000E+00  0.00000000000E+00  0.45593999997E+02  0.45594000000E+02  0.51100000000E-03 0.  1.
         11   -1    0    0    0    0 -0.00000000000E+00 -0.00000000000E+00 -0.45593999997E+02  0.45594000000E+02  0.51100000000E-03 0. -1.
         23    2    1    2    0    0  0.71054273576E-14  0.44408920985E-15  0.00000000000E+00  0.91188000000E+02  0.91188000000E+02 0.  0.
    9900012    2    3    3    0    0 -0.29210519344E+02  0.32739275934E+01 -0.22176702648E+02  0.54367093132E+02  0.40000020413E+02 0.  0.
        -12    1    3    3    0    0  0.29210519344E+02 -0.32739275934E+01  0.22176702648E+02  0.36820906868E+02  0.00000000000E+00 0.  1.
         11    1    4    4    0    0 -0.58468636338E+01 -0.72523658031E+01 -0.23704154894E+02  0.25468992590E+02  0.51100000000E-03 0. -1.
        -11    1    4    4    0    0 -0.68176765613E+01  0.29488461981E+01 -0.56527002689E+01  0.93343145536E+01  0.51100000000E-03 0.  1.
        -12    1    4    4    0    0 -0.16545979149E+02  0.75774471984E+01  0.71801525144E+01  0.19563785988E+02  0.00000000000E+00 0.  1.
</event>
<event>
 8    1  0.1280925E-006  0.9118800E+02  0.7816164E-02  0.1184000E+00
        -11   -1    0    0    0    0  0.00000000000E+00  0.00000000000E+00  0.45593999997E+02  0.45594000000E+02  0.51100000000E-03 0. -1.
         11   -1    0    0    0    0 -0.00000000000E+00 -0.00000000000E+00 -0.45593999997E+02  0.45594000000E+02  0.51100000000E-03 0.  1.
         23    2    1    2    0    0 -0.71054273576E-14  0.00000000000E+00  0.44408920985E-15  0.91188000000E+02  0.91188000000E+02 0.  0.
    9900012    2    3    3    0    0  0.34299403881E+02 -0.13209513243E+02 -0.21999510107E+01  0.54367080251E+02  0.39999991048E+02 0.  0.
        -12    1    3    3    0    0 -0.34299403881E+02  0.13209513243E+02  0.21999510107E+01  0.36820919749E+02  0.00000000000E+00 0.  1.
         11    1    4    4    0    0  0.17848639893E+02 -0.23791528605E+02  0.32510822466E+01  0.29919564092E+02  0.51100000000E-03 0. -1.
        -11    1    4    4    0    0  0.18787914344E+02  0.87947872578E+01 -0.38527370963E+01  0.21099232017E+02  0.51100000000E-03 0.  1.
         12    1    4    4    0    0 -0.23371503553E+01  0.17872281043E+01 -0.15982961610E+01  0.33482841424E+01  0.00000000000E+00 0. -1.
</event>
<event>
 8    1  0.1280925E-006  0.9118800E+02  0.7816164E-02  0.1184000E+00
        -11   -1    0    0    0    0  0.00000000000E+00  0.00000000000E+00  0.45593999997E+02  0.45594000000E+02  0.51100000000E-03 0.  1.
         11   -1    0    0    0    0 -0.00000000000E+00 -0.00000000000E+00 -0.45593999997E+02  0.45594000000E+02  0.51100000000E-03 0. -1.
         23    2    1    2    0    0  0.17763568394E-14  0.00000000000E+00  0.00000000000E+00  0.91188000000E+02  0.91188000000E+02 0.  0.
    9900012    2    3    3    0    0  0.88968128533E+01  0.24974290293E+02 -0.25552121773E+02  0.54367090429E+02  0.40000014250E+02 0.  0.
        -12    1    3    3    0    0 -0.88968128533E+01 -0.24974290293E+02  0.25552121773E+02  0.36820909571E+02  0.00000000000E+00 0.  1.
         11    1    4    4    0    0 -0.18845347986E+01  0.48660436997E+01 -0.76478511466E+01  0.92584815232E+01  0.51100000000E-03 0. -1.
        -11    1    4    4    0    0  0.21992772635E+02  0.67650499409E+01 -0.14928761194E+02  0.27428376910E+02  0.51100000000E-03 0.  1.
        -12    1    4    4    0    0 -0.11211424983E+02  0.13343196652E+02 -0.29755094326E+01  0.17680231996E+02  0.00000000000E+00 0.  1.
</event>
<event>
 8    1  0.1280925E-006  0.9118800E+02  0.7816164E-02  0.1184000E+00
        -11   -1    0    0    0    0  0.00000000000E+00  0.00000000000E+00  0.45593999997E+02  0.45594000000E+02  0.51100000000E-03 0.  1.
         11   -1    0    0    0    0 -0.00000000000E+00 -0.00000000000E+00 -0.45593999997E+02  0.45594000000E+02  0.51100000000E-03 0. -1.
         23    2    1    2    0    0  0.00000000000E+00  0.00000000000E+00  0.00000000000E+00  0.91188000000E+02  0.91188000000E+02 0.  0.
    9900012    2    3    3    0    0  0.20516467207E+02  0.26698218735E+02  0.14901671828E+02  0.54367080219E+02  0.39999990974E+02 0.  0.
         12    1    3    3    0    0 -0.20516467207E+02 -0.26698218735E+02 -0.14901671828E+02  0.36820919781E+02  0.00000000000E+00 0. -1.
         11    1    4    4    0    0  0.20085762869E+01 -0.86697888065E+01 -0.36508107163E+01  0.96191494321E+01  0.51100000000E-03 0. -1.
        -11    1    4    4    0    0  0.34236714159E+01  0.14055352458E+02  0.48323502801E+01  0.15252084060E+02  0.51100000000E-03 0.  1.
         12    1    4    4    0    0  0.15084219504E+02  0.21312655084E+02  0.13720132264E+02  0.29495846727E+02  0.00000000000E+00 0. -1.
</event>
<event>
 8    1  0.1280925E-006  0.9118800E+02  0.7816164E-02  0.1184000E+00
        -11   -1    0    0    0    0  0.00000000000E+00  0.00000000000E+00  0.45593999997E+02  0.45594000000E+02  0.51100000000E-03 0.  1.
         11   -1    0    0    0    0 -0.00000000000E+00 -0.00000000000E+00 -0.45593999997E+02  0.45594000000E+02  0.51100000000E-03 0. -1.
         23    2    1    2    0    0 -0.17763568394E-14 -0.71054273576E-14 -0.35527136788E-14  0.91188000000E+02  0.91188000000E+02 0.  0.
    9900012    2    3    3    0    0  0.12357788773E+02  0.31665531131E+02  0.14154773391E+02  0.54367103557E+02  0.40000044178E+02 0.  0.
         12    1    3    3    0    0 -0.12357788773E+02 -0.31665531131E+02 -0.14154773391E+02  0.36820896443E+02  0.00000000000E+00 0. -1.
         11    1    4    4    0    0  0.62041521515E+01  0.29955323094E+02  0.35670536078E+00  0.30593138521E+02  0.51100000000E-03 0. -1.
        -11    1    4    4    0    0  0.22794299565E+01  0.84741987699E+01  0.10587304667E+01  0.88390472440E+01  0.51100000000E-03 0.  1.
         12    1    4    4    0    0  0.38742066650E+01 -0.67639907327E+01  0.12739337563E+02  0.14934917792E+02  0.00000000000E+00 0. -1.
</event>
<event>
 8    1  0.1280925E-006  0.9118800E+02  0.7816164E-02  0.1184000E+00
        -11   -1    0    0    0    0  0.00000000000E+00  0.00000000000E+00  0.45593999997E+02  0.45594000000E+02  0.51100000000E-03 0.  1.
         11   -1    0    0    0    0 -0.00000000000E+00 -0.00000000000E+00 -0.45593999997E+02  0.45594000000E+02  0.51100000000E-03 0. -1.
         23    2    1    2    0    0  0.17763568394E-14  0.00000000000E+00  0.00000000000E+00  0.91188000000E+02  0.91188000000E+02 0.  0.
    9900012    2    3    3    0    0 -0.10034664956E+02 -0.26452001237E+02 -0.23566436553E+02  0.54367084720E+02  0.40000001236E+02 0.  0.
        -12    1    3    3    0    0  0.10034664956E+02  0.26452001237E+02  0.23566436553E+02  0.36820915280E+02  0.00000000000E+00 0.  1.
         11    1    4    4    0    0 -0.12476108062E+02 -0.85435746801E+01  0.23971741869E+01  0.15309878674E+02  0.51100000000E-03 0. -1.
        -11    1    4    4    0    0 -0.72988891013E+01 -0.30648646606E+01 -0.39113032043E+00  0.79259170251E+01  0.51100000000E-03 0.  1.
         12    1    4    4    0    0  0.97403322063E+01 -0.14843561896E+02 -0.25572480420E+02  0.31131289021E+02  0.00000000000E+00 0. -1.
</event>
<event>
 8    1  0.1280925E-006  0.9118800E+02  0.7816164E-02  0.1184000E+00
        -11   -1    0    0    0    0  0.00000000000E+00  0.00000000000E+00  0.45593999997E+02  0.45594000000E+02  0.51100000000E-03 0. -1.
         11   -1    0    0    0    0 -0.00000000000E+00 -0.00000000000E+00 -0.45593999997E+02  0.45594000000E+02  0.51100000000E-03 0.  1.
         23    2    1    2    0    0  0.71054273576E-14  0.00000000000E+00  0.00000000000E+00  0.91188000000E+02  0.91188000000E+02 0.  0.
    9900012    2    3    3    0    0 -0.32903633923E+02  0.15127934535E+02  0.66542236404E+01  0.54367051874E+02  0.39999926358E+02 0.  0.
        -12    1    3    3    0    0  0.32903633923E+02 -0.15127934535E+02 -0.66542236404E+01  0.36820948126E+02  0.00000000000E+00 0.  1.
         11    1    4    4    0    0 -0.64288457078E+01  0.83551935032E+01  0.11280577694E+02  0.15439907674E+02  0.51100000000E-03 0. -1.
        -11    1    4    4    0    0  0.31512695978E+01 -0.45941183550E+01 -0.45535673975E+01  0.71952345231E+01  0.51100000000E-03 0.  1.
         12    1    4    4    0    0 -0.29626057813E+02  0.11366859387E+02 -0.72786656128E-01  0.31731909677E+02  0.00000000000E+00 0. -1.
</event>
<event>
 8    1  0.1280925E-006  0.9118800E+02  0.7816164E-02  0.1184000E+00
        -11   -1    0    0    0    0  0.00000000000E+00  0.00000000000E+00  0.45593999997E+02  0.45594000000E+02  0.51100000000E-03 0.  1.
         11   -1    0    0    0    0 -0.00000000000E+00 -0.00000000000E+00 -0.45593999997E+02  0.45594000000E+02  0.51100000000E-03 0. -1.
         23    2    1    2    0    0  0.00000000000E+00  0.00000000000E+00  0.00000000000E+00  0.91188000000E+02  0.91188000000E+02 0.  0.
    9900012    2    3    3    0    0 -0.18842355703E+02  0.23252872721E+02 -0.21448736323E+02  0.54367099032E+02  0.40000033864E+02 0.  0.
        -12    1    3    3    0    0  0.18842355703E+02 -0.23252872721E+02  0.21448736323E+02  0.36820900968E+02  0.00000000000E+00 0.  1.
         11    1    4    4    0    0 -0.27639148355E+02  0.19484638931E+02 -0.37134335926E+01  0.34020042113E+02  0.51100000000E-03 0. -1.
        -11    1    4    4    0    0  0.36623083792E+01  0.27218980643E+01 -0.10142114611E+02  0.11121318303E+02  0.51100000000E-03 0.  1.
         12    1    4    4    0    0  0.51344842731E+01  0.10463357249E+01 -0.75931881194E+01  0.92257386163E+01  0.00000000000E+00 0. -1.
</event>
<event>
 8    1  0.1280925E-006  0.9118800E+02  0.7816164E-02  0.1184000E+00
        -11   -1    0    0    0    0  0.00000000000E+00  0.00000000000E+00  0.45593999997E+02  0.45594000000E+02  0.51100000000E-03 0. -1.
         11   -1    0    0    0    0 -0.00000000000E+00 -0.00000000000E+00 -0.45593999997E+02  0.45594000000E+02  0.51100000000E-03 0.  1.
         23    2    1    2    0    0  0.35527136788E-14  0.88817841970E-15 -0.35527136788E-14  0.91188000000E+02  0.91188000000E+02 0.  0.
    9900012    2    3    3    0    0  0.22395320306E+02  0.21895622922E+01 -0.29145052560E+02  0.54367100455E+02  0.40000037106E+02 0.  0.
         12    1    3    3    0    0 -0.22395320306E+02 -0.21895622922E+01  0.29145052560E+02  0.36820899545E+02  0.00000000000E+00 0. -1.
         11    1    4    4    0    0  0.14133038878E+02  0.13644952101E+02 -0.93720725043E+01  0.21766103213E+02  0.51100000000E-03 0. -1.
        -11    1    4    4    0    0  0.58856210050E+01  0.58816783977E+01 -0.50600353733E+01  0.97385129065E+01  0.51100000000E-03 0.  1.
        -12    1    4    4    0    0  0.23766604225E+01 -0.17337068207E+02 -0.14712944682E+02  0.22862484335E+02  0.00000000000E+00 0.  1.
</event>
<event>
 8    1  0.1280925E-006  0.9118800E+02  0.7816164E-02  0.1184000E+00
        -11   -1    0    0    0    0  0.00000000000E+00  0.00000000000E+00  0.45593999997E+02  0.45594000000E+02  0.51100000000E-03 0. -1.
         11   -1    0    0    0    0 -0.00000000000E+00 -0.00000000000E+00 -0.45593999997E+02  0.45594000000E+02  0.51100000000E-03 0.  1.
         23    2    1    2    0    0  0.00000000000E+00  0.44408920985E-15  0.00000000000E+00  0.91188000000E+02  0.91188000000E+02 0.  0.
    9900012    2    3    3    0    0 -0.36332649879E+02  0.15002385672E+01  0.57850506602E+01  0.54367095962E+02  0.40000026865E+02 0.  0.
        -12    1    3    3    0    0  0.36332649879E+02 -0.15002385672E+01 -0.57850506602E+01  0.36820904038E+02  0.00000000000E+00 0.  1.
         11    1    4    4    0    0 -0.18713844021E+02 -0.56777614748E+01  0.75583458534E+01  0.20966008817E+02  0.51100000000E-03 0. -1.
        -11    1    4    4    0    0  0.43379789548E+01  0.24681204162E+01  0.75793763902E+01  0.90750551803E+01  0.51100000000E-03 0.  1.
        -12    1    4    4    0    0 -0.21956784813E+02  0.47098796258E+01 -0.93526715834E+01  0.24326031965E+02  0.00000000000E+00 0.  1.
</event>
<event>
 8    1  0.1280925E-006  0.9118800E+02  0.7816164E-02  0.1184000E+00
        -11   -1    0    0    0    0  0.00000000000E+00  0.00000000000E+00  0.45593999997E+02  0.45594000000E+02  0.51100000000E-03 0.  1.
         11   -1    0    0    0    0 -0.00000000000E+00 -0.00000000000E+00 -0.45593999997E+02  0.45594000000E+02  0.51100000000E-03 0. -1.
         23    2    1    2    0    0  0.00000000000E+00  0.00000000000E+00  0.35527136788E-14  0.91188000000E+02  0.91188000000E+02 0.  0.
    9900012    2    3    3    0    0  0.27108213386E+02  0.17477517087E+02  0.17761224160E+02  0.54367083116E+02  0.39999997580E+02 0.  0.
         12    1    3    3    0    0 -0.27108213386E+02 -0.17477517087E+02 -0.17761224160E+02  0.36820916884E+02  0.00000000000E+00 0. -1.
         11    1    4    4    0    0  0.43795803483E+01  0.10955241107E+02 -0.50052537729E+01  0.12816028922E+02  0.51100000000E-03 0. -1.
        -11    1    4    4    0    0  0.14052165643E+02 -0.79073134476E+01  0.45688839160E+01  0.16758987610E+02  0.51100000000E-03 0.  1.
         12    1    4    4    0    0  0.86764673951E+01  0.14429589428E+02  0.18197594017E+02  0.24792066584E+02  0.00000000000E+00 0. -1.
</event>
<event>
 8    1  0.1280925E-006  0.9118800E+02  0.7816164E-02  0.1184000E+00
        -11   -1    0    0    0    0  0.00000000000E+00  0.00000000000E+00  0.45593999997E+02  0.45594000000E+02  0.51100000000E-03 0.  1.
         11   -1    0    0    0    0 -0.00000000000E+00 -0.00000000000E+00 -0.45593999997E+02  0.45594000000E+02  0.51100000000E-03 0. -1.
         23    2    1    2    0    0  0.00000000000E+00  0.35527136788E-14  0.00000000000E+00  0.91188000000E+02  0.91188000000E+02 0.  0.
    9900012    2    3    3    0    0  0.12713472189E+02 -0.24143271421E+02 -0.24723413246E+02  0.54367121513E+02  0.40000085113E+02 0.  0.
        -12    1    3    3    0    0 -0.12713472189E+02  0.24143271421E+02  0.24723413246E+02  0.36820878487E+02  0.00000000000E+00 0.  1.
         11    1    4    4    0    0 -0.12222616111E+01 -0.25245719748E+02 -0.12494809316E+02  0.28195044762E+02  0.51100000000E-03 0. -1.
        -11    1    4    4    0    0  0.11952922919E+02  0.51614269271E+01  0.12302638356E+00  0.13020285326E+02  0.51100000000E-03 0.  1.
         12    1    4    4    0    0  0.19828108818E+01 -0.40589786004E+01 -0.12351630314E+02  0.13151791425E+02  0.00000000000E+00 0. -1.
</event>
<event>
 8    1  0.1280925E-006  0.9118800E+02  0.7816164E-02  0.1184000E+00
        -11   -1    0    0    0    0  0.00000000000E+00  0.00000000000E+00  0.45593999997E+02  0.45594000000E+02  0.51100000000E-03 0.  1.
         11   -1    0    0    0    0 -0.00000000000E+00 -0.00000000000E+00 -0.45593999997E+02  0.45594000000E+02  0.51100000000E-03 0. -1.
         23    2    1    2    0    0  0.71054273576E-14  0.00000000000E+00  0.00000000000E+00  0.91188000000E+02  0.91188000000E+02 0.  0.
    9900012    2    3    3    0    0 -0.34254878962E+02 -0.40724487615E+01 -0.12876231016E+02  0.54367097013E+02  0.40000029260E+02 0.  0.
         12    1    3    3    0    0  0.34254878962E+02  0.40724487615E+01  0.12876231016E+02  0.36820902987E+02  0.00000000000E+00 0. -1.
         11    1    4    4    0    0  0.19286071307E+01  0.34675076796E+00  0.97384628970E-02  0.19595552195E+01  0.51100000000E-03 0. -1.
        -11    1    4    4    0    0 -0.54013883143E+01  0.49522093834E+01  0.10375888946E+02  0.12702694406E+02  0.51100000000E-03 0.  1.
         12    1    4    4    0    0 -0.30782097779E+02 -0.93714089129E+01 -0.23261858424E+02  0.39704847387E+02  0.00000000000E+00 0. -1.
</event>
<event>
 8    1  0.1280925E-006  0.9118800E+02  0.7816164E-02  0.1184000E+00
        -11   -1    0    0    0    0  0.00000000000E+00  0.00000000000E+00  0.45593999997E+02  0.45594000000E+02  0.51100000000E-03 0. -1.
         11   -1    0    0    0    0 -0.00000000000E+00 -0.00000000000E+00 -0.45593999997E+02  0.45594000000E+02  0.51100000000E-03 0.  1.
         23    2    1    2    0    0  0.00000000000E+00  0.00000000000E+00 -0.35527136788E-14  0.91188000000E+02  0.91188000000E+02 0.  0.
    9900012    2    3    3    0    0 -0.17596509872E+02 -0.75704271443E+01 -0.31445702014E+02  0.54367072500E+02  0.39999973378E+02 0.  0.
         12    1    3    3    0    0  0.17596509872E+02  0.75704271443E+01  0.31445702014E+02  0.36820927500E+02  0.00000000000E+00 0. -1.
         11    1    4    4    0    0 -0.64044974211E+01 -0.98262495685E+01  0.34734011901E+01  0.12232631928E+02  0.51100000000E-03 0. -1.
        -11    1    4    4    0    0 -0.16531190471E+02 -0.80296066960E+00 -0.29976013622E+02  0.34241588706E+02  0.51100000000E-03 0.  1.
         12    1    4    4    0    0  0.53391780202E+01  0.30587830938E+01 -0.49430895825E+01  0.78928518653E+01  0.00000000000E+00 0. -1.
</event>
<event>
 8    1  0.1280925E-006  0.9118800E+02  0.7816164E-02  0.1184000E+00
        -11   -1    0    0    0    0  0.00000000000E+00  0.00000000000E+00  0.45593999997E+02  0.45594000000E+02  0.51100000000E-03 0.  1.
         11   -1    0    0    0    0 -0.00000000000E+00 -0.00000000000E+00 -0.45593999997E+02  0.45594000000E+02  0.51100000000E-03 0. -1.
         23    2    1    2    0    0  0.00000000000E+00  0.00000000000E+00  0.00000000000E+00  0.91188000000E+02  0.91188000000E+02 0.  0.
    9900012    2    3    3    0    0  0.33301447801E+02  0.54136922952E+01 -0.14747413637E+02  0.54367072541E+02  0.39999973472E+02 0.  0.
        -12    1    3    3    0    0 -0.33301447801E+02 -0.54136922952E+01  0.14747413637E+02  0.36820927459E+02  0.00000000000E+00 0.  1.
         11    1    4    4    0    0  0.35544620453E+01  0.99195962080E+01  0.77675328117E+00  0.10565790803E+02  0.51100000000E-03 0. -1.
        -11    1    4    4    0    0  0.15524349211E+02 -0.29297897029E+01  0.68684968815E+01  0.17226878295E+02  0.51100000000E-03 0.  1.
         12    1    4    4    0    0  0.14222636545E+02 -0.15761142100E+01 -0.22392663800E+02  0.26574403443E+02  0.00000000000E+00 0. -1.
</event>
<event>
 8    1  0.1280925E-006  0.9118800E+02  0.7816164E-02  0.1184000E+00
        -11   -1    0    0    0    0  0.00000000000E+00  0.00000000000E+00  0.45593999997E+02  0.45594000000E+02  0.51100000000E-03 0.  1.
         11   -1    0    0    0    0 -0.00000000000E+00 -0.00000000000E+00 -0.45593999997E+02  0.45594000000E+02  0.51100000000E-03 0. -1.
         23    2    1    2    0    0  0.00000000000E+00  0.00000000000E+00  0.17763568394E-14  0.91188000000E+02  0.91188000000E+02 0.  0.
    9900012    2    3    3    0    0  0.30149746055E+02 -0.14683901532E+02 -0.15203857537E+02  0.54367062540E+02  0.39999950673E+02 0.  0.
        -12    1    3    3    0    0 -0.30149746055E+02  0.14683901532E+02  0.15203857537E+02  0.36820937460E+02  0.00000000000E+00 0.  1.
         11    1    4    4    0    0  0.13177479859E+02  0.31723764067E+01 -0.20425570796E+02  0.24513545033E+02  0.51100000000E-03 0. -1.
        -11    1    4    4    0    0  0.11768258272E+02 -0.15077508508E+02 -0.33802806256E+01  0.19422910774E+02  0.51100000000E-03 0.  1.
        -12    1    4    4    0    0  0.52040079250E+01 -0.27787694305E+01  0.86019938844E+01  0.10430606733E+02  0.00000000000E+00 0.  1.
</event>
<event>
 8    1  0.1280925E-006  0.9118800E+02  0.7816164E-02  0.1184000E+00
        -11   -1    0    0    0    0  0.00000000000E+00  0.00000000000E+00  0.45593999997E+02  0.45594000000E+02  0.51100000000E-03 0. -1.
         11   -1    0    0    0    0 -0.00000000000E+00 -0.00000000000E+00 -0.45593999997E+02  0.45594000000E+02  0.51100000000E-03 0.  1.
         23    2    1    2    0    0  0.17763568394E-14  0.83266726847E-16  0.00000000000E+00  0.91188000000E+02  0.91188000000E+02 0.  0.
    9900012    2    3    3    0    0  0.91493445316E+01 -0.15577195537E+00 -0.35665734931E+02  0.54367089930E+02  0.40000013113E+02 0.  0.
         12    1    3    3    0    0 -0.91493445316E+01  0.15577195537E+00  0.35665734931E+02  0.36820910070E+02  0.00000000000E+00 0. -1.
         11    1    4    4    0    0 -0.11236025663E+00 -0.27124841223E+01 -0.72375537606E+01  0.77299663414E+01  0.51100000000E-03 0. -1.
        -11    1    4    4    0    0 -0.56836532421E+01  0.63099617036E+01 -0.29970736257E+02  0.31150675160E+02  0.51100000000E-03 0.  1.
         12    1    4    4    0    0  0.14945358030E+02 -0.37532495366E+01  0.15425550864E+01  0.15486448429E+02  0.00000000000E+00 0. -1.
</event>
<event>
 8    1  0.1280925E-006  0.9118800E+02  0.7816164E-02  0.1184000E+00
        -11   -1    0    0    0    0  0.00000000000E+00  0.00000000000E+00  0.45593999997E+02  0.45594000000E+02  0.51100000000E-03 0. -1.
         11   -1    0    0    0    0 -0.00000000000E+00 -0.00000000000E+00 -0.45593999997E+02  0.45594000000E+02  0.51100000000E-03 0.  1.
         23    2    1    2    0    0  0.00000000000E+00  0.00000000000E+00 -0.35527136788E-14  0.91188000000E+02  0.91188000000E+02 0.  0.
    9900012    2    3    3    0    0  0.14364538394E+02 -0.12779920685E+02 -0.31402466259E+02  0.54367065423E+02  0.39999957244E+02 0.  0.
         12    1    3    3    0    0 -0.14364538394E+02  0.12779920685E+02  0.31402466259E+02  0.36820934577E+02  0.00000000000E+00 0. -1.
         11    1    4    4    0    0  0.14473638243E+02 -0.14455909163E+02 -0.21469519430E+02  0.29654675492E+02  0.51100000000E-03 0.  1.
        -11    1    4    4    0    0 -0.91937770999E+01  0.74761114787E+01 -0.51606065162E+01  0.12924768473E+02  0.51100000000E-03 0. -1.
         12    1    4    4    0    0  0.90846772505E+01 -0.58001230007E+01 -0.47723403130E+01  0.11787621458E+02  0.00000000000E+00 0. -1.
</event>
<event>
 8    1  0.1280925E-006  0.9118800E+02  0.7816164E-02  0.1184000E+00
        -11   -1    0    0    0    0  0.00000000000E+00  0.00000000000E+00  0.45593999997E+02  0.45594000000E+02  0.51100000000E-03 0.  1.
         11   -1    0    0    0    0 -0.00000000000E+00 -0.00000000000E+00 -0.45593999997E+02  0.45594000000E+02  0.51100000000E-03 0. -1.
         23    2    1    2    0    0 -0.17763568394E-14  0.17763568394E-14  0.00000000000E+00  0.91188000000E+02  0.91188000000E+02 0.  0.
    9900012    2    3    3    0    0  0.15641450632E+02 -0.15578748841E+02 -0.29469159361E+02  0.54367031154E+02  0.39999879122E+02 0.  0.
        -12    1    3    3    0    0 -0.15641450632E+02  0.15578748841E+02  0.29469159361E+02  0.36820968846E+02  0.00000000000E+00 0.  1.
         11    1    4    4    0    0  0.31757441053E+01  0.39831887088E+01 -0.15250340189E+02  0.16078682130E+02  0.51100000000E-03 0. -1.
        -11    1    4    4    0    0  0.56030187214E+01 -0.20586964889E+02  0.12109650040E+01  0.21370151582E+02  0.51100000000E-03 0.  1.
        -12    1    4    4    0    0  0.68626878049E+01  0.10250273399E+01 -0.15429784176E+02  0.16918197442E+02  0.00000000000E+00 0.  1.
</event>
<event>
 8    1  0.1280925E-006  0.9118800E+02  0.7816164E-02  0.1184000E+00
        -11   -1    0    0    0    0  0.00000000000E+00  0.00000000000E+00  0.45593999997E+02  0.45594000000E+02  0.51100000000E-03 0.  1.
         11   -1    0    0    0    0 -0.00000000000E+00 -0.00000000000E+00 -0.45593999997E+02  0.45594000000E+02  0.51100000000E-03 0. -1.
         23    2    1    2    0    0  0.26645352591E-14  0.17763568394E-14  0.00000000000E+00  0.91188000000E+02  0.91188000000E+02 0.  0.
    9900012    2    3    3    0    0  0.51604374860E+01  0.65530378295E+01 -0.35863723518E+02  0.54367094465E+02  0.40000023451E+02 0.  0.
        -12    1    3    3    0    0 -0.51604374860E+01 -0.65530378295E+01  0.35863723518E+02  0.36820905535E+02  0.00000000000E+00 0.  1.
         11    1    4    4    0    0  0.14546019822E+02  0.12487560532E+02 -0.20186437280E+02  0.27839147096E+02  0.51100000000E-03 0. -1.
        -11    1    4    4    0    0 -0.13829890417E+02 -0.91011185033E+00 -0.13808655723E+02  0.19564589075E+02  0.51100000000E-03 0.  1.
         12    1    4    4    0    0  0.44443080810E+01 -0.50244108522E+01 -0.18686305152E+01  0.69633582942E+01  0.00000000000E+00 0. -1.
</event>
<event>
 8    1  0.1280925E-006  0.9118800E+02  0.7816164E-02  0.1184000E+00
        -11   -1    0    0    0    0  0.00000000000E+00  0.00000000000E+00  0.45593999997E+02  0.45594000000E+02  0.51100000000E-03 0.  1.
         11   -1    0    0    0    0 -0.00000000000E+00 -0.00000000000E+00 -0.45593999997E+02  0.45594000000E+02  0.51100000000E-03 0. -1.
         23    2    1    2    0    0 -0.71054273576E-14  0.00000000000E+00  0.41633363423E-15  0.91188000000E+02  0.91188000000E+02 0.  0.
    9900012    2    3    3    0    0  0.34377057119E+02  0.13190645810E+02 -0.65078192470E-01  0.54367089797E+02  0.40000012810E+02 0.  0.
        -12    1    3    3    0    0 -0.34377057119E+02 -0.13190645810E+02  0.65078192470E-01  0.36820910203E+02  0.00000000000E+00 0.  1.
         11    1    4    4    0    0 -0.45286006684E+01  0.63653292610E+01 -0.30849111747E+01  0.83989474240E+01  0.51100000000E-03 0. -1.
        -11    1    4    4    0    0  0.13214016860E+01 -0.51640407122E+01  0.37395421274E+01  0.65113435232E+01  0.51100000000E-03 0.  1.
        -12    1    4    4    0    0  0.37584256101E+02  0.11989357261E+02 -0.71970914522E+00  0.39456798850E+02  0.00000000000E+00 0.  1.
</event>
<event>
 8    1  0.1280925E-006  0.9118800E+02  0.7816164E-02  0.1184000E+00
        -11   -1    0    0    0    0  0.00000000000E+00  0.00000000000E+00  0.45593999997E+02  0.45594000000E+02  0.51100000000E-03 0.  1.
         11   -1    0    0    0    0 -0.00000000000E+00 -0.00000000000E+00 -0.45593999997E+02  0.45594000000E+02  0.51100000000E-03 0. -1.
         23    2    1    2    0    0  0.35527136788E-14  0.00000000000E+00  0.00000000000E+00  0.91188000000E+02  0.91188000000E+02 0.  0.
    9900012    2    3    3    0    0  0.18784626362E+02  0.28759711327E+02  0.13258812599E+02  0.54367091609E+02  0.40000016941E+02 0.  0.
         12    1    3    3    0    0 -0.18784626362E+02 -0.28759711327E+02 -0.13258812599E+02  0.36820908391E+02  0.00000000000E+00 0. -1.
         11    1    4    4    0    0  0.12731577153E+00  0.25054477162E+01 -0.45154107686E+01  0.51655021280E+01  0.51100000000E-03 0. -1.
        -11    1    4    4    0    0  0.14032530146E+02  0.25642921762E+02 -0.15985879960E+01  0.29275020455E+02  0.51100000000E-03 0.  1.
         12    1    4    4    0    0  0.46247804449E+01  0.61134184889E+00  0.19372811364E+02  0.19926569026E+02  0.00000000000E+00 0. -1.
</event>
<event>
 8    1  0.1280925E-006  0.9118800E+02  0.7816164E-02  0.1184000E+00
        -11   -1    0    0    0    0  0.00000000000E+00  0.00000000000E+00  0.45593999997E+02  0.45594000000E+02  0.51100000000E-03 0.  1.
         11   -1    0    0    0    0 -0.00000000000E+00 -0.00000000000E+00 -0.45593999997E+02  0.45594000000E+02  0.51100000000E-03 0. -1.
         23    2    1    2    0    0  0.17763568394E-14 -0.35527136788E-14  0.00000000000E+00  0.91188000000E+02  0.91188000000E+02 0.  0.
    9900012    2    3    3    0    0 -0.11726405855E+02 -0.16363048455E+02  0.30830527249E+02  0.54367090730E+02  0.40000014936E+02 0.  0.
         12    1    3    3    0    0  0.11726405855E+02  0.16363048455E+02 -0.30830527249E+02  0.36820909270E+02  0.00000000000E+00 0. -1.
         11    1    4    4    0    0 -0.61897263583E+01  0.92131241087E+01  0.73767686892E+01  0.13327080880E+02  0.51100000000E-03 0. -1.
        -11    1    4    4    0    0  0.11915466851E+01 -0.20190490787E+02  0.25132083480E+02  0.32259840700E+02  0.51100000000E-03 0.  1.
        -12    1    4    4    0    0 -0.67282261815E+01 -0.53856817773E+01 -0.16783249195E+01  0.87801691494E+01  0.00000000000E+00 0.  1.
</event>
<event>
 8    1  0.1280925E-006  0.9118800E+02  0.7816164E-02  0.1184000E+00
        -11   -1    0    0    0    0  0.00000000000E+00  0.00000000000E+00  0.45593999997E+02  0.45594000000E+02  0.51100000000E-03 0.  1.
         11   -1    0    0    0    0 -0.00000000000E+00 -0.00000000000E+00 -0.45593999997E+02  0.45594000000E+02  0.51100000000E-03 0. -1.
         23    2    1    2    0    0  0.00000000000E+00  0.00000000000E+00  0.00000000000E+00  0.91188000000E+02  0.91188000000E+02 0.  0.
    9900012    2    3    3    0    0 -0.21776377930E+02 -0.14028208580E+02  0.26168364248E+02  0.54367020123E+02  0.39999853974E+02 0.  0.
         12    1    3    3    0    0  0.21776377930E+02  0.14028208580E+02 -0.26168364248E+02  0.36820979877E+02  0.00000000000E+00 0. -1.
         11    1    4    4    0    0 -0.12741057255E+02 -0.94987279753E+01  0.56837651012E+01  0.16877960751E+02  0.51100000000E-03 0. -1.
        -11    1    4    4    0    0 -0.16629229098E+02 -0.89737963449E+01  0.21509508914E+02  0.28630739690E+02  0.51100000000E-03 0.  1.
         12    1    4    4    0    0  0.75939084240E+01  0.44443157398E+01 -0.10249097672E+01  0.88583196814E+01  0.00000000000E+00 0. -1.
</event>
<event>
 8    1  0.1280925E-006  0.9118800E+02  0.7816164E-02  0.1184000E+00
        -11   -1    0    0    0    0  0.00000000000E+00  0.00000000000E+00  0.45593999997E+02  0.45594000000E+02  0.51100000000E-03 0.  1.
         11   -1    0    0    0    0 -0.00000000000E+00 -0.00000000000E+00 -0.45593999997E+02  0.45594000000E+02  0.51100000000E-03 0. -1.
         23    2    1    2    0    0  0.35527136788E-14 -0.44408920985E-15 -0.71054273576E-14  0.91188000000E+02  0.91188000000E+02 0.  0.
    9900012    2    3    3    0    0 -0.20243303695E+02  0.31588689626E+01  0.30594302876E+02  0.54367066198E+02  0.39999959011E+02 0.  0.
         12    1    3    3    0    0  0.20243303695E+02 -0.31588689626E+01 -0.30594302876E+02  0.36820933802E+02  0.00000000000E+00 0. -1.
         11    1    4    4    0    0 -0.10589933261E+02 -0.56549575589E+01 -0.12250272304E+01  0.12067556647E+02  0.51100000000E-03 0. -1.
        -11    1    4    4    0    0  0.73717433025E+01  0.48247620802E+01  0.45774988963E+01  0.99284653827E+01  0.51100000000E-03 0.  1.
        -12    1    4    4    0    0 -0.17025113737E+02  0.39890644412E+01  0.27241831210E+02  0.32371044168E+02  0.00000000000E+00 0.  1.
</event>
<event>
 8    1  0.1280925E-006  0.9118800E+02  0.7816164E-02  0.1184000E+00
        -11   -1    0    0    0    0  0.00000000000E+00  0.00000000000E+00  0.45593999997E+02  0.45594000000E+02  0.51100000000E-03 0. -1.
         11   -1    0    0    0    0 -0.00000000000E+00 -0.00000000000E+00 -0.45593999997E+02  0.45594000000E+02  0.51100000000E-03 0.  1.
         23    2    1    2    0    0  0.00000000000E+00 -0.35527136788E-14 -0.17763568394E-14  0.91188000000E+02  0.91188000000E+02 0.  0.
    9900012    2    3    3    0    0  0.23390313450E+02 -0.24605177360E+02  0.14256884078E+02  0.54367078504E+02  0.39999987066E+02 0.  0.
         12    1    3    3    0    0 -0.23390313450E+02  0.24605177360E+02 -0.14256884078E+02  0.36820921496E+02  0.00000000000E+00 0. -1.
         11    1    4    4    0    0  0.19114860674E+02  0.47108716521E+00 -0.70130143993E+01  0.20366202221E+02  0.51100000000E-03 0. -1.
        -11    1    4    4    0    0  0.47331516194E+01 -0.18493501023E+02  0.11744233922E+02  0.22412927854E+02  0.51100000000E-03 0.  1.
         12    1    4    4    0    0 -0.45769884302E+00 -0.65827635022E+01  0.95256645554E+01  0.11587948428E+02  0.00000000000E+00 0. -1.
</event>
<event>
 8    1  0.1280925E-006  0.9118800E+02  0.7816164E-02  0.1184000E+00
        -11   -1    0    0    0    0  0.00000000000E+00  0.00000000000E+00  0.45593999997E+02  0.45594000000E+02  0.51100000000E-03 0. -1.
         11   -1    0    0    0    0 -0.00000000000E+00 -0.00000000000E+00 -0.45593999997E+02  0.45594000000E+02  0.51100000000E-03 0.  1.
         23    2    1    2    0    0 -0.17763568394E-14  0.00000000000E+00  0.88817841970E-15  0.91188000000E+02  0.91188000000E+02 0.  0.
    9900012    2    3    3    0    0  0.89479783977E+01  0.34980571994E+02 -0.72162789797E+01  0.54367062794E+02  0.39999951251E+02 0.  0.
         12    1    3    3    0    0 -0.89479783977E+01 -0.34980571994E+02  0.72162789797E+01  0.36820937206E+02  0.00000000000E+00 0. -1.
         11    1    4    4    0    0  0.14218104931E+02  0.97607871865E+01 -0.16196741741E+00  0.17246846321E+02  0.51100000000E-03 0.  1.
        -11    1    4    4    0    0 -0.26745826403E+01  0.84095778672E+01  0.97910419738E+01  0.13181005098E+02  0.51100000000E-03 0. -1.
        -12    1    4    4    0    0 -0.25955438930E+01  0.16810206940E+02 -0.16845353536E+02  0.23939211374E+02  0.00000000000E+00 0.  1.
</event>
<event>
 8    1  0.1280925E-006  0.9118800E+02  0.7816164E-02  0.1184000E+00
        -11   -1    0    0    0    0  0.00000000000E+00  0.00000000000E+00  0.45593999997E+02  0.45594000000E+02  0.51100000000E-03 0.  1.
         11   -1    0    0    0    0 -0.00000000000E+00 -0.00000000000E+00 -0.45593999997E+02  0.45594000000E+02  0.51100000000E-03 0. -1.
         23    2    1    2    0    0  0.00000000000E+00  0.17763568394E-14  0.00000000000E+00  0.91188000000E+02  0.91188000000E+02 0.  0.
    9900012    2    3    3    0    0  0.83136044029E+01 -0.11911136503E+02  0.33834721356E+02  0.54367088004E+02  0.40000008723E+02 0.  0.
         12    1    3    3    0    0 -0.83136044029E+01  0.11911136503E+02 -0.33834721356E+02  0.36820911996E+02  0.00000000000E+00 0. -1.
         11    1    4    4    0    0 -0.35846323201E+01 -0.54005653450E+01  0.12431027804E+01  0.66000757344E+01  0.51100000000E-03 0. -1.
        -11    1    4    4    0    0  0.20218253158E+02 -0.12673057837E+02  0.26876711016E+02  0.35940808992E+02  0.51100000000E-03 0.  1.
        -12    1    4    4    0    0 -0.83200164349E+01  0.61624866791E+01  0.57149075601E+01  0.11826203278E+02  0.00000000000E+00 0.  1.
</event>
<event>
 8    1  0.1280925E-006  0.9118800E+02  0.7816164E-02  0.1184000E+00
        -11   -1    0    0    0    0  0.00000000000E+00  0.00000000000E+00  0.45593999997E+02  0.45594000000E+02  0.51100000000E-03 0.  1.
         11   -1    0    0    0    0 -0.00000000000E+00 -0.00000000000E+00 -0.45593999997E+02  0.45594000000E+02  0.51100000000E-03 0. -1.
         23    2    1    2    0    0  0.17763568394E-14  0.35527136788E-14  0.71054273576E-14  0.91188000000E+02  0.91188000000E+02 0.  0.
    9900012    2    3    3    0    0 -0.11511814582E+02 -0.25375978284E+02 -0.24069052047E+02  0.54367062813E+02  0.39999951296E+02 0.  0.
        -12    1    3    3    0    0  0.11511814582E+02  0.25375978284E+02  0.24069052047E+02  0.36820937187E+02  0.00000000000E+00 0.  1.
         11    1    4    4    0    0 -0.17993389909E+02 -0.16203186984E+02 -0.14446717533E+01  0.24256801635E+02  0.51100000000E-03 0. -1.
        -11    1    4    4    0    0  0.21575600355E+01 -0.88610552861E+01 -0.24055242160E+01  0.94318562915E+01  0.51100000000E-03 0.  1.
         12    1    4    4    0    0  0.43240152906E+01 -0.31173601436E+00 -0.20218856077E+02  0.20678404887E+02  0.00000000000E+00 0. -1.
</event>
<event>
 8    1  0.1280925E-006  0.9118800E+02  0.7816164E-02  0.1184000E+00
        -11   -1    0    0    0    0  0.00000000000E+00  0.00000000000E+00  0.45593999997E+02  0.45594000000E+02  0.51100000000E-03 0. -1.
         11   -1    0    0    0    0 -0.00000000000E+00 -0.00000000000E+00 -0.45593999997E+02  0.45594000000E+02  0.51100000000E-03 0.  1.
         23    2    1    2    0    0  0.00000000000E+00  0.00000000000E+00  0.13322676296E-14  0.91188000000E+02  0.91188000000E+02 0.  0.
    9900012    2    3    3    0    0  0.17837842219E+02 -0.31990860364E+02  0.37650412770E+01  0.54367091569E+02  0.40000016850E+02 0.  0.
        -12    1    3    3    0    0 -0.17837842219E+02  0.31990860364E+02 -0.37650412770E+01  0.36820908431E+02  0.00000000000E+00 0.  1.
         11    1    4    4    0    0  0.77219216164E-02 -0.17777873687E+02  0.10244404857E+02  0.20518301187E+02  0.51100000000E-03 0. -1.
        -11    1    4    4    0    0 -0.57420540274E+01 -0.44104966812E+01  0.84548938706E+00  0.72896171362E+01  0.51100000000E-03 0.  1.
         12    1    4    4    0    0  0.23572174325E+02 -0.98024899955E+01 -0.73248529667E+01  0.26559173246E+02  0.00000000000E+00 0. -1.
</event>
<event>
 8    1  0.1280925E-006  0.9118800E+02  0.7816164E-02  0.1184000E+00
        -11   -1    0    0    0    0  0.00000000000E+00  0.00000000000E+00  0.45593999997E+02  0.45594000000E+02  0.51100000000E-03 0.  1.
         11   -1    0    0    0    0 -0.00000000000E+00 -0.00000000000E+00 -0.45593999997E+02  0.45594000000E+02  0.51100000000E-03 0. -1.
         23    2    1    2    0    0  0.00000000000E+00  0.17763568394E-14  0.00000000000E+00  0.91188000000E+02  0.91188000000E+02 0.  0.
    9900012    2    3    3    0    0 -0.22052410214E+01 -0.15189732456E+02  0.33469228794E+02  0.54367077468E+02  0.39999984703E+02 0.  0.
         12    1    3    3    0    0  0.22052410214E+01  0.15189732456E+02 -0.33469228794E+02  0.36820922532E+02  0.00000000000E+00 0. -1.
         11    1    4    4    0    0  0.69943976984E+01  0.59679573524E+00  0.16269949935E+02  0.17719735762E+02  0.51100000000E-03 0. -1.
        -11    1    4    4    0    0  0.74814122975E+01  0.10694946934E+01  0.85336362228E+01  0.11399048044E+02  0.51100000000E-03 0.  1.
         12    1    4    4    0    0 -0.16681051017E+02 -0.16856022885E+02  0.86656426365E+01  0.25248293662E+02  0.00000000000E+00 0. -1.
</event>
<event>
 8    1  0.1280925E-006  0.9118800E+02  0.7816164E-02  0.1184000E+00
        -11   -1    0    0    0    0  0.00000000000E+00  0.00000000000E+00  0.45593999997E+02  0.45594000000E+02  0.51100000000E-03 0. -1.
         11   -1    0    0    0    0 -0.00000000000E+00 -0.00000000000E+00 -0.45593999997E+02  0.45594000000E+02  0.51100000000E-03 0.  1.
         23    2    1    2    0    0 -0.17763568394E-14  0.00000000000E+00  0.35527136788E-14  0.91188000000E+02  0.91188000000E+02 0.  0.
    9900012    2    3    3    0    0  0.13056189032E+02  0.32065173676E+02 -0.12535566572E+02  0.54367083876E+02  0.39999999313E+02 0.  0.
         12    1    3    3    0    0 -0.13056189032E+02 -0.32065173676E+02  0.12535566572E+02  0.36820916124E+02  0.00000000000E+00 0. -1.
         11    1    4    4    0    0  0.34820259917E+01  0.81840958500E+01 -0.35329895219E+01  0.95700546033E+01  0.51100000000E-03 0. -1.
        -11    1    4    4    0    0 -0.12877423865E+01  0.22506593167E+02  0.85495337875E+01  0.24110154390E+02  0.51100000000E-03 0.  1.
        -12    1    4    4    0    0  0.10861905427E+02  0.13744846587E+01 -0.17552110838E+02  0.20686874883E+02  0.00000000000E+00 0.  1.
</event>
<event>
 8    1  0.1280925E-006  0.9118800E+02  0.7816164E-02  0.1184000E+00
        -11   -1    0    0    0    0  0.00000000000E+00  0.00000000000E+00  0.45593999997E+02  0.45594000000E+02  0.51100000000E-03 0.  1.
         11   -1    0    0    0    0 -0.00000000000E+00 -0.00000000000E+00 -0.45593999997E+02  0.45594000000E+02  0.51100000000E-03 0. -1.
         23    2    1    2    0    0 -0.26645352591E-14  0.00000000000E+00  0.35527136788E-14  0.91188000000E+02  0.91188000000E+02 0.  0.
    9900012    2    3    3    0    0  0.67074098834E+01 -0.19119922388E+02  0.30744420850E+02  0.54367079413E+02  0.39999989139E+02 0.  0.
         12    1    3    3    0    0 -0.67074098834E+01  0.19119922388E+02 -0.30744420850E+02  0.36820920587E+02  0.00000000000E+00 0. -1.
         11    1    4    4    0    0 -0.39375905478E+01  0.19660296287E+00 -0.15031918678E+01  0.42193433256E+01  0.51100000000E-03 0. -1.
        -11    1    4    4    0    0 -0.75235626067E+01 -0.18760684489E+02  0.16298762131E+02  0.25965687437E+02  0.51100000000E-03 0.  1.
        -12    1    4    4    0    0  0.18168563038E+02 -0.55584086173E+00  0.15948850586E+02  0.24182048650E+02  0.00000000000E+00 0.  1.
</event>
<event>
 8    1  0.1280925E-006  0.9118800E+02  0.7816164E-02  0.1184000E+00
        -11   -1    0    0    0    0  0.00000000000E+00  0.00000000000E+00  0.45593999997E+02  0.45594000000E+02  0.51100000000E-03 0.  1.
         11   -1    0    0    0    0 -0.00000000000E+00 -0.00000000000E+00 -0.45593999997E+02  0.45594000000E+02  0.51100000000E-03 0. -1.
         23    2    1    2    0    0 -0.35527136788E-14 -0.88817841970E-15  0.00000000000E+00  0.91188000000E+02  0.91188000000E+02 0.  0.
    9900012    2    3    3    0    0  0.28886198704E+02  0.52379338291E+01 -0.22224568071E+02  0.54367084037E+02  0.39999999680E+02 0.  0.
        -12    1    3    3    0    0 -0.28886198704E+02 -0.52379338291E+01  0.22224568071E+02  0.36820915963E+02  0.00000000000E+00 0.  1.
         11    1    4    4    0    0  0.70800246265E+01  0.12687969395E+02 -0.11563099057E+02  0.18569237361E+02  0.51100000000E-03 0. -1.
        -11    1    4    4    0    0  0.25873574402E+02 -0.53613063278E+01 -0.14217562776E+02  0.30005408669E+02  0.51100000000E-03 0.  1.
         12    1    4    4    0    0 -0.40674003239E+01 -0.20887292384E+01  0.35560937618E+01  0.57924380074E+01  0.00000000000E+00 0. -1.
</event>
<event>
 8    1  0.1280925E-006  0.9118800E+02  0.7816164E-02  0.1184000E+00
        -11   -1    0    0    0    0  0.00000000000E+00  0.00000000000E+00  0.45593999997E+02  0.45594000000E+02  0.51100000000E-03 0.  1.
         11   -1    0    0    0    0 -0.00000000000E+00 -0.00000000000E+00 -0.45593999997E+02  0.45594000000E+02  0.51100000000E-03 0. -1.
         23    2    1    2    0    0  0.00000000000E+00  0.00000000000E+00 -0.35527136788E-14  0.91188000000E+02  0.91188000000E+02 0.  0.
    9900012    2    3    3    0    0 -0.25478255509E+02 -0.15331446614E+01  0.26538412633E+02  0.54367090432E+02  0.40000014258E+02 0.  0.
         12    1    3    3    0    0  0.25478255509E+02  0.15331446614E+01 -0.26538412633E+02  0.36820909568E+02  0.00000000000E+00 0. -1.
         11    1    4    4    0    0 -0.82338156078E+01  0.44571434262E+00  0.25400470649E+02  0.26705398147E+02  0.51100000000E-03 0.  1.
        -11    1    4    4    0    0 -0.14879429395E+02 -0.10865544356E+02  0.28966043834E+00  0.18426648548E+02  0.51100000000E-03 0. -1.
         12    1    4    4    0    0 -0.23650105064E+01  0.88866853520E+01  0.84828154514E+00  0.92350437368E+01  0.00000000000E+00 0. -1.
</event>
<event>
 8    1  0.1280925E-006  0.9118800E+02  0.7816164E-02  0.1184000E+00
        -11   -1    0    0    0    0  0.00000000000E+00  0.00000000000E+00  0.45593999997E+02  0.45594000000E+02  0.51100000000E-03 0. -1.
         11   -1    0    0    0    0 -0.00000000000E+00 -0.00000000000E+00 -0.45593999997E+02  0.45594000000E+02  0.51100000000E-03 0.  1.
         23    2    1    2    0    0  0.35527136788E-14 -0.35527136788E-14  0.00000000000E+00  0.91188000000E+02  0.91188000000E+02 0.  0.
    9900012    2    3    3    0    0  0.24277563322E+02 -0.19183410251E+02 -0.19959266695E+02  0.54367141282E+02  0.40000130181E+02 0.  0.
         12    1    3    3    0    0 -0.24277563322E+02  0.19183410251E+02  0.19959266695E+02  0.36820858718E+02  0.00000000000E+00 0. -1.
         11    1    4    4    0    0  0.14723970306E+01  0.55626486350E+01 -0.85113013190E+01  0.10273911780E+02  0.51100000000E-03 0. -1.
        -11    1    4    4    0    0  0.52180738466E+01 -0.82074491642E+01  0.83912831876E+01  0.12845394126E+02  0.51100000000E-03 0.  1.
        -12    1    4    4    0    0  0.17587092445E+02 -0.16538609722E+02 -0.19839248563E+02  0.31247835377E+02  0.00000000000E+00 0.  1.
</event>
<event>
 8    1  0.1280925E-006  0.9118800E+02  0.7816164E-02  0.1184000E+00
        -11   -1    0    0    0    0  0.00000000000E+00  0.00000000000E+00  0.45593999997E+02  0.45594000000E+02  0.51100000000E-03 0. -1.
         11   -1    0    0    0    0 -0.00000000000E+00 -0.00000000000E+00 -0.45593999997E+02  0.45594000000E+02  0.51100000000E-03 0.  1.
         23    2    1    2    0    0  0.00000000000E+00  0.00000000000E+00  0.35527136788E-14  0.91188000000E+02  0.91188000000E+02 0.  0.
    9900012    2    3    3    0    0 -0.12945996984E+02 -0.14602618098E+02  0.31224109518E+02  0.54367077844E+02  0.39999985561E+02 0.  0.
        -12    1    3    3    0    0  0.12945996984E+02  0.14602618098E+02 -0.31224109518E+02  0.36820922156E+02  0.00000000000E+00 0.  1.
         11    1    4    4    0    0  0.61988768019E+01 -0.12591530490E+02  0.13316118500E+02  0.19346620528E+02  0.51100000000E-03 0. -1.
        -11    1    4    4    0    0 -0.35891823704E+01 -0.52405722184E+01 -0.43321736224E+01  0.76885340488E+01  0.51100000000E-03 0.  1.
        -12    1    4    4    0    0 -0.15555691415E+02  0.32294846101E+01  0.22240164641E+02  0.27331923268E+02  0.00000000000E+00 0.  1.
</event>
<event>
 8    1  0.1280925E-006  0.9118800E+02  0.7816164E-02  0.1184000E+00
        -11   -1    0    0    0    0  0.00000000000E+00  0.00000000000E+00  0.45593999997E+02  0.45594000000E+02  0.51100000000E-03 0.  1.
         11   -1    0    0    0    0 -0.00000000000E+00 -0.00000000000E+00 -0.45593999997E+02  0.45594000000E+02  0.51100000000E-03 0. -1.
         23    2    1    2    0    0  0.00000000000E+00  0.00000000000E+00  0.71054273576E-14  0.91188000000E+02  0.91188000000E+02 0.  0.
    9900012    2    3    3    0    0  0.14187583557E+02 -0.18464125417E+02 -0.28523122817E+02  0.54367082170E+02  0.39999995422E+02 0.  0.
        -12    1    3    3    0    0 -0.14187583557E+02  0.18464125417E+02  0.28523122817E+02  0.36820917830E+02  0.00000000000E+00 0.  1.
         11    1    4    4    0    0  0.78191792427E+01 -0.20172470425E+02 -0.35337985404E+02  0.41434784177E+02  0.51100000000E-03 0. -1.
        -11    1    4    4    0    0  0.39688583954E+01 -0.15530056215E+01  0.76879691417E+01  0.87902521697E+01  0.51100000000E-03 0.  1.
         12    1    4    4    0    0  0.23995459191E+01  0.32613506293E+01 -0.87310655471E+00  0.41420458231E+01  0.00000000000E+00 0. -1.
</event>
<event>
 8    1  0.1280925E-006  0.9118800E+02  0.7816164E-02  0.1184000E+00
        -11   -1    0    0    0    0  0.00000000000E+00  0.00000000000E+00  0.45593999997E+02  0.45594000000E+02  0.51100000000E-03 0. -1.
         11   -1    0    0    0    0 -0.00000000000E+00 -0.00000000000E+00 -0.45593999997E+02  0.45594000000E+02  0.51100000000E-03 0.  1.
         23    2    1    2    0    0 -0.22204460493E-15  0.00000000000E+00 -0.35527136788E-14  0.91188000000E+02  0.91188000000E+02 0.  0.
    9900012    2    3    3    0    0 -0.15900250535E+01  0.33703920720E+02  0.14740987030E+02  0.54367093572E+02  0.40000021416E+02 0.  0.
        -12    1    3    3    0    0  0.15900250535E+01 -0.33703920720E+02 -0.14740987030E+02  0.36820906428E+02  0.00000000000E+00 0.  1.
         11    1    4    4    0    0  0.13575046970E+00  0.14800223558E+02 -0.94158261362E+01  0.17542030317E+02  0.51100000000E-03 0. -1.
        -11    1    4    4    0    0 -0.22658489995E+01  0.13066652025E+00 -0.30277045473E+01  0.37839318856E+01  0.51100000000E-03 0.  1.
         12    1    4    4    0    0  0.54007347631E+00  0.18773030642E+02  0.27184517714E+02  0.33041131369E+02  0.00000000000E+00 0. -1.
</event>
<event>
 8    1  0.1280925E-006  0.9118800E+02  0.7816164E-02  0.1184000E+00
        -11   -1    0    0    0    0  0.00000000000E+00  0.00000000000E+00  0.45593999997E+02  0.45594000000E+02  0.51100000000E-03 0. -1.
         11   -1    0    0    0    0 -0.00000000000E+00 -0.00000000000E+00 -0.45593999997E+02  0.45594000000E+02  0.51100000000E-03 0.  1.
         23    2    1    2    0    0  0.00000000000E+00  0.00000000000E+00 -0.35527136788E-14  0.91188000000E+02  0.91188000000E+02 0.  0.
    9900012    2    3    3    0    0 -0.70039854944E+01 -0.18559647184E+02  0.31020386243E+02  0.54367072811E+02  0.39999974087E+02 0.  0.
        -12    1    3    3    0    0  0.70039854944E+01  0.18559647184E+02 -0.31020386243E+02  0.36820927189E+02  0.00000000000E+00 0.  1.
         11    1    4    4    0    0 -0.80765683993E+01 -0.48403592274E+01 -0.16461068106E+01  0.95587500465E+01  0.51100000000E-03 0. -1.
        -11    1    4    4    0    0 -0.17537821280E+01 -0.57135625853E+01 -0.39869582297E+01  0.71844544229E+01  0.51100000000E-03 0.  1.
         12    1    4    4    0    0  0.28263650329E+01 -0.80057253716E+01  0.36653451283E+02  0.37623868342E+02  0.00000000000E+00 0. -1.
</event>
<event>
 8    1  0.1280925E-006  0.9118800E+02  0.7816164E-02  0.1184000E+00
        -11   -1    0    0    0    0  0.00000000000E+00  0.00000000000E+00  0.45593999997E+02  0.45594000000E+02  0.51100000000E-03 0. -1.
         11   -1    0    0    0    0 -0.00000000000E+00 -0.00000000000E+00 -0.45593999997E+02  0.45594000000E+02  0.51100000000E-03 0.  1.
         23    2    1    2    0    0  0.17763568394E-14  0.00000000000E+00  0.00000000000E+00  0.91188000000E+02  0.91188000000E+02 0.  0.
    9900012    2    3    3    0    0  0.45184250196E+01  0.12935908342E+02  0.34176392604E+02  0.54367086097E+02  0.40000004375E+02 0.  0.
        -12    1    3    3    0    0 -0.45184250196E+01 -0.12935908342E+02 -0.34176392604E+02  0.36820913903E+02  0.00000000000E+00 0.  1.
         11    1    4    4    0    0  0.14992407743E+02  0.88786808419E+00  0.75463570576E+01  0.16807977415E+02  0.51100000000E-03 0. -1.
        -11    1    4    4    0    0 -0.13699889313E+01  0.76588730548E+01 -0.12713430694E+01  0.78836235071E+01  0.51100000000E-03 0.  1.
         12    1    4    4    0    0 -0.91039937925E+01  0.43891672026E+01  0.27901378615E+02  0.29675485175E+02  0.00000000000E+00 0. -1.
</event>
<event>
 8    1  0.1280925E-006  0.9118800E+02  0.7816164E-02  0.1184000E+00
        -11   -1    0    0    0    0  0.00000000000E+00  0.00000000000E+00  0.45593999997E+02  0.45594000000E+02  0.51100000000E-03 0.  1.
         11   -1    0    0    0    0 -0.00000000000E+00 -0.00000000000E+00 -0.45593999997E+02  0.45594000000E+02  0.51100000000E-03 0. -1.
         23    2    1    2    0    0  0.00000000000E+00 -0.88817841970E-15  0.88817841970E-15  0.91188000000E+02  0.91188000000E+02 0.  0.
    9900012    2    3    3    0    0 -0.35879665037E+02 -0.50731423929E+01 -0.65338336282E+01  0.54367107578E+02  0.40000053345E+02 0.  0.
         12    1    3    3    0    0  0.35879665037E+02  0.50731423929E+01  0.65338336282E+01  0.36820892422E+02  0.00000000000E+00 0. -1.
         11    1    4    4    0    0 -0.63339030165E+01 -0.13428062465E+02  0.80305336938E+01  0.16879593024E+02  0.51100000000E-03 0. -1.
        -11    1    4    4    0    0 -0.73973732305E+01  0.11499660519E+01  0.32536514925E+01  0.81627079409E+01  0.51100000000E-03 0.  1.
        -12    1    4    4    0    0 -0.22148388790E+02  0.72049540201E+01 -0.17818018814E+02  0.29324806613E+02  0.00000000000E+00 0.  1.
</event>
<event>
 8    1  0.1280925E-006  0.9118800E+02  0.7816164E-02  0.1184000E+00
        -11   -1    0    0    0    0  0.00000000000E+00  0.00000000000E+00  0.45593999997E+02  0.45594000000E+02  0.51100000000E-03 0.  1.
         11   -1    0    0    0    0 -0.00000000000E+00 -0.00000000000E+00 -0.45593999997E+02  0.45594000000E+02  0.51100000000E-03 0. -1.
         23    2    1    2    0    0  0.00000000000E+00  0.00000000000E+00 -0.35527136788E-14  0.91188000000E+02  0.91188000000E+02 0.  0.
    9900012    2    3    3    0    0 -0.17151274026E+02  0.17077515261E+02  0.27748584923E+02  0.54366923245E+02  0.39999633119E+02 0.  0.
         12    1    3    3    0    0  0.17151274026E+02 -0.17077515261E+02 -0.27748584923E+02  0.36821076755E+02  0.00000000000E+00 0. -1.
         11    1    4    4    0    0 -0.21240373884E+01  0.69289364857E+01  0.19362136612E+01  0.75013744909E+01  0.51100000000E-03 0. -1.
        -11    1    4    4    0    0 -0.16622734131E+02  0.15939732387E+02  0.29394854096E+01  0.23217039719E+02  0.51100000000E-03 0.  1.
        -12    1    4    4    0    0  0.15954974930E+01 -0.57911536114E+01  0.22872885852E+02  0.23648509035E+02  0.00000000000E+00 0.  1.
</event>
<event>
 8    1  0.1280925E-006  0.9118800E+02  0.7816164E-02  0.1184000E+00
        -11   -1    0    0    0    0  0.00000000000E+00  0.00000000000E+00  0.45593999997E+02  0.45594000000E+02  0.51100000000E-03 0.  1.
         11   -1    0    0    0    0 -0.00000000000E+00 -0.00000000000E+00 -0.45593999997E+02  0.45594000000E+02  0.51100000000E-03 0. -1.
         23    2    1    2    0    0  0.00000000000E+00  0.00000000000E+00  0.88817841970E-15  0.91188000000E+02  0.91188000000E+02 0.  0.
    9900012    2    3    3    0    0  0.13792668754E+02 -0.33776797806E+02 -0.49667246389E+01  0.54367107357E+02  0.40000052843E+02 0.  0.
         12    1    3    3    0    0 -0.13792668754E+02  0.33776797806E+02  0.49667246389E+01  0.36820892643E+02  0.00000000000E+00 0. -1.
         11    1    4    4    0    0  0.17798982019E+02 -0.10314269951E+02  0.24113743660E+01  0.20712379200E+02  0.51100000000E-03 0. -1.
        -11    1    4    4    0    0  0.66424795824E+01 -0.12812989439E+02  0.37707518438E+01  0.14916896564E+02  0.51100000000E-03 0.  1.
         12    1    4    4    0    0 -0.10648792847E+02 -0.10649538415E+02 -0.11148850849E+02  0.18737831593E+02  0.00000000000E+00 0. -1.
</event>
<event>
 8    1  0.1280925E-006  0.9118800E+02  0.7816164E-02  0.1184000E+00
        -11   -1    0    0    0    0  0.00000000000E+00  0.00000000000E+00  0.45593999997E+02  0.45594000000E+02  0.51100000000E-03 0.  1.
         11   -1    0    0    0    0 -0.00000000000E+00 -0.00000000000E+00 -0.45593999997E+02  0.45594000000E+02  0.51100000000E-03 0. -1.
         23    2    1    2    0    0 -0.22204460493E-15  0.00000000000E+00  0.35527136788E-14  0.91188000000E+02  0.91188000000E+02 0.  0.
    9900012    2    3    3    0    0  0.15334602026E+01 -0.31127709732E+02 -0.19608505631E+02  0.54367091450E+02  0.40000016579E+02 0.  0.
        -12    1    3    3    0    0 -0.15334602026E+01  0.31127709732E+02  0.19608505631E+02  0.36820908550E+02  0.00000000000E+00 0.  1.
         11    1    4    4    0    0  0.12147264051E+02 -0.20994817707E+02 -0.20485654764E+02  0.31749022754E+02  0.51100000000E-03 0. -1.
        -11    1    4    4    0    0 -0.13503814617E+02 -0.12376855668E+02  0.27245221632E+01  0.18519249087E+02  0.51100000000E-03 0.  1.
         12    1    4    4    0    0  0.28900107688E+01  0.22439636435E+01 -0.18473730301E+01  0.40988196093E+01  0.00000000000E+00 0. -1.
</event>
<event>
 8    1  0.1280925E-006  0.9118800E+02  0.7816164E-02  0.1184000E+00
        -11   -1    0    0    0    0  0.00000000000E+00  0.00000000000E+00  0.45593999997E+02  0.45594000000E+02  0.51100000000E-03 0. -1.
         11   -1    0    0    0    0 -0.00000000000E+00 -0.00000000000E+00 -0.45593999997E+02  0.45594000000E+02  0.51100000000E-03 0.  1.
         23    2    1    2    0    0  0.00000000000E+00 -0.35527136788E-14  0.00000000000E+00  0.91188000000E+02  0.91188000000E+02 0.  0.
    9900012    2    3    3    0    0  0.81803728421E+01  0.31795120824E+02 -0.16671284463E+02  0.54367082933E+02  0.39999997162E+02 0.  0.
         12    1    3    3    0    0 -0.81803728421E+01 -0.31795120824E+02  0.16671284463E+02  0.36820917067E+02  0.00000000000E+00 0. -1.
         11    1    4    4    0    0  0.14679546546E+02  0.64781211946E+01 -0.52055874073E+01  0.16868707168E+02  0.51100000000E-03 0. -1.
        -11    1    4    4    0    0  0.91505877645E+01  0.85419883742E+01 -0.61588980314E+01  0.13951015986E+02  0.51100000000E-03 0.  1.
        -12    1    4    4    0    0 -0.15649761469E+02  0.16775011255E+02 -0.53067990244E+01  0.23547359778E+02  0.00000000000E+00 0.  1.
</event>
<event>
 8    1  0.1280925E-006  0.9118800E+02  0.7816164E-02  0.1184000E+00
        -11   -1    0    0    0    0  0.00000000000E+00  0.00000000000E+00  0.45593999997E+02  0.45594000000E+02  0.51100000000E-03 0.  1.
         11   -1    0    0    0    0 -0.00000000000E+00 -0.00000000000E+00 -0.45593999997E+02  0.45594000000E+02  0.51100000000E-03 0. -1.
         23    2    1    2    0    0  0.00000000000E+00  0.00000000000E+00  0.00000000000E+00  0.91188000000E+02  0.91188000000E+02 0.  0.
    9900012    2    3    3    0    0  0.97102780084E+01  0.12670663436E+02 -0.33180477663E+02  0.54367091418E+02  0.40000016505E+02 0.  0.
        -12    1    3    3    0    0 -0.97102780084E+01 -0.12670663436E+02  0.33180477663E+02  0.36820908582E+02  0.00000000000E+00 0.  1.
         11    1    4    4    0    0  0.11932726716E+02  0.20238816820E+02 -0.93442247338E+01  0.25284663519E+02  0.51100000000E-03 0. -1.
        -11    1    4    4    0    0  0.41359279531E+01 -0.91628094026E+01 -0.13271960153E+02  0.16649561639E+02  0.51100000000E-03 0.  1.
         12    1    4    4    0    0 -0.63583766609E+01  0.15946560186E+01 -0.10564292776E+02  0.12432866260E+02  0.00000000000E+00 0. -1.
</event>
<event>
 8    1  0.1280925E-006  0.9118800E+02  0.7816164E-02  0.1184000E+00
        -11   -1    0    0    0    0  0.00000000000E+00  0.00000000000E+00  0.45593999997E+02  0.45594000000E+02  0.51100000000E-03 0. -1.
         11   -1    0    0    0    0 -0.00000000000E+00 -0.00000000000E+00 -0.45593999997E+02  0.45594000000E+02  0.51100000000E-03 0.  1.
         23    2    1    2    0    0  0.00000000000E+00  0.17763568394E-14  0.00000000000E+00  0.91188000000E+02  0.91188000000E+02 0.  0.
    9900012    2    3    3    0    0  0.17155084140E+02  0.14843682543E+02 -0.29002579105E+02  0.54367062776E+02  0.39999951211E+02 0.  0.
         12    1    3    3    0    0 -0.17155084140E+02 -0.14843682543E+02  0.29002579105E+02  0.36820937224E+02  0.00000000000E+00 0. -1.
         11    1    4    4    0    0  0.10854961548E+02  0.91660198445E+01 -0.20933659344E+02  0.25299490188E+02  0.51100000000E-03 0. -1.
        -11    1    4    4    0    0  0.77631068300E+01  0.10131037419E+02 -0.15625158218E+02  0.20175463227E+02  0.51100000000E-03 0.  1.
        -12    1    4    4    0    0 -0.14629842381E+01 -0.44533747200E+01  0.75562384564E+01  0.88921093610E+01  0.00000000000E+00 0.  1.
</event>
<event>
 8    1  0.1280925E-006  0.9118800E+02  0.7816164E-02  0.1184000E+00
        -11   -1    0    0    0    0  0.00000000000E+00  0.00000000000E+00  0.45593999997E+02  0.45594000000E+02  0.51100000000E-03 0. -1.
         11   -1    0    0    0    0 -0.00000000000E+00 -0.00000000000E+00 -0.45593999997E+02  0.45594000000E+02  0.51100000000E-03 0.  1.
         23    2    1    2    0    0  0.00000000000E+00  0.00000000000E+00  0.17763568394E-14  0.91188000000E+02  0.91188000000E+02 0.  0.
    9900012    2    3    3    0    0  0.24169936362E+02 -0.23787173773E+02  0.14344509288E+02  0.54367076511E+02  0.39999982523E+02 0.  0.
        -12    1    3    3    0    0 -0.24169936362E+02  0.23787173773E+02 -0.14344509288E+02  0.36820923489E+02  0.00000000000E+00 0.  1.
         11    1    4    4    0    0  0.61539055872E+01  0.15243929264E+01 -0.73665272184E+00  0.63825531932E+01  0.51100000000E-03 0. -1.
        -11    1    4    4    0    0  0.17230343523E+02 -0.16694469357E+01 -0.37937370222E+01  0.17721857460E+02  0.51100000000E-03 0.  1.
         12    1    4    4    0    0  0.78568725211E+00 -0.23642119763E+02  0.18874899032E+02  0.30262665858E+02  0.00000000000E+00 0. -1.
</event>
<event>
 8    1  0.1280925E-006  0.9118800E+02  0.7816164E-02  0.1184000E+00
        -11   -1    0    0    0    0  0.00000000000E+00  0.00000000000E+00  0.45593999997E+02  0.45594000000E+02  0.51100000000E-03 0. -1.
         11   -1    0    0    0    0 -0.00000000000E+00 -0.00000000000E+00 -0.45593999997E+02  0.45594000000E+02  0.51100000000E-03 0.  1.
         23    2    1    2    0    0 -0.71054273576E-14  0.17763568394E-14 -0.35527136788E-14  0.91188000000E+02  0.91188000000E+02 0.  0.
    9900012    2    3    3    0    0 -0.24422284260E+02 -0.98629246730E+01 -0.25730439229E+02  0.54367071787E+02  0.39999971752E+02 0.  0.
         12    1    3    3    0    0  0.24422284260E+02  0.98629246730E+01  0.25730439229E+02  0.36820928213E+02  0.00000000000E+00 0. -1.
         11    1    4    4    0    0 -0.10574632067E+01  0.90973228819E+01 -0.10086028671E+02  0.13623783860E+02  0.51100000000E-03 0. -1.
        -11    1    4    4    0    0 -0.18170618885E+02 -0.17295768547E+01 -0.13322423938E+02  0.22597561962E+02  0.51100000000E-03 0.  1.
        -12    1    4    4    0    0 -0.51942021681E+01 -0.17230670700E+02 -0.23219866204E+01  0.18145725965E+02  0.00000000000E+00 0.  1.
</event>
<event>
 8    1  0.1280925E-006  0.9118800E+02  0.7816164E-02  0.1184000E+00
        -11   -1    0    0    0    0  0.00000000000E+00  0.00000000000E+00  0.45593999997E+02  0.45594000000E+02  0.51100000000E-03 0. -1.
         11   -1    0    0    0    0 -0.00000000000E+00 -0.00000000000E+00 -0.45593999997E+02  0.45594000000E+02  0.51100000000E-03 0.  1.
         23    2    1    2    0    0 -0.44408920985E-15  0.00000000000E+00  0.35527136788E-14  0.91188000000E+02  0.91188000000E+02 0.  0.
    9900012    2    3    3    0    0 -0.23159603142E+01 -0.25562635195E+02  0.26400145176E+02  0.54367086709E+02  0.40000005770E+02 0.  0.
        -12    1    3    3    0    0  0.23159603142E+01  0.25562635195E+02 -0.26400145176E+02  0.36820913291E+02  0.00000000000E+00 0.  1.
         11    1    4    4    0    0  0.59426594009E+01 -0.21328126146E+02  0.16252451934E+02  0.27465366550E+02  0.51100000000E-03 0. -1.
        -11    1    4    4    0    0  0.70872697349E+01 -0.25633681194E+01 -0.13463255227E+01  0.76559023691E+01  0.51100000000E-03 0.  1.
         12    1    4    4    0    0 -0.15345889450E+02 -0.16711409302E+01  0.11494018765E+02  0.19245817789E+02  0.00000000000E+00 0. -1.
</event>
<event>
 8    1  0.1280925E-006  0.9118800E+02  0.7816164E-02  0.1184000E+00
        -11   -1    0    0    0    0  0.00000000000E+00  0.00000000000E+00  0.45593999997E+02  0.45594000000E+02  0.51100000000E-03 0.  1.
         11   -1    0    0    0    0 -0.00000000000E+00 -0.00000000000E+00 -0.45593999997E+02  0.45594000000E+02  0.51100000000E-03 0. -1.
         23    2    1    2    0    0  0.00000000000E+00  0.00000000000E+00  0.00000000000E+00  0.91188000000E+02  0.91188000000E+02 0.  0.
    9900012    2    3    3    0    0  0.23281693555E+02 -0.72870681862E+01 -0.27579706962E+02  0.54367097598E+02  0.40000030595E+02 0.  0.
        -12    1    3    3    0    0 -0.23281693555E+02  0.72870681862E+01  0.27579706962E+02  0.36820902402E+02  0.00000000000E+00 0.  1.
         11    1    4    4    0    0  0.16835161001E+02  0.12227474997E+02 -0.20968084113E+02  0.29539707893E+02  0.51100000000E-03 0. -1.
        -11    1    4    4    0    0  0.83286458038E+01 -0.11804774797E+02 -0.83730171891E+01  0.16698097678E+02  0.51100000000E-03 0.  1.
         12    1    4    4    0    0 -0.18821132501E+01 -0.77097683860E+01  0.17613943401E+01  0.81292920278E+01  0.00000000000E+00 0. -1.
</event>
<event>
 8    1  0.1280925E-006  0.9118800E+02  0.7816164E-02  0.1184000E+00
        -11   -1    0    0    0    0  0.00000000000E+00  0.00000000000E+00  0.45593999997E+02  0.45594000000E+02  0.51100000000E-03 0.  1.
         11   -1    0    0    0    0 -0.00000000000E+00 -0.00000000000E+00 -0.45593999997E+02  0.45594000000E+02  0.51100000000E-03 0. -1.
         23    2    1    2    0    0  0.00000000000E+00  0.71054273576E-14  0.00000000000E+00  0.91188000000E+02  0.91188000000E+02 0.  0.
    9900012    2    3    3    0    0  0.11140371549E+02 -0.30712700297E+02  0.16982407788E+02  0.54367081868E+02  0.39999994735E+02 0.  0.
         12    1    3    3    0    0 -0.11140371549E+02  0.30712700297E+02 -0.16982407788E+02  0.36820918132E+02  0.00000000000E+00 0. -1.
         11    1    4    4    0    0 -0.10910444964E+02 -0.12727310116E+02  0.14891430147E+01  0.16829729032E+02  0.51100000000E-03 0. -1.
        -11    1    4    4    0    0  0.17638007276E+02 -0.17767085581E+02  0.19374420255E+02  0.31656544208E+02  0.51100000000E-03 0.  1.
         12    1    4    4    0    0  0.44128092364E+01 -0.21830460004E+00 -0.38811554814E+01  0.58808086286E+01  0.00000000000E+00 0. -1.
</event>
<event>
 8    1  0.1280925E-006  0.9118800E+02  0.7816164E-02  0.1184000E+00
        -11   -1    0    0    0    0  0.00000000000E+00  0.00000000000E+00  0.45593999997E+02  0.45594000000E+02  0.51100000000E-03 0. -1.
         11   -1    0    0    0    0 -0.00000000000E+00 -0.00000000000E+00 -0.45593999997E+02  0.45594000000E+02  0.51100000000E-03 0.  1.
         23    2    1    2    0    0  0.17763568394E-14 -0.35527136788E-14 -0.35527136788E-14  0.91188000000E+02  0.91188000000E+02 0.  0.
    9900012    2    3    3    0    0  0.10708912478E+02  0.23905522174E+02  0.25877109276E+02  0.54367087717E+02  0.40000008068E+02 0.  0.
         12    1    3    3    0    0 -0.10708912478E+02 -0.23905522174E+02 -0.25877109276E+02  0.36820912283E+02  0.00000000000E+00 0. -1.
         11    1    4    4    0    0  0.89314373137E+01  0.60378548073E+01  0.19988238614E+02  0.22710260816E+02  0.51100000000E-03 0. -1.
        -11    1    4    4    0    0 -0.10608824853E+02  0.14921230189E+02  0.24716481527E+01  0.18474288077E+02  0.51100000000E-03 0.  1.
        -12    1    4    4    0    0  0.12386300017E+02  0.29464371783E+01  0.34172225092E+01  0.13182538824E+02  0.00000000000E+00 0.  1.
</event>
<event>
 8    1  0.1280925E-006  0.9118800E+02  0.7816164E-02  0.1184000E+00
        -11   -1    0    0    0    0  0.00000000000E+00  0.00000000000E+00  0.45593999997E+02  0.45594000000E+02  0.51100000000E-03 0. -1.
         11   -1    0    0    0    0 -0.00000000000E+00 -0.00000000000E+00 -0.45593999997E+02  0.45594000000E+02  0.51100000000E-03 0.  1.
         23    2    1    2    0    0 -0.17763568394E-14 -0.35527136788E-14  0.00000000000E+00  0.91188000000E+02  0.91188000000E+02 0.  0.
    9900012    2    3    3    0    0  0.89844487637E+01  0.28632293352E+02 -0.21336617698E+02  0.54367084789E+02  0.40000001393E+02 0.  0.
         12    1    3    3    0    0 -0.89844487637E+01 -0.28632293352E+02  0.21336617698E+02  0.36820915211E+02  0.00000000000E+00 0. -1.
         11    1    4    4    0    0 -0.12413848368E+02  0.45584614998E+01 -0.69281662270E+01  0.14929256180E+02  0.51100000000E-03 0. -1.
        -11    1    4    4    0    0  0.13329485415E+02  0.95394197176E+01 -0.15786118674E+02  0.22756916598E+02  0.51100000000E-03 0.  1.
         12    1    4    4    0    0  0.80688117167E+01  0.14534412135E+02  0.13776672033E+01  0.16680912012E+02  0.00000000000E+00 0. -1.
</event>
<event>
 8    1  0.1280925E-006  0.9118800E+02  0.7816164E-02  0.1184000E+00
        -11   -1    0    0    0    0  0.00000000000E+00  0.00000000000E+00  0.45593999997E+02  0.45594000000E+02  0.51100000000E-03 0.  1.
         11   -1    0    0    0    0 -0.00000000000E+00 -0.00000000000E+00 -0.45593999997E+02  0.45594000000E+02  0.51100000000E-03 0. -1.
         23    2    1    2    0    0  0.00000000000E+00  0.17763568394E-14 -0.71054273576E-14  0.91188000000E+02  0.91188000000E+02 0.  0.
    9900012    2    3    3    0    0  0.64439489937E+01 -0.11941234428E+02  0.34229452755E+02  0.54367177166E+02  0.40000211984E+02 0.  0.
         12    1    3    3    0    0 -0.64439489937E+01  0.11941234428E+02 -0.34229452755E+02  0.36820822834E+02  0.00000000000E+00 0. -1.
         11    1    4    4    0    0  0.99769336225E-02 -0.12779185454E+02  0.11871057853E+01  0.12834208227E+02  0.51100000000E-03 0. -1.
        -11    1    4    4    0    0  0.13500836190E+01 -0.48189991393E+01  0.33539688256E+02  0.33911003628E+02  0.51100000000E-03 0.  1.
        -12    1    4    4    0    0  0.50838884411E+01  0.56569501646E+01 -0.49734128662E+00  0.76219653110E+01  0.00000000000E+00 0.  1.
</event>
<event>
 8    1  0.1280925E-006  0.9118800E+02  0.7816164E-02  0.1184000E+00
        -11   -1    0    0    0    0  0.00000000000E+00  0.00000000000E+00  0.45593999997E+02  0.45594000000E+02  0.51100000000E-03 0. -1.
         11   -1    0    0    0    0 -0.00000000000E+00 -0.00000000000E+00 -0.45593999997E+02  0.45594000000E+02  0.51100000000E-03 0.  1.
         23    2    1    2    0    0  0.00000000000E+00 -0.26645352591E-14  0.00000000000E+00  0.91188000000E+02  0.91188000000E+02 0.  0.
    9900012    2    3    3    0    0 -0.29084497343E+02 -0.79862453022E+01 -0.21120939834E+02  0.54367052169E+02  0.39999927029E+02 0.  0.
         12    1    3    3    0    0  0.29084497343E+02  0.79862453022E+01  0.21120939834E+02  0.36820947831E+02  0.00000000000E+00 0. -1.
         11    1    4    4    0    0 -0.79196833724E+01 -0.12272659135E+02 -0.65554761767E+01  0.16009803719E+02  0.51100000000E-03 0. -1.
        -11    1    4    4    0    0 -0.24680709554E+02  0.80911540865E+01 -0.18469452457E+02  0.31870438856E+02  0.51100000000E-03 0.  1.
        -12    1    4    4    0    0  0.35158955835E+01 -0.38047402538E+01  0.39039887999E+01  0.64868095935E+01  0.00000000000E+00 0.  1.
</event>
<event>
 8    1  0.1280925E-006  0.9118800E+02  0.7816164E-02  0.1184000E+00
        -11   -1    0    0    0    0  0.00000000000E+00  0.00000000000E+00  0.45593999997E+02  0.45594000000E+02  0.51100000000E-03 0.  1.
         11   -1    0    0    0    0 -0.00000000000E+00 -0.00000000000E+00 -0.45593999997E+02  0.45594000000E+02  0.51100000000E-03 0. -1.
         23    2    1    2    0    0  0.00000000000E+00  0.00000000000E+00  0.00000000000E+00  0.91188000000E+02  0.91188000000E+02 0.  0.
    9900012    2    3    3    0    0 -0.15889610011E+02 -0.16658757684E+02  0.28736268184E+02  0.54367258250E+02  0.40000396830E+02 0.  0.
         12    1    3    3    0    0  0.15889610011E+02  0.16658757684E+02 -0.28736268184E+02  0.36820741750E+02  0.00000000000E+00 0. -1.
         11    1    4    4    0    0 -0.14196992286E+02 -0.10836534075E+02  0.20258379475E+02  0.27007165714E+02  0.51100000000E-03 0. -1.
        -11    1    4    4    0    0 -0.59945327871E+01 -0.14522103733E+02  0.80312099480E+01  0.17644439738E+02  0.51100000000E-03 0.  1.
         12    1    4    4    0    0  0.43019150620E+01  0.86998801239E+01  0.44667876157E+00  0.97156527978E+01  0.00000000000E+00 0. -1.
</event>
<event>
 8    1  0.1280925E-006  0.9118800E+02  0.7816164E-02  0.1184000E+00
        -11   -1    0    0    0    0  0.00000000000E+00  0.00000000000E+00  0.45593999997E+02  0.45594000000E+02  0.51100000000E-03 0. -1.
         11   -1    0    0    0    0 -0.00000000000E+00 -0.00000000000E+00 -0.45593999997E+02  0.45594000000E+02  0.51100000000E-03 0.  1.
         23    2    1    2    0    0 -0.17763568394E-14 -0.71054273576E-14  0.00000000000E+00  0.91188000000E+02  0.91188000000E+02 0.  0.
    9900012    2    3    3    0    0 -0.13187785947E+02 -0.33189339028E+02  0.89625879607E+01  0.54367110464E+02  0.40000059925E+02 0.  0.
        -12    1    3    3    0    0  0.13187785947E+02  0.33189339028E+02 -0.89625879607E+01  0.36820889536E+02  0.00000000000E+00 0.  1.
         11    1    4    4    0    0 -0.46650004083E+01 -0.36220628758E+01  0.32404458233E+01  0.67366206425E+01  0.51100000000E-03 0. -1.
        -11    1    4    4    0    0 -0.69067252448E+01 -0.55745599784E+01 -0.13968746575E+02  0.16550059024E+02  0.51100000000E-03 0.  1.
        -12    1    4    4    0    0 -0.16160602936E+01 -0.23992716173E+02  0.19690888713E+02  0.31080430797E+02  0.00000000000E+00 0.  1.
</event>
<event>
 8    1  0.1280925E-006  0.9118800E+02  0.7816164E-02  0.1184000E+00
        -11   -1    0    0    0    0  0.00000000000E+00  0.00000000000E+00  0.45593999997E+02  0.45594000000E+02  0.51100000000E-03 0.  1.
         11   -1    0    0    0    0 -0.00000000000E+00 -0.00000000000E+00 -0.45593999997E+02  0.45594000000E+02  0.51100000000E-03 0. -1.
         23    2    1    2    0    0  0.77715611724E-15 -0.71054273576E-14  0.35527136788E-14  0.91188000000E+02  0.91188000000E+02 0.  0.
    9900012    2    3    3    0    0  0.67530174594E+00  0.29283620693E+02  0.22311265262E+02  0.54367095191E+02  0.40000025107E+02 0.  0.
         12    1    3    3    0    0 -0.67530174594E+00 -0.29283620693E+02 -0.22311265262E+02  0.36820904809E+02  0.00000000000E+00 0. -1.
         11    1    4    4    0    0 -0.86953152630E+01 -0.54373544564E+01  0.24582841243E+01  0.10545923009E+02  0.51100000000E-03 0. -1.
        -11    1    4    4    0    0  0.10848801798E+02  0.13148135073E+02  0.56829482150E+01  0.17968468411E+02  0.51100000000E-03 0.  1.
         12    1    4    4    0    0 -0.14781847894E+01  0.21572840076E+02  0.14170032923E+02  0.25852703771E+02  0.00000000000E+00 0. -1.
</event>
<event>
 8    1  0.1280925E-006  0.9118800E+02  0.7816164E-02  0.1184000E+00
        -11   -1    0    0    0    0  0.00000000000E+00  0.00000000000E+00  0.45593999997E+02  0.45594000000E+02  0.51100000000E-03 0. -1.
         11   -1    0    0    0    0 -0.00000000000E+00 -0.00000000000E+00 -0.45593999997E+02  0.45594000000E+02  0.51100000000E-03 0.  1.
         23    2    1    2    0    0  0.00000000000E+00  0.35527136788E-14  0.88817841970E-15  0.91188000000E+02  0.91188000000E+02 0.  0.
    9900012    2    3    3    0    0  0.31634457546E+02 -0.18820766086E+02 -0.90530974223E+00  0.54367085753E+02  0.40000003591E+02 0.  0.
         12    1    3    3    0    0 -0.31634457546E+02  0.18820766086E+02  0.90530974223E+00  0.36820914247E+02  0.00000000000E+00 0. -1.
         11    1    4    4    0    0  0.11617772743E+02  0.84743403784E+01 -0.21341139563E+01  0.14537590274E+02  0.51100000000E-03 0. -1.
        -11    1    4    4    0    0  0.36605061124E+01 -0.33779085646E+00 -0.64071293602E+01  0.73867932529E+01  0.51100000000E-03 0.  1.
         12    1    4    4    0    0  0.16356178691E+02 -0.26957315608E+02  0.76359335743E+01  0.32442702226E+02  0.00000000000E+00 0. -1.
</event>
<event>
 8    1  0.1280925E-006  0.9118800E+02  0.7816164E-02  0.1184000E+00
        -11   -1    0    0    0    0  0.00000000000E+00  0.00000000000E+00  0.45593999997E+02  0.45594000000E+02  0.51100000000E-03 0.  1.
         11   -1    0    0    0    0 -0.00000000000E+00 -0.00000000000E+00 -0.45593999997E+02  0.45594000000E+02  0.51100000000E-03 0. -1.
         23    2    1    2    0    0  0.00000000000E+00  0.00000000000E+00  0.00000000000E+00  0.91188000000E+02  0.91188000000E+02 0.  0.
    9900012    2    3    3    0    0 -0.76224698176E+01 -0.17850068858E+02 -0.31289847495E+02  0.54367060840E+02  0.39999946797E+02 0.  0.
        -12    1    3    3    0    0  0.76224698176E+01  0.17850068858E+02  0.31289847495E+02  0.36820939160E+02  0.00000000000E+00 0.  1.
         11    1    4    4    0    0 -0.48582954287E+01  0.10609063473E+02 -0.37687514620E+01  0.12262085878E+02  0.51100000000E-03 0. -1.
        -11    1    4    4    0    0 -0.40484654763E+01 -0.43756537754E+01 -0.64788021546E+00  0.59963461966E+01  0.51100000000E-03 0.  1.
        -12    1    4    4    0    0  0.12842910874E+01 -0.24083478555E+02 -0.26873215818E+02  0.36108628765E+02  0.00000000000E+00 0.  1.
</event>
<event>
 8    1  0.1280925E-006  0.9118800E+02  0.7816164E-02  0.1184000E+00
        -11   -1    0    0    0    0  0.00000000000E+00  0.00000000000E+00  0.45593999997E+02  0.45594000000E+02  0.51100000000E-03 0.  1.
         11   -1    0    0    0    0 -0.00000000000E+00 -0.00000000000E+00 -0.45593999997E+02  0.45594000000E+02  0.51100000000E-03 0. -1.
         23    2    1    2    0    0  0.00000000000E+00  0.00000000000E+00  0.00000000000E+00  0.91188000000E+02  0.91188000000E+02 0.  0.
    9900012    2    3    3    0    0  0.32955932620E+02  0.12015361808E+02 -0.11194540355E+02  0.54367080023E+02  0.39999990527E+02 0.  0.
         12    1    3    3    0    0 -0.32955932620E+02 -0.12015361808E+02  0.11194540355E+02  0.36820919977E+02  0.00000000000E+00 0. -1.
         11    1    4    4    0    0  0.24635171843E+02  0.41279267234E+01 -0.28587398821E+01  0.25141675854E+02  0.51100000000E-03 0. -1.
        -11    1    4    4    0    0 -0.80571749473E+01  0.13320791056E+01 -0.82154360673E+01  0.11583863471E+02  0.51100000000E-03 0.  1.
        -12    1    4    4    0    0  0.16377935724E+02  0.65553559794E+01 -0.12036440533E+00  0.17641540698E+02  0.00000000000E+00 0.  1.
</event>
<event>
 8    1  0.1280925E-006  0.9118800E+02  0.7816164E-02  0.1184000E+00
        -11   -1    0    0    0    0  0.00000000000E+00  0.00000000000E+00  0.45593999997E+02  0.45594000000E+02  0.51100000000E-03 0. -1.
         11   -1    0    0    0    0 -0.00000000000E+00 -0.00000000000E+00 -0.45593999997E+02  0.45594000000E+02  0.51100000000E-03 0.  1.
         23    2    1    2    0    0 -0.17763568394E-14  0.35527136788E-14  0.00000000000E+00  0.91188000000E+02  0.91188000000E+02 0.  0.
    9900012    2    3    3    0    0  0.11518526438E+02  0.28755371178E+02 -0.19905566364E+02  0.54367090245E+02  0.40000013831E+02 0.  0.
        -12    1    3    3    0    0 -0.11518526438E+02 -0.28755371178E+02  0.19905566364E+02  0.36820909755E+02  0.00000000000E+00 0.  1.
         11    1    4    4    0    0  0.17052176515E+02  0.11883271288E+02 -0.12549262058E+02  0.24279061738E+02  0.51100000000E-03 0. -1.
        -11    1    4    4    0    0 -0.45795182876E+01  0.19909797370E+02  0.16883188467E+01  0.20499327790E+02  0.51100000000E-03 0.  1.
        -12    1    4    4    0    0 -0.95413178925E+00 -0.30376974801E+01 -0.90446231528E+01  0.95887007163E+01  0.00000000000E+00 0.  1.
</event>
<event>
 8    1  0.1280925E-006  0.9118800E+02  0.7816164E-02  0.1184000E+00
        -11   -1    0    0    0    0  0.00000000000E+00  0.00000000000E+00  0.45593999997E+02  0.45594000000E+02  0.51100000000E-03 0.  1.
         11   -1    0    0    0    0 -0.00000000000E+00 -0.00000000000E+00 -0.45593999997E+02  0.45594000000E+02  0.51100000000E-03 0. -1.
         23    2    1    2    0    0  0.00000000000E+00 -0.35527136788E-14  0.00000000000E+00  0.91188000000E+02  0.91188000000E+02 0.  0.
    9900012    2    3    3    0    0 -0.23411957127E+02  0.17263356605E+02  0.22575119995E+02  0.54367092073E+02  0.40000017998E+02 0.  0.
         12    1    3    3    0    0  0.23411957127E+02 -0.17263356605E+02 -0.22575119995E+02  0.36820907927E+02  0.00000000000E+00 0. -1.
         11    1    4    4    0    0 -0.13666378935E+01  0.12400757818E+01  0.42235065381E+01  0.46090665882E+01  0.51100000000E-03 0. -1.
        -11    1    4    4    0    0 -0.18089763114E+02 -0.85821331033E+01  0.14070005280E+02  0.24471566909E+02  0.51100000000E-03 0.  1.
        -12    1    4    4    0    0 -0.39555561194E+01  0.24605413927E+02  0.42816081767E+01  0.25286458576E+02  0.00000000000E+00 0.  1.
</event>
<event>
 8    1  0.1280925E-006  0.9118800E+02  0.7816164E-02  0.1184000E+00
        -11   -1    0    0    0    0  0.00000000000E+00  0.00000000000E+00  0.45593999997E+02  0.45594000000E+02  0.51100000000E-03 0.  1.
         11   -1    0    0    0    0 -0.00000000000E+00 -0.00000000000E+00 -0.45593999997E+02  0.45594000000E+02  0.51100000000E-03 0. -1.
         23    2    1    2    0    0 -0.44408920985E-15  0.00000000000E+00 -0.17763568394E-14  0.91188000000E+02  0.91188000000E+02 0.  0.
    9900012    2    3    3    0    0  0.28098728668E+01  0.33631627800E+02 -0.14724059521E+02  0.54367086068E+02  0.40000004309E+02 0.  0.
        -12    1    3    3    0    0 -0.28098728668E+01 -0.33631627800E+02  0.14724059521E+02  0.36820913932E+02  0.00000000000E+00 0.  1.
         11    1    4    4    0    0  0.10541293691E+02  0.68537691337E+01 -0.80123463644E+00  0.12599007946E+02  0.51100000000E-03 0. -1.
        -11    1    4    4    0    0 -0.12004147432E+02  0.16459383144E+02  0.38936976342E+01  0.20740581732E+02  0.51100000000E-03 0.  1.
        -12    1    4    4    0    0  0.42727266070E+01  0.10318475522E+02 -0.17816522519E+02  0.21027496390E+02  0.00000000000E+00 0.  1.
</event>
<event>
 8    1  0.1280925E-006  0.9118800E+02  0.7816164E-02  0.1184000E+00
        -11   -1    0    0    0    0  0.00000000000E+00  0.00000000000E+00  0.45593999997E+02  0.45594000000E+02  0.51100000000E-03 0. -1.
         11   -1    0    0    0    0 -0.00000000000E+00 -0.00000000000E+00 -0.45593999997E+02  0.45594000000E+02  0.51100000000E-03 0.  1.
         23    2    1    2    0    0 -0.35527136788E-14 -0.35527136788E-14 -0.35527136788E-14  0.91188000000E+02  0.91188000000E+02 0.  0.
    9900012    2    3    3    0    0 -0.20513260151E+02 -0.21872830929E+02 -0.21367524481E+02  0.54367004938E+02  0.39999819357E+02 0.  0.
         12    1    3    3    0    0  0.20513260151E+02  0.21872830929E+02  0.21367524481E+02  0.36820995062E+02  0.00000000000E+00 0. -1.
         11    1    4    4    0    0 -0.19855301605E+02 -0.57909665470E+01 -0.29823019787E+01  0.20896469098E+02  0.51100000000E-03 0. -1.
        -11    1    4    4    0    0 -0.11658880344E+02 -0.91199110097E+01 -0.11491588984E+02  0.18739233852E+02  0.51100000000E-03 0.  1.
        -12    1    4    4    0    0  0.11000921799E+02 -0.69619533727E+01 -0.68936335185E+01  0.14731301989E+02  0.00000000000E+00 0.  1.
</event>
<event>
 8    1  0.1280925E-006  0.9118800E+02  0.7816164E-02  0.1184000E+00
        -11   -1    0    0    0    0  0.00000000000E+00  0.00000000000E+00  0.45593999997E+02  0.45594000000E+02  0.51100000000E-03 0. -1.
         11   -1    0    0    0    0 -0.00000000000E+00 -0.00000000000E+00 -0.45593999997E+02  0.45594000000E+02  0.51100000000E-03 0.  1.
         23    2    1    2    0    0  0.00000000000E+00  0.35527136788E-14 -0.17763568394E-14  0.91188000000E+02  0.91188000000E+02 0.  0.
    9900012    2    3    3    0    0  0.26474742600E+02  0.22151519724E+02 -0.12813206310E+02  0.54367080975E+02  0.39999992700E+02 0.  0.
         12    1    3    3    0    0 -0.26474742600E+02 -0.22151519724E+02  0.12813206310E+02  0.36820919025E+02  0.00000000000E+00 0. -1.
         11    1    4    4    0    0 -0.14796454865E+01 -0.27251167316E+00 -0.10566640602E+02  0.10673214476E+02  0.51100000000E-03 0. -1.
        -11    1    4    4    0    0  0.14756450430E+02 -0.10733251329E+01  0.52851184755E+01  0.15711057688E+02  0.51100000000E-03 0.  1.
         12    1    4    4    0    0  0.13197937657E+02  0.23497356531E+02 -0.75316841842E+01  0.27982808812E+02  0.00000000000E+00 0. -1.
</event>
<event>
 8    1  0.1280925E-006  0.9118800E+02  0.7816164E-02  0.1184000E+00
        -11   -1    0    0    0    0  0.00000000000E+00  0.00000000000E+00  0.45593999997E+02  0.45594000000E+02  0.51100000000E-03 0. -1.
         11   -1    0    0    0    0 -0.00000000000E+00 -0.00000000000E+00 -0.45593999997E+02  0.45594000000E+02  0.51100000000E-03 0.  1.
         23    2    1    2    0    0  0.00000000000E+00  0.00000000000E+00  0.00000000000E+00  0.91188000000E+02  0.91188000000E+02 0.  0.
    9900012    2    3    3    0    0  0.29873291513E+02 -0.19248574084E+02 -0.96363068908E+01  0.54367088000E+02  0.40000008713E+02 0.  0.
         12    1    3    3    0    0 -0.29873291513E+02  0.19248574084E+02  0.96363068908E+01  0.36820912000E+02  0.00000000000E+00 0. -1.
         11    1    4    4    0    0  0.15721473932E+02  0.48057873473E+01 -0.69686871874E+00  0.16454359936E+02  0.51100000000E-03 0. -1.
        -11    1    4    4    0    0  0.12199599118E+02  0.43886824608E+00 -0.19094314394E+01  0.12355919741E+02  0.51100000000E-03 0.  1.
         12    1    4    4    0    0  0.19522184622E+01 -0.24493229677E+02 -0.70300067326E+01  0.25556808322E+02  0.00000000000E+00 0. -1.
</event>
<event>
 8    1  0.1280925E-006  0.9118800E+02  0.7816164E-02  0.1184000E+00
        -11   -1    0    0    0    0  0.00000000000E+00  0.00000000000E+00  0.45593999997E+02  0.45594000000E+02  0.51100000000E-03 0.  1.
         11   -1    0    0    0    0 -0.00000000000E+00 -0.00000000000E+00 -0.45593999997E+02  0.45594000000E+02  0.51100000000E-03 0. -1.
         23    2    1    2    0    0  0.00000000000E+00 -0.17763568394E-14  0.00000000000E+00  0.91188000000E+02  0.91188000000E+02 0.  0.
    9900012    2    3    3    0    0 -0.32170248379E+02 -0.15987611790E+02 -0.80777891344E+01  0.54367091690E+02  0.40000017125E+02 0.  0.
        -12    1    3    3    0    0  0.32170248379E+02  0.15987611790E+02  0.80777891344E+01  0.36820908310E+02  0.00000000000E+00 0.  1.
         11    1    4    4    0    0 -0.12320037405E+02  0.61309081687E+01 -0.66925072526E+00  0.13777490825E+02  0.51100000000E-03 0. -1.
        -11    1    4    4    0    0 -0.72510011368E+01 -0.25725094527E+02 -0.37970030745E+01  0.26995828169E+02  0.51100000000E-03 0.  1.
        -12    1    4    4    0    0 -0.12599209836E+02  0.36065745688E+01 -0.36115353346E+01  0.13593772695E+02  0.00000000000E+00 0.  1.
</event>
<event>
 8    1  0.1280925E-006  0.9118800E+02  0.7816164E-02  0.1184000E+00
        -11   -1    0    0    0    0  0.00000000000E+00  0.00000000000E+00  0.45593999997E+02  0.45594000000E+02  0.51100000000E-03 0.  1.
         11   -1    0    0    0    0 -0.00000000000E+00 -0.00000000000E+00 -0.45593999997E+02  0.45594000000E+02  0.51100000000E-03 0. -1.
         23    2    1    2    0    0 -0.71054273576E-14  0.00000000000E+00  0.00000000000E+00  0.91188000000E+02  0.91188000000E+02 0.  0.
    9900012    2    3    3    0    0  0.32150600085E+02 -0.73219970866E+01  0.16386196335E+02  0.54367079893E+02  0.39999990233E+02 0.  0.
         12    1    3    3    0    0 -0.32150600085E+02  0.73219970866E+01 -0.16386196335E+02  0.36820920107E+02  0.00000000000E+00 0. -1.
         11    1    4    4    0    0 -0.47781804271E+01 -0.69393458914E+01  0.34004960440E+00  0.84321505910E+01  0.51100000000E-03 0. -1.
        -11    1    4    4    0    0  0.83736724629E+01 -0.13220400458E+01 -0.55395577686E+01  0.10126839632E+02  0.51100000000E-03 0.  1.
        -12    1    4    4    0    0  0.28555108050E+02  0.93938885061E+00  0.21585704499E+02  0.35808089670E+02  0.00000000000E+00 0.  1.
</event>
<event>
 8    1  0.1280925E-006  0.9118800E+02  0.7816164E-02  0.1184000E+00
        -11   -1    0    0    0    0  0.00000000000E+00  0.00000000000E+00  0.45593999997E+02  0.45594000000E+02  0.51100000000E-03 0. -1.
         11   -1    0    0    0    0 -0.00000000000E+00 -0.00000000000E+00 -0.45593999997E+02  0.45594000000E+02  0.51100000000E-03 0.  1.
         23    2    1    2    0    0 -0.11102230246E-14 -0.35527136788E-14  0.00000000000E+00  0.91188000000E+02  0.91188000000E+02 0.  0.
    9900012    2    3    3    0    0 -0.10081765448E+01  0.23935727309E+02  0.27961411663E+02  0.54367136295E+02  0.40000118812E+02 0.  0.
        -12    1    3    3    0    0  0.10081765448E+01 -0.23935727309E+02 -0.27961411663E+02  0.36820863705E+02  0.00000000000E+00 0.  1.
         11    1    4    4    0    0  0.57582795952E+01  0.13756631178E+01 -0.55492859940E+01  0.81144813891E+01  0.51100000000E-03 0.  1.
        -11    1    4    4    0    0  0.45124404757E+01 -0.40055137533E+00  0.12009491160E+02  0.12835514739E+02  0.51100000000E-03 0. -1.
        -12    1    4    4    0    0 -0.11278896616E+02  0.22960615567E+02  0.21501206497E+02  0.33417140167E+02  0.00000000000E+00 0.  1.
</event>
<event>
 8    1  0.1280925E-006  0.9118800E+02  0.7816164E-02  0.1184000E+00
        -11   -1    0    0    0    0  0.00000000000E+00  0.00000000000E+00  0.45593999997E+02  0.45594000000E+02  0.51100000000E-03 0.  1.
         11   -1    0    0    0    0 -0.00000000000E+00 -0.00000000000E+00 -0.45593999997E+02  0.45594000000E+02  0.51100000000E-03 0. -1.
         23    2    1    2    0    0  0.00000000000E+00  0.22204460493E-14  0.00000000000E+00  0.91188000000E+02  0.91188000000E+02 0.  0.
    9900012    2    3    3    0    0  0.53004368965E+01  0.20432266417E+01 -0.36380082135E+02  0.54367084985E+02  0.40000001839E+02 0.  0.
        -12    1    3    3    0    0 -0.53004368965E+01 -0.20432266417E+01  0.36380082135E+02  0.36820915015E+02  0.00000000000E+00 0.  1.
         11    1    4    4    0    0  0.14549836625E+02  0.78660159579E+01 -0.51700448186E+01  0.17329204152E+02  0.51100000000E-03 0. -1.
        -11    1    4    4    0    0 -0.18616253639E+01 -0.10844474550E+02 -0.17725356645E+02  0.20862802921E+02  0.51100000000E-03 0.  1.
         12    1    4    4    0    0 -0.73877743641E+01  0.50216852336E+01 -0.13484680672E+02  0.16175077912E+02  0.00000000000E+00 0. -1.
</event>
<event>
 8    1  0.1280925E-006  0.9118800E+02  0.7816164E-02  0.1184000E+00
        -11   -1    0    0    0    0  0.00000000000E+00  0.00000000000E+00  0.45593999997E+02  0.45594000000E+02  0.51100000000E-03 0. -1.
         11   -1    0    0    0    0 -0.00000000000E+00 -0.00000000000E+00 -0.45593999997E+02  0.45594000000E+02  0.51100000000E-03 0.  1.
         23    2    1    2    0    0  0.27755575616E-15 -0.44408920985E-15  0.00000000000E+00  0.91188000000E+02  0.91188000000E+02 0.  0.
    9900012    2    3    3    0    0  0.18792902342E+00 -0.13538209988E+01 -0.36795492378E+02  0.54367130809E+02  0.40000106305E+02 0.  0.
         12    1    3    3    0    0 -0.18792902342E+00  0.13538209988E+01  0.36795492378E+02  0.36820869191E+02  0.00000000000E+00 0. -1.
         11    1    4    4    0    0  0.26364414795E+01 -0.75238500147E+01  0.43780376661E+01  0.90954030579E+01  0.51100000000E-03 0. -1.
        -11    1    4    4    0    0  0.47375850348E+01 -0.35281159851E+01 -0.20483423755E+02  0.21318136958E+02  0.51100000000E-03 0.  1.
        -12    1    4    4    0    0 -0.71860974908E+01  0.96981450011E+01 -0.20690106290E+02  0.23953590793E+02  0.00000000000E+00 0.  1.
</event>
<event>
 8    1  0.1280925E-006  0.9118800E+02  0.7816164E-02  0.1184000E+00
        -11   -1    0    0    0    0  0.00000000000E+00  0.00000000000E+00  0.45593999997E+02  0.45594000000E+02  0.51100000000E-03 0.  1.
         11   -1    0    0    0    0 -0.00000000000E+00 -0.00000000000E+00 -0.45593999997E+02  0.45594000000E+02  0.51100000000E-03 0. -1.
         23    2    1    2    0    0 -0.35527136788E-14  0.00000000000E+00 -0.88817841970E-15  0.91188000000E+02  0.91188000000E+02 0.  0.
    9900012    2    3    3    0    0 -0.10613465953E+02  0.34937315383E+02  0.47455276643E+01  0.54367058967E+02  0.39999942528E+02 0.  0.
        -12    1    3    3    0    0  0.10613465953E+02 -0.34937315383E+02 -0.47455276643E+01  0.36820941033E+02  0.00000000000E+00 0.  1.
         11    1    4    4    0    0  0.75208281303E+01 -0.20715276619E+01 -0.43876791245E+01  0.89501849691E+01  0.51100000000E-03 0. -1.
        -11    1    4    4    0    0 -0.93937552443E+01  0.38737998920E+01  0.11091067362E+01  0.10221500927E+02  0.51100000000E-03 0.  1.
         12    1    4    4    0    0 -0.87405388392E+01  0.33135043153E+02  0.80241000527E+01  0.35195373071E+02  0.00000000000E+00 0. -1.
</event>
<event>
 8    1  0.1280925E-006  0.9118800E+02  0.7816164E-02  0.1184000E+00
        -11   -1    0    0    0    0  0.00000000000E+00  0.00000000000E+00  0.45593999997E+02  0.45594000000E+02  0.51100000000E-03 0. -1.
         11   -1    0    0    0    0 -0.00000000000E+00 -0.00000000000E+00 -0.45593999997E+02  0.45594000000E+02  0.51100000000E-03 0.  1.
         23    2    1    2    0    0  0.00000000000E+00 -0.35527136788E-14  0.00000000000E+00  0.91188000000E+02  0.91188000000E+02 0.  0.
    9900012    2    3    3    0    0 -0.11685483325E+02 -0.30081974978E+02 -0.17728582077E+02  0.54367104280E+02  0.40000045828E+02 0.  0.
         12    1    3    3    0    0  0.11685483325E+02  0.30081974978E+02  0.17728582077E+02  0.36820895720E+02  0.00000000000E+00 0. -1.
         11    1    4    4    0    0 -0.17504823406E+00 -0.14726207212E+02  0.38220888472E+01  0.15215130107E+02  0.51100000000E-03 0. -1.
        -11    1    4    4    0    0  0.43529194349E+01 -0.10498269266E+02  0.71230015951E+00  0.11387226922E+02  0.51100000000E-03 0.  1.
         12    1    4    4    0    0 -0.15863354526E+02 -0.48574984997E+01 -0.22262971083E+02  0.27764747252E+02  0.00000000000E+00 0. -1.
</event>
<event>
 8    1  0.1280925E-006  0.9118800E+02  0.7816164E-02  0.1184000E+00
        -11   -1    0    0    0    0  0.00000000000E+00  0.00000000000E+00  0.45593999997E+02  0.45594000000E+02  0.51100000000E-03 0.  1.
         11   -1    0    0    0    0 -0.00000000000E+00 -0.00000000000E+00 -0.45593999997E+02  0.45594000000E+02  0.51100000000E-03 0. -1.
         23    2    1    2    0    0 -0.35527136788E-14  0.00000000000E+00  0.22204460493E-14  0.91188000000E+02  0.91188000000E+02 0.  0.
    9900012    2    3    3    0    0 -0.25567797453E+02 -0.26396762982E+02  0.22978098580E+01  0.54367064479E+02  0.39999955092E+02 0.  0.
         12    1    3    3    0    0  0.25567797453E+02  0.26396762982E+02 -0.22978098580E+01  0.36820935521E+02  0.00000000000E+00 0. -1.
         11    1    4    4    0    0  0.53651277660E+01 -0.10889090896E+02 -0.99646860562E+00  0.12179895174E+02  0.51100000000E-03 0. -1.
        -11    1    4    4    0    0 -0.31179474114E+02 -0.13668861296E+02  0.97964255206E+01  0.35425518040E+02  0.51100000000E-03 0.  1.
        -12    1    4    4    0    0  0.24654889506E+00 -0.18388107889E+01 -0.65021470570E+01  0.67616512647E+01  0.00000000000E+00 0.  1.
</event>
<event>
 8    1  0.1280925E-006  0.9118800E+02  0.7816164E-02  0.1184000E+00
        -11   -1    0    0    0    0  0.00000000000E+00  0.00000000000E+00  0.45593999997E+02  0.45594000000E+02  0.51100000000E-03 0.  1.
         11   -1    0    0    0    0 -0.00000000000E+00 -0.00000000000E+00 -0.45593999997E+02  0.45594000000E+02  0.51100000000E-03 0. -1.
         23    2    1    2    0    0  0.35527136788E-14  0.00000000000E+00  0.17763568394E-14  0.91188000000E+02  0.91188000000E+02 0.  0.
    9900012    2    3    3    0    0  0.18336847639E+02 -0.28219304119E+02  0.14940231653E+02  0.54367087082E+02  0.40000006620E+02 0.  0.
         12    1    3    3    0    0 -0.18336847639E+02  0.28219304119E+02 -0.14940231653E+02  0.36820912918E+02  0.00000000000E+00 0. -1.
         11    1    4    4    0    0  0.46013944891E+01 -0.12192339572E+02 -0.31318161664E+01  0.13402770170E+02  0.51100000000E-03 0.  1.
        -11    1    4    4    0    0  0.42118396592E+01  0.79496899262E+01  0.11006445319E+02  0.14215449414E+02  0.51100000000E-03 0. -1.
        -12    1    4    4    0    0  0.95236134905E+01 -0.23976654474E+02  0.70656025003E+01  0.26748867497E+02  0.00000000000E+00 0.  1.
</event>
<event>
 8    1  0.1280925E-006  0.9118800E+02  0.7816164E-02  0.1184000E+00
        -11   -1    0    0    0    0  0.00000000000E+00  0.00000000000E+00  0.45593999997E+02  0.45594000000E+02  0.51100000000E-03 0.  1.
         11   -1    0    0    0    0 -0.00000000000E+00 -0.00000000000E+00 -0.45593999997E+02  0.45594000000E+02  0.51100000000E-03 0. -1.
         23    2    1    2    0    0  0.35527136788E-14  0.00000000000E+00  0.00000000000E+00  0.91188000000E+02  0.91188000000E+02 0.  0.
    9900012    2    3    3    0    0 -0.22191280593E+02  0.19444692340E+02  0.22027996661E+02  0.54367059878E+02  0.39999944604E+02 0.  0.
         12    1    3    3    0    0  0.22191280593E+02 -0.19444692340E+02 -0.22027996661E+02  0.36820940122E+02  0.00000000000E+00 0. -1.
         11    1    4    4    0    0 -0.24025343949E+01  0.90780085793E+01  0.16230405571E+01  0.95297781818E+01  0.51100000000E-03 0. -1.
        -11    1    4    4    0    0 -0.14076312576E+01  0.12615391864E+02  0.22869209262E+02  0.26155884045E+02  0.51100000000E-03 0.  1.
        -12    1    4    4    0    0 -0.18381114940E+02 -0.22487081037E+01 -0.24642531578E+01  0.18681397651E+02  0.00000000000E+00 0.  1.
</event>
<event>
 8    1  0.1280925E-006  0.9118800E+02  0.7816164E-02  0.1184000E+00
        -11   -1    0    0    0    0  0.00000000000E+00  0.00000000000E+00  0.45593999997E+02  0.45594000000E+02  0.51100000000E-03 0. -1.
         11   -1    0    0    0    0 -0.00000000000E+00 -0.00000000000E+00 -0.45593999997E+02  0.45594000000E+02  0.51100000000E-03 0.  1.
         23    2    1    2    0    0  0.00000000000E+00  0.17763568394E-14  0.35527136788E-14  0.91188000000E+02  0.91188000000E+02 0.  0.
    9900012    2    3    3    0    0  0.34171200891E+02 -0.82596123507E+01 -0.10949302200E+02  0.54367090381E+02  0.40000014141E+02 0.  0.
         12    1    3    3    0    0 -0.34171200891E+02  0.82596123507E+01  0.10949302200E+02  0.36820909619E+02  0.00000000000E+00 0. -1.
         11    1    4    4    0    0  0.18695877240E+02  0.89992155609E+01  0.33085454415E+01  0.21011144179E+02  0.51100000000E-03 0.  1.
        -11    1    4    4    0    0 -0.69682203162E+00  0.36483157555E+01 -0.20270904738E+01  0.42314140480E+01  0.51100000000E-03 0. -1.
         12    1    4    4    0    0  0.16172145683E+02 -0.20907143667E+02 -0.12230757168E+02  0.29124532154E+02  0.00000000000E+00 0. -1.
</event>
<event>
 8    1  0.1280925E-006  0.9118800E+02  0.7816164E-02  0.1184000E+00
        -11   -1    0    0    0    0  0.00000000000E+00  0.00000000000E+00  0.45593999997E+02  0.45594000000E+02  0.51100000000E-03 0.  1.
         11   -1    0    0    0    0 -0.00000000000E+00 -0.00000000000E+00 -0.45593999997E+02  0.45594000000E+02  0.51100000000E-03 0. -1.
         23    2    1    2    0    0  0.35527136788E-14  0.00000000000E+00  0.17763568394E-14  0.91188000000E+02  0.91188000000E+02 0.  0.
    9900012    2    3    3    0    0  0.30287896615E+02 -0.16049863527E+02  0.13447211277E+02  0.54367050913E+02  0.39999924166E+02 0.  0.
         12    1    3    3    0    0 -0.30287896615E+02  0.16049863527E+02 -0.13447211277E+02  0.36820949087E+02  0.00000000000E+00 0. -1.
         11    1    4    4    0    0 -0.24213611837E+01 -0.80557055841E+00 -0.10698498193E+01  0.27670404413E+01  0.51100000000E-03 0. -1.
        -11    1    4    4    0    0 -0.27132566512E+01  0.71157445843E+01  0.18449925877E+01  0.78357884450E+01  0.51100000000E-03 0.  1.
        -12    1    4    4    0    0  0.35422514450E+02 -0.22360037553E+02  0.12672068508E+02  0.43764222026E+02  0.00000000000E+00 0.  1.
</event>
<event>
 8    1  0.1280925E-006  0.9118800E+02  0.7816164E-02  0.1184000E+00
        -11   -1    0    0    0    0  0.00000000000E+00  0.00000000000E+00  0.45593999997E+02  0.45594000000E+02  0.51100000000E-03 0. -1.
         11   -1    0    0    0    0 -0.00000000000E+00 -0.00000000000E+00 -0.45593999997E+02  0.45594000000E+02  0.51100000000E-03 0.  1.
         23    2    1    2    0    0  0.00000000000E+00  0.00000000000E+00  0.35527136788E-14  0.91188000000E+02  0.91188000000E+02 0.  0.
    9900012    2    3    3    0    0 -0.16560546386E+02  0.11918184531E+02  0.30651002731E+02  0.54367098497E+02  0.40000032643E+02 0.  0.
        -12    1    3    3    0    0  0.16560546386E+02 -0.11918184531E+02 -0.30651002731E+02  0.36820901503E+02  0.00000000000E+00 0.  1.
         11    1    4    4    0    0 -0.49078848723E+01  0.27065609385E+01  0.12151153347E+02  0.13381454852E+02  0.51100000000E-03 0. -1.
        -11    1    4    4    0    0 -0.22793459735E+02  0.67873752586E+01  0.69989358174E+01  0.24791034114E+02  0.51100000000E-03 0.  1.
        -12    1    4    4    0    0  0.11140798222E+02  0.24242483334E+01  0.11500913567E+02  0.16194609531E+02  0.00000000000E+00 0.  1.
</event>
<event>
 8    1  0.1280925E-006  0.9118800E+02  0.7816164E-02  0.1184000E+00
        -11   -1    0    0    0    0  0.00000000000E+00  0.00000000000E+00  0.45593999997E+02  0.45594000000E+02  0.51100000000E-03 0.  1.
         11   -1    0    0    0    0 -0.00000000000E+00 -0.00000000000E+00 -0.45593999997E+02  0.45594000000E+02  0.51100000000E-03 0. -1.
         23    2    1    2    0    0  0.35527136788E-14  0.44408920985E-14  0.35527136788E-14  0.91188000000E+02  0.91188000000E+02 0.  0.
    9900012    2    3    3    0    0  0.24692160723E+02  0.49016667197E+01 -0.26870974180E+02  0.54367103879E+02  0.40000044912E+02 0.  0.
        -12    1    3    3    0    0 -0.24692160723E+02 -0.49016667197E+01  0.26870974180E+02  0.36820896121E+02  0.00000000000E+00 0.  1.
         11    1    4    4    0    0  0.13795060217E+02 -0.13622060060E+02 -0.15113965653E+02  0.24582436101E+02  0.51100000000E-03 0. -1.
        -11    1    4    4    0    0 -0.27737524940E+01  0.11530908647E+02 -0.35838729087E+01  0.12389499683E+02  0.51100000000E-03 0.  1.
         12    1    4    4    0    0  0.13670852999E+02  0.69928181325E+01 -0.81731356187E+01  0.17395168094E+02  0.00000000000E+00 0. -1.
</event>
<event>
 8    1  0.1280925E-006  0.9118800E+02  0.7816164E-02  0.1184000E+00
        -11   -1    0    0    0    0  0.00000000000E+00  0.00000000000E+00  0.45593999997E+02  0.45594000000E+02  0.51100000000E-03 0.  1.
         11   -1    0    0    0    0 -0.00000000000E+00 -0.00000000000E+00 -0.45593999997E+02  0.45594000000E+02  0.51100000000E-03 0. -1.
         23    2    1    2    0    0 -0.35527136788E-14  0.00000000000E+00  0.17763568394E-14  0.91188000000E+02  0.91188000000E+02 0.  0.
    9900012    2    3    3    0    0 -0.16633292496E+02 -0.28872009829E+02  0.15669244487E+02  0.54367019654E+02  0.39999852905E+02 0.  0.
         12    1    3    3    0    0  0.16633292496E+02  0.28872009829E+02 -0.15669244487E+02  0.36820980346E+02  0.00000000000E+00 0. -1.
         11    1    4    4    0    0 -0.12697527140E+02 -0.10630526873E+01  0.11144536385E+02  0.16928023156E+02  0.51100000000E-03 0. -1.
        -11    1    4    4    0    0  0.75631135343E+00 -0.48245738008E+01  0.11888107549E+02  0.12852066782E+02  0.51100000000E-03 0.  1.
         12    1    4    4    0    0 -0.46920767092E+01 -0.22984383341E+02 -0.73633994468E+01  0.24586929716E+02  0.00000000000E+00 0. -1.
</event>
<event>
 8    1  0.1280925E-006  0.9118800E+02  0.7816164E-02  0.1184000E+00
        -11   -1    0    0    0    0  0.00000000000E+00  0.00000000000E+00  0.45593999997E+02  0.45594000000E+02  0.51100000000E-03 0.  1.
         11   -1    0    0    0    0 -0.00000000000E+00 -0.00000000000E+00 -0.45593999997E+02  0.45594000000E+02  0.51100000000E-03 0. -1.
         23    2    1    2    0    0  0.72164496601E-15 -0.35527136788E-14  0.00000000000E+00  0.91188000000E+02  0.91188000000E+02 0.  0.
    9900012    2    3    3    0    0 -0.43278533963E+00 -0.30642939274E+02  0.20410856814E+02  0.54367080587E+02  0.39999991815E+02 0.  0.
         12    1    3    3    0    0  0.43278533963E+00  0.30642939274E+02 -0.20410856814E+02  0.36820919413E+02  0.00000000000E+00 0. -1.
         11    1    4    4    0    0 -0.54039292378E+01 -0.14509735820E+02  0.18861865364E+01  0.15597839103E+02  0.51100000000E-03 0. -1.
        -11    1    4    4    0    0  0.53545648538E+01 -0.23654537024E+02  0.19572566211E+02  0.31165587351E+02  0.51100000000E-03 0.  1.
         12    1    4    4    0    0 -0.38342095562E+00  0.75213335696E+01 -0.10478959336E+01  0.76036541335E+01  0.00000000000E+00 0. -1.
</event>
<event>
 8    1  0.1280925E-006  0.9118800E+02  0.7816164E-02  0.1184000E+00
        -11   -1    0    0    0    0  0.00000000000E+00  0.00000000000E+00  0.45593999997E+02  0.45594000000E+02  0.51100000000E-03 0. -1.
         11   -1    0    0    0    0 -0.00000000000E+00 -0.00000000000E+00 -0.45593999997E+02  0.45594000000E+02  0.51100000000E-03 0.  1.
         23    2    1    2    0    0 -0.71054273576E-14 -0.35527136788E-14  0.11102230246E-14  0.91188000000E+02  0.91188000000E+02 0.  0.
    9900012    2    3    3    0    0 -0.26574249417E+02 -0.25475316632E+02  0.77579460396E+00  0.54367023005E+02  0.39999860545E+02 0.  0.
         12    1    3    3    0    0  0.26574249417E+02  0.25475316632E+02 -0.77579460396E+00  0.36820976995E+02  0.00000000000E+00 0. -1.
         11    1    4    4    0    0  0.11252259397E+01 -0.78816784494E+01  0.84730880648E+01  0.11626702465E+02  0.51100000000E-03 0. -1.
        -11    1    4    4    0    0 -0.10981847887E+00 -0.16986543521E+01  0.73346219787E+01  0.75295528777E+01  0.51100000000E-03 0.  1.
        -12    1    4    4    0    0 -0.27589656878E+02 -0.15894983830E+02 -0.15031915440E+02  0.35210767663E+02  0.00000000000E+00 0.  1.
</event>
<event>
 8    1  0.1280925E-006  0.9118800E+02  0.7816164E-02  0.1184000E+00
        -11   -1    0    0    0    0  0.00000000000E+00  0.00000000000E+00  0.45593999997E+02  0.45594000000E+02  0.51100000000E-03 0. -1.
         11   -1    0    0    0    0 -0.00000000000E+00 -0.00000000000E+00 -0.45593999997E+02  0.45594000000E+02  0.51100000000E-03 0.  1.
         23    2    1    2    0    0  0.00000000000E+00  0.88817841970E-15 -0.17763568394E-14  0.91188000000E+02  0.91188000000E+02 0.  0.
    9900012    2    3    3    0    0  0.36197610146E+02 -0.54075842749E+01 -0.40335832746E+01  0.54367099114E+02  0.40000034051E+02 0.  0.
         12    1    3    3    0    0 -0.36197610146E+02  0.54075842749E+01  0.40335832746E+01  0.36820900886E+02  0.00000000000E+00 0. -1.
         11    1    4    4    0    0  0.23616145452E+02  0.13324186155E+00 -0.99655616135E+01  0.25633035285E+02  0.51100000000E-03 0.  1.
        -11    1    4    4    0    0  0.12909482323E+02 -0.12779696517E+02  0.96718335867E+01  0.20579595286E+02  0.51100000000E-03 0. -1.
         12    1    4    4    0    0 -0.32801762872E+00  0.72388703808E+01 -0.37398552477E+01  0.81544685436E+01  0.00000000000E+00 0. -1.
</event>
<event>
 8    1  0.1280925E-006  0.9118800E+02  0.7816164E-02  0.1184000E+00
        -11   -1    0    0    0    0  0.00000000000E+00  0.00000000000E+00  0.45593999997E+02  0.45594000000E+02  0.51100000000E-03 0.  1.
         11   -1    0    0    0    0 -0.00000000000E+00 -0.00000000000E+00 -0.45593999997E+02  0.45594000000E+02  0.51100000000E-03 0. -1.
         23    2    1    2    0    0  0.00000000000E+00 -0.17763568394E-14  0.35527136788E-14  0.91188000000E+02  0.91188000000E+02 0.  0.
    9900012    2    3    3    0    0  0.27596319324E+02 -0.89719197327E+01  0.22665657902E+02  0.54367024564E+02  0.39999864099E+02 0.  0.
         12    1    3    3    0    0 -0.27596319324E+02  0.89719197327E+01 -0.22665657902E+02  0.36820975436E+02  0.00000000000E+00 0. -1.
         11    1    4    4    0    0  0.12780862638E+02 -0.12155207925E+01 -0.28329368562E+01  0.13147375101E+02  0.51100000000E-03 0. -1.
        -11    1    4    4    0    0  0.74515512311E+01  0.98059878970E+01  0.51488030188E+01  0.13348902096E+02  0.51100000000E-03 0.  1.
        -12    1    4    4    0    0  0.73639054549E+01 -0.17562386837E+02  0.20349791739E+02  0.27870747367E+02  0.00000000000E+00 0.  1.
</event>
<event>
 8    1  0.1280925E-006  0.9118800E+02  0.7816164E-02  0.1184000E+00
        -11   -1    0    0    0    0  0.00000000000E+00  0.00000000000E+00  0.45593999997E+02  0.45594000000E+02  0.51100000000E-03 0. -1.
         11   -1    0    0    0    0 -0.00000000000E+00 -0.00000000000E+00 -0.45593999997E+02  0.45594000000E+02  0.51100000000E-03 0.  1.
         23    2    1    2    0    0  0.00000000000E+00  0.17763568394E-14  0.00000000000E+00  0.91188000000E+02  0.91188000000E+02 0.  0.
    9900012    2    3    3    0    0 -0.26460221262E+02 -0.27182231223E+01 -0.25460721816E+02  0.54367076579E+02  0.39999982678E+02 0.  0.
         12    1    3    3    0    0  0.26460221262E+02  0.27182231223E+01  0.25460721816E+02  0.36820923421E+02  0.00000000000E+00 0. -1.
         11    1    4    4    0    0 -0.16038844125E+00  0.74561990806E+01 -0.22979339798E+01  0.78039176071E+01  0.51100000000E-03 0. -1.
        -11    1    4    4    0    0 -0.23431962667E+02 -0.19431601865E+02 -0.19759965475E+02  0.36291875969E+02  0.51100000000E-03 0.  1.
        -12    1    4    4    0    0 -0.28678701532E+01  0.92571796623E+01 -0.34028223611E+01  0.10271283003E+02  0.00000000000E+00 0.  1.
</event>
<event>
 8    1  0.1280925E-006  0.9118800E+02  0.7816164E-02  0.1184000E+00
        -11   -1    0    0    0    0  0.00000000000E+00  0.00000000000E+00  0.45593999997E+02  0.45594000000E+02  0.51100000000E-03 0.  1.
         11   -1    0    0    0    0 -0.00000000000E+00 -0.00000000000E+00 -0.45593999997E+02  0.45594000000E+02  0.51100000000E-03 0. -1.
         23    2    1    2    0    0  0.15543122345E-14  0.17763568394E-14  0.00000000000E+00  0.91188000000E+02  0.91188000000E+02 0.  0.
    9900012    2    3    3    0    0  0.88212609846E+00  0.10085500796E+02 -0.35401763825E+02  0.54367077216E+02  0.39999984129E+02 0.  0.
        -12    1    3    3    0    0 -0.88212609846E+00 -0.10085500796E+02  0.35401763825E+02  0.36820922784E+02  0.00000000000E+00 0.  1.
         11    1    4    4    0    0 -0.12847002025E+01 -0.10898824228E+02 -0.51817770982E+01  0.12136129462E+02  0.51100000000E-03 0. -1.
        -11    1    4    4    0    0  0.62785896096E+01  0.18921651779E+02 -0.11630374598E+02  0.23080624062E+02  0.51100000000E-03 0.  1.
        -12    1    4    4    0    0 -0.41117633086E+01  0.20626732447E+01 -0.18589612128E+02  0.19150323692E+02  0.00000000000E+00 0.  1.
</event>
<event>
 8    1  0.1280925E-006  0.9118800E+02  0.7816164E-02  0.1184000E+00
        -11   -1    0    0    0    0  0.00000000000E+00  0.00000000000E+00  0.45593999997E+02  0.45594000000E+02  0.51100000000E-03 0.  1.
         11   -1    0    0    0    0 -0.00000000000E+00 -0.00000000000E+00 -0.45593999997E+02  0.45594000000E+02  0.51100000000E-03 0. -1.
         23    2    1    2    0    0  0.00000000000E+00 -0.35527136788E-14  0.00000000000E+00  0.91188000000E+02  0.91188000000E+02 0.  0.
    9900012    2    3    3    0    0 -0.14588418288E+02 -0.31085496079E+02  0.13291374666E+02  0.54366937344E+02  0.39999665262E+02 0.  0.
         12    1    3    3    0    0  0.14588418288E+02  0.31085496079E+02 -0.13291374666E+02  0.36821062656E+02  0.00000000000E+00 0. -1.
         11    1    4    4    0    0 -0.63156189310E+01  0.23241385197E+00 -0.40415078894E+01  0.75016561479E+01  0.51100000000E-03 0. -1.
        -11    1    4    4    0    0 -0.97927648473E-01 -0.30440239633E+02  0.33232712865E+01  0.30621265667E+02  0.51100000000E-03 0.  1.
        -12    1    4    4    0    0 -0.81748717089E+01 -0.87767029708E+00  0.14009611269E+02  0.16244015529E+02  0.00000000000E+00 0.  1.
</event>
<event>
 8    1  0.1280925E-006  0.9118800E+02  0.7816164E-02  0.1184000E+00
        -11   -1    0    0    0    0  0.00000000000E+00  0.00000000000E+00  0.45593999997E+02  0.45594000000E+02  0.51100000000E-03 0.  1.
         11   -1    0    0    0    0 -0.00000000000E+00 -0.00000000000E+00 -0.45593999997E+02  0.45594000000E+02  0.51100000000E-03 0. -1.
         23    2    1    2    0    0  0.00000000000E+00  0.00000000000E+00  0.17763568394E-14  0.91188000000E+02  0.91188000000E+02 0.  0.
    9900012    2    3    3    0    0  0.31174809002E+02  0.17160920621E+02  0.94559603520E+01  0.54367067108E+02  0.39999961086E+02 0.  0.
         12    1    3    3    0    0 -0.31174809002E+02 -0.17160920621E+02 -0.94559603520E+01  0.36820932892E+02  0.00000000000E+00 0. -1.
         11    1    4    4    0    0 -0.27690926815E+01  0.83660271433E+01  0.12881883528E+02  0.15607729109E+02  0.51100000000E-03 0. -1.
        -11    1    4    4    0    0  0.13499403334E+01  0.50675534487E+00  0.40570599536E+01  0.43056794599E+01  0.51100000000E-03 0.  1.
         12    1    4    4    0    0  0.32593961350E+02  0.82881381330E+01 -0.74829831300E+01  0.34453658539E+02  0.00000000000E+00 0. -1.
</event>
<event>
 8    1  0.1280925E-006  0.9118800E+02  0.7816164E-02  0.1184000E+00
        -11   -1    0    0    0    0  0.00000000000E+00  0.00000000000E+00  0.45593999997E+02  0.45594000000E+02  0.51100000000E-03 0.  1.
         11   -1    0    0    0    0 -0.00000000000E+00 -0.00000000000E+00 -0.45593999997E+02  0.45594000000E+02  0.51100000000E-03 0. -1.
         23    2    1    2    0    0  0.15543122345E-14  0.00000000000E+00 -0.88817841970E-15  0.91188000000E+02  0.91188000000E+02 0.  0.
    9900012    2    3    3    0    0 -0.75472627873E+00  0.36645375409E+02  0.35109445524E+01  0.54367083631E+02  0.39999998753E+02 0.  0.
         12    1    3    3    0    0  0.75472627873E+00 -0.36645375409E+02 -0.35109445524E+01  0.36820916369E+02  0.00000000000E+00 0. -1.
         11    1    4    4    0    0  0.12996582169E+01 -0.11797317200E+01  0.12480264072E+00  0.17596745075E+01  0.51100000000E-03 0. -1.
        -11    1    4    4    0    0 -0.14456267752E+02  0.26727462852E+02  0.13372493852E+02  0.33198863534E+02  0.51100000000E-03 0.  1.
        -12    1    4    4    0    0  0.12401883257E+02  0.11097644277E+02 -0.99863519408E+01  0.19408545589E+02  0.00000000000E+00 0.  1.
</event>
<event>
 8    1  0.1280925E-006  0.9118800E+02  0.7816164E-02  0.1184000E+00
        -11   -1    0    0    0    0  0.00000000000E+00  0.00000000000E+00  0.45593999997E+02  0.45594000000E+02  0.51100000000E-03 0. -1.
         11   -1    0    0    0    0 -0.00000000000E+00 -0.00000000000E+00 -0.45593999997E+02  0.45594000000E+02  0.51100000000E-03 0.  1.
         23    2    1    2    0    0  0.00000000000E+00  0.00000000000E+00 -0.17763568394E-14  0.91188000000E+02  0.91188000000E+02 0.  0.
    9900012    2    3    3    0    0  0.31550218452E+02 -0.11165708736E+02  0.15352177533E+02  0.54367099808E+02  0.40000035633E+02 0.  0.
        -12    1    3    3    0    0 -0.31550218452E+02  0.11165708736E+02 -0.15352177533E+02  0.36820900192E+02  0.00000000000E+00 0.  1.
         11    1    4    4    0    0  0.24064383736E+02  0.56095175390E+01  0.18276965051E+02  0.30734487198E+02  0.51100000000E-03 0. -1.
        -11    1    4    4    0    0 -0.31339065603E+01 -0.99187423406E+01 -0.35098975327E+01  0.10978260377E+02  0.51100000000E-03 0.  1.
         12    1    4    4    0    0  0.10619741276E+02 -0.68564839343E+01  0.58511001437E+00  0.12654352233E+02  0.00000000000E+00 0. -1.
</event>
<event>
 8    1  0.1280925E-006  0.9118800E+02  0.7816164E-02  0.1184000E+00
        -11   -1    0    0    0    0  0.00000000000E+00  0.00000000000E+00  0.45593999997E+02  0.45594000000E+02  0.51100000000E-03 0.  1.
         11   -1    0    0    0    0 -0.00000000000E+00 -0.00000000000E+00 -0.45593999997E+02  0.45594000000E+02  0.51100000000E-03 0. -1.
         23    2    1    2    0    0 -0.35527136788E-14 -0.17763568394E-14  0.00000000000E+00  0.91188000000E+02  0.91188000000E+02 0.  0.
    9900012    2    3    3    0    0 -0.16922643747E+02  0.11155948471E+02 -0.30740018814E+02  0.54367084553E+02  0.40000000855E+02 0.  0.
        -12    1    3    3    0    0  0.16922643747E+02 -0.11155948471E+02  0.30740018814E+02  0.36820915447E+02  0.00000000000E+00 0.  1.
         11    1    4    4    0    0  0.98556706342E-01  0.25182891034E+01 -0.23138219212E+02  0.23275065671E+02  0.51100000000E-03 0. -1.
        -11    1    4    4    0    0 -0.26566657142E+01 -0.67888423399E+01 -0.68443828540E+01  0.99995914889E+01  0.51100000000E-03 0.  1.
        -12    1    4    4    0    0 -0.14364534739E+02  0.15426501708E+02 -0.75741674842E+00  0.21092427393E+02  0.00000000000E+00 0.  1.
</event>
<event>
 8    1  0.1280925E-006  0.9118800E+02  0.7816164E-02  0.1184000E+00
        -11   -1    0    0    0    0  0.00000000000E+00  0.00000000000E+00  0.45593999997E+02  0.45594000000E+02  0.51100000000E-03 0. -1.
         11   -1    0    0    0    0 -0.00000000000E+00 -0.00000000000E+00 -0.45593999997E+02  0.45594000000E+02  0.51100000000E-03 0.  1.
         23    2    1    2    0    0  0.35527136788E-14  0.00000000000E+00  0.00000000000E+00  0.91188000000E+02  0.91188000000E+02 0.  0.
    9900012    2    3    3    0    0 -0.16414871951E+02 -0.26881277083E+02 -0.19071671205E+02  0.54367085816E+02  0.40000003736E+02 0.  0.
         12    1    3    3    0    0  0.16414871951E+02  0.26881277083E+02  0.19071671205E+02  0.36820914184E+02  0.00000000000E+00 0. -1.
         11    1    4    4    0    0 -0.61583359580E+01 -0.16741904227E+02  0.87634711940E+01  0.19874981422E+02  0.51100000000E-03 0. -1.
        -11    1    4    4    0    0 -0.39287060023E+01 -0.10615955145E+02 -0.25191244584E+02  0.27617603778E+02  0.51100000000E-03 0.  1.
        -12    1    4    4    0    0 -0.63278299905E+01  0.47658228833E+00 -0.26438978147E+01  0.68745006161E+01  0.00000000000E+00 0.  1.
</event>
<event>
 8    1  0.1280925E-006  0.9118800E+02  0.7816164E-02  0.1184000E+00
        -11   -1    0    0    0    0  0.00000000000E+00  0.00000000000E+00  0.45593999997E+02  0.45594000000E+02  0.51100000000E-03 0. -1.
         11   -1    0    0    0    0 -0.00000000000E+00 -0.00000000000E+00 -0.45593999997E+02  0.45594000000E+02  0.51100000000E-03 0.  1.
         23    2    1    2    0    0  0.17763568394E-14  0.71054273576E-14  0.00000000000E+00  0.91188000000E+02  0.91188000000E+02 0.  0.
    9900012    2    3    3    0    0  0.11059305831E+02 -0.27288561959E+02  0.22108940837E+02  0.54367093925E+02  0.40000022221E+02 0.  0.
        -12    1    3    3    0    0 -0.11059305831E+02  0.27288561959E+02 -0.22108940837E+02  0.36820906075E+02  0.00000000000E+00 0.  1.
         11    1    4    4    0    0 -0.46807540311E+01 -0.47410994584E+01  0.16462853927E+01  0.68627791914E+01  0.51100000000E-03 0.  1.
        -11    1    4    4    0    0  0.10337209917E+02  0.26524524930E+01  0.18874649158E+02  0.21682845620E+02  0.51100000000E-03 0. -1.
         12    1    4    4    0    0  0.54028499449E+01 -0.25199914994E+02  0.15880062860E+01  0.25821469114E+02  0.00000000000E+00 0. -1.
</event>
<event>
 8    1  0.1280925E-006  0.9118800E+02  0.7816164E-02  0.1184000E+00
        -11   -1    0    0    0    0  0.00000000000E+00  0.00000000000E+00  0.45593999997E+02  0.45594000000E+02  0.51100000000E-03 0.  1.
         11   -1    0    0    0    0 -0.00000000000E+00 -0.00000000000E+00 -0.45593999997E+02  0.45594000000E+02  0.51100000000E-03 0. -1.
         23    2    1    2    0    0  0.88817841970E-15  0.00000000000E+00  0.88817841970E-15  0.91188000000E+02  0.91188000000E+02 0.  0.
    9900012    2    3    3    0    0 -0.25882089244E+01 -0.36252000406E+02 -0.59053739880E+01  0.54367084737E+02  0.40000001275E+02 0.  0.
         12    1    3    3    0    0  0.25882089244E+01  0.36252000406E+02  0.59053739880E+01  0.36820915263E+02  0.00000000000E+00 0. -1.
         11    1    4    4    0    0  0.25395009388E+01 -0.22267928724E+02 -0.20250414931E+02  0.30205777921E+02  0.51100000000E-03 0. -1.
        -11    1    4    4    0    0 -0.26042816956E-01 -0.54540635248E+01  0.13042651369E+02  0.14137122838E+02  0.51100000000E-03 0.  1.
         12    1    4    4    0    0 -0.51016670463E+01 -0.85300081575E+01  0.13023895745E+01  0.10024183978E+02  0.00000000000E+00 0. -1.
</event>
<event>
 8    1  0.1280925E-006  0.9118800E+02  0.7816164E-02  0.1184000E+00
        -11   -1    0    0    0    0  0.00000000000E+00  0.00000000000E+00  0.45593999997E+02  0.45594000000E+02  0.51100000000E-03 0. -1.
         11   -1    0    0    0    0 -0.00000000000E+00 -0.00000000000E+00 -0.45593999997E+02  0.45594000000E+02  0.51100000000E-03 0.  1.
         23    2    1    2    0    0  0.00000000000E+00  0.17763568394E-14 -0.35527136788E-14  0.91188000000E+02  0.91188000000E+02 0.  0.
    9900012    2    3    3    0    0 -0.17830895261E+02 -0.98821023662E+01  0.30662397897E+02  0.54367089938E+02  0.40000013132E+02 0.  0.
        -12    1    3    3    0    0  0.17830895261E+02  0.98821023662E+01 -0.30662397897E+02  0.36820910062E+02  0.00000000000E+00 0.  1.
         11    1    4    4    0    0 -0.30311180485E+01  0.91704503098E+01  0.74002872281E+01  0.12167542349E+02  0.51100000000E-03 0.  1.
        -11    1    4    4    0    0 -0.14595509069E+01 -0.88756345929E+01 -0.42704737740E+01  0.99571142803E+01  0.51100000000E-03 0. -1.
         12    1    4    4    0    0 -0.13340226306E+02 -0.10176918083E+02  0.27532584443E+02  0.32242433308E+02  0.00000000000E+00 0. -1.
</event>
<event>
 8    1  0.1280925E-006  0.9118800E+02  0.7816164E-02  0.1184000E+00
        -11   -1    0    0    0    0  0.00000000000E+00  0.00000000000E+00  0.45593999997E+02  0.45594000000E+02  0.51100000000E-03 0. -1.
         11   -1    0    0    0    0 -0.00000000000E+00 -0.00000000000E+00 -0.45593999997E+02  0.45594000000E+02  0.51100000000E-03 0.  1.
         23    2    1    2    0    0  0.00000000000E+00  0.17763568394E-14  0.00000000000E+00  0.91188000000E+02  0.91188000000E+02 0.  0.
    9900012    2    3    3    0    0  0.45999333216E+01  0.94073649163E+01  0.35300452266E+02  0.54367084321E+02  0.40000000327E+02 0.  0.
        -12    1    3    3    0    0 -0.45999333216E+01 -0.94073649163E+01 -0.35300452266E+02  0.36820915679E+02  0.00000000000E+00 0.  1.
         11    1    4    4    0    0  0.13093405098E+02  0.49476144583E+01  0.35964648251E+02  0.38592383574E+02  0.51100000000E-03 0. -1.
        -11    1    4    4    0    0 -0.18119218330E+01 -0.35587389737E+01  0.26861009727E+01  0.48127770059E+01  0.51100000000E-03 0.  1.
         12    1    4    4    0    0 -0.66815499431E+01  0.80184894317E+01 -0.33502969574E+01  0.10961923741E+02  0.00000000000E+00 0. -1.
</event>
<event>
 8    1  0.1280925E-006  0.9118800E+02  0.7816164E-02  0.1184000E+00
        -11   -1    0    0    0    0  0.00000000000E+00  0.00000000000E+00  0.45593999997E+02  0.45594000000E+02  0.51100000000E-03 0. -1.
         11   -1    0    0    0    0 -0.00000000000E+00 -0.00000000000E+00 -0.45593999997E+02  0.45594000000E+02  0.51100000000E-03 0.  1.
         23    2    1    2    0    0  0.00000000000E+00 -0.35527136788E-14  0.00000000000E+00  0.91188000000E+02  0.91188000000E+02 0.  0.
    9900012    2    3    3    0    0 -0.19263601968E+02 -0.29673429370E+02 -0.10206917063E+02  0.54367083019E+02  0.39999997359E+02 0.  0.
         12    1    3    3    0    0  0.19263601968E+02  0.29673429370E+02  0.10206917063E+02  0.36820916981E+02  0.00000000000E+00 0. -1.
         11    1    4    4    0    0  0.77304880873E+00 -0.28666334276E+02 -0.73885617520E+00  0.28686272570E+02  0.51100000000E-03 0. -1.
        -11    1    4    4    0    0 -0.14624616632E+02 -0.64298226858E+01 -0.46828653163E+01  0.16647860500E+02  0.51100000000E-03 0.  1.
        -12    1    4    4    0    0 -0.54120341457E+01  0.54227275915E+01 -0.47851955711E+01  0.90329499489E+01  0.00000000000E+00 0.  1.
</event>
<event>
 8    1  0.1280925E-006  0.9118800E+02  0.7816164E-02  0.1184000E+00
        -11   -1    0    0    0    0  0.00000000000E+00  0.00000000000E+00  0.45593999997E+02  0.45594000000E+02  0.51100000000E-03 0. -1.
         11   -1    0    0    0    0 -0.00000000000E+00 -0.00000000000E+00 -0.45593999997E+02  0.45594000000E+02  0.51100000000E-03 0.  1.
         23    2    1    2    0    0  0.00000000000E+00  0.00000000000E+00  0.00000000000E+00  0.91188000000E+02  0.91188000000E+02 0.  0.
    9900012    2    3    3    0    0  0.19786965924E+02  0.22698968019E+02  0.21189926339E+02  0.54367080024E+02  0.39999990531E+02 0.  0.
        -12    1    3    3    0    0 -0.19786965924E+02 -0.22698968019E+02 -0.21189926339E+02  0.36820919976E+02  0.00000000000E+00 0.  1.
         11    1    4    4    0    0  0.69893107951E+01  0.68390877742E+00  0.41165869911E+01  0.81403000757E+01  0.51100000000E-03 0. -1.
        -11    1    4    4    0    0 -0.56624199234E+01  0.13300720278E+02  0.20945029057E+02  0.25449290791E+02  0.51100000000E-03 0.  1.
        -12    1    4    4    0    0  0.18460075052E+02  0.87143389639E+01 -0.38716897088E+01  0.20777489158E+02  0.00000000000E+00 0.  1.
</event>
<event>
 8    1  0.1280925E-006  0.9118800E+02  0.7816164E-02  0.1184000E+00
        -11   -1    0    0    0    0  0.00000000000E+00  0.00000000000E+00  0.45593999997E+02  0.45594000000E+02  0.51100000000E-03 0. -1.
         11   -1    0    0    0    0 -0.00000000000E+00 -0.00000000000E+00 -0.45593999997E+02  0.45594000000E+02  0.51100000000E-03 0.  1.
         23    2    1    2    0    0 -0.44408920985E-15 -0.35527136788E-14  0.35527136788E-14  0.91188000000E+02  0.91188000000E+02 0.  0.
    9900012    2    3    3    0    0  0.19213384917E+01 -0.21112603253E+02 -0.30105583872E+02  0.54367085590E+02  0.40000003219E+02 0.  0.
         12    1    3    3    0    0 -0.19213384917E+01  0.21112603253E+02  0.30105583872E+02  0.36820914410E+02  0.00000000000E+00 0. -1.
         11    1    4    4    0    0  0.14362725326E+01 -0.46424586821E+01 -0.16365437289E+02  0.17071697025E+02  0.51100000000E-03 0.  1.
        -11    1    4    4    0    0 -0.11407893522E+01 -0.25475450968E+02 -0.95463564135E+01  0.27229265936E+02  0.51100000000E-03 0. -1.
         12    1    4    4    0    0  0.16258553113E+01  0.90053063966E+01 -0.41937901701E+01  0.10066122629E+02  0.00000000000E+00 0. -1.
</event>
<event>
 8    1  0.1280925E-006  0.9118800E+02  0.7816164E-02  0.1184000E+00
        -11   -1    0    0    0    0  0.00000000000E+00  0.00000000000E+00  0.45593999997E+02  0.45594000000E+02  0.51100000000E-03 0.  1.
         11   -1    0    0    0    0 -0.00000000000E+00 -0.00000000000E+00 -0.45593999997E+02  0.45594000000E+02  0.51100000000E-03 0. -1.
         23    2    1    2    0    0  0.00000000000E+00  0.35527136788E-14  0.00000000000E+00  0.91188000000E+02  0.91188000000E+02 0.  0.
    9900012    2    3    3    0    0  0.15671816651E+02 -0.19664907720E+02 -0.26897310077E+02  0.54367085805E+02  0.40000003710E+02 0.  0.
        -12    1    3    3    0    0 -0.15671816651E+02  0.19664907720E+02  0.26897310077E+02  0.36820914195E+02  0.00000000000E+00 0.  1.
         11    1    4    4    0    0 -0.54423741058E+00  0.59229222225E+01 -0.10446015013E+02  0.12020666867E+02  0.51100000000E-03 0. -1.
        -11    1    4    4    0    0  0.12624872409E+02 -0.33018333059E+01 -0.14772170956E+02  0.19710569285E+02  0.51100000000E-03 0.  1.
        -12    1    4    4    0    0  0.35911816527E+01 -0.22285996637E+02 -0.16791241080E+01  0.22635849653E+02  0.00000000000E+00 0.  1.
</event>
<event>
 8    1  0.1280925E-006  0.9118800E+02  0.7816164E-02  0.1184000E+00
        -11   -1    0    0    0    0  0.00000000000E+00  0.00000000000E+00  0.45593999997E+02  0.45594000000E+02  0.51100000000E-03 0. -1.
         11   -1    0    0    0    0 -0.00000000000E+00 -0.00000000000E+00 -0.45593999997E+02  0.45594000000E+02  0.51100000000E-03 0.  1.
         23    2    1    2    0    0  0.71054273576E-14 -0.44408920985E-15  0.55511151231E-15  0.91188000000E+02  0.91188000000E+02 0.  0.
    9900012    2    3    3    0    0  0.36674312624E+02 -0.31830986666E+01  0.80219521128E+00  0.54367070616E+02  0.39999969082E+02 0.  0.
         12    1    3    3    0    0 -0.36674312624E+02  0.31830986666E+01 -0.80219521128E+00  0.36820929384E+02  0.00000000000E+00 0. -1.
         11    1    4    4    0    0  0.19053231748E+02  0.16220280614E+02  0.84592628597E+01  0.26413675845E+02  0.51100000000E-03 0. -1.
        -11    1    4    4    0    0  0.79342078331E+01 -0.88833796556E+01 -0.40149210173E+00  0.11917520053E+02  0.51100000000E-03 0.  1.
         12    1    4    4    0    0  0.96868730428E+01 -0.10519999625E+02 -0.72555755467E+01  0.16035874718E+02  0.00000000000E+00 0. -1.
</event>
<event>
 8    1  0.1280925E-006  0.9118800E+02  0.7816164E-02  0.1184000E+00
        -11   -1    0    0    0    0  0.00000000000E+00  0.00000000000E+00  0.45593999997E+02  0.45594000000E+02  0.51100000000E-03 0.  1.
         11   -1    0    0    0    0 -0.00000000000E+00 -0.00000000000E+00 -0.45593999997E+02  0.45594000000E+02  0.51100000000E-03 0. -1.
         23    2    1    2    0    0 -0.98532293435E-15  0.17763568394E-14 -0.71054273576E-14  0.91188000000E+02  0.91188000000E+02 0.  0.
    9900012    2    3    3    0    0  0.82927253684E-01 -0.95635836518E+01  0.35557150403E+02  0.54367082657E+02  0.39999996533E+02 0.  0.
         12    1    3    3    0    0 -0.82927253684E-01  0.95635836518E+01 -0.35557150403E+02  0.36820917343E+02  0.00000000000E+00 0. -1.
         11    1    4    4    0    0 -0.13093951004E+02  0.15667780951E+01  0.83421468245E-01  0.13187619417E+02  0.51100000000E-03 0. -1.
        -11    1    4    4    0    0  0.86065854025E+01 -0.11961502971E+02  0.18892934291E+02  0.23960255258E+02  0.51100000000E-03 0.  1.
         12    1    4    4    0    0  0.45702928548E+01  0.83114122447E+00  0.16580794644E+02  0.17219207982E+02  0.00000000000E+00 0. -1.
</event>
<event>
 8    1  0.1280925E-006  0.9118800E+02  0.7816164E-02  0.1184000E+00
        -11   -1    0    0    0    0  0.00000000000E+00  0.00000000000E+00  0.45593999997E+02  0.45594000000E+02  0.51100000000E-03 0.  1.
         11   -1    0    0    0    0 -0.00000000000E+00 -0.00000000000E+00 -0.45593999997E+02  0.45594000000E+02  0.51100000000E-03 0. -1.
         23    2    1    2    0    0  0.17763568394E-14 -0.17763568394E-14  0.35527136788E-14  0.91188000000E+02  0.91188000000E+02 0.  0.
    9900012    2    3    3    0    0 -0.10362444338E+02  0.15201941856E+02  0.31895162087E+02  0.54367073159E+02  0.39999974882E+02 0.  0.
         12    1    3    3    0    0  0.10362444338E+02 -0.15201941856E+02 -0.31895162087E+02  0.36820926841E+02  0.00000000000E+00 0. -1.
         11    1    4    4    0    0 -0.12697604113E+02  0.32302857657E+01  0.76295860154E+01  0.15161612030E+02  0.51100000000E-03 0. -1.
        -11    1    4    4    0    0 -0.23397414286E+01  0.82047948889E+01  0.29826067287E+02  0.31022368368E+02  0.51100000000E-03 0.  1.
        -12    1    4    4    0    0  0.46749012039E+01  0.37668612016E+01 -0.55604912152E+01  0.81830927608E+01  0.00000000000E+00 0.  1.
</event>
<event>
 8    1  0.1280925E-006  0.9118800E+02  0.7816164E-02  0.1184000E+00
        -11   -1    0    0    0    0  0.00000000000E+00  0.00000000000E+00  0.45593999997E+02  0.45594000000E+02  0.51100000000E-03 0.  1.
         11   -1    0    0    0    0 -0.00000000000E+00 -0.00000000000E+00 -0.45593999997E+02  0.45594000000E+02  0.51100000000E-03 0. -1.
         23    2    1    2    0    0  0.00000000000E+00  0.00000000000E+00  0.12212453271E-14  0.91188000000E+02  0.91188000000E+02 0.  0.
    9900012    2    3    3    0    0  0.35993494755E+02  0.77548455455E+01  0.32871896791E+00  0.54367118013E+02  0.40000077135E+02 0.  0.
         12    1    3    3    0    0 -0.35993494755E+02 -0.77548455455E+01 -0.32871896791E+00  0.36820881987E+02  0.00000000000E+00 0. -1.
         11    1    4    4    0    0  0.44600200995E+01  0.68205409094E+01 -0.15349605882E+02  0.17378778972E+02  0.51100000000E-03 0. -1.
        -11    1    4    4    0    0  0.28758431928E+02  0.18557540574E+01  0.17332384411E+02  0.33628897985E+02  0.51100000000E-03 0.  1.
        -12    1    4    4    0    0  0.27750427276E+01 -0.92144942132E+00 -0.16540595611E+01  0.33594410559E+01  0.00000000000E+00 0.  1.
</event>
<event>
 8    1  0.1280925E-006  0.9118800E+02  0.7816164E-02  0.1184000E+00
        -11   -1    0    0    0    0  0.00000000000E+00  0.00000000000E+00  0.45593999997E+02  0.45594000000E+02  0.51100000000E-03 0.  1.
         11   -1    0    0    0    0 -0.00000000000E+00 -0.00000000000E+00 -0.45593999997E+02  0.45594000000E+02  0.51100000000E-03 0. -1.
         23    2    1    2    0    0  0.00000000000E+00 -0.17763568394E-14  0.00000000000E+00  0.91188000000E+02  0.91188000000E+02 0.  0.
    9900012    2    3    3    0    0  0.10229006653E+02 -0.86288848132E+01 -0.34302909531E+02  0.54367084306E+02  0.40000000293E+02 0.  0.
        -12    1    3    3    0    0 -0.10229006653E+02  0.86288848132E+01  0.34302909531E+02  0.36820915694E+02  0.00000000000E+00 0.  1.
         11    1    4    4    0    0  0.61897713616E+01 -0.21438650439E+02 -0.15996491430E+02  0.27455723274E+02  0.51100000000E-03 0. -1.
        -11    1    4    4    0    0 -0.29008543620E+01  0.29900138535E+01  0.88981691604E+00  0.42599193982E+01  0.51100000000E-03 0.  1.
         12    1    4    4    0    0  0.69400896530E+01  0.98197517727E+01 -0.19196235017E+02  0.22651441634E+02  0.00000000000E+00 0. -1.
</event>
<event>
 8    1  0.1280925E-006  0.9118800E+02  0.7816164E-02  0.1184000E+00
        -11   -1    0    0    0    0  0.00000000000E+00  0.00000000000E+00  0.45593999997E+02  0.45594000000E+02  0.51100000000E-03 0. -1.
         11   -1    0    0    0    0 -0.00000000000E+00 -0.00000000000E+00 -0.45593999997E+02  0.45594000000E+02  0.51100000000E-03 0.  1.
         23    2    1    2    0    0  0.00000000000E+00 -0.35527136788E-14  0.00000000000E+00  0.91188000000E+02  0.91188000000E+02 0.  0.
    9900012    2    3    3    0    0 -0.22260186601E+02  0.25140604370E+02  0.15106890809E+02  0.54367027097E+02  0.39999869874E+02 0.  0.
        -12    1    3    3    0    0  0.22260186601E+02 -0.25140604370E+02 -0.15106890809E+02  0.36820972903E+02  0.00000000000E+00 0.  1.
         11    1    4    4    0    0  0.15429947036E+01 -0.16163941447E+01  0.23461711446E+01  0.32400743799E+01  0.51100000000E-03 0. -1.
        -11    1    4    4    0    0 -0.87110302342E+01 -0.77610694320E+01  0.48349788495E+01  0.12629064384E+02  0.51100000000E-03 0.  1.
         12    1    4    4    0    0 -0.15092151070E+02  0.34518067947E+02  0.79257408149E+01  0.38497888334E+02  0.00000000000E+00 0. -1.
</event>
<event>
 8    1  0.1280925E-006  0.9118800E+02  0.7816164E-02  0.1184000E+00
        -11   -1    0    0    0    0  0.00000000000E+00  0.00000000000E+00  0.45593999997E+02  0.45594000000E+02  0.51100000000E-03 0.  1.
         11   -1    0    0    0    0 -0.00000000000E+00 -0.00000000000E+00 -0.45593999997E+02  0.45594000000E+02  0.51100000000E-03 0. -1.
         23    2    1    2    0    0  0.00000000000E+00  0.00000000000E+00  0.44408920985E-15  0.91188000000E+02  0.91188000000E+02 0.  0.
    9900012    2    3    3    0    0  0.10813230266E+02 -0.35181313214E+02  0.10622386128E+01  0.54367094265E+02  0.40000022996E+02 0.  0.
         12    1    3    3    0    0 -0.10813230266E+02  0.35181313214E+02 -0.10622386128E+01  0.36820905735E+02  0.00000000000E+00 0. -1.
         11    1    4    4    0    0  0.50867730484E+01 -0.29448476952E+02  0.55182272201E+01  0.30389782604E+02  0.51100000000E-03 0. -1.
        -11    1    4    4    0    0  0.13013319193E+02 -0.82732550918E+01 -0.80850532965E+00  0.15441726178E+02  0.51100000000E-03 0.  1.
         12    1    4    4    0    0 -0.72868619755E+01  0.25404188293E+01 -0.36474832776E+01  0.85355854830E+01  0.00000000000E+00 0. -1.
</event>
<event>
 8    1  0.1280925E-006  0.9118800E+02  0.7816164E-02  0.1184000E+00
        -11   -1    0    0    0    0  0.00000000000E+00  0.00000000000E+00  0.45593999997E+02  0.45594000000E+02  0.51100000000E-03 0. -1.
         11   -1    0    0    0    0 -0.00000000000E+00 -0.00000000000E+00 -0.45593999997E+02  0.45594000000E+02  0.51100000000E-03 0.  1.
         23    2    1    2    0    0  0.17763568394E-14  0.17763568394E-14  0.00000000000E+00  0.91188000000E+02  0.91188000000E+02 0.  0.
    9900012    2    3    3    0    0 -0.11152417997E+02  0.73565180843E+01  0.34311609324E+02  0.54367064109E+02  0.39999954249E+02 0.  0.
        -12    1    3    3    0    0  0.11152417997E+02 -0.73565180843E+01 -0.34311609324E+02  0.36820935891E+02  0.00000000000E+00 0.  1.
         11    1    4    4    0    0 -0.35288586785E+01 -0.88887158457E+01  0.80076245264E+01  0.12473338117E+02  0.51100000000E-03 0. -1.
        -11    1    4    4    0    0  0.96793902365E+01  0.35685055446E+01  0.43355768793E+01  0.11190266052E+02  0.51100000000E-03 0.  1.
         12    1    4    4    0    0 -0.17302949555E+02  0.12676728385E+02  0.21968407918E+02  0.30703459940E+02  0.00000000000E+00 0. -1.
</event>
<event>
 8    1  0.1280925E-006  0.9118800E+02  0.7816164E-02  0.1184000E+00
        -11   -1    0    0    0    0  0.00000000000E+00  0.00000000000E+00  0.45593999997E+02  0.45594000000E+02  0.51100000000E-03 0. -1.
         11   -1    0    0    0    0 -0.00000000000E+00 -0.00000000000E+00 -0.45593999997E+02  0.45594000000E+02  0.51100000000E-03 0.  1.
         23    2    1    2    0    0  0.17763568394E-14  0.00000000000E+00  0.00000000000E+00  0.91188000000E+02  0.91188000000E+02 0.  0.
    9900012    2    3    3    0    0  0.88982408516E+01 -0.60026823413E+01  0.35221711363E+02  0.54367084247E+02  0.40000000159E+02 0.  0.
        -12    1    3    3    0    0 -0.88982408516E+01  0.60026823413E+01 -0.35221711363E+02  0.36820915753E+02  0.00000000000E+00 0.  1.
         11    1    4    4    0    0 -0.41467670132E+01 -0.47142911528E+01  0.15023532977E+02  0.16282713567E+02  0.51100000000E-03 0. -1.
        -11    1    4    4    0    0 -0.22286187756E+01 -0.86672500630E+01  0.19092401996E+02  0.21085724544E+02  0.51100000000E-03 0.  1.
        -12    1    4    4    0    0  0.15273626640E+02  0.73788588745E+01  0.11057763893E+01  0.16998646136E+02  0.00000000000E+00 0.  1.
</event>
<event>
 8    1  0.1280925E-006  0.9118800E+02  0.7816164E-02  0.1184000E+00
        -11   -1    0    0    0    0  0.00000000000E+00  0.00000000000E+00  0.45593999997E+02  0.45594000000E+02  0.51100000000E-03 0.  1.
         11   -1    0    0    0    0 -0.00000000000E+00 -0.00000000000E+00 -0.45593999997E+02  0.45594000000E+02  0.51100000000E-03 0. -1.
         23    2    1    2    0    0  0.00000000000E+00  0.00000000000E+00  0.00000000000E+00  0.91188000000E+02  0.91188000000E+02 0.  0.
    9900012    2    3    3    0    0 -0.17330702070E+02 -0.23070695768E+02 -0.22872876948E+02  0.54367099178E+02  0.40000034195E+02 0.  0.
        -12    1    3    3    0    0  0.17330702070E+02  0.23070695768E+02  0.22872876948E+02  0.36820900822E+02  0.00000000000E+00 0.  1.
         11    1    4    4    0    0 -0.59759317972E+01 -0.28405970294E+02 -0.18327854821E+02  0.34329596150E+02  0.51100000000E-03 0. -1.
        -11    1    4    4    0    0  0.27807670892E+01  0.19960690841E+01  0.21520512537E+01  0.40433009104E+01  0.51100000000E-03 0.  1.
        -12    1    4    4    0    0 -0.14135537362E+02  0.33392054420E+01 -0.66970733809E+01  0.15994202117E+02  0.00000000000E+00 0.  1.
</event>
<event>
 8    1  0.1280925E-006  0.9118800E+02  0.7816164E-02  0.1184000E+00
        -11   -1    0    0    0    0  0.00000000000E+00  0.00000000000E+00  0.45593999997E+02  0.45594000000E+02  0.51100000000E-03 0.  1.
         11   -1    0    0    0    0 -0.00000000000E+00 -0.00000000000E+00 -0.45593999997E+02  0.45594000000E+02  0.51100000000E-03 0. -1.
         23    2    1    2    0    0 -0.44408920985E-15  0.71054273576E-14 -0.55511151231E-15  0.91188000000E+02  0.91188000000E+02 0.  0.
    9900012    2    3    3    0    0 -0.28130922884E+01  0.36709773453E+02  0.50780509755E+00  0.54367098039E+02  0.40000031600E+02 0.  0.
        -12    1    3    3    0    0  0.28130922884E+01 -0.36709773453E+02 -0.50780509755E+00  0.36820901961E+02  0.00000000000E+00 0.  1.
         11    1    4    4    0    0 -0.56491909989E+01  0.31439763605E+02 -0.14954082850E+02  0.35270337235E+02  0.51100000000E-03 0. -1.
        -11    1    4    4    0    0  0.31452022474E+01 -0.21293515682E+01  0.50067934128E+01  0.62844582756E+01  0.51100000000E-03 0.  1.
        -12    1    4    4    0    0 -0.30910353681E+00  0.73993614159E+01  0.10455094535E+02  0.12812302529E+02  0.00000000000E+00 0.  1.
</event>
<event>
 8    1  0.1280925E-006  0.9118800E+02  0.7816164E-02  0.1184000E+00
        -11   -1    0    0    0    0  0.00000000000E+00  0.00000000000E+00  0.45593999997E+02  0.45594000000E+02  0.51100000000E-03 0. -1.
         11   -1    0    0    0    0 -0.00000000000E+00 -0.00000000000E+00 -0.45593999997E+02  0.45594000000E+02  0.51100000000E-03 0.  1.
         23    2    1    2    0    0  0.00000000000E+00  0.35527136788E-14  0.00000000000E+00  0.91188000000E+02  0.91188000000E+02 0.  0.
    9900012    2    3    3    0    0 -0.34407417418E+02 -0.10825873525E+02 -0.73965744282E+01  0.54367092566E+02  0.40000019123E+02 0.  0.
         12    1    3    3    0    0  0.34407417418E+02  0.10825873525E+02  0.73965744282E+01  0.36820907434E+02  0.00000000000E+00 0. -1.
         11    1    4    4    0    0 -0.21827324202E+02  0.41661253908E+01 -0.32698245386E+01  0.22460641918E+02  0.51100000000E-03 0. -1.
        -11    1    4    4    0    0 -0.18668636367E+02 -0.11289573430E+02  0.27671807622E+01  0.21991583428E+02  0.51100000000E-03 0.  1.
         12    1    4    4    0    0  0.60885431503E+01 -0.37024254859E+01 -0.68939306517E+01  0.99148672206E+01  0.00000000000E+00 0. -1.
</event>
<event>
 8    1  0.1280925E-006  0.9118800E+02  0.7816164E-02  0.1184000E+00
        -11   -1    0    0    0    0  0.00000000000E+00  0.00000000000E+00  0.45593999997E+02  0.45594000000E+02  0.51100000000E-03 0.  1.
         11   -1    0    0    0    0 -0.00000000000E+00 -0.00000000000E+00 -0.45593999997E+02  0.45594000000E+02  0.51100000000E-03 0. -1.
         23    2    1    2    0    0  0.88817841970E-15 -0.35527136788E-14  0.00000000000E+00  0.91188000000E+02  0.91188000000E+02 0.  0.
    9900012    2    3    3    0    0  0.47470141810E+01 -0.29683404198E+02 -0.21263651056E+02  0.54367061872E+02  0.39999949149E+02 0.  0.
        -12    1    3    3    0    0 -0.47470141810E+01  0.29683404198E+02  0.21263651056E+02  0.36820938128E+02  0.00000000000E+00 0.  1.
         11    1    4    4    0    0  0.21443169605E+01 -0.11611069766E+02  0.55137953051E+01  0.13031384242E+02  0.51100000000E-03 0. -1.
        -11    1    4    4    0    0  0.64137628493E+01 -0.16266320333E+02 -0.36951963872E+01  0.17871318017E+02  0.51100000000E-03 0.  1.
         12    1    4    4    0    0 -0.38110656288E+01 -0.18060140991E+01 -0.23082249974E+02  0.23464359613E+02  0.00000000000E+00 0. -1.
</event>
<event>
 8    1  0.1280925E-006  0.9118800E+02  0.7816164E-02  0.1184000E+00
        -11   -1    0    0    0    0  0.00000000000E+00  0.00000000000E+00  0.45593999997E+02  0.45594000000E+02  0.51100000000E-03 0.  1.
         11   -1    0    0    0    0 -0.00000000000E+00 -0.00000000000E+00 -0.45593999997E+02  0.45594000000E+02  0.51100000000E-03 0. -1.
         23    2    1    2    0    0  0.00000000000E+00  0.00000000000E+00  0.00000000000E+00  0.91188000000E+02  0.91188000000E+02 0.  0.
    9900012    2    3    3    0    0 -0.28900235441E+02  0.11761750370E+02  0.19550362930E+02  0.54367094648E+02  0.40000023868E+02 0.  0.
         12    1    3    3    0    0  0.28900235441E+02 -0.11761750370E+02 -0.19550362930E+02  0.36820905352E+02  0.00000000000E+00 0. -1.
         11    1    4    4    0    0  0.36989659893E+01  0.33119141776E+01 -0.68832554053E+01  0.84870684070E+01  0.51100000000E-03 0. -1.
        -11    1    4    4    0    0 -0.14640413560E+02 -0.30896331417E+01  0.16688705348E+02  0.22414290723E+02  0.51100000000E-03 0.  1.
         12    1    4    4    0    0 -0.17958787870E+02  0.11539469334E+02  0.97449129866E+01  0.23465735517E+02  0.00000000000E+00 0. -1.
</event>
<event>
 8    1  0.1280925E-006  0.9118800E+02  0.7816164E-02  0.1184000E+00
        -11   -1    0    0    0    0  0.00000000000E+00  0.00000000000E+00  0.45593999997E+02  0.45594000000E+02  0.51100000000E-03 0.  1.
         11   -1    0    0    0    0 -0.00000000000E+00 -0.00000000000E+00 -0.45593999997E+02  0.45594000000E+02  0.51100000000E-03 0. -1.
         23    2    1    2    0    0  0.00000000000E+00  0.00000000000E+00  0.00000000000E+00  0.91188000000E+02  0.91188000000E+02 0.  0.
    9900012    2    3    3    0    0  0.22707041058E+02 -0.25741873530E+02  0.13323818543E+02  0.54367110453E+02  0.40000059901E+02 0.  0.
        -12    1    3    3    0    0 -0.22707041058E+02  0.25741873530E+02 -0.13323818543E+02  0.36820889547E+02  0.00000000000E+00 0.  1.
         11    1    4    4    0    0  0.30203660812E+02 -0.10569001475E+02  0.13549925919E+02  0.34750041889E+02  0.51100000000E-03 0. -1.
        -11    1    4    4    0    0 -0.66976235353E+01 -0.15689475862E+02  0.20193523739E+01  0.17178346780E+02  0.51100000000E-03 0.  1.
         12    1    4    4    0    0 -0.79899621817E+00  0.51660380723E+00 -0.22454597504E+01  0.24387217842E+01  0.00000000000E+00 0. -1.
</event>
<event>
 8    1  0.1280925E-006  0.9118800E+02  0.7816164E-02  0.1184000E+00
        -11   -1    0    0    0    0  0.00000000000E+00  0.00000000000E+00  0.45593999997E+02  0.45594000000E+02  0.51100000000E-03 0. -1.
         11   -1    0    0    0    0 -0.00000000000E+00 -0.00000000000E+00 -0.45593999997E+02  0.45594000000E+02  0.51100000000E-03 0.  1.
         23    2    1    2    0    0 -0.17763568394E-14  0.00000000000E+00  0.00000000000E+00  0.91188000000E+02  0.91188000000E+02 0.  0.
    9900012    2    3    3    0    0 -0.14607490824E+02  0.62494226113E+01  0.33216671646E+02  0.54367063749E+02  0.39999953429E+02 0.  0.
        -12    1    3    3    0    0  0.14607490824E+02 -0.62494226113E+01 -0.33216671646E+02  0.36820936251E+02  0.00000000000E+00 0.  1.
         11    1    4    4    0    0 -0.44647128920E+01  0.14579837549E+02  0.57790645662E+01  0.16306529725E+02  0.51100000000E-03 0. -1.
        -11    1    4    4    0    0 -0.65737632564E+01  0.64493645375E+01  0.38158589070E+01  0.99684224302E+01  0.51100000000E-03 0.  1.
        -12    1    4    4    0    0 -0.35690146757E+01 -0.14779779475E+02  0.23621748173E+02  0.28092111594E+02  0.00000000000E+00 0.  1.
</event>
<event>
 8    1  0.1280925E-006  0.9118800E+02  0.7816164E-02  0.1184000E+00
        -11   -1    0    0    0    0  0.00000000000E+00  0.00000000000E+00  0.45593999997E+02  0.45594000000E+02  0.51100000000E-03 0. -1.
         11   -1    0    0    0    0 -0.00000000000E+00 -0.00000000000E+00 -0.45593999997E+02  0.45594000000E+02  0.51100000000E-03 0.  1.
         23    2    1    2    0    0  0.71054273576E-14  0.00000000000E+00 -0.35527136788E-14  0.91188000000E+02  0.91188000000E+02 0.  0.
    9900012    2    3    3    0    0  0.30145260642E+02 -0.65712456190E+01 -0.20096300827E+02  0.54367091333E+02  0.40000016311E+02 0.  0.
         12    1    3    3    0    0 -0.30145260642E+02  0.65712456190E+01  0.20096300827E+02  0.36820908667E+02  0.00000000000E+00 0. -1.
         11    1    4    4    0    0  0.32570224577E+01 -0.25780858730E+01  0.49002713628E+01  0.64239693142E+01  0.51100000000E-03 0. -1.
        -11    1    4    4    0    0  0.24994591698E+02 -0.17618410091E+01 -0.24150234602E+01  0.25172724057E+02  0.51100000000E-03 0.  1.
         12    1    4    4    0    0  0.18936464868E+01 -0.22313187369E+01 -0.22581548729E+02  0.22770397962E+02  0.00000000000E+00 0. -1.
</event>
<event>
 8    1  0.1280925E-006  0.9118800E+02  0.7816164E-02  0.1184000E+00
        -11   -1    0    0    0    0  0.00000000000E+00  0.00000000000E+00  0.45593999997E+02  0.45594000000E+02  0.51100000000E-03 0. -1.
         11   -1    0    0    0    0 -0.00000000000E+00 -0.00000000000E+00 -0.45593999997E+02  0.45594000000E+02  0.51100000000E-03 0.  1.
         23    2    1    2    0    0  0.17763568394E-14  0.00000000000E+00  0.71054273576E-14  0.91188000000E+02  0.91188000000E+02 0.  0.
    9900012    2    3    3    0    0 -0.11274494202E+02  0.50055727474E+01 -0.34693094403E+02  0.54367071477E+02  0.39999971045E+02 0.  0.
         12    1    3    3    0    0  0.11274494202E+02 -0.50055727474E+01  0.34693094403E+02  0.36820928523E+02  0.00000000000E+00 0. -1.
         11    1    4    4    0    0  0.91233615629E+01 -0.38564708568E+01 -0.80883029330E+00  0.99379223372E+01  0.51100000000E-03 0. -1.
        -11    1    4    4    0    0 -0.88356488443E+00  0.63583839845E+01 -0.15893298818E+01  0.66132974781E+01  0.51100000000E-03 0.  1.
        -12    1    4    4    0    0 -0.19514290881E+02  0.25036596197E+01 -0.32294934228E+02  0.37815851661E+02  0.00000000000E+00 0.  1.
</event>
<event>
 8    1  0.1280925E-006  0.9118800E+02  0.7816164E-02  0.1184000E+00
        -11   -1    0    0    0    0  0.00000000000E+00  0.00000000000E+00  0.45593999997E+02  0.45594000000E+02  0.51100000000E-03 0. -1.
         11   -1    0    0    0    0 -0.00000000000E+00 -0.00000000000E+00 -0.45593999997E+02  0.45594000000E+02  0.51100000000E-03 0.  1.
         23    2    1    2    0    0 -0.17763568394E-14 -0.35527136788E-14  0.71054273576E-14  0.91188000000E+02  0.91188000000E+02 0.  0.
    9900012    2    3    3    0    0  0.13667614580E+02 -0.16165311305E+02 -0.30127357362E+02  0.54367100507E+02  0.40000037225E+02 0.  0.
         12    1    3    3    0    0 -0.13667614580E+02  0.16165311305E+02  0.30127357362E+02  0.36820899493E+02  0.00000000000E+00 0. -1.
         11    1    4    4    0    0  0.23050825659E+01 -0.22811513415E+02 -0.84618620814E+01  0.24439346556E+02  0.51100000000E-03 0. -1.
        -11    1    4    4    0    0  0.94284356968E+01  0.18384345614E+01 -0.22695029376E+02  0.24644260994E+02  0.51100000000E-03 0.  1.
         12    1    4    4    0    0  0.19340963169E+01  0.48077675492E+01  0.10295340951E+01  0.52834929566E+01  0.00000000000E+00 0. -1.
</event>
<event>
 8    1  0.1280925E-006  0.9118800E+02  0.7816164E-02  0.1184000E+00
        -11   -1    0    0    0    0  0.00000000000E+00  0.00000000000E+00  0.45593999997E+02  0.45594000000E+02  0.51100000000E-03 0. -1.
         11   -1    0    0    0    0 -0.00000000000E+00 -0.00000000000E+00 -0.45593999997E+02  0.45594000000E+02  0.51100000000E-03 0.  1.
         23    2    1    2    0    0 -0.88817841970E-15  0.71054273576E-14  0.22204460493E-15  0.91188000000E+02  0.91188000000E+02 0.  0.
    9900012    2    3    3    0    0  0.78992196304E+01 -0.35940647821E+02  0.12851760208E+01  0.54367088632E+02  0.40000010155E+02 0.  0.
        -12    1    3    3    0    0 -0.78992196304E+01  0.35940647821E+02 -0.12851760208E+01  0.36820911368E+02  0.00000000000E+00 0.  1.
         11    1    4    4    0    0  0.42125505769E+01  0.30343400283E+01  0.32422084866E+00  0.52017229059E+01  0.51100000000E-03 0. -1.
        -11    1    4    4    0    0  0.14377190597E+02 -0.95784343512E+01  0.40162379344E+01  0.17736408359E+02  0.51100000000E-03 0.  1.
         12    1    4    4    0    0 -0.10690521544E+02 -0.29396553498E+02 -0.30552827622E+01  0.31428957367E+02  0.00000000000E+00 0. -1.
</event>
<event>
 8    1  0.1280925E-006  0.9118800E+02  0.7816164E-02  0.1184000E+00
        -11   -1    0    0    0    0  0.00000000000E+00  0.00000000000E+00  0.45593999997E+02  0.45594000000E+02  0.51100000000E-03 0. -1.
         11   -1    0    0    0    0 -0.00000000000E+00 -0.00000000000E+00 -0.45593999997E+02  0.45594000000E+02  0.51100000000E-03 0.  1.
         23    2    1    2    0    0  0.00000000000E+00  0.00000000000E+00  0.00000000000E+00  0.91188000000E+02  0.91188000000E+02 0.  0.
    9900012    2    3    3    0    0  0.57440664963E+01  0.74242970190E+01  0.35604289409E+02  0.54367083248E+02  0.39999997881E+02 0.  0.
        -12    1    3    3    0    0 -0.57440664963E+01 -0.74242970190E+01 -0.35604289409E+02  0.36820916752E+02  0.00000000000E+00 0.  1.
         11    1    4    4    0    0 -0.62991272126E+00 -0.91191692708E+01  0.99248907594E+01  0.13492942417E+02  0.51100000000E-03 0. -1.
        -11    1    4    4    0    0  0.23723629646E+01  0.73604640417E+01 -0.45882293011E+01  0.89920178673E+01  0.51100000000E-03 0.  1.
        -12    1    4    4    0    0  0.40016162530E+01  0.91830022481E+01  0.30267627950E+02  0.31882122964E+02  0.00000000000E+00 0.  1.
</event>
<event>
 8    1  0.1280925E-006  0.9118800E+02  0.7816164E-02  0.1184000E+00
        -11   -1    0    0    0    0  0.00000000000E+00  0.00000000000E+00  0.45593999997E+02  0.45594000000E+02  0.51100000000E-03 0.  1.
         11   -1    0    0    0    0 -0.00000000000E+00 -0.00000000000E+00 -0.45593999997E+02  0.45594000000E+02  0.51100000000E-03 0. -1.
         23    2    1    2    0    0  0.00000000000E+00  0.00000000000E+00 -0.17763568394E-14  0.91188000000E+02  0.91188000000E+02 0.  0.
    9900012    2    3    3    0    0  0.13793602906E+02 -0.33065429737E+02  0.84968888041E+01  0.54367037979E+02  0.39999894681E+02 0.  0.
        -12    1    3    3    0    0 -0.13793602906E+02  0.33065429737E+02 -0.84968888041E+01  0.36820962021E+02  0.00000000000E+00 0.  1.
         11    1    4    4    0    0  0.35939769190E-01 -0.31602263806E+01  0.74925584620E+01  0.81318358943E+01  0.51100000000E-03 0. -1.
        -11    1    4    4    0    0  0.11026758883E+02 -0.29591833290E+02  0.12835903411E+02  0.34088508703E+02  0.51100000000E-03 0.  1.
         12    1    4    4    0    0  0.27309042539E+01 -0.31337006579E+00 -0.11831573069E+02  0.12146693382E+02  0.00000000000E+00 0. -1.
</event>
<event>
 8    1  0.1280925E-006  0.9118800E+02  0.7816164E-02  0.1184000E+00
        -11   -1    0    0    0    0  0.00000000000E+00  0.00000000000E+00  0.45593999997E+02  0.45594000000E+02  0.51100000000E-03 0. -1.
         11   -1    0    0    0    0 -0.00000000000E+00 -0.00000000000E+00 -0.45593999997E+02  0.45594000000E+02  0.51100000000E-03 0.  1.
         23    2    1    2    0    0  0.00000000000E+00  0.00000000000E+00  0.35527136788E-14  0.91188000000E+02  0.91188000000E+02 0.  0.
    9900012    2    3    3    0    0  0.98430615665E+01 -0.30196191176E+02 -0.18630197789E+02  0.54367080780E+02  0.39999992255E+02 0.  0.
         12    1    3    3    0    0 -0.98430615665E+01  0.30196191176E+02  0.18630197789E+02  0.36820919220E+02  0.00000000000E+00 0. -1.
         11    1    4    4    0    0  0.97975454209E+01 -0.26366734404E+01 -0.96848013230E+00  0.10192246913E+02  0.51100000000E-03 0. -1.
        -11    1    4    4    0    0 -0.69935971923E+01 -0.13470594315E+02  0.55188705515E+01  0.16150084994E+02  0.51100000000E-03 0.  1.
        -12    1    4    4    0    0  0.70391133379E+01 -0.14088923420E+02 -0.23180588208E+02  0.28024748873E+02  0.00000000000E+00 0.  1.
</event>
<event>
 8    1  0.1280925E-006  0.9118800E+02  0.7816164E-02  0.1184000E+00
        -11   -1    0    0    0    0  0.00000000000E+00  0.00000000000E+00  0.45593999997E+02  0.45594000000E+02  0.51100000000E-03 0. -1.
         11   -1    0    0    0    0 -0.00000000000E+00 -0.00000000000E+00 -0.45593999997E+02  0.45594000000E+02  0.51100000000E-03 0.  1.
         23    2    1    2    0    0  0.35527136788E-14  0.00000000000E+00  0.35527136788E-14  0.91188000000E+02  0.91188000000E+02 0.  0.
    9900012    2    3    3    0    0  0.23780963782E+02 -0.22460489105E+02  0.16904931435E+02  0.54367020707E+02  0.39999855306E+02 0.  0.
        -12    1    3    3    0    0 -0.23780963782E+02  0.22460489105E+02 -0.16904931435E+02  0.36820979293E+02  0.00000000000E+00 0.  1.
         11    1    4    4    0    0 -0.10371458322E+01 -0.23385010293E+00 -0.53648279787E+00  0.11908700187E+01  0.51100000000E-03 0. -1.
        -11    1    4    4    0    0 -0.24897715391E+00 -0.31791092270E+01 -0.10567093972E+02  0.11037762472E+02  0.51100000000E-03 0.  1.
         12    1    4    4    0    0  0.25067086768E+02 -0.19047529775E+02  0.28008508205E+02  0.42138388217E+02  0.00000000000E+00 0. -1.
</event>
<event>
 8    1  0.1280925E-006  0.9118800E+02  0.7816164E-02  0.1184000E+00
        -11   -1    0    0    0    0  0.00000000000E+00  0.00000000000E+00  0.45593999997E+02  0.45594000000E+02  0.51100000000E-03 0.  1.
         11   -1    0    0    0    0 -0.00000000000E+00 -0.00000000000E+00 -0.45593999997E+02  0.45594000000E+02  0.51100000000E-03 0. -1.
         23    2    1    2    0    0  0.00000000000E+00  0.17763568394E-14  0.17763568394E-14  0.91188000000E+02  0.91188000000E+02 0.  0.
    9900012    2    3    3    0    0 -0.32718488083E+02 -0.11080730457E+02  0.12747471200E+02  0.54367081056E+02  0.39999992883E+02 0.  0.
         12    1    3    3    0    0  0.32718488083E+02  0.11080730457E+02 -0.12747471200E+02  0.36820918944E+02  0.00000000000E+00 0. -1.
         11    1    4    4    0    0 -0.45421060691E+01  0.12702628396E+02  0.23084505246E+01  0.13686359626E+02  0.51100000000E-03 0. -1.
        -11    1    4    4    0    0 -0.23231515407E+02 -0.22531670130E+02  0.13116087427E+02  0.34920068966E+02  0.51100000000E-03 0.  1.
        -12    1    4    4    0    0 -0.49448666067E+01 -0.12516887234E+01 -0.26770667514E+01  0.57606524639E+01  0.00000000000E+00 0.  1.
</event>
<event>
 8    1  0.1280925E-006  0.9118800E+02  0.7816164E-02  0.1184000E+00
        -11   -1    0    0    0    0  0.00000000000E+00  0.00000000000E+00  0.45593999997E+02  0.45594000000E+02  0.51100000000E-03 0. -1.
         11   -1    0    0    0    0 -0.00000000000E+00 -0.00000000000E+00 -0.45593999997E+02  0.45594000000E+02  0.51100000000E-03 0.  1.
         23    2    1    2    0    0  0.35527136788E-14  0.00000000000E+00  0.35527136788E-14  0.91188000000E+02  0.91188000000E+02 0.  0.
    9900012    2    3    3    0    0  0.27773338564E+02  0.17843637952E+02  0.16310275739E+02  0.54367097715E+02  0.40000030861E+02 0.  0.
        -12    1    3    3    0    0 -0.27773338564E+02 -0.17843637952E+02 -0.16310275739E+02  0.36820902285E+02  0.00000000000E+00 0.  1.
         11    1    4    4    0    0 -0.43785044724E+01  0.88965089396E+00 -0.47694881752E+01  0.65353498638E+01  0.51100000000E-03 0. -1.
        -11    1    4    4    0    0  0.85133169024E+01  0.17089329946E+01 -0.45281043360E+01  0.97928926166E+01  0.51100000000E-03 0.  1.
         12    1    4    4    0    0  0.23638526134E+02  0.15245054064E+02  0.25607868251E+02  0.38038855235E+02  0.00000000000E+00 0. -1.
</event>
<event>
 8    1  0.1280925E-006  0.9118800E+02  0.7816164E-02  0.1184000E+00
        -11   -1    0    0    0    0  0.00000000000E+00  0.00000000000E+00  0.45593999997E+02  0.45594000000E+02  0.51100000000E-03 0.  1.
         11   -1    0    0    0    0 -0.00000000000E+00 -0.00000000000E+00 -0.45593999997E+02  0.45594000000E+02  0.51100000000E-03 0. -1.
         23    2    1    2    0    0  0.00000000000E+00  0.00000000000E+00  0.17763568394E-14  0.91188000000E+02  0.91188000000E+02 0.  0.
    9900012    2    3    3    0    0 -0.29412648195E+02 -0.16642065635E+02  0.14619112548E+02  0.54367072878E+02  0.39999974241E+02 0.  0.
         12    1    3    3    0    0  0.29412648195E+02  0.16642065635E+02 -0.14619112548E+02  0.36820927122E+02  0.00000000000E+00 0. -1.
         11    1    4    4    0    0 -0.57964472616E+01  0.23855843137E+01 -0.34256852906E+01  0.71431878979E+01  0.51100000000E-03 0. -1.
        -11    1    4    4    0    0 -0.27777709281E+02 -0.14487299309E+02  0.23367555774E+02  0.39083572474E+02  0.51100000000E-03 0.  1.
        -12    1    4    4    0    0  0.41615083482E+01 -0.45403506398E+01 -0.53227579358E+01  0.81403125067E+01  0.00000000000E+00 0.  1.
</event>
<event>
 8    1  0.1280925E-006  0.9118800E+02  0.7816164E-02  0.1184000E+00
        -11   -1    0    0    0    0  0.00000000000E+00  0.00000000000E+00  0.45593999997E+02  0.45594000000E+02  0.51100000000E-03 0. -1.
         11   -1    0    0    0    0 -0.00000000000E+00 -0.00000000000E+00 -0.45593999997E+02  0.45594000000E+02  0.51100000000E-03 0.  1.
         23    2    1    2    0    0  0.00000000000E+00 -0.17763568394E-14  0.00000000000E+00  0.91188000000E+02  0.91188000000E+02 0.  0.
    9900012    2    3    3    0    0  0.22723373594E+02  0.14876845749E+02  0.24861761722E+02  0.54367089598E+02  0.40000012357E+02 0.  0.
        -12    1    3    3    0    0 -0.22723373594E+02 -0.14876845749E+02 -0.24861761722E+02  0.36820910402E+02  0.00000000000E+00 0.  1.
         11    1    4    4    0    0  0.25604450607E+01 -0.34741640872E+01  0.58043628857E+01  0.72330024045E+01  0.51100000000E-03 0. -1.
        -11    1    4    4    0    0  0.25018177543E+02  0.23787531878E+02  0.10916074701E+02  0.36206581827E+02  0.51100000000E-03 0.  1.
        -12    1    4    4    0    0 -0.48552490103E+01 -0.54365220423E+01  0.81413241351E+01  0.10927505367E+02  0.00000000000E+00 0.  1.
</event>
<event>
 8    1  0.1280925E-006  0.9118800E+02  0.7816164E-02  0.1184000E+00
        -11   -1    0    0    0    0  0.00000000000E+00  0.00000000000E+00  0.45593999997E+02  0.45594000000E+02  0.51100000000E-03 0.  1.
         11   -1    0    0    0    0 -0.00000000000E+00 -0.00000000000E+00 -0.45593999997E+02  0.45594000000E+02  0.51100000000E-03 0. -1.
         23    2    1    2    0    0  0.17763568394E-14  0.00000000000E+00  0.35527136788E-14  0.91188000000E+02  0.91188000000E+02 0.  0.
    9900012    2    3    3    0    0  0.14357658538E+02 -0.21123609181E+02  0.26522249332E+02  0.54367096519E+02  0.40000028134E+02 0.  0.
         12    1    3    3    0    0 -0.14357658538E+02  0.21123609181E+02 -0.26522249332E+02  0.36820903481E+02  0.00000000000E+00 0. -1.
         11    1    4    4    0    0 -0.47739490690E+01  0.15108937141E+01  0.58934098665E+01  0.77334125484E+01  0.51100000000E-03 0. -1.
        -11    1    4    4    0    0  0.46106262020E+01 -0.28958457822E+01 -0.75385050942E+01  0.92990782385E+01  0.51100000000E-03 0.  1.
         12    1    4    4    0    0  0.14520981405E+02 -0.19738657113E+02  0.28167344560E+02  0.37334605732E+02  0.00000000000E+00 0. -1.
</event>
<event>
 8    1  0.1280925E-006  0.9118800E+02  0.7816164E-02  0.1184000E+00
        -11   -1    0    0    0    0  0.00000000000E+00  0.00000000000E+00  0.45593999997E+02  0.45594000000E+02  0.51100000000E-03 0.  1.
         11   -1    0    0    0    0 -0.00000000000E+00 -0.00000000000E+00 -0.45593999997E+02  0.45594000000E+02  0.51100000000E-03 0. -1.
         23    2    1    2    0    0  0.00000000000E+00 -0.35527136788E-14  0.00000000000E+00  0.91188000000E+02  0.91188000000E+02 0.  0.
    9900012    2    3    3    0    0  0.21804036010E+02  0.22698142328E+02  0.19109105700E+02  0.54367087842E+02  0.40000008354E+02 0.  0.
         12    1    3    3    0    0 -0.21804036010E+02 -0.22698142328E+02 -0.19109105700E+02  0.36820912158E+02  0.00000000000E+00 0. -1.
         11    1    4    4    0    0  0.11305963721E+02  0.38367887012E+01 -0.92246869209E+00  0.11974836614E+02  0.51100000000E-03 0. -1.
        -11    1    4    4    0    0  0.13365295118E+02  0.10089218468E+01  0.20280391438E+02  0.24309325659E+02  0.51100000000E-03 0.  1.
         12    1    4    4    0    0 -0.28672228283E+01  0.17852431780E+02 -0.24881704543E+00  0.18082925569E+02  0.00000000000E+00 0. -1.
</event>
<event>
 8    1  0.1280925E-006  0.9118800E+02  0.7816164E-02  0.1184000E+00
        -11   -1    0    0    0    0  0.00000000000E+00  0.00000000000E+00  0.45593999997E+02  0.45594000000E+02  0.51100000000E-03 0. -1.
         11   -1    0    0    0    0 -0.00000000000E+00 -0.00000000000E+00 -0.45593999997E+02  0.45594000000E+02  0.51100000000E-03 0.  1.
         23    2    1    2    0    0  0.88817841970E-15  0.22204460493E-15  0.00000000000E+00  0.91188000000E+02  0.91188000000E+02 0.  0.
    9900012    2    3    3    0    0  0.44077231348E+01 -0.46126107115E+00  0.36553232475E+02  0.54367087608E+02  0.40000007821E+02 0.  0.
        -12    1    3    3    0    0 -0.44077231348E+01  0.46126107115E+00 -0.36553232475E+02  0.36820912392E+02  0.00000000000E+00 0.  1.
         11    1    4    4    0    0  0.92938039641E+01 -0.85372004736E+01 -0.10788416304E+01  0.12665799761E+02  0.51100000000E-03 0. -1.
        -11    1    4    4    0    0 -0.93463372491E+01  0.60762549112E+01  0.15851599205E+02  0.19379063221E+02  0.51100000000E-03 0.  1.
         12    1    4    4    0    0  0.44602564197E+01  0.19996844913E+01  0.21780474900E+02  0.22322224627E+02  0.00000000000E+00 0. -1.
</event>
<event>
 8    1  0.1280925E-006  0.9118800E+02  0.7816164E-02  0.1184000E+00
        -11   -1    0    0    0    0  0.00000000000E+00  0.00000000000E+00  0.45593999997E+02  0.45594000000E+02  0.51100000000E-03 0. -1.
         11   -1    0    0    0    0 -0.00000000000E+00 -0.00000000000E+00 -0.45593999997E+02  0.45594000000E+02  0.51100000000E-03 0.  1.
         23    2    1    2    0    0  0.12767564783E-14 -0.35527136788E-14  0.00000000000E+00  0.91188000000E+02  0.91188000000E+02 0.  0.
    9900012    2    3    3    0    0  0.34354566864E+00  0.26363730821E+02 -0.25702458100E+02  0.54367072814E+02  0.39999974095E+02 0.  0.
         12    1    3    3    0    0 -0.34354566864E+00 -0.26363730821E+02  0.25702458100E+02  0.36820927186E+02  0.00000000000E+00 0. -1.
         11    1    4    4    0    0  0.12783511682E+02 -0.31591132309E+00 -0.18551423455E+01  0.12921281835E+02  0.51100000000E-03 0.  1.
        -11    1    4    4    0    0 -0.97023236677E+01  0.68978834231E+01 -0.16105099366E+02  0.20027234111E+02  0.51100000000E-03 0. -1.
        -12    1    4    4    0    0 -0.27376423454E+01  0.19781758721E+02 -0.77422163880E+01  0.21418556868E+02  0.00000000000E+00 0.  1.
</event>
<event>
 8    1  0.1280925E-006  0.9118800E+02  0.7816164E-02  0.1184000E+00
        -11   -1    0    0    0    0  0.00000000000E+00  0.00000000000E+00  0.45593999997E+02  0.45594000000E+02  0.51100000000E-03 0.  1.
         11   -1    0    0    0    0 -0.00000000000E+00 -0.00000000000E+00 -0.45593999997E+02  0.45594000000E+02  0.51100000000E-03 0. -1.
         23    2    1    2    0    0  0.00000000000E+00  0.35527136788E-14  0.88817841970E-15  0.91188000000E+02  0.91188000000E+02 0.  0.
    9900012    2    3    3    0    0  0.23491216868E+02 -0.27367572121E+02  0.74133984575E+01  0.54367085421E+02  0.40000002834E+02 0.  0.
        -12    1    3    3    0    0 -0.23491216868E+02  0.27367572121E+02 -0.74133984575E+01  0.36820914579E+02  0.00000000000E+00 0.  1.
         11    1    4    4    0    0  0.10768051048E+02 -0.26909206827E+02 -0.51219780508E+01  0.29432821728E+02  0.51100000000E-03 0. -1.
        -11    1    4    4    0    0  0.69354148154E+01 -0.77610906489E+01  0.11575440415E+02  0.15566802105E+02  0.51100000000E-03 0.  1.
         12    1    4    4    0    0  0.57877510045E+01  0.73027253547E+01  0.95993609305E+00  0.93674615879E+01  0.00000000000E+00 0. -1.
</event>
<event>
 8    1  0.1280925E-006  0.9118800E+02  0.7816164E-02  0.1184000E+00
        -11   -1    0    0    0    0  0.00000000000E+00  0.00000000000E+00  0.45593999997E+02  0.45594000000E+02  0.51100000000E-03 0. -1.
         11   -1    0    0    0    0 -0.00000000000E+00 -0.00000000000E+00 -0.45593999997E+02  0.45594000000E+02  0.51100000000E-03 0.  1.
         23    2    1    2    0    0 -0.35527136788E-14  0.17763568394E-14  0.00000000000E+00  0.91188000000E+02  0.91188000000E+02 0.  0.
    9900012    2    3    3    0    0 -0.30027335309E+02 -0.15408942891E+02  0.14720861956E+02  0.54367079812E+02  0.39999990047E+02 0.  0.
         12    1    3    3    0    0  0.30027335309E+02  0.15408942891E+02 -0.14720861956E+02  0.36820920188E+02  0.00000000000E+00 0. -1.
         11    1    4    4    0    0 -0.32097059411E+02 -0.98975206749E+01  0.13848255883E+02  0.36331203250E+02  0.51100000000E-03 0. -1.
        -11    1    4    4    0    0 -0.51884649237E+01  0.33375017254E+01 -0.14971126986E+01  0.63482621814E+01  0.51100000000E-03 0.  1.
         12    1    4    4    0    0  0.72581890258E+01 -0.88489239411E+01  0.23697187722E+01  0.11687614381E+02  0.00000000000E+00 0. -1.
</event>
<event>
 8    1  0.1280925E-006  0.9118800E+02  0.7816164E-02  0.1184000E+00
        -11   -1    0    0    0    0  0.00000000000E+00  0.00000000000E+00  0.45593999997E+02  0.45594000000E+02  0.51100000000E-03 0.  1.
         11   -1    0    0    0    0 -0.00000000000E+00 -0.00000000000E+00 -0.45593999997E+02  0.45594000000E+02  0.51100000000E-03 0. -1.
         23    2    1    2    0    0  0.00000000000E+00 -0.88817841970E-15  0.00000000000E+00  0.91188000000E+02  0.91188000000E+02 0.  0.
    9900012    2    3    3    0    0 -0.34809275761E+02 -0.58371086676E+01  0.10489542308E+02  0.54366973202E+02  0.39999747009E+02 0.  0.
         12    1    3    3    0    0  0.34809275761E+02  0.58371086676E+01 -0.10489542308E+02  0.36821026798E+02  0.00000000000E+00 0. -1.
         11    1    4    4    0    0 -0.14749259267E+01  0.92239788962E+01 -0.23368732423E+01  0.96290274679E+01  0.51100000000E-03 0. -1.
        -11    1    4    4    0    0 -0.35190796369E+02 -0.87273047523E+01  0.10666723839E+02  0.37793345910E+02  0.51100000000E-03 0.  1.
        -12    1    4    4    0    0  0.18564465348E+01 -0.63337828115E+01  0.21596917115E+01  0.69445998250E+01  0.00000000000E+00 0.  1.
</event>
<event>
 8    1  0.1280925E-006  0.9118800E+02  0.7816164E-02  0.1184000E+00
        -11   -1    0    0    0    0  0.00000000000E+00  0.00000000000E+00  0.45593999997E+02  0.45594000000E+02  0.51100000000E-03 0.  1.
         11   -1    0    0    0    0 -0.00000000000E+00 -0.00000000000E+00 -0.45593999997E+02  0.45594000000E+02  0.51100000000E-03 0. -1.
         23    2    1    2    0    0  0.00000000000E+00  0.00000000000E+00  0.00000000000E+00  0.91188000000E+02  0.91188000000E+02 0.  0.
    9900012    2    3    3    0    0 -0.15438630487E+02  0.49149483950E+00 -0.33424339289E+02  0.54367091057E+02  0.40000015683E+02 0.  0.
         12    1    3    3    0    0  0.15438630487E+02 -0.49149483950E+00  0.33424339289E+02  0.36820908943E+02  0.00000000000E+00 0. -1.
         11    1    4    4    0    0 -0.10295212227E+02 -0.68061123416E+01 -0.12946439264E+02  0.17886443187E+02  0.51100000000E-03 0. -1.
        -11    1    4    4    0    0  0.73496576952E+01 -0.27784857096E+01 -0.18759882969E+02  0.20338895259E+02  0.51100000000E-03 0.  1.
        -12    1    4    4    0    0 -0.12493075955E+02  0.10076092891E+02 -0.17180170558E+01  0.16141752611E+02  0.00000000000E+00 0.  1.
</event>
<event>
 8    1  0.1280925E-006  0.9118800E+02  0.7816164E-02  0.1184000E+00
        -11   -1    0    0    0    0  0.00000000000E+00  0.00000000000E+00  0.45593999997E+02  0.45594000000E+02  0.51100000000E-03 0. -1.
         11   -1    0    0    0    0 -0.00000000000E+00 -0.00000000000E+00 -0.45593999997E+02  0.45594000000E+02  0.51100000000E-03 0.  1.
         23    2    1    2    0    0  0.00000000000E+00 -0.71054273576E-14 -0.88817841970E-15  0.91188000000E+02  0.91188000000E+02 0.  0.
    9900012    2    3    3    0    0 -0.90809861639E+01  0.35246410796E+02 -0.55673229148E+01  0.54367233194E+02  0.40000339712E+02 0.  0.
         12    1    3    3    0    0  0.90809861639E+01 -0.35246410796E+02  0.55673229148E+01  0.36820766806E+02  0.00000000000E+00 0. -1.
         11    1    4    4    0    0 -0.29772985644E+01  0.76874527746E+01  0.15614966025E+02  0.17657531003E+02  0.51100000000E-03 0. -1.
        -11    1    4    4    0    0  0.42307230930E+00  0.85928242318E+01 -0.11702461410E+02  0.14524573032E+02  0.51100000000E-03 0.  1.
         12    1    4    4    0    0 -0.65267599087E+01  0.18966133790E+02 -0.94798275294E+01  0.22185129159E+02  0.00000000000E+00 0. -1.
</event>
<event>
 8    1  0.1280925E-006  0.9118800E+02  0.7816164E-02  0.1184000E+00
        -11   -1    0    0    0    0  0.00000000000E+00  0.00000000000E+00  0.45593999997E+02  0.45594000000E+02  0.51100000000E-03 0.  1.
         11   -1    0    0    0    0 -0.00000000000E+00 -0.00000000000E+00 -0.45593999997E+02  0.45594000000E+02  0.51100000000E-03 0. -1.
         23    2    1    2    0    0  0.17763568394E-14  0.00000000000E+00  0.35527136788E-14  0.91188000000E+02  0.91188000000E+02 0.  0.
    9900012    2    3    3    0    0  0.54601445952E+01  0.25874843574E+02  0.25621459369E+02  0.54367083537E+02  0.39999998539E+02 0.  0.
         12    1    3    3    0    0 -0.54601445952E+01 -0.25874843574E+02 -0.25621459369E+02  0.36820916463E+02  0.00000000000E+00 0. -1.
         11    1    4    4    0    0 -0.14726083028E+02  0.19001190510E+02  0.12400593874E+02  0.27049537719E+02  0.51100000000E-03 0.  1.
        -11    1    4    4    0    0  0.14178815902E+02  0.27477062348E+01  0.29777255109E+01  0.14746374450E+02  0.51100000000E-03 0. -1.
        -12    1    4    4    0    0  0.60074117206E+01  0.41259468297E+01  0.10243139984E+02  0.12571171367E+02  0.00000000000E+00 0.  1.
</event>
<event>
 8    1  0.1280925E-006  0.9118800E+02  0.7816164E-02  0.1184000E+00
        -11   -1    0    0    0    0  0.00000000000E+00  0.00000000000E+00  0.45593999997E+02  0.45594000000E+02  0.51100000000E-03 0. -1.
         11   -1    0    0    0    0 -0.00000000000E+00 -0.00000000000E+00 -0.45593999997E+02  0.45594000000E+02  0.51100000000E-03 0.  1.
         23    2    1    2    0    0  0.17763568394E-14  0.00000000000E+00  0.35527136788E-14  0.91188000000E+02  0.91188000000E+02 0.  0.
    9900012    2    3    3    0    0 -0.12832226572E+02 -0.19096884700E+02 -0.28747575144E+02  0.54367080394E+02  0.39999991373E+02 0.  0.
         12    1    3    3    0    0  0.12832226572E+02  0.19096884700E+02  0.28747575144E+02  0.36820919606E+02  0.00000000000E+00 0. -1.
         11    1    4    4    0    0 -0.68931680829E+01 -0.57997001590E+01 -0.13837526303E+01  0.91141132184E+01  0.51100000000E-03 0. -1.
        -11    1    4    4    0    0 -0.75926479085E+01  0.74176516271E+01  0.34170715003E+00  0.10620104612E+02  0.51100000000E-03 0.  1.
        -12    1    4    4    0    0  0.16535894198E+01 -0.20714836168E+02 -0.27705529663E+02  0.34632862564E+02  0.00000000000E+00 0.  1.
</event>
<event>
 8    1  0.1280925E-006  0.9118800E+02  0.7816164E-02  0.1184000E+00
        -11   -1    0    0    0    0  0.00000000000E+00  0.00000000000E+00  0.45593999997E+02  0.45594000000E+02  0.51100000000E-03 0.  1.
         11   -1    0    0    0    0 -0.00000000000E+00 -0.00000000000E+00 -0.45593999997E+02  0.45594000000E+02  0.51100000000E-03 0. -1.
         23    2    1    2    0    0 -0.71054273576E-14 -0.35527136788E-14  0.17763568394E-14  0.91188000000E+02  0.91188000000E+02 0.  0.
    9900012    2    3    3    0    0 -0.34139498408E+02 -0.13145747373E+02 -0.41785219452E+01  0.54367135382E+02  0.40000116731E+02 0.  0.
         12    1    3    3    0    0  0.34139498408E+02  0.13145747373E+02  0.41785219452E+01  0.36820864618E+02  0.00000000000E+00 0. -1.
         11    1    4    4    0    0 -0.15985225668E+02  0.41164625413E+00 -0.23053059312E+01  0.16155845011E+02  0.51100000000E-03 0. -1.
        -11    1    4    4    0    0 -0.15940742344E+01  0.68966284264E+01  0.74638798364E+01  0.10286596074E+02  0.51100000000E-03 0.  1.
         12    1    4    4    0    0 -0.16560198505E+02 -0.20454022054E+02 -0.93370958503E+01  0.27924694298E+02  0.00000000000E+00 0. -1.
</event>
<event>
 8    1  0.1280925E-006  0.9118800E+02  0.7816164E-02  0.1184000E+00
        -11   -1    0    0    0    0  0.00000000000E+00  0.00000000000E+00  0.45593999997E+02  0.45594000000E+02  0.51100000000E-03 0. -1.
         11   -1    0    0    0    0 -0.00000000000E+00 -0.00000000000E+00 -0.45593999997E+02  0.45594000000E+02  0.51100000000E-03 0.  1.
         23    2    1    2    0    0  0.35527136788E-14 -0.44408920985E-15  0.35527136788E-14  0.91188000000E+02  0.91188000000E+02 0.  0.
    9900012    2    3    3    0    0  0.31998438183E+02 -0.29781992863E+01  0.17972432298E+02  0.54367108649E+02  0.40000055788E+02 0.  0.
        -12    1    3    3    0    0 -0.31998438183E+02  0.29781992863E+01 -0.17972432298E+02  0.36820891351E+02  0.00000000000E+00 0.  1.
         11    1    4    4    0    0 -0.18045442057E+01 -0.69911558449E+01 -0.31003279889E+01  0.78577779135E+01  0.51100000000E-03 0. -1.
        -11    1    4    4    0    0  0.12645206991E+02  0.78694612122E+01 -0.19304242147E+01  0.15018529140E+02  0.51100000000E-03 0.  1.
         12    1    4    4    0    0  0.21157775398E+02 -0.38565046537E+01  0.23003184501E+02  0.31490801596E+02  0.00000000000E+00 0. -1.
</event>
<event>
 8    1  0.1280925E-006  0.9118800E+02  0.7816164E-02  0.1184000E+00
        -11   -1    0    0    0    0  0.00000000000E+00  0.00000000000E+00  0.45593999997E+02  0.45594000000E+02  0.51100000000E-03 0. -1.
         11   -1    0    0    0    0 -0.00000000000E+00 -0.00000000000E+00 -0.45593999997E+02  0.45594000000E+02  0.51100000000E-03 0.  1.
         23    2    1    2    0    0  0.35527136788E-14 -0.88817841970E-15  0.35527136788E-14  0.91188000000E+02  0.91188000000E+02 0.  0.
    9900012    2    3    3    0    0 -0.24381990053E+02  0.56819796594E+01 -0.27000254982E+02  0.54367080662E+02  0.39999991985E+02 0.  0.
         12    1    3    3    0    0  0.24381990053E+02 -0.56819796594E+01  0.27000254982E+02  0.36820919338E+02  0.00000000000E+00 0. -1.
         11    1    4    4    0    0 -0.21955529608E+02  0.63311875706E+01 -0.28067788723E+01  0.23021885768E+02  0.51100000000E-03 0. -1.
        -11    1    4    4    0    0  0.64111996140E+01 -0.19715309406E+01 -0.13854261209E+01  0.68490744293E+01  0.51100000000E-03 0.  1.
        -12    1    4    4    0    0 -0.88376600595E+01  0.13223230295E+01 -0.22808049989E+02  0.24496120465E+02  0.00000000000E+00 0.  1.
</event>
<event>
 8    1  0.1280925E-006  0.9118800E+02  0.7816164E-02  0.1184000E+00
        -11   -1    0    0    0    0  0.00000000000E+00  0.00000000000E+00  0.45593999997E+02  0.45594000000E+02  0.51100000000E-03 0. -1.
         11   -1    0    0    0    0 -0.00000000000E+00 -0.00000000000E+00 -0.45593999997E+02  0.45594000000E+02  0.51100000000E-03 0.  1.
         23    2    1    2    0    0 -0.35527136788E-14  0.88817841970E-15 -0.35527136788E-14  0.91188000000E+02  0.91188000000E+02 0.  0.
    9900012    2    3    3    0    0  0.24232031144E+02 -0.70891128079E+01  0.26801731522E+02  0.54367086563E+02  0.40000005438E+02 0.  0.
        -12    1    3    3    0    0 -0.24232031144E+02  0.70891128079E+01 -0.26801731522E+02  0.36820913437E+02  0.00000000000E+00 0.  1.
         11    1    4    4    0    0  0.25096079891E+02 -0.36105217343E+01  0.11465842773E+02  0.27826509732E+02  0.51100000000E-03 0. -1.
        -11    1    4    4    0    0  0.35977193808E+01 -0.96852159289E+01  0.11102519711E+01  0.10391325807E+02  0.51100000000E-03 0.  1.
        -12    1    4    4    0    0 -0.44617681280E+01  0.62066248553E+01  0.14225636777E+02  0.16149251024E+02  0.00000000000E+00 0.  1.
</event>
<event>
 8    1  0.1280925E-006  0.9118800E+02  0.7816164E-02  0.1184000E+00
        -11   -1    0    0    0    0  0.00000000000E+00  0.00000000000E+00  0.45593999997E+02  0.45594000000E+02  0.51100000000E-03 0.  1.
         11   -1    0    0    0    0 -0.00000000000E+00 -0.00000000000E+00 -0.45593999997E+02  0.45594000000E+02  0.51100000000E-03 0. -1.
         23    2    1    2    0    0  0.00000000000E+00  0.00000000000E+00  0.35527136788E-14  0.91188000000E+02  0.91188000000E+02 0.  0.
    9900012    2    3    3    0    0 -0.11171907267E+02 -0.23203031157E+02 -0.26317069191E+02  0.54367077991E+02  0.39999985895E+02 0.  0.
        -12    1    3    3    0    0  0.11171907267E+02  0.23203031157E+02  0.26317069191E+02  0.36820922009E+02  0.00000000000E+00 0.  1.
         11    1    4    4    0    0 -0.18000577973E+01 -0.14118636417E+02 -0.19088627817E+02  0.23810749979E+02  0.51100000000E-03 0. -1.
        -11    1    4    4    0    0  0.38684737490E+01  0.25828652966E+01  0.66431126284E+01  0.81096996210E+01  0.51100000000E-03 0.  1.
        -12    1    4    4    0    0 -0.13240323218E+02 -0.11667260036E+02 -0.13871554002E+02  0.22446628391E+02  0.00000000000E+00 0.  1.
</event>
<event>
 8    1  0.1280925E-006  0.9118800E+02  0.7816164E-02  0.1184000E+00
        -11   -1    0    0    0    0  0.00000000000E+00  0.00000000000E+00  0.45593999997E+02  0.45594000000E+02  0.51100000000E-03 0.  1.
         11   -1    0    0    0    0 -0.00000000000E+00 -0.00000000000E+00 -0.45593999997E+02  0.45594000000E+02  0.51100000000E-03 0. -1.
         23    2    1    2    0    0  0.00000000000E+00  0.00000000000E+00  0.00000000000E+00  0.91188000000E+02  0.91188000000E+02 0.  0.
    9900012    2    3    3    0    0  0.21743086998E+02  0.97186551688E+01  0.28081508139E+02  0.54367011558E+02  0.39999834449E+02 0.  0.
         12    1    3    3    0    0 -0.21743086998E+02 -0.97186551688E+01 -0.28081508139E+02  0.36820988442E+02  0.00000000000E+00 0. -1.
         11    1    4    4    0    0  0.12577130047E+02  0.95659822718E+01 -0.16145132763E+01  0.15883918610E+02  0.51100000000E-03 0. -1.
        -11    1    4    4    0    0  0.66245956342E+01 -0.10844889695E+02  0.11903920455E+02  0.17412645470E+02  0.51100000000E-03 0.  1.
        -12    1    4    4    0    0  0.25413613165E+01  0.10997562592E+02  0.17792100960E+02  0.21070447477E+02  0.00000000000E+00 0.  1.
</event>
<event>
 8    1  0.1280925E-006  0.9118800E+02  0.7816164E-02  0.1184000E+00
        -11   -1    0    0    0    0  0.00000000000E+00  0.00000000000E+00  0.45593999997E+02  0.45594000000E+02  0.51100000000E-03 0.  1.
         11   -1    0    0    0    0 -0.00000000000E+00 -0.00000000000E+00 -0.45593999997E+02  0.45594000000E+02  0.51100000000E-03 0. -1.
         23    2    1    2    0    0  0.00000000000E+00  0.88817841970E-15  0.00000000000E+00  0.91188000000E+02  0.91188000000E+02 0.  0.
    9900012    2    3    3    0    0 -0.55348956473E+01  0.75428555857E+01 -0.35612494459E+02  0.54367088797E+02  0.40000010531E+02 0.  0.
        -12    1    3    3    0    0  0.55348956473E+01 -0.75428555857E+01  0.35612494459E+02  0.36820911203E+02  0.00000000000E+00 0.  1.
         11    1    4    4    0    0  0.10701021128E+02 -0.46985340570E+01 -0.60123492785E+00  0.11702544986E+02  0.51100000000E-03 0. -1.
        -11    1    4    4    0    0 -0.14262129497E+02  0.14058710088E+02 -0.23646128428E+02  0.30987014329E+02  0.51100000000E-03 0.  1.
        -12    1    4    4    0    0 -0.19737872778E+01 -0.18173204449E+01 -0.11365131103E+02  0.11677529482E+02  0.00000000000E+00 0.  1.
</event>
<event>
 8    1  0.1280925E-006  0.9118800E+02  0.7816164E-02  0.1184000E+00
        -11   -1    0    0    0    0  0.00000000000E+00  0.00000000000E+00  0.45593999997E+02  0.45594000000E+02  0.51100000000E-03 0. -1.
         11   -1    0    0    0    0 -0.00000000000E+00 -0.00000000000E+00 -0.45593999997E+02  0.45594000000E+02  0.51100000000E-03 0.  1.
         23    2    1    2    0    0 -0.35527136788E-14 -0.35527136788E-14  0.00000000000E+00  0.91188000000E+02  0.91188000000E+02 0.  0.
    9900012    2    3    3    0    0  0.15599216943E+02  0.19673926836E+02 -0.26932911260E+02  0.54367072861E+02  0.39999974202E+02 0.  0.
         12    1    3    3    0    0 -0.15599216943E+02 -0.19673926836E+02  0.26932911260E+02  0.36820927139E+02  0.00000000000E+00 0. -1.
         11    1    4    4    0    0  0.16687311250E+02  0.52658645896E+01 -0.11544878681E+02  0.20963776154E+02  0.51100000000E-03 0. -1.
        -11    1    4    4    0    0  0.86449569376E+01  0.16918986152E+02 -0.13147019206E+02  0.23104793596E+02  0.51100000000E-03 0.  1.
         12    1    4    4    0    0 -0.97330512445E+01 -0.25109239054E+01 -0.22410133734E+01  0.10298503111E+02  0.00000000000E+00 0. -1.
</event>
<event>
 8    1  0.1280925E-006  0.9118800E+02  0.7816164E-02  0.1184000E+00
        -11   -1    0    0    0    0  0.00000000000E+00  0.00000000000E+00  0.45593999997E+02  0.45594000000E+02  0.51100000000E-03 0.  1.
         11   -1    0    0    0    0 -0.00000000000E+00 -0.00000000000E+00 -0.45593999997E+02  0.45594000000E+02  0.51100000000E-03 0. -1.
         23    2    1    2    0    0  0.35527136788E-14 -0.17763568394E-14  0.71054273576E-14  0.91188000000E+02  0.91188000000E+02 0.  0.
    9900012    2    3    3    0    0  0.24330657644E+02  0.12045454458E+02  0.24873801816E+02  0.54367083509E+02  0.39999998475E+02 0.  0.
         12    1    3    3    0    0 -0.24330657644E+02 -0.12045454458E+02 -0.24873801816E+02  0.36820916491E+02  0.00000000000E+00 0. -1.
         11    1    4    4    0    0  0.79053741831E+01  0.86995276723E+01 -0.88061254960E+01  0.14687565122E+02  0.51100000000E-03 0. -1.
        -11    1    4    4    0    0 -0.16735691681E+01 -0.14826342368E+01  0.40109580730E+01  0.45920390857E+01  0.51100000000E-03 0.  1.
        -12    1    4    4    0    0  0.18098852629E+02  0.48285610221E+01  0.29668969239E+02  0.35087479301E+02  0.00000000000E+00 0.  1.
</event>
<event>
 8    1  0.1280925E-006  0.9118800E+02  0.7816164E-02  0.1184000E+00
        -11   -1    0    0    0    0  0.00000000000E+00  0.00000000000E+00  0.45593999997E+02  0.45594000000E+02  0.51100000000E-03 0. -1.
         11   -1    0    0    0    0 -0.00000000000E+00 -0.00000000000E+00 -0.45593999997E+02  0.45594000000E+02  0.51100000000E-03 0.  1.
         23    2    1    2    0    0  0.35527136788E-14 -0.35527136788E-14 -0.35527136788E-14  0.91188000000E+02  0.91188000000E+02 0.  0.
    9900012    2    3    3    0    0  0.21582227419E+02 -0.23112631658E+02 -0.18862458625E+02  0.54367100664E+02  0.40000037584E+02 0.  0.
         12    1    3    3    0    0 -0.21582227419E+02  0.23112631658E+02  0.18862458625E+02  0.36820899336E+02  0.00000000000E+00 0. -1.
         11    1    4    4    0    0 -0.49145759146E+01  0.22391865350E+01  0.40904799148E+01  0.67748829476E+01  0.51100000000E-03 0. -1.
        -11    1    4    4    0    0  0.16260714170E+02 -0.20135394194E+02 -0.24929257122E+02  0.35934840832E+02  0.51100000000E-03 0.  1.
        -12    1    4    4    0    0  0.10236089163E+02 -0.52164239997E+01  0.19763185826E+01  0.11657376885E+02  0.00000000000E+00 0.  1.
</event>
<event>
 8    1  0.1280925E-006  0.9118800E+02  0.7816164E-02  0.1184000E+00
        -11   -1    0    0    0    0  0.00000000000E+00  0.00000000000E+00  0.45593999997E+02  0.45594000000E+02  0.51100000000E-03 0. -1.
         11   -1    0    0    0    0 -0.00000000000E+00 -0.00000000000E+00 -0.45593999997E+02  0.45594000000E+02  0.51100000000E-03 0.  1.
         23    2    1    2    0    0  0.35527136788E-14  0.00000000000E+00 -0.35527136788E-14  0.91188000000E+02  0.91188000000E+02 0.  0.
    9900012    2    3    3    0    0 -0.16574573401E+02  0.27078808355E+02  0.18649342711E+02  0.54367131883E+02  0.40000108753E+02 0.  0.
        -12    1    3    3    0    0  0.16574573401E+02 -0.27078808355E+02 -0.18649342711E+02  0.36820868117E+02  0.00000000000E+00 0.  1.
         11    1    4    4    0    0 -0.20414462906E+01  0.24196751958E+02  0.19891342217E+02  0.31389740422E+02  0.51100000000E-03 0. -1.
        -11    1    4    4    0    0 -0.79075087432E+01 -0.23078423287E+01 -0.85198147195E+01  0.11850825872E+02  0.51100000000E-03 0.  1.
         12    1    4    4    0    0 -0.66256183671E+01  0.51898987259E+01  0.72778152128E+01  0.11126565589E+02  0.00000000000E+00 0. -1.
</event>
<event>
 8    1  0.1280925E-006  0.9118800E+02  0.7816164E-02  0.1184000E+00
        -11   -1    0    0    0    0  0.00000000000E+00  0.00000000000E+00  0.45593999997E+02  0.45594000000E+02  0.51100000000E-03 0. -1.
         11   -1    0    0    0    0 -0.00000000000E+00 -0.00000000000E+00 -0.45593999997E+02  0.45594000000E+02  0.51100000000E-03 0.  1.
         23    2    1    2    0    0 -0.35527136788E-14  0.66613381478E-15  0.00000000000E+00  0.91188000000E+02  0.91188000000E+02 0.  0.
    9900012    2    3    3    0    0  0.24289748514E+02  0.10408144967E+01 -0.27653302061E+02  0.54367078059E+02  0.39999986052E+02 0.  0.
         12    1    3    3    0    0 -0.24289748514E+02 -0.10408144967E+01  0.27653302061E+02  0.36820921941E+02  0.00000000000E+00 0. -1.
         11    1    4    4    0    0  0.46024832352E+01  0.10720970179E+02 -0.96607929817E+01  0.15147705265E+02  0.51100000000E-03 0. -1.
        -11    1    4    4    0    0  0.57343131502E+01  0.23562458970E+01 -0.19758043470E+02  0.20707837262E+02  0.51100000000E-03 0.  1.
         12    1    4    4    0    0  0.13952952128E+02 -0.12036401579E+02  0.17655343911E+01  0.18511535532E+02  0.00000000000E+00 0. -1.
</event>
<event>
 8    1  0.1280925E-006  0.9118800E+02  0.7816164E-02  0.1184000E+00
        -11   -1    0    0    0    0  0.00000000000E+00  0.00000000000E+00  0.45593999997E+02  0.45594000000E+02  0.51100000000E-03 0.  1.
         11   -1    0    0    0    0 -0.00000000000E+00 -0.00000000000E+00 -0.45593999997E+02  0.45594000000E+02  0.51100000000E-03 0. -1.
         23    2    1    2    0    0  0.00000000000E+00 -0.35527136788E-14  0.00000000000E+00  0.91188000000E+02  0.91188000000E+02 0.  0.
    9900012    2    3    3    0    0  0.17543705566E+02  0.30335952322E+02 -0.11301688242E+02  0.54367085218E+02  0.40000002370E+02 0.  0.
        -12    1    3    3    0    0 -0.17543705566E+02 -0.30335952322E+02  0.11301688242E+02  0.36820914782E+02  0.00000000000E+00 0.  1.
         11    1    4    4    0    0 -0.60831372249E+01  0.79399653759E+01 -0.66198590496E+01  0.11994588061E+02  0.51100000000E-03 0. -1.
        -11    1    4    4    0    0  0.20483319885E+02  0.10665420172E+01 -0.32298834096E+01  0.20763815942E+02  0.51100000000E-03 0.  1.
        -12    1    4    4    0    0  0.31435229067E+01  0.21329444929E+02 -0.14519457824E+01  0.21608681214E+02  0.00000000000E+00 0.  1.
</event>
<event>
 8    1  0.1280925E-006  0.9118800E+02  0.7816164E-02  0.1184000E+00
        -11   -1    0    0    0    0  0.00000000000E+00  0.00000000000E+00  0.45593999997E+02  0.45594000000E+02  0.51100000000E-03 0.  1.
         11   -1    0    0    0    0 -0.00000000000E+00 -0.00000000000E+00 -0.45593999997E+02  0.45594000000E+02  0.51100000000E-03 0. -1.
         23    2    1    2    0    0  0.71054273576E-14  0.00000000000E+00  0.00000000000E+00  0.91188000000E+02  0.91188000000E+02 0.  0.
    9900012    2    3    3    0    0 -0.24976046475E+02 -0.75175187958E+01  0.25989684680E+02  0.54367086158E+02  0.40000004515E+02 0.  0.
         12    1    3    3    0    0  0.24976046475E+02  0.75175187958E+01 -0.25989684680E+02  0.36820913842E+02  0.00000000000E+00 0. -1.
         11    1    4    4    0    0  0.84373451080E+01 -0.66220188492E+01  0.40831998360E+01  0.11476604344E+02  0.51100000000E-03 0. -1.
        -11    1    4    4    0    0 -0.14437064117E+02 -0.14643163922E+01  0.84546390793E+00  0.14535743954E+02  0.51100000000E-03 0.  1.
         12    1    4    4    0    0 -0.18976327467E+02  0.56881644569E+00  0.21061020936E+02  0.28354737860E+02  0.00000000000E+00 0. -1.
</event>
<event>
 8    1  0.1280925E-006  0.9118800E+02  0.7816164E-02  0.1184000E+00
        -11   -1    0    0    0    0  0.00000000000E+00  0.00000000000E+00  0.45593999997E+02  0.45594000000E+02  0.51100000000E-03 0. -1.
         11   -1    0    0    0    0 -0.00000000000E+00 -0.00000000000E+00 -0.45593999997E+02  0.45594000000E+02  0.51100000000E-03 0.  1.
         23    2    1    2    0    0  0.17763568394E-14  0.00000000000E+00  0.35527136788E-14  0.91188000000E+02  0.91188000000E+02 0.  0.
    9900012    2    3    3    0    0  0.12103865977E+02  0.19707347867E+02 -0.28651298295E+02  0.54367081686E+02  0.39999994319E+02 0.  0.
         12    1    3    3    0    0 -0.12103865977E+02 -0.19707347867E+02  0.28651298295E+02  0.36820918314E+02  0.00000000000E+00 0. -1.
         11    1    4    4    0    0 -0.24637258155E+01  0.23982963844E+01  0.61896637494E+01  0.70805160852E+01  0.51100000000E-03 0. -1.
        -11    1    4    4    0    0  0.87445806382E+01  0.14424899515E+02 -0.62861379833E+01  0.18001692908E+02  0.51100000000E-03 0.  1.
         12    1    4    4    0    0  0.58230111542E+01  0.28841519682E+01 -0.28554824061E+02  0.29284872692E+02  0.00000000000E+00 0. -1.
</event>
<event>
 8    1  0.1280925E-006  0.9118800E+02  0.7816164E-02  0.1184000E+00
        -11   -1    0    0    0    0  0.00000000000E+00  0.00000000000E+00  0.45593999997E+02  0.45594000000E+02  0.51100000000E-03 0.  1.
         11   -1    0    0    0    0 -0.00000000000E+00 -0.00000000000E+00 -0.45593999997E+02  0.45594000000E+02  0.51100000000E-03 0. -1.
         23    2    1    2    0    0  0.17763568394E-14  0.00000000000E+00 -0.35527136788E-14  0.91188000000E+02  0.91188000000E+02 0.  0.
    9900012    2    3    3    0    0  0.14997424206E+02 -0.22707970808E+02 -0.24803349750E+02  0.54367070763E+02  0.39999969419E+02 0.  0.
        -12    1    3    3    0    0 -0.14997424206E+02  0.22707970808E+02  0.24803349750E+02  0.36820929237E+02  0.00000000000E+00 0.  1.
         11    1    4    4    0    0 -0.12037090863E+02 -0.74745403532E+00 -0.74658993213E+01  0.14184142445E+02  0.51100000000E-03 0. -1.
        -11    1    4    4    0    0  0.52578394281E+01 -0.71740151473E+01 -0.44326303642E+00  0.89054955598E+01  0.51100000000E-03 0.  1.
         12    1    4    4    0    0  0.21776675640E+02 -0.14786501626E+02 -0.16894187393E+02  0.31277432758E+02  0.00000000000E+00 0. -1.
</event>
<event>
 8    1  0.1280925E-006  0.9118800E+02  0.7816164E-02  0.1184000E+00
        -11   -1    0    0    0    0  0.00000000000E+00  0.00000000000E+00  0.45593999997E+02  0.45594000000E+02  0.51100000000E-03 0. -1.
         11   -1    0    0    0    0 -0.00000000000E+00 -0.00000000000E+00 -0.45593999997E+02  0.45594000000E+02  0.51100000000E-03 0.  1.
         23    2    1    2    0    0  0.00000000000E+00  0.88817841970E-15  0.35527136788E-14  0.91188000000E+02  0.91188000000E+02 0.  0.
    9900012    2    3    3    0    0  0.16931841251E+02  0.72731303643E+01  0.31877796901E+02  0.54367087345E+02  0.40000007220E+02 0.  0.
        -12    1    3    3    0    0 -0.16931841251E+02 -0.72731303643E+01 -0.31877796901E+02  0.36820912655E+02  0.00000000000E+00 0.  1.
         11    1    4    4    0    0  0.60743458234E+01  0.40371421344E+01  0.21216767159E+02  0.22435405116E+02  0.51100000000E-03 0. -1.
        -11    1    4    4    0    0  0.86953959736E+01 -0.11683036200E+02  0.24588563927E+01  0.14769875457E+02  0.51100000000E-03 0.  1.
         12    1    4    4    0    0  0.21620994545E+01  0.14919024430E+02  0.82021733500E+01  0.17161806772E+02  0.00000000000E+00 0. -1.
</event>
<event>
 8    1  0.1280925E-006  0.9118800E+02  0.7816164E-02  0.1184000E+00
        -11   -1    0    0    0    0  0.00000000000E+00  0.00000000000E+00  0.45593999997E+02  0.45594000000E+02  0.51100000000E-03 0.  1.
         11   -1    0    0    0    0 -0.00000000000E+00 -0.00000000000E+00 -0.45593999997E+02  0.45594000000E+02  0.51100000000E-03 0. -1.
         23    2    1    2    0    0  0.00000000000E+00  0.35527136788E-14  0.00000000000E+00  0.91188000000E+02  0.91188000000E+02 0.  0.
    9900012    2    3    3    0    0  0.69342015658E+01  0.26449721091E+02 -0.24659858821E+02  0.54367088357E+02  0.40000009528E+02 0.  0.
        -12    1    3    3    0    0 -0.69342015658E+01 -0.26449721091E+02  0.24659858821E+02  0.36820911643E+02  0.00000000000E+00 0.  1.
         11    1    4    4    0    0 -0.43119364090E+01  0.44709367950E+01 -0.10685792990E+02  0.12359945126E+02  0.51100000000E-03 0. -1.
        -11    1    4    4    0    0  0.31581286348E+01  0.28082165110E+02 -0.14690192232E+02  0.31849388092E+02  0.51100000000E-03 0.  1.
        -12    1    4    4    0    0  0.80880093400E+01 -0.61033808146E+01  0.71612640147E+00  0.10157755140E+02  0.00000000000E+00 0.  1.
</event>
<event>
 8    1  0.1280925E-006  0.9118800E+02  0.7816164E-02  0.1184000E+00
        -11   -1    0    0    0    0  0.00000000000E+00  0.00000000000E+00  0.45593999997E+02  0.45594000000E+02  0.51100000000E-03 0. -1.
         11   -1    0    0    0    0 -0.00000000000E+00 -0.00000000000E+00 -0.45593999997E+02  0.45594000000E+02  0.51100000000E-03 0.  1.
         23    2    1    2    0    0 -0.13322676296E-14 -0.16653345369E-15  0.00000000000E+00  0.91188000000E+02  0.91188000000E+02 0.  0.
    9900012    2    3    3    0    0  0.38923670937E+01  0.27211030400E+00  0.36613661598E+02  0.54367017107E+02  0.39999847099E+02 0.  0.
        -12    1    3    3    0    0 -0.38923670937E+01 -0.27211030400E+00 -0.36613661598E+02  0.36820982893E+02  0.00000000000E+00 0.  1.
         11    1    4    4    0    0 -0.43963071819E+01  0.10324995146E+02  0.12597395330E+02  0.16870904272E+02  0.51100000000E-03 0. -1.
        -11    1    4    4    0    0  0.10503376351E+02 -0.76624867743E+01 -0.25820227046E+00  0.13003895071E+02  0.51100000000E-03 0.  1.
         12    1    4    4    0    0 -0.22147020752E+01 -0.23903980676E+01  0.24274468538E+02  0.24492217764E+02  0.00000000000E+00 0. -1.
</event>
<event>
 8    1  0.1280925E-006  0.9118800E+02  0.7816164E-02  0.1184000E+00
        -11   -1    0    0    0    0  0.00000000000E+00  0.00000000000E+00  0.45593999997E+02  0.45594000000E+02  0.51100000000E-03 0. -1.
         11   -1    0    0    0    0 -0.00000000000E+00 -0.00000000000E+00 -0.45593999997E+02  0.45594000000E+02  0.51100000000E-03 0.  1.
         23    2    1    2    0    0  0.00000000000E+00 -0.71054273576E-14  0.00000000000E+00  0.91188000000E+02  0.91188000000E+02 0.  0.
    9900012    2    3    3    0    0  0.26307559754E+02  0.24867292644E+02 -0.67305652815E+01  0.54367211678E+02  0.40000290661E+02 0.  0.
        -12    1    3    3    0    0 -0.26307559754E+02 -0.24867292644E+02  0.67305652815E+01  0.36820788322E+02  0.00000000000E+00 0.  1.
         11    1    4    4    0    0 -0.68149139339E+01  0.71082485945E+01 -0.47889096206E+01  0.10950064184E+02  0.51100000000E-03 0. -1.
        -11    1    4    4    0    0  0.12589824070E+02  0.90976024143E+01 -0.11339735258E+02  0.19231735121E+02  0.51100000000E-03 0.  1.
         12    1    4    4    0    0  0.20532649618E+02  0.86614416348E+01  0.93980795972E+01  0.24185412373E+02  0.00000000000E+00 0. -1.
</event>
<event>
 8    1  0.1280925E-006  0.9118800E+02  0.7816164E-02  0.1184000E+00
        -11   -1    0    0    0    0  0.00000000000E+00  0.00000000000E+00  0.45593999997E+02  0.45594000000E+02  0.51100000000E-03 0. -1.
         11   -1    0    0    0    0 -0.00000000000E+00 -0.00000000000E+00 -0.45593999997E+02  0.45594000000E+02  0.51100000000E-03 0.  1.
         23    2    1    2    0    0  0.00000000000E+00  0.00000000000E+00  0.00000000000E+00  0.91188000000E+02  0.91188000000E+02 0.  0.
    9900012    2    3    3    0    0  0.23390813771E+02 -0.27836628666E+02 -0.58113379259E+01  0.54367085932E+02  0.40000003999E+02 0.  0.
         12    1    3    3    0    0 -0.23390813771E+02  0.27836628666E+02  0.58113379259E+01  0.36820914068E+02  0.00000000000E+00 0. -1.
         11    1    4    4    0    0 -0.90245592087E-01 -0.28224349845E+01  0.68899866625E+01  0.74462205164E+01  0.51100000000E-03 0. -1.
        -11    1    4    4    0    0  0.11425016942E+02 -0.10867596734E+02 -0.21250827150E+02  0.26461922185E+02  0.51100000000E-03 0.  1.
        -12    1    4    4    0    0  0.12056042421E+02 -0.14146596947E+02  0.85495025619E+01  0.20458943230E+02  0.00000000000E+00 0.  1.
</event>
<event>
 8    1  0.1280925E-006  0.9118800E+02  0.7816164E-02  0.1184000E+00
        -11   -1    0    0    0    0  0.00000000000E+00  0.00000000000E+00  0.45593999997E+02  0.45594000000E+02  0.51100000000E-03 0.  1.
         11   -1    0    0    0    0 -0.00000000000E+00 -0.00000000000E+00 -0.45593999997E+02  0.45594000000E+02  0.51100000000E-03 0. -1.
         23    2    1    2    0    0 -0.13322676296E-14  0.35527136788E-14  0.71054273576E-14  0.91188000000E+02  0.91188000000E+02 0.  0.
    9900012    2    3    3    0    0  0.27721154361E+01 -0.14324532558E+02 -0.33806850104E+02  0.54367082427E+02  0.39999996008E+02 0.  0.
        -12    1    3    3    0    0 -0.27721154361E+01  0.14324532558E+02  0.33806850104E+02  0.36820917573E+02  0.00000000000E+00 0.  1.
         11    1    4    4    0    0  0.13235686091E+01  0.21784793674E+01 -0.94659794599E+00  0.27191274611E+01  0.51100000000E-03 0. -1.
        -11    1    4    4    0    0  0.18688291380E+02 -0.11223221604E+02 -0.17240575183E+02  0.27792991396E+02  0.51100000000E-03 0.  1.
         12    1    4    4    0    0 -0.17239744553E+02 -0.52797903212E+01 -0.15619676976E+02  0.23854963569E+02  0.00000000000E+00 0. -1.
</event>
<event>
 8    1  0.1280925E-006  0.9118800E+02  0.7816164E-02  0.1184000E+00
        -11   -1    0    0    0    0  0.00000000000E+00  0.00000000000E+00  0.45593999997E+02  0.45594000000E+02  0.51100000000E-03 0. -1.
         11   -1    0    0    0    0 -0.00000000000E+00 -0.00000000000E+00 -0.45593999997E+02  0.45594000000E+02  0.51100000000E-03 0.  1.
         23    2    1    2    0    0  0.00000000000E+00  0.00000000000E+00  0.17763568394E-14  0.91188000000E+02  0.91188000000E+02 0.  0.
    9900012    2    3    3    0    0  0.32267275932E+02  0.98235415820E+01 -0.14768233128E+02  0.54367085088E+02  0.40000002074E+02 0.  0.
         12    1    3    3    0    0 -0.32267275932E+02 -0.98235415820E+01  0.14768233128E+02  0.36820914912E+02  0.00000000000E+00 0. -1.
         11    1    4    4    0    0  0.11038123837E+02 -0.37857031659E+01 -0.22787946476E+02  0.25601996624E+02  0.51100000000E-03 0. -1.
        -11    1    4    4    0    0  0.13821855770E+02  0.48033247725E+01  0.90610845683E+01  0.17211010418E+02  0.51100000000E-03 0.  1.
        -12    1    4    4    0    0  0.74072963245E+01  0.88059199754E+01 -0.10413712201E+01  0.11554078045E+02  0.00000000000E+00 0.  1.
</event>
<event>
 8    1  0.1280925E-006  0.9118800E+02  0.7816164E-02  0.1184000E+00
        -11   -1    0    0    0    0  0.00000000000E+00  0.00000000000E+00  0.45593999997E+02  0.45594000000E+02  0.51100000000E-03 0.  1.
         11   -1    0    0    0    0 -0.00000000000E+00 -0.00000000000E+00 -0.45593999997E+02  0.45594000000E+02  0.51100000000E-03 0. -1.
         23    2    1    2    0    0 -0.35527136788E-14 -0.35527136788E-14  0.00000000000E+00  0.91188000000E+02  0.91188000000E+02 0.  0.
    9900012    2    3    3    0    0 -0.87463952541E+01  0.30170068312E+02  0.19210583867E+02  0.54367095823E+02  0.40000026547E+02 0.  0.
        -12    1    3    3    0    0  0.87463952541E+01 -0.30170068312E+02 -0.19210583867E+02  0.36820904177E+02  0.00000000000E+00 0.  1.
         11    1    4    4    0    0  0.44020576866E+01  0.22570951201E+02 -0.10670030045E+01  0.23020956663E+02  0.51100000000E-03 0. -1.
        -11    1    4    4    0    0  0.39455216143E+01 -0.10318768479E+01  0.10537963983E+01  0.42121725687E+01  0.51100000000E-03 0.  1.
        -12    1    4    4    0    0 -0.17093974555E+02  0.86309939595E+01  0.19223790473E+02  0.27133966591E+02  0.00000000000E+00 0.  1.
</event>
<event>
 8    1  0.1280925E-006  0.9118800E+02  0.7816164E-02  0.1184000E+00
        -11   -1    0    0    0    0  0.00000000000E+00  0.00000000000E+00  0.45593999997E+02  0.45594000000E+02  0.51100000000E-03 0. -1.
         11   -1    0    0    0    0 -0.00000000000E+00 -0.00000000000E+00 -0.45593999997E+02  0.45594000000E+02  0.51100000000E-03 0.  1.
         23    2    1    2    0    0  0.00000000000E+00  0.88817841970E-15  0.00000000000E+00  0.91188000000E+02  0.91188000000E+02 0.  0.
    9900012    2    3    3    0    0  0.14170793115E+02 -0.15297384168E+01 -0.33950379086E+02  0.54367085872E+02  0.40000003862E+02 0.  0.
         12    1    3    3    0    0 -0.14170793115E+02  0.15297384168E+01  0.33950379086E+02  0.36820914128E+02  0.00000000000E+00 0. -1.
         11    1    4    4    0    0  0.51071989781E+01 -0.79135277866E+01 -0.20045912563E+02  0.22148273390E+02  0.51100000000E-03 0.  1.
        -11    1    4    4    0    0  0.15827262376E+02  0.12308019956E+02 -0.90023131865E+01  0.21977971529E+02  0.51100000000E-03 0. -1.
        -12    1    4    4    0    0 -0.67636682387E+01 -0.59242305865E+01 -0.49021533367E+01  0.10240840953E+02  0.00000000000E+00 0.  1.
</event>
<event>
 8    1  0.1280925E-006  0.9118800E+02  0.7816164E-02  0.1184000E+00
        -11   -1    0    0    0    0  0.00000000000E+00  0.00000000000E+00  0.45593999997E+02  0.45594000000E+02  0.51100000000E-03 0.  1.
         11   -1    0    0    0    0 -0.00000000000E+00 -0.00000000000E+00 -0.45593999997E+02  0.45594000000E+02  0.51100000000E-03 0. -1.
         23    2    1    2    0    0  0.00000000000E+00  0.17763568394E-14  0.17763568394E-14  0.91188000000E+02  0.91188000000E+02 0.  0.
    9900012    2    3    3    0    0  0.35323808009E+02  0.23024494104E+01  0.10133902079E+02  0.54367236063E+02  0.40000346252E+02 0.  0.
        -12    1    3    3    0    0 -0.35323808009E+02 -0.23024494104E+01 -0.10133902079E+02  0.36820763937E+02  0.00000000000E+00 0.  1.
         11    1    4    4    0    0  0.21869217979E+02 -0.10112084974E+02  0.62370305222E+01  0.24888099717E+02  0.51100000000E-03 0. -1.
        -11    1    4    4    0    0 -0.19779125199E+01  0.96326539581E+01  0.86465355982E+01  0.13094378119E+02  0.51100000000E-03 0.  1.
         12    1    4    4    0    0  0.15432502549E+02  0.27818804262E+01 -0.47496640415E+01  0.16384758227E+02  0.00000000000E+00 0. -1.
</event>
<event>
 8    1  0.1280925E-006  0.9118800E+02  0.7816164E-02  0.1184000E+00
        -11   -1    0    0    0    0  0.00000000000E+00  0.00000000000E+00  0.45593999997E+02  0.45594000000E+02  0.51100000000E-03 0.  1.
         11   -1    0    0    0    0 -0.00000000000E+00 -0.00000000000E+00 -0.45593999997E+02  0.45594000000E+02  0.51100000000E-03 0. -1.
         23    2    1    2    0    0  0.00000000000E+00 -0.17763568394E-14 -0.88817841970E-15  0.91188000000E+02  0.91188000000E+02 0.  0.
    9900012    2    3    3    0    0 -0.33690408072E+02 -0.14232589551E+02 -0.42626251601E+01  0.54367079660E+02  0.39999989702E+02 0.  0.
        -12    1    3    3    0    0  0.33690408072E+02  0.14232589551E+02  0.42626251601E+01  0.36820920340E+02  0.00000000000E+00 0.  1.
         11    1    4    4    0    0 -0.11728177857E+02 -0.36525530881E+01  0.10762819676E+01  0.12330842755E+02  0.51100000000E-03 0. -1.
        -11    1    4    4    0    0 -0.48914528839E+01 -0.13759696265E+02  0.10930525146E+02  0.18240941117E+02  0.51100000000E-03 0.  1.
         12    1    4    4    0    0 -0.17070777331E+02  0.31796598025E+01 -0.16269432273E+02  0.23795295788E+02  0.00000000000E+00 0. -1.
</event>
<event>
 8    1  0.1280925E-006  0.9118800E+02  0.7816164E-02  0.1184000E+00
        -11   -1    0    0    0    0  0.00000000000E+00  0.00000000000E+00  0.45593999997E+02  0.45594000000E+02  0.51100000000E-03 0.  1.
         11   -1    0    0    0    0 -0.00000000000E+00 -0.00000000000E+00 -0.45593999997E+02  0.45594000000E+02  0.51100000000E-03 0. -1.
         23    2    1    2    0    0 -0.17763568394E-14  0.17763568394E-14  0.00000000000E+00  0.91188000000E+02  0.91188000000E+02 0.  0.
    9900012    2    3    3    0    0  0.68578378293E+01 -0.12999283388E+02 -0.33760445326E+02  0.54367095925E+02  0.40000026780E+02 0.  0.
        -12    1    3    3    0    0 -0.68578378293E+01  0.12999283388E+02  0.33760445326E+02  0.36820904075E+02  0.00000000000E+00 0.  1.
         11    1    4    4    0    0  0.26415428777E+00 -0.15306610482E+02 -0.25750917233E+02  0.29957834377E+02  0.51100000000E-03 0. -1.
        -11    1    4    4    0    0 -0.39567626099E+01  0.89585560219E+01 -0.67058906149E+01  0.11869316137E+02  0.51100000000E-03 0.  1.
        -12    1    4    4    0    0  0.10550446151E+02 -0.66512289280E+01 -0.13036374777E+01  0.12539945411E+02  0.00000000000E+00 0.  1.
</event>
<event>
 8    1  0.1280925E-006  0.9118800E+02  0.7816164E-02  0.1184000E+00
        -11   -1    0    0    0    0  0.00000000000E+00  0.00000000000E+00  0.45593999997E+02  0.45594000000E+02  0.51100000000E-03 0. -1.
         11   -1    0    0    0    0 -0.00000000000E+00 -0.00000000000E+00 -0.45593999997E+02  0.45594000000E+02  0.51100000000E-03 0.  1.
         23    2    1    2    0    0  0.00000000000E+00  0.17763568394E-14  0.88817841970E-15  0.91188000000E+02  0.91188000000E+02 0.  0.
    9900012    2    3    3    0    0  0.33347118251E+02 -0.15450454679E+02 -0.22433954337E+01  0.54367086534E+02  0.40000005371E+02 0.  0.
         12    1    3    3    0    0 -0.33347118251E+02  0.15450454679E+02  0.22433954337E+01  0.36820913466E+02  0.00000000000E+00 0. -1.
         11    1    4    4    0    0 -0.44642315924E+01 -0.60750900315E+01 -0.11693631674E+02  0.13913198934E+02  0.51100000000E-03 0. -1.
        -11    1    4    4    0    0  0.17950366485E+02 -0.45659441764E+01  0.72902276718E+01  0.19905047675E+02  0.51100000000E-03 0.  1.
         12    1    4    4    0    0  0.19860983358E+02 -0.48094204707E+01  0.21600085683E+01  0.20548839924E+02  0.00000000000E+00 0. -1.
</event>
<event>
 8    1  0.1280925E-006  0.9118800E+02  0.7816164E-02  0.1184000E+00
        -11   -1    0    0    0    0  0.00000000000E+00  0.00000000000E+00  0.45593999997E+02  0.45594000000E+02  0.51100000000E-03 0.  1.
         11   -1    0    0    0    0 -0.00000000000E+00 -0.00000000000E+00 -0.45593999997E+02  0.45594000000E+02  0.51100000000E-03 0. -1.
         23    2    1    2    0    0 -0.11102230246E-14 -0.17763568394E-14  0.00000000000E+00  0.91188000000E+02  0.91188000000E+02 0.  0.
    9900012    2    3    3    0    0 -0.14472169161E+01 -0.15201195032E+02  0.33505345308E+02  0.54367096543E+02  0.40000028188E+02 0.  0.
         12    1    3    3    0    0  0.14472169161E+01  0.15201195032E+02 -0.33505345308E+02  0.36820903457E+02  0.00000000000E+00 0. -1.
         11    1    4    4    0    0 -0.12702385837E+02  0.18563366485E+00  0.44768740541E+01  0.13469501378E+02  0.51100000000E-03 0. -1.
        -11    1    4    4    0    0 -0.47029441006E+01  0.18428440846E+01  0.74753641904E+01  0.90219082003E+01  0.51100000000E-03 0.  1.
        -12    1    4    4    0    0  0.15958113022E+02 -0.17229672781E+02  0.21553107064E+02  0.31875686964E+02  0.00000000000E+00 0.  1.
</event>
<event>
 8    1  0.1280925E-006  0.9118800E+02  0.7816164E-02  0.1184000E+00
        -11   -1    0    0    0    0  0.00000000000E+00  0.00000000000E+00  0.45593999997E+02  0.45594000000E+02  0.51100000000E-03 0.  1.
         11   -1    0    0    0    0 -0.00000000000E+00 -0.00000000000E+00 -0.45593999997E+02  0.45594000000E+02  0.51100000000E-03 0. -1.
         23    2    1    2    0    0  0.88817841970E-15  0.00000000000E+00  0.00000000000E+00  0.91188000000E+02  0.91188000000E+02 0.  0.
    9900012    2    3    3    0    0 -0.44732061755E+01 -0.32408591686E+02  0.16895451784E+02  0.54367045646E+02  0.39999912159E+02 0.  0.
         12    1    3    3    0    0  0.44732061755E+01  0.32408591686E+02 -0.16895451784E+02  0.36820954354E+02  0.00000000000E+00 0. -1.
         11    1    4    4    0    0 -0.46130407829E+01 -0.56626732281E+00  0.74786891642E+00  0.47074528274E+01  0.51100000000E-03 0. -1.
        -11    1    4    4    0    0  0.24345595513E+01 -0.23763144484E+02 -0.71171690463E+01  0.24925252485E+02  0.51100000000E-03 0.  1.
         12    1    4    4    0    0 -0.22947249440E+01 -0.80791798797E+01  0.23264751914E+02  0.24734340333E+02  0.00000000000E+00 0. -1.
</event>
<event>
 8    1  0.1280925E-006  0.9118800E+02  0.7816164E-02  0.1184000E+00
        -11   -1    0    0    0    0  0.00000000000E+00  0.00000000000E+00  0.45593999997E+02  0.45594000000E+02  0.51100000000E-03 0. -1.
         11   -1    0    0    0    0 -0.00000000000E+00 -0.00000000000E+00 -0.45593999997E+02  0.45594000000E+02  0.51100000000E-03 0.  1.
         23    2    1    2    0    0  0.00000000000E+00  0.00000000000E+00  0.35527136788E-14  0.91188000000E+02  0.91188000000E+02 0.  0.
    9900012    2    3    3    0    0  0.10530759229E+02  0.18802483667E+02  0.29855497317E+02  0.54367068425E+02  0.39999964089E+02 0.  0.
        -12    1    3    3    0    0 -0.10530759229E+02 -0.18802483667E+02 -0.29855497317E+02  0.36820931575E+02  0.00000000000E+00 0.  1.
         11    1    4    4    0    0  0.10634629626E+02  0.45977282021E+01  0.78324999348E+01  0.13985081601E+02  0.51100000000E-03 0. -1.
        -11    1    4    4    0    0  0.24529435928E+01 -0.10091483504E+01  0.24598618194E+02  0.24741207124E+02  0.51100000000E-03 0.  1.
        -12    1    4    4    0    0 -0.25568139889E+01  0.15213903815E+02 -0.25756208115E+01  0.15640779700E+02  0.00000000000E+00 0.  1.
</event>
<event>
 8    1  0.1280925E-006  0.9118800E+02  0.7816164E-02  0.1184000E+00
        -11   -1    0    0    0    0  0.00000000000E+00  0.00000000000E+00  0.45593999997E+02  0.45594000000E+02  0.51100000000E-03 0.  1.
         11   -1    0    0    0    0 -0.00000000000E+00 -0.00000000000E+00 -0.45593999997E+02  0.45594000000E+02  0.51100000000E-03 0. -1.
         23    2    1    2    0    0  0.00000000000E+00  0.22204460493E-15  0.35527136788E-14  0.91188000000E+02  0.91188000000E+02 0.  0.
    9900012    2    3    3    0    0  0.32014338379E+02  0.14467346860E+01  0.18131981711E+02  0.54367086596E+02  0.40000005514E+02 0.  0.
        -12    1    3    3    0    0 -0.32014338379E+02 -0.14467346860E+01 -0.18131981711E+02  0.36820913404E+02  0.00000000000E+00 0.  1.
         11    1    4    4    0    0  0.90360118825E+01 -0.42955716430E+01 -0.56308427793E+01  0.11480759432E+02  0.51100000000E-03 0. -1.
        -11    1    4    4    0    0  0.77932424791E+01 -0.10686631958E+02  0.10418632597E+02  0.16837061394E+02  0.51100000000E-03 0.  1.
         12    1    4    4    0    0  0.15185084018E+02  0.16428938287E+02  0.13344191893E+02  0.26049265769E+02  0.00000000000E+00 0. -1.
</event>
<event>
 8    1  0.1280925E-006  0.9118800E+02  0.7816164E-02  0.1184000E+00
        -11   -1    0    0    0    0  0.00000000000E+00  0.00000000000E+00  0.45593999997E+02  0.45594000000E+02  0.51100000000E-03 0.  1.
         11   -1    0    0    0    0 -0.00000000000E+00 -0.00000000000E+00 -0.45593999997E+02  0.45594000000E+02  0.51100000000E-03 0. -1.
         23    2    1    2    0    0 -0.35527136788E-14  0.35527136788E-14  0.17763568394E-14  0.91188000000E+02  0.91188000000E+02 0.  0.
    9900012    2    3    3    0    0  0.18867787555E+02 -0.29993511275E+02 -0.10008778544E+02  0.54367085104E+02  0.40000002112E+02 0.  0.
         12    1    3    3    0    0 -0.18867787555E+02  0.29993511275E+02  0.10008778544E+02  0.36820914896E+02  0.00000000000E+00 0. -1.
         11    1    4    4    0    0  0.11542094797E+02 -0.28327144229E+02 -0.65480122065E+01  0.31281360530E+02  0.51100000000E-03 0.  1.
        -11    1    4    4    0    0  0.94470421069E+01  0.41907079965E+01 -0.97682281879E+01  0.14220651190E+02  0.51100000000E-03 0. -1.
        -12    1    4    4    0    0 -0.21213493494E+01 -0.58570750429E+01  0.63074618501E+01  0.88650733844E+01  0.00000000000E+00 0.  1.
</event>
<event>
 8    1  0.1280925E-006  0.9118800E+02  0.7816164E-02  0.1184000E+00
        -11   -1    0    0    0    0  0.00000000000E+00  0.00000000000E+00  0.45593999997E+02  0.45594000000E+02  0.51100000000E-03 0.  1.
         11   -1    0    0    0    0 -0.00000000000E+00 -0.00000000000E+00 -0.45593999997E+02  0.45594000000E+02  0.51100000000E-03 0. -1.
         23    2    1    2    0    0  0.00000000000E+00  0.35527136788E-14  0.88817841970E-15  0.91188000000E+02  0.91188000000E+02 0.  0.
    9900012    2    3    3    0    0  0.23519972417E+02 -0.27911759578E+02  0.48501557332E+01  0.54367089693E+02  0.40000012572E+02 0.  0.
        -12    1    3    3    0    0 -0.23519972417E+02  0.27911759578E+02 -0.48501557332E+01  0.36820910307E+02  0.00000000000E+00 0.  1.
         11    1    4    4    0    0 -0.11364002756E+01 -0.64750820188E+01  0.13601307709E+02  0.15106742349E+02  0.51100000000E-03 0.  1.
        -11    1    4    4    0    0 -0.30456508248E-01  0.32143545584E+01  0.26971695867E+00  0.32257945261E+01  0.51100000000E-03 0. -1.
         12    1    4    4    0    0  0.24686829201E+02 -0.24651032117E+02 -0.90208689342E+01  0.36034552818E+02  0.00000000000E+00 0. -1.
</event>
<event>
 8    1  0.1280925E-006  0.9118800E+02  0.7816164E-02  0.1184000E+00
        -11   -1    0    0    0    0  0.00000000000E+00  0.00000000000E+00  0.45593999997E+02  0.45594000000E+02  0.51100000000E-03 0. -1.
         11   -1    0    0    0    0 -0.00000000000E+00 -0.00000000000E+00 -0.45593999997E+02  0.45594000000E+02  0.51100000000E-03 0.  1.
         23    2    1    2    0    0 -0.44408920985E-15  0.35527136788E-14  0.35527136788E-14  0.91188000000E+02  0.91188000000E+02 0.  0.
    9900012    2    3    3    0    0 -0.32675479536E+01  0.24900990891E+02  0.26926567132E+02  0.54367133165E+02  0.40000111676E+02 0.  0.
        -12    1    3    3    0    0  0.32675479536E+01 -0.24900990891E+02 -0.26926567132E+02  0.36820866835E+02  0.00000000000E+00 0.  1.
         11    1    4    4    0    0  0.12121188548E+01  0.27865660845E+02  0.30130610137E+02  0.41058713496E+02  0.51100000000E-03 0. -1.
        -11    1    4    4    0    0 -0.15313461464E+01 -0.15567856356E+01  0.44661114963E+01  0.49713936370E+01  0.51100000000E-03 0.  1.
        -12    1    4    4    0    0 -0.29483206620E+01 -0.14078843183E+01 -0.76701545019E+01  0.83370260323E+01  0.00000000000E+00 0.  1.
</event>
<event>
 8    1  0.1280925E-006  0.9118800E+02  0.7816164E-02  0.1184000E+00
        -11   -1    0    0    0    0  0.00000000000E+00  0.00000000000E+00  0.45593999997E+02  0.45594000000E+02  0.51100000000E-03 0.  1.
         11   -1    0    0    0    0 -0.00000000000E+00 -0.00000000000E+00 -0.45593999997E+02  0.45594000000E+02  0.51100000000E-03 0. -1.
         23    2    1    2    0    0  0.00000000000E+00  0.00000000000E+00  0.00000000000E+00  0.91188000000E+02  0.91188000000E+02 0.  0.
    9900012    2    3    3    0    0 -0.10071010962E+02 -0.11050272614E+02  0.33648823335E+02  0.54367121433E+02  0.40000084930E+02 0.  0.
         12    1    3    3    0    0  0.10071010962E+02  0.11050272614E+02 -0.33648823335E+02  0.36820878567E+02  0.00000000000E+00 0. -1.
         11    1    4    4    0    0  0.63650654518E+01 -0.13762961940E+01  0.26728524054E+01  0.70393458262E+01  0.51100000000E-03 0.  1.
        -11    1    4    4    0    0  0.47917967728E+01 -0.13308933188E+02  0.10562201432E+02  0.17653586556E+02  0.51100000000E-03 0. -1.
        -12    1    4    4    0    0 -0.21227873186E+02  0.36349567680E+01  0.20413769497E+02  0.29674189051E+02  0.00000000000E+00 0.  1.
</event>
<event>
 8    1  0.1280925E-006  0.9118800E+02  0.7816164E-02  0.1184000E+00
        -11   -1    0    0    0    0  0.00000000000E+00  0.00000000000E+00  0.45593999997E+02  0.45594000000E+02  0.51100000000E-03 0.  1.
         11   -1    0    0    0    0 -0.00000000000E+00 -0.00000000000E+00 -0.45593999997E+02  0.45594000000E+02  0.51100000000E-03 0. -1.
         23    2    1    2    0    0  0.00000000000E+00  0.00000000000E+00  0.00000000000E+00  0.91188000000E+02  0.91188000000E+02 0.  0.
    9900012    2    3    3    0    0 -0.12133925334E+02 -0.84718001015E+01  0.33716107742E+02  0.54367089335E+02  0.40000011756E+02 0.  0.
         12    1    3    3    0    0  0.12133925334E+02  0.84718001015E+01 -0.33716107742E+02  0.36820910665E+02  0.00000000000E+00 0. -1.
         11    1    4    4    0    0 -0.14018804126E+02 -0.45825154095E+01  0.27476824370E+02  0.31184967441E+02  0.51100000000E-03 0. -1.
        -11    1    4    4    0    0  0.86037797051E+01  0.13099327225E+00  0.11040341101E+02  0.13997546797E+02  0.51100000000E-03 0.  1.
         12    1    4    4    0    0 -0.67189009124E+01 -0.40202779643E+01 -0.48010577289E+01  0.91845750962E+01  0.00000000000E+00 0. -1.
</event>
<event>
 8    1  0.1280925E-006  0.9118800E+02  0.7816164E-02  0.1184000E+00
        -11   -1    0    0    0    0  0.00000000000E+00  0.00000000000E+00  0.45593999997E+02  0.45594000000E+02  0.51100000000E-03 0.  1.
         11   -1    0    0    0    0 -0.00000000000E+00 -0.00000000000E+00 -0.45593999997E+02  0.45594000000E+02  0.51100000000E-03 0. -1.
         23    2    1    2    0    0 -0.13322676296E-14  0.00000000000E+00  0.00000000000E+00  0.91188000000E+02  0.91188000000E+02 0.  0.
    9900012    2    3    3    0    0  0.24899726245E+01 -0.18914960207E+02 -0.31492856707E+02  0.54367140330E+02  0.40000128010E+02 0.  0.
        -12    1    3    3    0    0 -0.24899726245E+01  0.18914960207E+02  0.31492856707E+02  0.36820859670E+02  0.00000000000E+00 0.  1.
         11    1    4    4    0    0 -0.28490872454E+01 -0.10840760588E+02 -0.21142698943E+02  0.23930171481E+02  0.51100000000E-03 0. -1.
        -11    1    4    4    0    0  0.10129558256E+02 -0.24075103142E+01  0.63271016305E+01  0.12183442522E+02  0.51100000000E-03 0.  1.
        -12    1    4    4    0    0 -0.47904983863E+01 -0.56666893042E+01 -0.16677259395E+02  0.18253526327E+02  0.00000000000E+00 0.  1.
</event>
<event>
 8    1  0.1280925E-006  0.9118800E+02  0.7816164E-02  0.1184000E+00
        -11   -1    0    0    0    0  0.00000000000E+00  0.00000000000E+00  0.45593999997E+02  0.45594000000E+02  0.51100000000E-03 0.  1.
         11   -1    0    0    0    0 -0.00000000000E+00 -0.00000000000E+00 -0.45593999997E+02  0.45594000000E+02  0.51100000000E-03 0. -1.
         23    2    1    2    0    0  0.00000000000E+00  0.00000000000E+00  0.00000000000E+00  0.91188000000E+02  0.91188000000E+02 0.  0.
    9900012    2    3    3    0    0  0.17804531575E+02  0.28338804045E+02  0.15352233602E+02  0.54367078829E+02  0.39999987807E+02 0.  0.
         12    1    3    3    0    0 -0.17804531575E+02 -0.28338804045E+02 -0.15352233602E+02  0.36820921171E+02  0.00000000000E+00 0. -1.
         11    1    4    4    0    0  0.14257096363E+01 -0.13529075783E+01  0.35145886924E+01  0.40268276372E+01  0.51100000000E-03 0. -1.
        -11    1    4    4    0    0  0.21535471860E+02  0.94962966985E+01  0.16796623384E+02  0.28915095652E+02  0.51100000000E-03 0.  1.
        -12    1    4    4    0    0 -0.51566499213E+01  0.20195414925E+02 -0.49589784745E+01  0.21425155540E+02  0.00000000000E+00 0.  1.
</event>
<event>
 8    1  0.1280925E-006  0.9118800E+02  0.7816164E-02  0.1184000E+00
        -11   -1    0    0    0    0  0.00000000000E+00  0.00000000000E+00  0.45593999997E+02  0.45594000000E+02  0.51100000000E-03 0.  1.
         11   -1    0    0    0    0 -0.00000000000E+00 -0.00000000000E+00 -0.45593999997E+02  0.45594000000E+02  0.51100000000E-03 0. -1.
         23    2    1    2    0    0  0.71054273576E-14  0.44408920985E-14  0.88817841970E-15  0.91188000000E+02  0.91188000000E+02 0.  0.
    9900012    2    3    3    0    0  0.35774173348E+02 -0.63306249937E+01  0.59925802517E+01  0.54367091407E+02  0.40000016481E+02 0.  0.
         12    1    3    3    0    0 -0.35774173348E+02  0.63306249937E+01 -0.59925802517E+01  0.36820908593E+02  0.00000000000E+00 0. -1.
         11    1    4    4    0    0  0.54895300936E+01  0.87019533526E+01 -0.20353547400E+01  0.10488164853E+02  0.51100000000E-03 0. -1.
        -11    1    4    4    0    0  0.13775291444E+02  0.70538794745E+01  0.42286623955E+01  0.16043611063E+02  0.51100000000E-03 0.  1.
        -12    1    4    4    0    0  0.16509351810E+02 -0.22086457821E+02  0.37992725962E+01  0.27835315492E+02  0.00000000000E+00 0.  1.
</event>
<event>
 8    1  0.1280925E-006  0.9118800E+02  0.7816164E-02  0.1184000E+00
        -11   -1    0    0    0    0  0.00000000000E+00  0.00000000000E+00  0.45593999997E+02  0.45594000000E+02  0.51100000000E-03 0.  1.
         11   -1    0    0    0    0 -0.00000000000E+00 -0.00000000000E+00 -0.45593999997E+02  0.45594000000E+02  0.51100000000E-03 0. -1.
         23    2    1    2    0    0  0.88817841970E-15  0.17763568394E-14  0.00000000000E+00  0.91188000000E+02  0.91188000000E+02 0.  0.
    9900012    2    3    3    0    0  0.42931101245E+01  0.13357541617E+02  0.34042996667E+02  0.54367077488E+02  0.39999984748E+02 0.  0.
         12    1    3    3    0    0 -0.42931101245E+01 -0.13357541617E+02 -0.34042996667E+02  0.36820922512E+02  0.00000000000E+00 0. -1.
         11    1    4    4    0    0 -0.10392082250E+01 -0.10197746111E+01 -0.17528957912E+01  0.22787140909E+01  0.51100000000E-03 0. -1.
        -11    1    4    4    0    0 -0.12060855151E+02  0.10766823068E+02  0.57036498061E+01  0.17144104739E+02  0.51100000000E-03 0.  1.
         12    1    4    4    0    0  0.17393173500E+02  0.36104931605E+01  0.30092242652E+02  0.34944258657E+02  0.00000000000E+00 0. -1.
</event>
<event>
 8    1  0.1280925E-006  0.9118800E+02  0.7816164E-02  0.1184000E+00
        -11   -1    0    0    0    0  0.00000000000E+00  0.00000000000E+00  0.45593999997E+02  0.45594000000E+02  0.51100000000E-03 0. -1.
         11   -1    0    0    0    0 -0.00000000000E+00 -0.00000000000E+00 -0.45593999997E+02  0.45594000000E+02  0.51100000000E-03 0.  1.
         23    2    1    2    0    0  0.35527136788E-14  0.53290705182E-14 -0.35527136788E-14  0.91188000000E+02  0.91188000000E+02 0.  0.
    9900012    2    3    3    0    0  0.23520646911E+02  0.14149822213E+02 -0.24542652354E+02  0.54367080887E+02  0.39999992499E+02 0.  0.
         12    1    3    3    0    0 -0.23520646911E+02 -0.14149822213E+02  0.24542652354E+02  0.36820919113E+02  0.00000000000E+00 0. -1.
         11    1    4    4    0    0  0.23064619351E+02  0.43906958327E+01  0.10244401951E+01  0.23501156432E+02  0.51100000000E-03 0. -1.
        -11    1    4    4    0    0  0.32414453780E+01 -0.26099253916E+01 -0.36006751624E+01  0.55030482984E+01  0.51100000000E-03 0.  1.
        -12    1    4    4    0    0 -0.27854178179E+01  0.12369051772E+02 -0.21966417386E+02  0.25362876157E+02  0.00000000000E+00 0.  1.
</event>
<event>
 8    1  0.1280925E-006  0.9118800E+02  0.7816164E-02  0.1184000E+00
        -11   -1    0    0    0    0  0.00000000000E+00  0.00000000000E+00  0.45593999997E+02  0.45594000000E+02  0.51100000000E-03 0.  1.
         11   -1    0    0    0    0 -0.00000000000E+00 -0.00000000000E+00 -0.45593999997E+02  0.45594000000E+02  0.51100000000E-03 0. -1.
         23    2    1    2    0    0  0.35527136788E-14 -0.35527136788E-14  0.17763568394E-14  0.91188000000E+02  0.91188000000E+02 0.  0.
    9900012    2    3    3    0    0 -0.27998244430E+02  0.21295685479E+02 -0.10879875691E+02  0.54367087379E+02  0.40000007299E+02 0.  0.
        -12    1    3    3    0    0  0.27998244430E+02 -0.21295685479E+02  0.10879875691E+02  0.36820912621E+02  0.00000000000E+00 0.  1.
         11    1    4    4    0    0  0.18770960884E+01 -0.66283542680E+01 -0.43567286837E+01  0.81510523929E+01  0.51100000000E-03 0. -1.
        -11    1    4    4    0    0 -0.18124514765E+02  0.28665369355E+02 -0.37637648174E+01  0.34122827573E+02  0.51100000000E-03 0.  1.
         12    1    4    4    0    0 -0.11750825753E+02 -0.74132960813E+00 -0.27593821897E+01  0.12093207413E+02  0.00000000000E+00 0. -1.
</event>
<event>
 8    1  0.1280925E-006  0.9118800E+02  0.7816164E-02  0.1184000E+00
        -11   -1    0    0    0    0  0.00000000000E+00  0.00000000000E+00  0.45593999997E+02  0.45594000000E+02  0.51100000000E-03 0.  1.
         11   -1    0    0    0    0 -0.00000000000E+00 -0.00000000000E+00 -0.45593999997E+02  0.45594000000E+02  0.51100000000E-03 0. -1.
         23    2    1    2    0    0 -0.17763568394E-14 -0.88817841970E-15  0.71054273576E-14  0.91188000000E+02  0.91188000000E+02 0.  0.
    9900012    2    3    3    0    0  0.11464466687E+02 -0.77333447844E+01  0.34125377121E+02  0.54367082282E+02  0.39999995678E+02 0.  0.
         12    1    3    3    0    0 -0.11464466687E+02  0.77333447844E+01 -0.34125377121E+02  0.36820917718E+02  0.00000000000E+00 0. -1.
         11    1    4    4    0    0 -0.17077194679E+01 -0.10912892105E+02 -0.88326525843E+00  0.11080960142E+02  0.51100000000E-03 0. -1.
        -11    1    4    4    0    0  0.43725847865E+01 -0.61116627123E+01  0.18432695170E+01  0.77375423487E+01  0.51100000000E-03 0.  1.
         12    1    4    4    0    0  0.87996013687E+01  0.92912100332E+01  0.33165372862E+02  0.35548579792E+02  0.00000000000E+00 0. -1.
</event>
<event>
 8    1  0.1280925E-006  0.9118800E+02  0.7816164E-02  0.1184000E+00
        -11   -1    0    0    0    0  0.00000000000E+00  0.00000000000E+00  0.45593999997E+02  0.45594000000E+02  0.51100000000E-03 0.  1.
         11   -1    0    0    0    0 -0.00000000000E+00 -0.00000000000E+00 -0.45593999997E+02  0.45594000000E+02  0.51100000000E-03 0. -1.
         23    2    1    2    0    0  0.00000000000E+00  0.00000000000E+00  0.00000000000E+00  0.91188000000E+02  0.91188000000E+02 0.  0.
    9900012    2    3    3    0    0 -0.21744971351E+02 -0.16556647517E+02 -0.24674120121E+02  0.54367101589E+02  0.40000039692E+02 0.  0.
        -12    1    3    3    0    0  0.21744971351E+02  0.16556647517E+02  0.24674120121E+02  0.36820898411E+02  0.00000000000E+00 0.  1.
         11    1    4    4    0    0 -0.81649838138E+01  0.15923180823E+01 -0.13661328715E+02  0.15994822290E+02  0.51100000000E-03 0. -1.
        -11    1    4    4    0    0 -0.32563739532E+01 -0.19977360902E+02 -0.16881816342E+02  0.26357060595E+02  0.51100000000E-03 0.  1.
        -12    1    4    4    0    0 -0.10323613584E+02  0.18283953029E+01  0.58690249360E+01  0.12015218705E+02  0.00000000000E+00 0.  1.
</event>
<event>
 8    1  0.1280925E-006  0.9118800E+02  0.7816164E-02  0.1184000E+00
        -11   -1    0    0    0    0  0.00000000000E+00  0.00000000000E+00  0.45593999997E+02  0.45594000000E+02  0.51100000000E-03 0.  1.
         11   -1    0    0    0    0 -0.00000000000E+00 -0.00000000000E+00 -0.45593999997E+02  0.45594000000E+02  0.51100000000E-03 0. -1.
         23    2    1    2    0    0  0.00000000000E+00  0.00000000000E+00  0.00000000000E+00  0.91188000000E+02  0.91188000000E+02 0.  0.
    9900012    2    3    3    0    0 -0.25476645110E+02 -0.56353208167E+01 -0.25979817660E+02  0.54367255678E+02  0.40000390967E+02 0.  0.
        -12    1    3    3    0    0  0.25476645110E+02  0.56353208167E+01  0.25979817660E+02  0.36820744322E+02  0.00000000000E+00 0.  1.
         11    1    4    4    0    0 -0.76855592679E+01 -0.33311173280E+01 -0.11928608766E+02  0.14575866055E+02  0.51100000000E-03 0. -1.
        -11    1    4    4    0    0  0.48415304564E+01 -0.59526840860E+00  0.72010884321E+01  0.86977259388E+01  0.51100000000E-03 0.  1.
        -12    1    4    4    0    0 -0.22632616299E+02 -0.17089350801E+01 -0.21252297326E+02  0.31093663684E+02  0.00000000000E+00 0.  1.
</event>
<event>
 8    1  0.1280925E-006  0.9118800E+02  0.7816164E-02  0.1184000E+00
        -11   -1    0    0    0    0  0.00000000000E+00  0.00000000000E+00  0.45593999997E+02  0.45594000000E+02  0.51100000000E-03 0.  1.
         11   -1    0    0    0    0 -0.00000000000E+00 -0.00000000000E+00 -0.45593999997E+02  0.45594000000E+02  0.51100000000E-03 0. -1.
         23    2    1    2    0    0  0.35527136788E-14  0.00000000000E+00  0.00000000000E+00  0.91188000000E+02  0.91188000000E+02 0.  0.
    9900012    2    3    3    0    0  0.16533816359E+02  0.12198618287E+01 -0.32877407685E+02  0.54367094493E+02  0.40000023515E+02 0.  0.
        -12    1    3    3    0    0 -0.16533816359E+02 -0.12198618287E+01  0.32877407685E+02  0.36820905507E+02  0.00000000000E+00 0.  1.
         11    1    4    4    0    0 -0.19662932191E+01  0.11051496980E+02 -0.26605651127E+02  0.28876678595E+02  0.51100000000E-03 0. -1.
        -11    1    4    4    0    0  0.15969600452E+02 -0.30833654303E+01 -0.52566889610E+00  0.16273033184E+02  0.51100000000E-03 0.  1.
         12    1    4    4    0    0  0.25305091258E+01 -0.67482697212E+01 -0.57460876623E+01  0.92173827136E+01  0.00000000000E+00 0. -1.
</event>
<event>
 8    1  0.1280925E-006  0.9118800E+02  0.7816164E-02  0.1184000E+00
        -11   -1    0    0    0    0  0.00000000000E+00  0.00000000000E+00  0.45593999997E+02  0.45594000000E+02  0.51100000000E-03 0. -1.
         11   -1    0    0    0    0 -0.00000000000E+00 -0.00000000000E+00 -0.45593999997E+02  0.45594000000E+02  0.51100000000E-03 0.  1.
         23    2    1    2    0    0  0.00000000000E+00 -0.35527136788E-14  0.00000000000E+00  0.91188000000E+02  0.91188000000E+02 0.  0.
    9900012    2    3    3    0    0  0.25762813131E+02  0.19029337697E+02 -0.18164231795E+02  0.54367115297E+02  0.40000070942E+02 0.  0.
         12    1    3    3    0    0 -0.25762813131E+02 -0.19029337697E+02  0.18164231795E+02  0.36820884703E+02  0.00000000000E+00 0. -1.
         11    1    4    4    0    0 -0.19119889444E+01 -0.28773925797E+01  0.16512058539E+01  0.38290430676E+01  0.51100000000E-03 0. -1.
        -11    1    4    4    0    0  0.16662020311E+02 -0.50139524986E+01 -0.70548871529E+01  0.18775890751E+02  0.51100000000E-03 0.  1.
        -12    1    4    4    0    0  0.11012781764E+02  0.26920682775E+02 -0.12760550496E+02  0.31762181478E+02  0.00000000000E+00 0.  1.
</event>
<event>
 8    1  0.1280925E-006  0.9118800E+02  0.7816164E-02  0.1184000E+00
        -11   -1    0    0    0    0  0.00000000000E+00  0.00000000000E+00  0.45593999997E+02  0.45594000000E+02  0.51100000000E-03 0.  1.
         11   -1    0    0    0    0 -0.00000000000E+00 -0.00000000000E+00 -0.45593999997E+02  0.45594000000E+02  0.51100000000E-03 0. -1.
         23    2    1    2    0    0  0.00000000000E+00  0.71054273576E-14  0.00000000000E+00  0.91188000000E+02  0.91188000000E+02 0.  0.
    9900012    2    3    3    0    0 -0.85335457144E+01 -0.29935371208E+02  0.19668014339E+02  0.54367100501E+02  0.40000037213E+02 0.  0.
         12    1    3    3    0    0  0.85335457144E+01  0.29935371208E+02 -0.19668014339E+02  0.36820899499E+02  0.00000000000E+00 0. -1.
         11    1    4    4    0    0 -0.98179887062E+00  0.99580829810E+00  0.59705250621E+00  0.15205377816E+01  0.51100000000E-03 0. -1.
        -11    1    4    4    0    0 -0.41167331665E+01  0.79064091351E+01  0.88028671727E+01  0.12527939499E+02  0.51100000000E-03 0.  1.
        -12    1    4    4    0    0 -0.34350136773E+01 -0.38837588641E+02  0.10268094660E+02  0.40318623221E+02  0.00000000000E+00 0.  1.
</event>
<event>
 8    1  0.1280925E-006  0.9118800E+02  0.7816164E-02  0.1184000E+00
        -11   -1    0    0    0    0  0.00000000000E+00  0.00000000000E+00  0.45593999997E+02  0.45594000000E+02  0.51100000000E-03 0. -1.
         11   -1    0    0    0    0 -0.00000000000E+00 -0.00000000000E+00 -0.45593999997E+02  0.45594000000E+02  0.51100000000E-03 0.  1.
         23    2    1    2    0    0  0.00000000000E+00 -0.35527136788E-14  0.44408920985E-15  0.91188000000E+02  0.91188000000E+02 0.  0.
    9900012    2    3    3    0    0 -0.31741245373E+02 -0.18638219906E+02  0.94362088004E+00  0.54367077694E+02  0.39999985220E+02 0.  0.
         12    1    3    3    0    0  0.31741245373E+02  0.18638219906E+02 -0.94362088004E+00  0.36820922306E+02  0.00000000000E+00 0. -1.
         11    1    4    4    0    0 -0.27286154607E+02 -0.39343483780E+01 -0.94023670232E+01  0.29127612952E+02  0.51100000000E-03 0. -1.
        -11    1    4    4    0    0  0.21412670870E+01 -0.65167833988E+01 -0.36217413154E+01  0.77569646783E+01  0.51100000000E-03 0.  1.
         12    1    4    4    0    0 -0.65963578531E+01 -0.81870881288E+01  0.13967729219E+02  0.17482500064E+02  0.00000000000E+00 0. -1.
</event>
<event>
 8    1  0.1280925E-006  0.9118800E+02  0.7816164E-02  0.1184000E+00
        -11   -1    0    0    0    0  0.00000000000E+00  0.00000000000E+00  0.45593999997E+02  0.45594000000E+02  0.51100000000E-03 0.  1.
         11   -1    0    0    0    0 -0.00000000000E+00 -0.00000000000E+00 -0.45593999997E+02  0.45594000000E+02  0.51100000000E-03 0. -1.
         23    2    1    2    0    0  0.00000000000E+00  0.00000000000E+00  0.17763568394E-14  0.91188000000E+02  0.91188000000E+02 0.  0.
    9900012    2    3    3    0    0  0.31677103978E+02 -0.98772302566E+01  0.15961854961E+02  0.54367090074E+02  0.40000013442E+02 0.  0.
         12    1    3    3    0    0 -0.31677103978E+02  0.98772302566E+01 -0.15961854961E+02  0.36820909926E+02  0.00000000000E+00 0. -1.
         11    1    4    4    0    0  0.18346494318E+02 -0.61383465039E+01 -0.27596307278E+01  0.19541973124E+02  0.51100000000E-03 0. -1.
        -11    1    4    4    0    0  0.16876390336E+02 -0.23371359485E+01  0.23301469049E+02  0.28865779312E+02  0.51100000000E-03 0.  1.
         12    1    4    4    0    0 -0.35457806753E+01 -0.14017478042E+01 -0.45799833603E+01  0.59593376380E+01  0.00000000000E+00 0. -1.
</event>
<event>
 8    1  0.1280925E-006  0.9118800E+02  0.7816164E-02  0.1184000E+00
        -11   -1    0    0    0    0  0.00000000000E+00  0.00000000000E+00  0.45593999997E+02  0.45594000000E+02  0.51100000000E-03 0.  1.
         11   -1    0    0    0    0 -0.00000000000E+00 -0.00000000000E+00 -0.45593999997E+02  0.45594000000E+02  0.51100000000E-03 0. -1.
         23    2    1    2    0    0  0.17763568394E-14  0.35527136788E-14  0.00000000000E+00  0.91188000000E+02  0.91188000000E+02 0.  0.
    9900012    2    3    3    0    0  0.32815720294E+01 -0.25091684160E+02  0.26747130017E+02  0.54367213844E+02  0.40000295600E+02 0.  0.
         12    1    3    3    0    0 -0.32815720294E+01  0.25091684160E+02 -0.26747130017E+02  0.36820786156E+02  0.00000000000E+00 0. -1.
         11    1    4    4    0    0 -0.47298120669E+01  0.27549193020E+01 -0.42203253501E+01  0.69117182285E+01  0.51100000000E-03 0. -1.
        -11    1    4    4    0    0  0.12874254799E+02 -0.18799157256E+02  0.11681738256E+02  0.25605033862E+02  0.51100000000E-03 0.  1.
         12    1    4    4    0    0 -0.48628707028E+01 -0.90474462066E+01  0.19285717112E+02  0.21850461753E+02  0.00000000000E+00 0. -1.
</event>
<event>
 8    1  0.1280925E-006  0.9118800E+02  0.7816164E-02  0.1184000E+00
        -11   -1    0    0    0    0  0.00000000000E+00  0.00000000000E+00  0.45593999997E+02  0.45594000000E+02  0.51100000000E-03 0. -1.
         11   -1    0    0    0    0 -0.00000000000E+00 -0.00000000000E+00 -0.45593999997E+02  0.45594000000E+02  0.51100000000E-03 0.  1.
         23    2    1    2    0    0  0.17763568394E-14  0.00000000000E+00 -0.71054273576E-14  0.91188000000E+02  0.91188000000E+02 0.  0.
    9900012    2    3    3    0    0  0.91884045661E+01  0.69512944927E+01 -0.34971879828E+02  0.54367086754E+02  0.40000005873E+02 0.  0.
         12    1    3    3    0    0 -0.91884045661E+01 -0.69512944927E+01  0.34971879828E+02  0.36820913246E+02  0.00000000000E+00 0. -1.
         11    1    4    4    0    0  0.25139105025E+01  0.57261863033E+01  0.41189672307E+01  0.74883140227E+01  0.51100000000E-03 0. -1.
        -11    1    4    4    0    0  0.14576339530E+02  0.48346237200E+00 -0.35070212041E+02  0.37981879664E+02  0.51100000000E-03 0.  1.
        -12    1    4    4    0    0 -0.79018454668E+01  0.74164581739E+00 -0.40206350175E+01  0.88968930669E+01  0.00000000000E+00 0.  1.
</event>
<event>
 8    1  0.1280925E-006  0.9118800E+02  0.7816164E-02  0.1184000E+00
        -11   -1    0    0    0    0  0.00000000000E+00  0.00000000000E+00  0.45593999997E+02  0.45594000000E+02  0.51100000000E-03 0.  1.
         11   -1    0    0    0    0 -0.00000000000E+00 -0.00000000000E+00 -0.45593999997E+02  0.45594000000E+02  0.51100000000E-03 0. -1.
         23    2    1    2    0    0 -0.35527136788E-14  0.00000000000E+00  0.17763568394E-14  0.91188000000E+02  0.91188000000E+02 0.  0.
    9900012    2    3    3    0    0 -0.25499095616E+02 -0.24505022376E+02  0.10250798479E+02  0.54367097400E+02  0.40000030142E+02 0.  0.
        -12    1    3    3    0    0  0.25499095616E+02  0.24505022376E+02 -0.10250798479E+02  0.36820902600E+02  0.00000000000E+00 0.  1.
         11    1    4    4    0    0 -0.25960363378E+02 -0.21513830752E+02  0.60711275847E+01  0.34258487572E+02  0.51100000000E-03 0. -1.
        -11    1    4    4    0    0 -0.22783900514E+01  0.22022472306E+01  0.10802495851E+02  0.11257658325E+02  0.51100000000E-03 0.  1.
         12    1    4    4    0    0  0.27396578138E+01 -0.51934388550E+01 -0.66228249573E+01  0.88509515021E+01  0.00000000000E+00 0. -1.
</event>
<event>
 8    1  0.1280925E-006  0.9118800E+02  0.7816164E-02  0.1184000E+00
        -11   -1    0    0    0    0  0.00000000000E+00  0.00000000000E+00  0.45593999997E+02  0.45594000000E+02  0.51100000000E-03 0.  1.
         11   -1    0    0    0    0 -0.00000000000E+00 -0.00000000000E+00 -0.45593999997E+02  0.45594000000E+02  0.51100000000E-03 0. -1.
         23    2    1    2    0    0  0.00000000000E+00  0.00000000000E+00  0.00000000000E+00  0.91188000000E+02  0.91188000000E+02 0.  0.
    9900012    2    3    3    0    0  0.22161834102E+02  0.97648653229E+01  0.27735906730E+02  0.54367081928E+02  0.39999994871E+02 0.  0.
         12    1    3    3    0    0 -0.22161834102E+02 -0.97648653229E+01 -0.27735906730E+02  0.36820918072E+02  0.00000000000E+00 0. -1.
         11    1    4    4    0    0  0.15469122531E+02  0.10238542183E+02  0.24181406755E+00  0.18552088083E+02  0.51100000000E-03 0. -1.
        -11    1    4    4    0    0  0.57154375083E+01  0.10178019811E+02  0.10312026225E+02  0.15575499938E+02  0.51100000000E-03 0.  1.
         12    1    4    4    0    0  0.97727406229E+00 -0.10651696671E+02  0.17182066438E+02  0.20239493907E+02  0.00000000000E+00 0. -1.
</event>
<event>
 8    1  0.1280925E-006  0.9118800E+02  0.7816164E-02  0.1184000E+00
        -11   -1    0    0    0    0  0.00000000000E+00  0.00000000000E+00  0.45593999997E+02  0.45594000000E+02  0.51100000000E-03 0.  1.
         11   -1    0    0    0    0 -0.00000000000E+00 -0.00000000000E+00 -0.45593999997E+02  0.45594000000E+02  0.51100000000E-03 0. -1.
         23    2    1    2    0    0  0.00000000000E+00 -0.71054273576E-14  0.00000000000E+00  0.91188000000E+02  0.91188000000E+02 0.  0.
    9900012    2    3    3    0    0  0.32350882778E+01 -0.28347348446E+02  0.23275358499E+02  0.54367078320E+02  0.39999986646E+02 0.  0.
         12    1    3    3    0    0 -0.32350882778E+01  0.28347348446E+02 -0.23275358499E+02  0.36820921680E+02  0.00000000000E+00 0. -1.
         11    1    4    4    0    0  0.66526453480E+01  0.23590644379E+01  0.18126893100E+02  0.19452689502E+02  0.51100000000E-03 0. -1.
        -11    1    4    4    0    0  0.28719776316E+01 -0.81429738974E+01  0.74147934143E+01  0.11381363760E+02  0.51100000000E-03 0.  1.
         12    1    4    4    0    0 -0.62895347018E+01 -0.22563438987E+02 -0.22663280155E+01  0.23533025057E+02  0.00000000000E+00 0. -1.
</event>
<event>
 8    1  0.1280925E-006  0.9118800E+02  0.7816164E-02  0.1184000E+00
        -11   -1    0    0    0    0  0.00000000000E+00  0.00000000000E+00  0.45593999997E+02  0.45594000000E+02  0.51100000000E-03 0. -1.
         11   -1    0    0    0    0 -0.00000000000E+00 -0.00000000000E+00 -0.45593999997E+02  0.45594000000E+02  0.51100000000E-03 0.  1.
         23    2    1    2    0    0  0.00000000000E+00  0.88817841970E-15  0.00000000000E+00  0.91188000000E+02  0.91188000000E+02 0.  0.
    9900012    2    3    3    0    0  0.81813275397E+01 -0.55615285809E+01  0.35467094267E+02  0.54367088873E+02  0.40000010704E+02 0.  0.
        -12    1    3    3    0    0 -0.81813275397E+01  0.55615285809E+01 -0.35467094267E+02  0.36820911127E+02  0.00000000000E+00 0.  1.
         11    1    4    4    0    0  0.46420463960E+01 -0.13596333716E+02  0.27450465410E+02  0.30982849074E+02  0.51100000000E-03 0. -1.
        -11    1    4    4    0    0 -0.82673895483E+01  0.33654124103E+01  0.53632459963E+01  0.10413459488E+02  0.51100000000E-03 0.  1.
         12    1    4    4    0    0  0.11806670692E+02  0.46693927252E+01  0.26533828607E+01  0.12970780310E+02  0.00000000000E+00 0. -1.
</event>
<event>
 8    1  0.1280925E-006  0.9118800E+02  0.7816164E-02  0.1184000E+00
        -11   -1    0    0    0    0  0.00000000000E+00  0.00000000000E+00  0.45593999997E+02  0.45594000000E+02  0.51100000000E-03 0.  1.
         11   -1    0    0    0    0 -0.00000000000E+00 -0.00000000000E+00 -0.45593999997E+02  0.45594000000E+02  0.51100000000E-03 0. -1.
         23    2    1    2    0    0  0.00000000000E+00  0.00000000000E+00  0.00000000000E+00  0.91188000000E+02  0.91188000000E+02 0.  0.
    9900012    2    3    3    0    0 -0.13280231648E+02 -0.32071524977E+02 -0.12281394303E+02  0.54367083213E+02  0.39999997802E+02 0.  0.
        -12    1    3    3    0    0  0.13280231648E+02  0.32071524977E+02  0.12281394303E+02  0.36820916787E+02  0.00000000000E+00 0.  1.
         11    1    4    4    0    0  0.30564120375E+01 -0.20060702192E+02 -0.20501253415E+02  0.28845707113E+02  0.51100000000E-03 0. -1.
        -11    1    4    4    0    0 -0.59254524544E+01  0.21170945202E+01  0.39034716151E+00  0.63043990328E+01  0.51100000000E-03 0.  1.
         12    1    4    4    0    0 -0.10411191231E+02 -0.14127917305E+02  0.78295119510E+01  0.19216977068E+02  0.00000000000E+00 0. -1.
</event>
<event>
 8    1  0.1280925E-006  0.9118800E+02  0.7816164E-02  0.1184000E+00
        -11   -1    0    0    0    0  0.00000000000E+00  0.00000000000E+00  0.45593999997E+02  0.45594000000E+02  0.51100000000E-03 0. -1.
         11   -1    0    0    0    0 -0.00000000000E+00 -0.00000000000E+00 -0.45593999997E+02  0.45594000000E+02  0.51100000000E-03 0.  1.
         23    2    1    2    0    0  0.00000000000E+00  0.00000000000E+00  0.71054273576E-14  0.91188000000E+02  0.91188000000E+02 0.  0.
    9900012    2    3    3    0    0  0.39340289383E+01  0.30548568243E+02  0.20176431412E+02  0.54367082170E+02  0.39999995422E+02 0.  0.
        -12    1    3    3    0    0 -0.39340289383E+01 -0.30548568243E+02 -0.20176431412E+02  0.36820917830E+02  0.00000000000E+00 0.  1.
         11    1    4    4    0    0  0.10585816496E+02 -0.51474219851E+01  0.23957250197E+01  0.12012283821E+02  0.51100000000E-03 0. -1.
        -11    1    4    4    0    0 -0.37134867131E+01  0.14282914539E+02  0.64396473731E+00  0.14771808358E+02  0.51100000000E-03 0.  1.
         12    1    4    4    0    0 -0.29383008442E+01  0.21413075688E+02  0.17136741655E+02  0.27582989991E+02  0.00000000000E+00 0. -1.
</event>
<event>
 8    1  0.1280925E-006  0.9118800E+02  0.7816164E-02  0.1184000E+00
        -11   -1    0    0    0    0  0.00000000000E+00  0.00000000000E+00  0.45593999997E+02  0.45594000000E+02  0.51100000000E-03 0.  1.
         11   -1    0    0    0    0 -0.00000000000E+00 -0.00000000000E+00 -0.45593999997E+02  0.45594000000E+02  0.51100000000E-03 0. -1.
         23    2    1    2    0    0  0.35527136788E-14  0.00000000000E+00  0.00000000000E+00  0.91188000000E+02  0.91188000000E+02 0.  0.
    9900012    2    3    3    0    0  0.17696626036E+02 -0.55470422323E+01 -0.31809329890E+02  0.54367167328E+02  0.40000189558E+02 0.  0.
        -12    1    3    3    0    0 -0.17696626036E+02  0.55470422323E+01  0.31809329890E+02  0.36820832672E+02  0.00000000000E+00 0.  1.
         11    1    4    4    0    0 -0.93216226546E+01  0.19732605971E+01 -0.20752698180E+02  0.22835518131E+02  0.51100000000E-03 0. -1.
        -11    1    4    4    0    0  0.88354623351E+01 -0.66758595325E+00  0.58496205683E+00  0.88799350532E+01  0.51100000000E-03 0.  1.
         12    1    4    4    0    0  0.18182786356E+02 -0.68527168761E+01 -0.11641593767E+02  0.22651714144E+02  0.00000000000E+00 0. -1.
</event>
<event>
 8    1  0.1280925E-006  0.9118800E+02  0.7816164E-02  0.1184000E+00
        -11   -1    0    0    0    0  0.00000000000E+00  0.00000000000E+00  0.45593999997E+02  0.45594000000E+02  0.51100000000E-03 0.  1.
         11   -1    0    0    0    0 -0.00000000000E+00 -0.00000000000E+00 -0.45593999997E+02  0.45594000000E+02  0.51100000000E-03 0. -1.
         23    2    1    2    0    0  0.35527136788E-14  0.35527136788E-14  0.53290705182E-14  0.91188000000E+02  0.91188000000E+02 0.  0.
    9900012    2    3    3    0    0  0.18147068203E+02  0.28948790545E+02  0.13727060219E+02  0.54367071975E+02  0.39999972181E+02 0.  0.
         12    1    3    3    0    0 -0.18147068203E+02 -0.28948790545E+02 -0.13727060219E+02  0.36820928025E+02  0.00000000000E+00 0. -1.
         11    1    4    4    0    0  0.67736532616E+01  0.67120071110E+01 -0.18119812011E+01  0.97065284268E+01  0.51100000000E-03 0.  1.
        -11    1    4    4    0    0  0.47661457746E+01  0.17594049873E+02 -0.79021967588E+01  0.19867346334E+02  0.51100000000E-03 0. -1.
         12    1    4    4    0    0  0.66072691670E+01  0.46427335615E+01  0.23441238178E+02  0.24793197214E+02  0.00000000000E+00 0. -1.
</event>
<event>
 8    1  0.1280925E-006  0.9118800E+02  0.7816164E-02  0.1184000E+00
        -11   -1    0    0    0    0  0.00000000000E+00  0.00000000000E+00  0.45593999997E+02  0.45594000000E+02  0.51100000000E-03 0.  1.
         11   -1    0    0    0    0 -0.00000000000E+00 -0.00000000000E+00 -0.45593999997E+02  0.45594000000E+02  0.51100000000E-03 0. -1.
         23    2    1    2    0    0  0.35527136788E-14 -0.17763568394E-14  0.00000000000E+00  0.91188000000E+02  0.91188000000E+02 0.  0.
    9900012    2    3    3    0    0  0.17995150739E+02 -0.13545862047E+02  0.29128400786E+02  0.54367087992E+02  0.40000008696E+02 0.  0.
         12    1    3    3    0    0 -0.17995150739E+02  0.13545862047E+02 -0.29128400786E+02  0.36820912008E+02  0.00000000000E+00 0. -1.
         11    1    4    4    0    0 -0.28071126805E+01 -0.59840398230E+01 -0.12325003918E+01  0.67236650483E+01  0.51100000000E-03 0. -1.
        -11    1    4    4    0    0  0.17014421057E+02 -0.17288001801E+02  0.13354825639E+02  0.27689653271E+02  0.51100000000E-03 0.  1.
        -12    1    4    4    0    0  0.37878423625E+01  0.97261795767E+01  0.17006075539E+02  0.19953769673E+02  0.00000000000E+00 0.  1.
</event>
<event>
 8    1  0.1280925E-006  0.9118800E+02  0.7816164E-02  0.1184000E+00
        -11   -1    0    0    0    0  0.00000000000E+00  0.00000000000E+00  0.45593999997E+02  0.45594000000E+02  0.51100000000E-03 0. -1.
         11   -1    0    0    0    0 -0.00000000000E+00 -0.00000000000E+00 -0.45593999997E+02  0.45594000000E+02  0.51100000000E-03 0.  1.
         23    2    1    2    0    0  0.00000000000E+00  0.00000000000E+00  0.71054273576E-14  0.91188000000E+02  0.91188000000E+02 0.  0.
    9900012    2    3    3    0    0 -0.21375135843E+02  0.22278607176E+02  0.20063574934E+02  0.54367084624E+02  0.40000001016E+02 0.  0.
        -12    1    3    3    0    0  0.21375135843E+02 -0.22278607176E+02 -0.20063574934E+02  0.36820915376E+02  0.00000000000E+00 0.  1.
         11    1    4    4    0    0 -0.14896356157E+00  0.11346219184E+02 -0.79586584391E+01  0.13859982840E+02  0.51100000000E-03 0. -1.
        -11    1    4    4    0    0 -0.37147155699E+01 -0.44441898735E+01  0.40055677767E+01  0.70423368899E+01  0.51100000000E-03 0.  1.
         12    1    4    4    0    0 -0.17511456711E+02  0.15376577866E+02  0.24016665597E+02  0.33464764894E+02  0.00000000000E+00 0. -1.
</event>
<event>
 8    1  0.1280925E-006  0.9118800E+02  0.7816164E-02  0.1184000E+00
        -11   -1    0    0    0    0  0.00000000000E+00  0.00000000000E+00  0.45593999997E+02  0.45594000000E+02  0.51100000000E-03 0. -1.
         11   -1    0    0    0    0 -0.00000000000E+00 -0.00000000000E+00 -0.45593999997E+02  0.45594000000E+02  0.51100000000E-03 0.  1.
         23    2    1    2    0    0 -0.88817841970E-15 -0.10547118734E-14  0.00000000000E+00  0.91188000000E+02  0.91188000000E+02 0.  0.
    9900012    2    3    3    0    0  0.65220460473E+01  0.44216762867E+00 -0.36235995020E+02  0.54367082957E+02  0.39999997216E+02 0.  0.
         12    1    3    3    0    0 -0.65220460473E+01 -0.44216762867E+00  0.36235995020E+02  0.36820917043E+02  0.00000000000E+00 0. -1.
         11    1    4    4    0    0  0.13591160056E+01  0.64985269319E+00 -0.75257824648E+01  0.76750835050E+01  0.51100000000E-03 0. -1.
        -11    1    4    4    0    0  0.27927137643E+01  0.18041410004E+02 -0.12101226728E+02  0.21902771827E+02  0.51100000000E-03 0.  1.
         12    1    4    4    0    0  0.23702162774E+01 -0.18249095069E+02 -0.16608985827E+02  0.24789227625E+02  0.00000000000E+00 0. -1.
</event>
<event>
 8    1  0.1280925E-006  0.9118800E+02  0.7816164E-02  0.1184000E+00
        -11   -1    0    0    0    0  0.00000000000E+00  0.00000000000E+00  0.45593999997E+02  0.45594000000E+02  0.51100000000E-03 0. -1.
         11   -1    0    0    0    0 -0.00000000000E+00 -0.00000000000E+00 -0.45593999997E+02  0.45594000000E+02  0.51100000000E-03 0.  1.
         23    2    1    2    0    0  0.00000000000E+00  0.71054273576E-14 -0.17763568394E-14  0.91188000000E+02  0.91188000000E+02 0.  0.
    9900012    2    3    3    0    0 -0.96459318816E+01  0.33010225881E+02 -0.13155222923E+02  0.54367096905E+02  0.40000029014E+02 0.  0.
        -12    1    3    3    0    0  0.96459318816E+01 -0.33010225881E+02  0.13155222923E+02  0.36820903095E+02  0.00000000000E+00 0.  1.
         11    1    4    4    0    0  0.11181928671E+01 -0.50768637284E+01  0.19882442433E+00  0.52023487021E+01  0.51100000000E-03 0. -1.
        -11    1    4    4    0    0 -0.10497562842E+01  0.93256794932E+01 -0.16149928423E+02  0.18678610082E+02  0.51100000000E-03 0.  1.
         12    1    4    4    0    0 -0.97143684645E+01  0.28761410116E+02  0.27958810756E+01  0.30486138121E+02  0.00000000000E+00 0. -1.
</event>
<event>
 8    1  0.1280925E-006  0.9118800E+02  0.7816164E-02  0.1184000E+00
        -11   -1    0    0    0    0  0.00000000000E+00  0.00000000000E+00  0.45593999997E+02  0.45594000000E+02  0.51100000000E-03 0.  1.
         11   -1    0    0    0    0 -0.00000000000E+00 -0.00000000000E+00 -0.45593999997E+02  0.45594000000E+02  0.51100000000E-03 0. -1.
         23    2    1    2    0    0 -0.10658141036E-13 -0.35527136788E-14 -0.88817841970E-15  0.91188000000E+02  0.91188000000E+02 0.  0.
    9900012    2    3    3    0    0 -0.31796276158E+02 -0.17634001255E+02 -0.58156295780E+01  0.54367045027E+02  0.39999910747E+02 0.  0.
        -12    1    3    3    0    0  0.31796276158E+02  0.17634001255E+02  0.58156295780E+01  0.36820954973E+02  0.00000000000E+00 0.  1.
         11    1    4    4    0    0 -0.33794535220E+02 -0.11590449135E+02 -0.59342910541E+01  0.36216362772E+02  0.51100000000E-03 0. -1.
        -11    1    4    4    0    0  0.41835624271E+00  0.52822749855E+01 -0.32664048180E+01  0.62246969134E+01  0.51100000000E-03 0.  1.
        -12    1    4    4    0    0  0.15799028194E+01 -0.11325827105E+02  0.33850662940E+01  0.11925985341E+02  0.00000000000E+00 0.  1.
</event>
<event>
 8    1  0.1280925E-006  0.9118800E+02  0.7816164E-02  0.1184000E+00
        -11   -1    0    0    0    0  0.00000000000E+00  0.00000000000E+00  0.45593999997E+02  0.45594000000E+02  0.51100000000E-03 0. -1.
         11   -1    0    0    0    0 -0.00000000000E+00 -0.00000000000E+00 -0.45593999997E+02  0.45594000000E+02  0.51100000000E-03 0.  1.
         23    2    1    2    0    0  0.35527136788E-14  0.17763568394E-14  0.00000000000E+00  0.91188000000E+02  0.91188000000E+02 0.  0.
    9900012    2    3    3    0    0 -0.29276389437E+02 -0.15112352733E+02 -0.16440434073E+02  0.54367108429E+02  0.40000055286E+02 0.  0.
         12    1    3    3    0    0  0.29276389437E+02  0.15112352733E+02  0.16440434073E+02  0.36820891571E+02  0.00000000000E+00 0. -1.
         11    1    4    4    0    0  0.24728633591E+01 -0.56711907015E+01 -0.69640211152E+01  0.93153125293E+01  0.51100000000E-03 0. -1.
        -11    1    4    4    0    0  0.46449442192E+01 -0.43143398574E+01 -0.49041251556E+01  0.80149534626E+01  0.51100000000E-03 0.  1.
        -12    1    4    4    0    0 -0.36394197015E+02 -0.51268221740E+01 -0.45722878022E+01  0.37036842437E+02  0.00000000000E+00 0.  1.
</event>
<event>
 8    1  0.1280925E-006  0.9118800E+02  0.7816164E-02  0.1184000E+00
        -11   -1    0    0    0    0  0.00000000000E+00  0.00000000000E+00  0.45593999997E+02  0.45594000000E+02  0.51100000000E-03 0. -1.
         11   -1    0    0    0    0 -0.00000000000E+00 -0.00000000000E+00 -0.45593999997E+02  0.45594000000E+02  0.51100000000E-03 0.  1.
         23    2    1    2    0    0  0.17763568394E-14 -0.17763568394E-14  0.00000000000E+00  0.91188000000E+02  0.91188000000E+02 0.  0.
    9900012    2    3    3    0    0  0.52371812053E+01 -0.15051723117E+02  0.33193335175E+02  0.54367082904E+02  0.39999997096E+02 0.  0.
        -12    1    3    3    0    0 -0.52371812053E+01  0.15051723117E+02 -0.33193335175E+02  0.36820917096E+02  0.00000000000E+00 0.  1.
         11    1    4    4    0    0  0.95839477580E+01 -0.47956592519E+01  0.28705341849E+00  0.10720671724E+02  0.51100000000E-03 0. -1.
        -11    1    4    4    0    0  0.20582302183E+01 -0.17776567717E+02  0.15700247665E+02  0.23806311105E+02  0.51100000000E-03 0.  1.
         12    1    4    4    0    0 -0.64049967709E+01  0.75205038523E+01  0.17206034091E+02  0.19840100075E+02  0.00000000000E+00 0. -1.
</event>
<event>
 8    1  0.1280925E-006  0.9118800E+02  0.7816164E-02  0.1184000E+00
        -11   -1    0    0    0    0  0.00000000000E+00  0.00000000000E+00  0.45593999997E+02  0.45594000000E+02  0.51100000000E-03 0. -1.
         11   -1    0    0    0    0 -0.00000000000E+00 -0.00000000000E+00 -0.45593999997E+02  0.45594000000E+02  0.51100000000E-03 0.  1.
         23    2    1    2    0    0  0.35527136788E-14  0.13322676296E-14  0.00000000000E+00  0.91188000000E+02  0.91188000000E+02 0.  0.
    9900012    2    3    3    0    0  0.25345729345E+02  0.35191221475E+01  0.26476215270E+02  0.54367079429E+02  0.39999989174E+02 0.  0.
        -12    1    3    3    0    0 -0.25345729345E+02 -0.35191221475E+01 -0.26476215270E+02  0.36820920571E+02  0.00000000000E+00 0.  1.
         11    1    4    4    0    0  0.92735481457E-01 -0.12061081373E+02  0.20050227677E+02  0.23398502386E+02  0.51100000000E-03 0. -1.
        -11    1    4    4    0    0  0.16519239995E+02  0.79365688093E+01  0.15918211298E+01  0.18395877507E+02  0.51100000000E-03 0.  1.
         12    1    4    4    0    0  0.87337538682E+01  0.76436347110E+01  0.48341664628E+01  0.12572699536E+02  0.00000000000E+00 0. -1.
</event>
<event>
 8    1  0.1280925E-006  0.9118800E+02  0.7816164E-02  0.1184000E+00
        -11   -1    0    0    0    0  0.00000000000E+00  0.00000000000E+00  0.45593999997E+02  0.45594000000E+02  0.51100000000E-03 0.  1.
         11   -1    0    0    0    0 -0.00000000000E+00 -0.00000000000E+00 -0.45593999997E+02  0.45594000000E+02  0.51100000000E-03 0. -1.
         23    2    1    2    0    0  0.00000000000E+00  0.88817841970E-15  0.17763568394E-14  0.91188000000E+02  0.91188000000E+02 0.  0.
    9900012    2    3    3    0    0 -0.35158868042E+02  0.61384339500E+01  0.90528403937E+01  0.54367078060E+02  0.39999986053E+02 0.  0.
        -12    1    3    3    0    0  0.35158868042E+02 -0.61384339500E+01 -0.90528403937E+01  0.36820921940E+02  0.00000000000E+00 0.  1.
         11    1    4    4    0    0  0.72526007490E+00 -0.11422426849E+01  0.74524580313E+01  0.75742888443E+01  0.51100000000E-03 0. -1.
        -11    1    4    4    0    0 -0.97800612373E+01 -0.64674057705E+01  0.10746189368E+02  0.15904638361E+02  0.51100000000E-03 0.  1.
         12    1    4    4    0    0 -0.26104066879E+02  0.13748082405E+02 -0.91458070052E+01  0.30888150855E+02  0.00000000000E+00 0. -1.
</event>
<event>
 8    1  0.1280925E-006  0.9118800E+02  0.7816164E-02  0.1184000E+00
        -11   -1    0    0    0    0  0.00000000000E+00  0.00000000000E+00  0.45593999997E+02  0.45594000000E+02  0.51100000000E-03 0.  1.
         11   -1    0    0    0    0 -0.00000000000E+00 -0.00000000000E+00 -0.45593999997E+02  0.45594000000E+02  0.51100000000E-03 0. -1.
         23    2    1    2    0    0 -0.17763568394E-14  0.00000000000E+00 -0.17763568394E-14  0.91188000000E+02  0.91188000000E+02 0.  0.
    9900012    2    3    3    0    0  0.80965202010E+01 -0.34411130645E+02  0.10300650969E+02  0.54367041810E+02  0.39999903414E+02 0.  0.
         12    1    3    3    0    0 -0.80965202010E+01  0.34411130645E+02 -0.10300650969E+02  0.36820958190E+02  0.00000000000E+00 0. -1.
         11    1    4    4    0    0 -0.88373814756E+01 -0.45444290317E+01  0.92450321068E+01  0.13572831889E+02  0.51100000000E-03 0. -1.
        -11    1    4    4    0    0  0.90763276410E+00  0.11067613307E+01 -0.51738505910E+01  0.53681885284E+01  0.51100000000E-03 0.  1.
        -12    1    4    4    0    0  0.16026268912E+02 -0.30973462944E+02  0.62294694531E+01  0.35426021392E+02  0.00000000000E+00 0.  1.
</event>
<event>
 8    1  0.1280925E-006  0.9118800E+02  0.7816164E-02  0.1184000E+00
        -11   -1    0    0    0    0  0.00000000000E+00  0.00000000000E+00  0.45593999997E+02  0.45594000000E+02  0.51100000000E-03 0.  1.
         11   -1    0    0    0    0 -0.00000000000E+00 -0.00000000000E+00 -0.45593999997E+02  0.45594000000E+02  0.51100000000E-03 0. -1.
         23    2    1    2    0    0  0.00000000000E+00  0.00000000000E+00  0.00000000000E+00  0.91188000000E+02  0.91188000000E+02 0.  0.
    9900012    2    3    3    0    0  0.15780851239E+02  0.16483808400E+01 -0.33226914139E+02  0.54367078659E+02  0.39999987419E+02 0.  0.
        -12    1    3    3    0    0 -0.15780851239E+02 -0.16483808400E+01  0.33226914139E+02  0.36820921341E+02  0.00000000000E+00 0.  1.
         11    1    4    4    0    0  0.40370787001E+01  0.13724660550E+01 -0.31852129258E+02  0.32136269324E+02  0.51100000000E-03 0. -1.
        -11    1    4    4    0    0 -0.51365296394E+00 -0.75297554300E+01  0.57341640667E+00  0.75690067274E+01  0.51100000000E-03 0.  1.
        -12    1    4    4    0    0  0.12257425503E+02  0.78056702149E+01 -0.19482012873E+01  0.14661802608E+02  0.00000000000E+00 0.  1.
</event>
<event>
 8    1  0.1280925E-006  0.9118800E+02  0.7816164E-02  0.1184000E+00
        -11   -1    0    0    0    0  0.00000000000E+00  0.00000000000E+00  0.45593999997E+02  0.45594000000E+02  0.51100000000E-03 0.  1.
         11   -1    0    0    0    0 -0.00000000000E+00 -0.00000000000E+00 -0.45593999997E+02  0.45594000000E+02  0.51100000000E-03 0. -1.
         23    2    1    2    0    0  0.00000000000E+00  0.17763568394E-14 -0.10658141036E-13  0.91188000000E+02  0.91188000000E+02 0.  0.
    9900012    2    3    3    0    0 -0.16164782996E+02 -0.13998714079E+02 -0.29975244889E+02  0.54367088668E+02  0.40000010236E+02 0.  0.
        -12    1    3    3    0    0  0.16164782996E+02  0.13998714079E+02  0.29975244889E+02  0.36820911332E+02  0.00000000000E+00 0.  1.
         11    1    4    4    0    0  0.17433526712E+01  0.63292719390E+01 -0.26130434852E+01  0.70659010983E+01  0.51100000000E-03 0.  1.
        -11    1    4    4    0    0 -0.87601861138E+01 -0.56539887137E+01  0.42574954526E+01  0.11262092031E+02  0.51100000000E-03 0. -1.
        -12    1    4    4    0    0 -0.91479495529E+01 -0.14673997305E+02 -0.31619696857E+02  0.36039095538E+02  0.00000000000E+00 0.  1.
</event>
<event>
 8    1  0.1280925E-006  0.9118800E+02  0.7816164E-02  0.1184000E+00
        -11   -1    0    0    0    0  0.00000000000E+00  0.00000000000E+00  0.45593999997E+02  0.45594000000E+02  0.51100000000E-03 0. -1.
         11   -1    0    0    0    0 -0.00000000000E+00 -0.00000000000E+00 -0.45593999997E+02  0.45594000000E+02  0.51100000000E-03 0.  1.
         23    2    1    2    0    0 -0.71054273576E-14  0.26645352591E-14  0.88817841970E-15  0.91188000000E+02  0.91188000000E+02 0.  0.
    9900012    2    3    3    0    0 -0.35946372219E+02  0.68629353436E+01  0.40667092383E+01  0.54367086360E+02  0.40000004975E+02 0.  0.
         12    1    3    3    0    0  0.35946372219E+02 -0.68629353436E+01 -0.40667092383E+01  0.36820913640E+02  0.00000000000E+00 0. -1.
         11    1    4    4    0    0 -0.53131739310E+01 -0.37904860670E+01 -0.29420567446E+01  0.71591410096E+01  0.51100000000E-03 0. -1.
        -11    1    4    4    0    0 -0.34570781209E+02  0.17428916497E+02  0.44830023184E+01  0.38974393564E+02  0.51100000000E-03 0.  1.
         12    1    4    4    0    0  0.39375829205E+01 -0.67754950868E+01  0.25257636644E+01  0.82335517861E+01  0.00000000000E+00 0. -1.
</event>
<event>
 8    1  0.1280925E-006  0.9118800E+02  0.7816164E-02  0.1184000E+00
        -11   -1    0    0    0    0  0.00000000000E+00  0.00000000000E+00  0.45593999997E+02  0.45594000000E+02  0.51100000000E-03 0. -1.
         11   -1    0    0    0    0 -0.00000000000E+00 -0.00000000000E+00 -0.45593999997E+02  0.45594000000E+02  0.51100000000E-03 0.  1.
         23    2    1    2    0    0 -0.35527136788E-14  0.00000000000E+00 -0.88817841970E-15  0.91188000000E+02  0.91188000000E+02 0.  0.
    9900012    2    3    3    0    0  0.26435295716E+02 -0.24583658441E+02  0.72520869832E+01  0.54367165035E+02  0.40000184329E+02 0.  0.
         12    1    3    3    0    0 -0.26435295716E+02  0.24583658441E+02 -0.72520869832E+01  0.36820834965E+02  0.00000000000E+00 0. -1.
         11    1    4    4    0    0  0.16917745600E+02  0.19879436841E+01  0.32956409446E+01  0.17350022645E+02  0.51100000000E-03 0. -1.
        -11    1    4    4    0    0  0.61313619606E+01 -0.19543802651E+02  0.13619887984E+02  0.24597869227E+02  0.51100000000E-03 0.  1.
        -12    1    4    4    0    0  0.33861881557E+01 -0.70277994740E+01 -0.96634419452E+01  0.12419273163E+02  0.00000000000E+00 0.  1.
</event>
<event>
 8    1  0.1280925E-006  0.9118800E+02  0.7816164E-02  0.1184000E+00
        -11   -1    0    0    0    0  0.00000000000E+00  0.00000000000E+00  0.45593999997E+02  0.45594000000E+02  0.51100000000E-03 0. -1.
         11   -1    0    0    0    0 -0.00000000000E+00 -0.00000000000E+00 -0.45593999997E+02  0.45594000000E+02  0.51100000000E-03 0.  1.
         23    2    1    2    0    0  0.00000000000E+00  0.00000000000E+00  0.00000000000E+00  0.91188000000E+02  0.91188000000E+02 0.  0.
    9900012    2    3    3    0    0 -0.35292533597E+02 -0.52941196354E+01  0.90657649217E+01  0.54367099359E+02  0.40000034609E+02 0.  0.
         12    1    3    3    0    0  0.35292533597E+02  0.52941196354E+01 -0.90657649217E+01  0.36820900641E+02  0.00000000000E+00 0. -1.
         11    1    4    4    0    0  0.18299171469E+01 -0.56875835364E+00  0.13394047843E+02  0.13530432392E+02  0.51100000000E-03 0. -1.
        -11    1    4    4    0    0 -0.34302557943E+02 -0.36110138395E+01  0.12202860870E+01  0.34513678460E+02  0.51100000000E-03 0.  1.
         12    1    4    4    0    0 -0.28198928002E+01 -0.11143474423E+01 -0.55485690084E+01  0.63229885076E+01  0.00000000000E+00 0. -1.
</event>
<event>
 8    1  0.1280925E-006  0.9118800E+02  0.7816164E-02  0.1184000E+00
        -11   -1    0    0    0    0  0.00000000000E+00  0.00000000000E+00  0.45593999997E+02  0.45594000000E+02  0.51100000000E-03 0.  1.
         11   -1    0    0    0    0 -0.00000000000E+00 -0.00000000000E+00 -0.45593999997E+02  0.45594000000E+02  0.51100000000E-03 0. -1.
         23    2    1    2    0    0  0.00000000000E+00 -0.35527136788E-14  0.35527136788E-14  0.91188000000E+02  0.91188000000E+02 0.  0.
    9900012    2    3    3    0    0  0.52941070123E+01 -0.18938556397E+02  0.31130094395E+02  0.54367092019E+02  0.40000017876E+02 0.  0.
         12    1    3    3    0    0 -0.52941070123E+01  0.18938556397E+02 -0.31130094395E+02  0.36820907981E+02  0.00000000000E+00 0. -1.
         11    1    4    4    0    0  0.15816486783E+01  0.62720087418E+01  0.15941388925E+01  0.66619055283E+01  0.51100000000E-03 0. -1.
        -11    1    4    4    0    0 -0.42134551778E+01 -0.12212352890E+02 -0.16284292394E+01  0.13021004174E+02  0.51100000000E-03 0.  1.
         12    1    4    4    0    0  0.79259135118E+01 -0.12998212249E+02  0.31164384742E+02  0.34684182318E+02  0.00000000000E+00 0. -1.
</event>
<event>
 8    1  0.1280925E-006  0.9118800E+02  0.7816164E-02  0.1184000E+00
        -11   -1    0    0    0    0  0.00000000000E+00  0.00000000000E+00  0.45593999997E+02  0.45594000000E+02  0.51100000000E-03 0. -1.
         11   -1    0    0    0    0 -0.00000000000E+00 -0.00000000000E+00 -0.45593999997E+02  0.45594000000E+02  0.51100000000E-03 0.  1.
         23    2    1    2    0    0 -0.17763568394E-14  0.17763568394E-14  0.00000000000E+00  0.91188000000E+02  0.91188000000E+02 0.  0.
    9900012    2    3    3    0    0  0.85639021987E+01 -0.99988934255E+01  0.34386934640E+02  0.54367087945E+02  0.40000008588E+02 0.  0.
        -12    1    3    3    0    0 -0.85639021987E+01  0.99988934255E+01 -0.34386934640E+02  0.36820912055E+02  0.00000000000E+00 0.  1.
         11    1    4    4    0    0  0.17464404597E+02 -0.15338409929E+02  0.26201705489E+02  0.35025727943E+02  0.51100000000E-03 0. -1.
        -11    1    4    4    0    0  0.33972069350E+01  0.19598149683E+01  0.46972777919E+01  0.61193389009E+01  0.51100000000E-03 0.  1.
        -12    1    4    4    0    0 -0.12297709334E+02  0.33797015355E+01  0.34879513590E+01  0.13222021101E+02  0.00000000000E+00 0.  1.
</event>
<event>
 8    1  0.1280925E-006  0.9118800E+02  0.7816164E-02  0.1184000E+00
        -11   -1    0    0    0    0  0.00000000000E+00  0.00000000000E+00  0.45593999997E+02  0.45594000000E+02  0.51100000000E-03 0. -1.
         11   -1    0    0    0    0 -0.00000000000E+00 -0.00000000000E+00 -0.45593999997E+02  0.45594000000E+02  0.51100000000E-03 0.  1.
         23    2    1    2    0    0 -0.88817841970E-15  0.00000000000E+00  0.88817841970E-15  0.91188000000E+02  0.91188000000E+02 0.  0.
    9900012    2    3    3    0    0  0.20531597903E+01 -0.36454508495E+02  0.47577144355E+01  0.54367048066E+02  0.39999917675E+02 0.  0.
         12    1    3    3    0    0 -0.20531597903E+01  0.36454508495E+02 -0.47577144355E+01  0.36820951934E+02  0.00000000000E+00 0. -1.
         11    1    4    4    0    0 -0.46534045873E+01 -0.75584718811E+01  0.13359961470E+01  0.89760546676E+01  0.51100000000E-03 0. -1.
        -11    1    4    4    0    0 -0.11546447624E+02 -0.19387230899E+02  0.86330206413E+01  0.24160178400E+02  0.51100000000E-03 0.  1.
         12    1    4    4    0    0  0.18253012002E+02 -0.95088057147E+01 -0.52113023528E+01  0.21230814998E+02  0.00000000000E+00 0. -1.
</event>
<event>
 8    1  0.1280925E-006  0.9118800E+02  0.7816164E-02  0.1184000E+00
        -11   -1    0    0    0    0  0.00000000000E+00  0.00000000000E+00  0.45593999997E+02  0.45594000000E+02  0.51100000000E-03 0.  1.
         11   -1    0    0    0    0 -0.00000000000E+00 -0.00000000000E+00 -0.45593999997E+02  0.45594000000E+02  0.51100000000E-03 0. -1.
         23    2    1    2    0    0  0.00000000000E+00  0.00000000000E+00  0.88817841970E-15  0.91188000000E+02  0.91188000000E+02 0.  0.
    9900012    2    3    3    0    0 -0.34084808230E+02  0.11672073881E+02 -0.76005444401E+01  0.54367085609E+02  0.40000003263E+02 0.  0.
        -12    1    3    3    0    0  0.34084808230E+02 -0.11672073881E+02  0.76005444401E+01  0.36820914391E+02  0.00000000000E+00 0.  1.
         11    1    4    4    0    0 -0.15328962802E+02 -0.91418165081E+01 -0.67960653611E+01  0.19098073576E+02  0.51100000000E-03 0. -1.
        -11    1    4    4    0    0 -0.43573051951E+01  0.76554831569E+01  0.97099673840E+01  0.13110148656E+02  0.51100000000E-03 0.  1.
         12    1    4    4    0    0 -0.14398540234E+02  0.13158407232E+02 -0.10514446463E+02  0.22158863377E+02  0.00000000000E+00 0. -1.
</event>
<event>
 8    1  0.1280925E-006  0.9118800E+02  0.7816164E-02  0.1184000E+00
        -11   -1    0    0    0    0  0.00000000000E+00  0.00000000000E+00  0.45593999997E+02  0.45594000000E+02  0.51100000000E-03 0.  1.
         11   -1    0    0    0    0 -0.00000000000E+00 -0.00000000000E+00 -0.45593999997E+02  0.45594000000E+02  0.51100000000E-03 0. -1.
         23    2    1    2    0    0  0.71054273576E-14  0.00000000000E+00  0.16653345369E-14  0.91188000000E+02  0.91188000000E+02 0.  0.
    9900012    2    3    3    0    0 -0.16647358152E+02 -0.32835011500E+02 -0.71184576105E+00  0.54367092379E+02  0.40000018696E+02 0.  0.
        -12    1    3    3    0    0  0.16647358152E+02  0.32835011500E+02  0.71184576105E+00  0.36820907621E+02  0.00000000000E+00 0.  1.
         11    1    4    4    0    0 -0.39559993743E+01 -0.23542766150E+02 -0.46320859351E+01  0.24318058915E+02  0.51100000000E-03 0. -1.
        -11    1    4    4    0    0 -0.12038013846E+00  0.50090477029E+01  0.90365826660E+01  0.10332709074E+02  0.51100000000E-03 0.  1.
        -12    1    4    4    0    0 -0.12570978639E+02 -0.14301293053E+02 -0.51163424919E+01  0.19716324389E+02  0.00000000000E+00 0.  1.
</event>
<event>
 8    1  0.1280925E-006  0.9118800E+02  0.7816164E-02  0.1184000E+00
        -11   -1    0    0    0    0  0.00000000000E+00  0.00000000000E+00  0.45593999997E+02  0.45594000000E+02  0.51100000000E-03 0.  1.
         11   -1    0    0    0    0 -0.00000000000E+00 -0.00000000000E+00 -0.45593999997E+02  0.45594000000E+02  0.51100000000E-03 0. -1.
         23    2    1    2    0    0  0.00000000000E+00  0.00000000000E+00  0.00000000000E+00  0.91188000000E+02  0.91188000000E+02 0.  0.
    9900012    2    3    3    0    0 -0.10107378585E+02  0.63833801917E+01  0.34826329978E+02  0.54367083332E+02  0.39999998071E+02 0.  0.
         12    1    3    3    0    0  0.10107378585E+02 -0.63833801917E+01 -0.34826329978E+02  0.36820916668E+02  0.00000000000E+00 0. -1.
         11    1    4    4    0    0  0.42889764135E+01 -0.44046943575E+01 -0.51736526097E-01  0.61481158080E+01  0.51100000000E-03 0. -1.
        -11    1    4    4    0    0 -0.13988973127E+01  0.17782938547E+01 -0.49082842440E+01  0.54046736447E+01  0.51100000000E-03 0.  1.
        -12    1    4    4    0    0 -0.12997457686E+02  0.90097806945E+01  0.39786350749E+02  0.42814293879E+02  0.00000000000E+00 0.  1.
</event>
<event>
 8    1  0.1280925E-006  0.9118800E+02  0.7816164E-02  0.1184000E+00
        -11   -1    0    0    0    0  0.00000000000E+00  0.00000000000E+00  0.45593999997E+02  0.45594000000E+02  0.51100000000E-03 0. -1.
         11   -1    0    0    0    0 -0.00000000000E+00 -0.00000000000E+00 -0.45593999997E+02  0.45594000000E+02  0.51100000000E-03 0.  1.
         23    2    1    2    0    0  0.00000000000E+00 -0.17763568394E-14  0.00000000000E+00  0.91188000000E+02  0.91188000000E+02 0.  0.
    9900012    2    3    3    0    0  0.33598305733E+02 -0.14440619265E+02  0.42897966273E+01  0.54367082196E+02  0.39999995481E+02 0.  0.
        -12    1    3    3    0    0 -0.33598305733E+02  0.14440619265E+02 -0.42897966273E+01  0.36820917804E+02  0.00000000000E+00 0.  1.
         11    1    4    4    0    0  0.27505207112E+02 -0.10188094706E+02  0.53733808444E+01  0.29819572666E+02  0.51100000000E-03 0. -1.
        -11    1    4    4    0    0 -0.65832489945E+01  0.49582722577E+01 -0.29800559885E+01  0.87638099626E+01  0.51100000000E-03 0.  1.
        -12    1    4    4    0    0  0.12676347615E+02 -0.92107968162E+01  0.18964717713E+01  0.15783699567E+02  0.00000000000E+00 0.  1.
</event>
<event>
 8    1  0.1280925E-006  0.9118800E+02  0.7816164E-02  0.1184000E+00
        -11   -1    0    0    0    0  0.00000000000E+00  0.00000000000E+00  0.45593999997E+02  0.45594000000E+02  0.51100000000E-03 0.  1.
         11   -1    0    0    0    0 -0.00000000000E+00 -0.00000000000E+00 -0.45593999997E+02  0.45594000000E+02  0.51100000000E-03 0. -1.
         23    2    1    2    0    0 -0.55511151231E-16  0.00000000000E+00  0.00000000000E+00  0.91188000000E+02  0.91188000000E+02 0.  0.
    9900012    2    3    3    0    0 -0.35160539742E+00 -0.24409021392E+02  0.27565542749E+02  0.54367039954E+02  0.39999899183E+02 0.  0.
         12    1    3    3    0    0  0.35160539742E+00  0.24409021392E+02 -0.27565542749E+02  0.36820960046E+02  0.00000000000E+00 0. -1.
         11    1    4    4    0    0 -0.27962544148E+01 -0.26932278930E+01 -0.84882016847E+01  0.93339211127E+01  0.51100000000E-03 0. -1.
        -11    1    4    4    0    0  0.64479562200E+00 -0.16583723293E+02  0.12280511542E+02  0.20645740569E+02  0.51100000000E-03 0.  1.
        -12    1    4    4    0    0  0.17998533954E+01 -0.51320702054E+01  0.23773232892E+02  0.24387378272E+02  0.00000000000E+00 0.  1.
</event>
<event>
 8    1  0.1280925E-006  0.9118800E+02  0.7816164E-02  0.1184000E+00
        -11   -1    0    0    0    0  0.00000000000E+00  0.00000000000E+00  0.45593999997E+02  0.45594000000E+02  0.51100000000E-03 0.  1.
         11   -1    0    0    0    0 -0.00000000000E+00 -0.00000000000E+00 -0.45593999997E+02  0.45594000000E+02  0.51100000000E-03 0. -1.
         23    2    1    2    0    0  0.00000000000E+00  0.17763568394E-14  0.00000000000E+00  0.91188000000E+02  0.91188000000E+02 0.  0.
    9900012    2    3    3    0    0  0.35879183383E+02  0.81066227523E+01 -0.16576422806E+01  0.54367069667E+02  0.39999966919E+02 0.  0.
        -12    1    3    3    0    0 -0.35879183383E+02 -0.81066227523E+01  0.16576422806E+01  0.36820930333E+02  0.00000000000E+00 0.  1.
         11    1    4    4    0    0  0.27103058241E+02  0.12464953691E+02 -0.15286475657E+01  0.29871183441E+02  0.51100000000E-03 0. -1.
        -11    1    4    4    0    0  0.10857118578E+02  0.68436451768E+01  0.17350257897E+01  0.12950784450E+02  0.51100000000E-03 0.  1.
         12    1    4    4    0    0 -0.20809934357E+01 -0.11201976115E+02 -0.18640205045E+01  0.11545101776E+02  0.00000000000E+00 0. -1.
</event>
<event>
 8    1  0.1280925E-006  0.9118800E+02  0.7816164E-02  0.1184000E+00
        -11   -1    0    0    0    0  0.00000000000E+00  0.00000000000E+00  0.45593999997E+02  0.45594000000E+02  0.51100000000E-03 0. -1.
         11   -1    0    0    0    0 -0.00000000000E+00 -0.00000000000E+00 -0.45593999997E+02  0.45594000000E+02  0.51100000000E-03 0.  1.
         23    2    1    2    0    0  0.35527136788E-14 -0.35527136788E-14 -0.17763568394E-14  0.91188000000E+02  0.91188000000E+02 0.  0.
    9900012    2    3    3    0    0 -0.23497491015E+02  0.24208135353E+02  0.14751698886E+02  0.54367102112E+02  0.40000040885E+02 0.  0.
        -12    1    3    3    0    0  0.23497491015E+02 -0.24208135353E+02 -0.14751698886E+02  0.36820897888E+02  0.00000000000E+00 0.  1.
         11    1    4    4    0    0 -0.29097475763E+02  0.16491371480E+02  0.74020731549E-01  0.33445984937E+02  0.51100000000E-03 0. -1.
        -11    1    4    4    0    0  0.23762478355E+01  0.10019955318E+02  0.75597108458E+01  0.12774791062E+02  0.51100000000E-03 0.  1.
        -12    1    4    4    0    0  0.32237369132E+01 -0.23031914454E+01  0.71179673089E+01  0.81463261124E+01  0.00000000000E+00 0.  1.
</event>
<event>
 8    1  0.1280925E-006  0.9118800E+02  0.7816164E-02  0.1184000E+00
        -11   -1    0    0    0    0  0.00000000000E+00  0.00000000000E+00  0.45593999997E+02  0.45594000000E+02  0.51100000000E-03 0. -1.
         11   -1    0    0    0    0 -0.00000000000E+00 -0.00000000000E+00 -0.45593999997E+02  0.45594000000E+02  0.51100000000E-03 0.  1.
         23    2    1    2    0    0  0.00000000000E+00  0.00000000000E+00  0.00000000000E+00  0.91188000000E+02  0.91188000000E+02 0.  0.
    9900012    2    3    3    0    0 -0.22105932588E+02 -0.10464302937E+02 -0.27524643548E+02  0.54367083472E+02  0.39999998391E+02 0.  0.
         12    1    3    3    0    0  0.22105932588E+02  0.10464302937E+02  0.27524643548E+02  0.36820916528E+02  0.00000000000E+00 0. -1.
         11    1    4    4    0    0 -0.28545091114E+01 -0.49080066462E+00  0.63269644277E+01  0.69584184044E+01  0.51100000000E-03 0. -1.
        -11    1    4    4    0    0 -0.18730698060E+02  0.17997497977E+01 -0.29202625529E+02  0.34740055947E+02  0.51100000000E-03 0.  1.
        -12    1    4    4    0    0 -0.52072541660E+00 -0.11773252070E+02 -0.46489824468E+01  0.12668609121E+02  0.00000000000E+00 0.  1.
</event>
<event>
 8    1  0.1280925E-006  0.9118800E+02  0.7816164E-02  0.1184000E+00
        -11   -1    0    0    0    0  0.00000000000E+00  0.00000000000E+00  0.45593999997E+02  0.45594000000E+02  0.51100000000E-03 0.  1.
         11   -1    0    0    0    0 -0.00000000000E+00 -0.00000000000E+00 -0.45593999997E+02  0.45594000000E+02  0.51100000000E-03 0. -1.
         23    2    1    2    0    0  0.23592239273E-15 -0.17763568394E-14  0.00000000000E+00  0.91188000000E+02  0.91188000000E+02 0.  0.
    9900012    2    3    3    0    0 -0.32633035277E-01  0.38115969592E+01  0.36623097058E+02  0.54367074232E+02  0.39999977328E+02 0.  0.
         12    1    3    3    0    0  0.32633035277E-01 -0.38115969592E+01 -0.36623097058E+02  0.36820925768E+02  0.00000000000E+00 0. -1.
         11    1    4    4    0    0 -0.12643093457E+02  0.14250251452E+02  0.26728011774E+02  0.32822310891E+02  0.51100000000E-03 0.  1.
        -11    1    4    4    0    0  0.10374904903E+02 -0.48715271961E+01  0.10462413706E+02  0.15518779906E+02  0.51100000000E-03 0. -1.
         12    1    4    4    0    0  0.22355555188E+01 -0.55671272971E+01 -0.56732842151E+00  0.60259834349E+01  0.00000000000E+00 0. -1.
</event>
<event>
 8    1  0.1280925E-006  0.9118800E+02  0.7816164E-02  0.1184000E+00
        -11   -1    0    0    0    0  0.00000000000E+00  0.00000000000E+00  0.45593999997E+02  0.45594000000E+02  0.51100000000E-03 0.  1.
         11   -1    0    0    0    0 -0.00000000000E+00 -0.00000000000E+00 -0.45593999997E+02  0.45594000000E+02  0.51100000000E-03 0. -1.
         23    2    1    2    0    0  0.00000000000E+00 -0.88817841970E-15  0.00000000000E+00  0.91188000000E+02  0.91188000000E+02 0.  0.
    9900012    2    3    3    0    0 -0.87923844307E+01 -0.40723237844E+01  0.35523089850E+02  0.54367085325E+02  0.40000002616E+02 0.  0.
         12    1    3    3    0    0  0.87923844307E+01  0.40723237844E+01 -0.35523089850E+02  0.36820914675E+02  0.00000000000E+00 0. -1.
         11    1    4    4    0    0 -0.59185780498E+01  0.69224405164E+01  0.13583082591E+02  0.16353895003E+02  0.51100000000E-03 0. -1.
        -11    1    4    4    0    0 -0.77783114705E+01  0.50428322579E+01 -0.12928297860E+01  0.93596845904E+01  0.51100000000E-03 0.  1.
         12    1    4    4    0    0  0.49045050896E+01 -0.16037596559E+02  0.23232837046E+02  0.28653505732E+02  0.00000000000E+00 0. -1.
</event>
<event>
 8    1  0.1280925E-006  0.9118800E+02  0.7816164E-02  0.1184000E+00
        -11   -1    0    0    0    0  0.00000000000E+00  0.00000000000E+00  0.45593999997E+02  0.45594000000E+02  0.51100000000E-03 0. -1.
         11   -1    0    0    0    0 -0.00000000000E+00 -0.00000000000E+00 -0.45593999997E+02  0.45594000000E+02  0.51100000000E-03 0.  1.
         23    2    1    2    0    0  0.00000000000E+00 -0.26090241079E-14  0.00000000000E+00  0.91188000000E+02  0.91188000000E+02 0.  0.
    9900012    2    3    3    0    0  0.20655905361E+02  0.40662283141E+00 -0.30478638396E+02  0.54367093345E+02  0.40000020898E+02 0.  0.
         12    1    3    3    0    0 -0.20655905361E+02 -0.40662283141E+00  0.30478638396E+02  0.36820906655E+02  0.00000000000E+00 0. -1.
         11    1    4    4    0    0  0.72571952458E+01  0.81440568418E+01 -0.50864000606E+01  0.12035946598E+02  0.51100000000E-03 0. -1.
        -11    1    4    4    0    0  0.17937358350E+02 -0.15444783622E+02 -0.23151890204E+02  0.33110424129E+02  0.51100000000E-03 0.  1.
        -12    1    4    4    0    0 -0.45386482352E+01  0.77073496118E+01 -0.22403481319E+01  0.92207226177E+01  0.00000000000E+00 0.  1.
</event>
<event>
 8    1  0.1280925E-006  0.9118800E+02  0.7816164E-02  0.1184000E+00
        -11   -1    0    0    0    0  0.00000000000E+00  0.00000000000E+00  0.45593999997E+02  0.45594000000E+02  0.51100000000E-03 0. -1.
         11   -1    0    0    0    0 -0.00000000000E+00 -0.00000000000E+00 -0.45593999997E+02  0.45594000000E+02  0.51100000000E-03 0.  1.
         23    2    1    2    0    0  0.13322676296E-14  0.35527136788E-14 -0.35527136788E-14  0.91188000000E+02  0.91188000000E+02 0.  0.
    9900012    2    3    3    0    0 -0.39154813700E+01  0.29344039290E+02 -0.21894668738E+02  0.54367079922E+02  0.39999990298E+02 0.  0.
         12    1    3    3    0    0  0.39154813700E+01 -0.29344039290E+02  0.21894668738E+02  0.36820920078E+02  0.00000000000E+00 0. -1.
         11    1    4    4    0    0 -0.41130484239E+01  0.78239921679E+01  0.36420195804E+01  0.95601426593E+01  0.51100000000E-03 0. -1.
        -11    1    4    4    0    0  0.14459543996E+02  0.65803597034E+01 -0.84077403560E+01  0.17974138214E+02  0.51100000000E-03 0.  1.
         12    1    4    4    0    0 -0.14261976942E+02  0.14939687419E+02 -0.17128947963E+02  0.26832799048E+02  0.00000000000E+00 0. -1.
</event>
<event>
 8    1  0.1280925E-006  0.9118800E+02  0.7816164E-02  0.1184000E+00
        -11   -1    0    0    0    0  0.00000000000E+00  0.00000000000E+00  0.45593999997E+02  0.45594000000E+02  0.51100000000E-03 0.  1.
         11   -1    0    0    0    0 -0.00000000000E+00 -0.00000000000E+00 -0.45593999997E+02  0.45594000000E+02  0.51100000000E-03 0. -1.
         23    2    1    2    0    0  0.00000000000E+00  0.00000000000E+00  0.35527136788E-14  0.91188000000E+02  0.91188000000E+02 0.  0.
    9900012    2    3    3    0    0 -0.23879926652E+02 -0.94429619888E+01 -0.26388601939E+02  0.54367099137E+02  0.40000034103E+02 0.  0.
        -12    1    3    3    0    0  0.23879926652E+02  0.94429619888E+01  0.26388601939E+02  0.36820900863E+02  0.00000000000E+00 0.  1.
         11    1    4    4    0    0 -0.41699794137E+01 -0.15265816289E+02 -0.23610032019E+01  0.16000256613E+02  0.51100000000E-03 0. -1.
        -11    1    4    4    0    0  0.41365386701E+01  0.13881875532E+01 -0.20322098627E+00  0.43679876239E+01  0.51100000000E-03 0.  1.
         12    1    4    4    0    0 -0.23846485908E+02  0.44346667473E+01 -0.23824377751E+02  0.33998854901E+02  0.00000000000E+00 0. -1.
</event>
<event>
 8    1  0.1280925E-006  0.9118800E+02  0.7816164E-02  0.1184000E+00
        -11   -1    0    0    0    0  0.00000000000E+00  0.00000000000E+00  0.45593999997E+02  0.45594000000E+02  0.51100000000E-03 0. -1.
         11   -1    0    0    0    0 -0.00000000000E+00 -0.00000000000E+00 -0.45593999997E+02  0.45594000000E+02  0.51100000000E-03 0.  1.
         23    2    1    2    0    0  0.17763568394E-14  0.35527136788E-14  0.00000000000E+00  0.91188000000E+02  0.91188000000E+02 0.  0.
    9900012    2    3    3    0    0 -0.14135214761E+02  0.26791467348E+02 -0.20933077424E+02  0.54367071855E+02  0.39999971909E+02 0.  0.
         12    1    3    3    0    0  0.14135214761E+02 -0.26791467348E+02  0.20933077424E+02  0.36820928145E+02  0.00000000000E+00 0. -1.
         11    1    4    4    0    0 -0.17472552417E+02  0.24158875112E+02 -0.16883449625E+02  0.34263569664E+02  0.51100000000E-03 0. -1.
        -11    1    4    4    0    0 -0.67434043836E+00  0.98320529542E+01  0.17718188167E+01  0.10013158468E+02  0.51100000000E-03 0.  1.
         12    1    4    4    0    0  0.40116780938E+01 -0.71994607181E+01 -0.58214466158E+01  0.10090343724E+02  0.00000000000E+00 0. -1.
</event>
<event>
 8    1  0.1280925E-006  0.9118800E+02  0.7816164E-02  0.1184000E+00
        -11   -1    0    0    0    0  0.00000000000E+00  0.00000000000E+00  0.45593999997E+02  0.45594000000E+02  0.51100000000E-03 0.  1.
         11   -1    0    0    0    0 -0.00000000000E+00 -0.00000000000E+00 -0.45593999997E+02  0.45594000000E+02  0.51100000000E-03 0. -1.
         23    2    1    2    0    0 -0.35527136788E-14  0.35527136788E-14  0.35527136788E-14  0.91188000000E+02  0.91188000000E+02 0.  0.
    9900012    2    3    3    0    0  0.31287452081E+02 -0.10181710758E+02 -0.16528951250E+02  0.54367107546E+02  0.40000053273E+02 0.  0.
        -12    1    3    3    0    0 -0.31287452081E+02  0.10181710758E+02  0.16528951250E+02  0.36820892454E+02  0.00000000000E+00 0.  1.
         11    1    4    4    0    0  0.12279624419E+02  0.10439738533E+02 -0.16712174762E+02  0.23217969378E+02  0.51100000000E-03 0. -1.
        -11    1    4    4    0    0  0.30241885730E+01 -0.12944469410E+01 -0.45617769869E+01  0.56241549541E+01  0.51100000000E-03 0.  1.
        -12    1    4    4    0    0  0.15983639089E+02 -0.19327002349E+02  0.47450004988E+01  0.25524983214E+02  0.00000000000E+00 0.  1.
</event>
<event>
 8    1  0.1280925E-006  0.9118800E+02  0.7816164E-02  0.1184000E+00
        -11   -1    0    0    0    0  0.00000000000E+00  0.00000000000E+00  0.45593999997E+02  0.45594000000E+02  0.51100000000E-03 0.  1.
         11   -1    0    0    0    0 -0.00000000000E+00 -0.00000000000E+00 -0.45593999997E+02  0.45594000000E+02  0.51100000000E-03 0. -1.
         23    2    1    2    0    0 -0.17763568394E-14  0.00000000000E+00 -0.35527136788E-14  0.91188000000E+02  0.91188000000E+02 0.  0.
    9900012    2    3    3    0    0  0.14146664183E+02  0.27837272422E+02 -0.19512488078E+02  0.54367095144E+02  0.40000025000E+02 0.  0.
        -12    1    3    3    0    0 -0.14146664183E+02 -0.27837272422E+02  0.19512488078E+02  0.36820904856E+02  0.00000000000E+00 0.  1.
         11    1    4    4    0    0 -0.37205448802E-01 -0.18826453799E+01  0.57594829429E+01  0.60594869340E+01  0.51100000000E-03 0. -1.
        -11    1    4    4    0    0  0.48843390998E+01 -0.11924014079E+01 -0.12710639703E+02  0.13668904546E+02  0.51100000000E-03 0.  1.
         12    1    4    4    0    0  0.92995305318E+01  0.30912319210E+02 -0.12561331318E+02  0.34638703664E+02  0.00000000000E+00 0. -1.
</event>
<event>
 8    1  0.1280925E-006  0.9118800E+02  0.7816164E-02  0.1184000E+00
        -11   -1    0    0    0    0  0.00000000000E+00  0.00000000000E+00  0.45593999997E+02  0.45594000000E+02  0.51100000000E-03 0.  1.
         11   -1    0    0    0    0 -0.00000000000E+00 -0.00000000000E+00 -0.45593999997E+02  0.45594000000E+02  0.51100000000E-03 0. -1.
         23    2    1    2    0    0  0.00000000000E+00 -0.35527136788E-14  0.00000000000E+00  0.91188000000E+02  0.91188000000E+02 0.  0.
    9900012    2    3    3    0    0  0.18715052008E+02 -0.26246006078E+02 -0.17795338331E+02  0.54367081041E+02  0.39999992849E+02 0.  0.
        -12    1    3    3    0    0 -0.18715052008E+02  0.26246006078E+02  0.17795338331E+02  0.36820918959E+02  0.00000000000E+00 0.  1.
         11    1    4    4    0    0  0.21155620106E+01  0.71132683584E+01  0.79060335525E-01  0.74216197799E+01  0.51100000000E-03 0. -1.
        -11    1    4    4    0    0  0.14790924719E+02 -0.11781083722E+02 -0.66394777115E-01  0.18909516023E+02  0.51100000000E-03 0.  1.
         12    1    4    4    0    0  0.18085652786E+01 -0.21578190714E+02 -0.17808003889E+02  0.28035945238E+02  0.00000000000E+00 0. -1.
</event>
<event>
 8    1  0.1280925E-006  0.9118800E+02  0.7816164E-02  0.1184000E+00
        -11   -1    0    0    0    0  0.00000000000E+00  0.00000000000E+00  0.45593999997E+02  0.45594000000E+02  0.51100000000E-03 0.  1.
         11   -1    0    0    0    0 -0.00000000000E+00 -0.00000000000E+00 -0.45593999997E+02  0.45594000000E+02  0.51100000000E-03 0. -1.
         23    2    1    2    0    0 -0.35527136788E-14  0.83266726847E-15  0.00000000000E+00  0.91188000000E+02  0.91188000000E+02 0.  0.
    9900012    2    3    3    0    0 -0.30717780309E+02 -0.12767851032E+00  0.20302232624E+02  0.54367095904E+02  0.40000026732E+02 0.  0.
         12    1    3    3    0    0  0.30717780309E+02  0.12767851032E+00 -0.20302232624E+02  0.36820904096E+02  0.00000000000E+00 0. -1.
         11    1    4    4    0    0 -0.12825965057E+02 -0.73513923334E+01  0.80655442155E+01  0.16840467709E+02  0.51100000000E-03 0. -1.
        -11    1    4    4    0    0 -0.21672904298E+02 -0.45953511688E+01  0.11819641362E+02  0.25110475011E+02  0.51100000000E-03 0.  1.
        -12    1    4    4    0    0  0.37810890465E+01  0.11819064992E+02  0.41704704722E+00  0.12416153184E+02  0.00000000000E+00 0.  1.
</event>
<event>
 8    1  0.1280925E-006  0.9118800E+02  0.7816164E-02  0.1184000E+00
        -11   -1    0    0    0    0  0.00000000000E+00  0.00000000000E+00  0.45593999997E+02  0.45594000000E+02  0.51100000000E-03 0. -1.
         11   -1    0    0    0    0 -0.00000000000E+00 -0.00000000000E+00 -0.45593999997E+02  0.45594000000E+02  0.51100000000E-03 0.  1.
         23    2    1    2    0    0 -0.99920072216E-15  0.00000000000E+00 -0.35527136788E-14  0.91188000000E+02  0.91188000000E+02 0.  0.
    9900012    2    3    3    0    0 -0.65617880926E+00 -0.33921073304E+02 -0.14307686888E+02  0.54367086258E+02  0.40000004743E+02 0.  0.
         12    1    3    3    0    0  0.65617880926E+00  0.33921073304E+02  0.14307686888E+02  0.36820913742E+02  0.00000000000E+00 0. -1.
         11    1    4    4    0    0 -0.10553635716E+02 -0.21783503252E+02 -0.47521434795E+00  0.24210040679E+02  0.51100000000E-03 0. -1.
        -11    1    4    4    0    0 -0.67548706721E+01 -0.36641164023E+01 -0.16731329716E+01  0.78646933194E+01  0.51100000000E-03 0.  1.
        -12    1    4    4    0    0  0.16652327579E+02 -0.84734536491E+01 -0.12159339568E+02  0.22292352260E+02  0.00000000000E+00 0.  1.
</event>
<event>
 8    1  0.1280925E-006  0.9118800E+02  0.7816164E-02  0.1184000E+00
        -11   -1    0    0    0    0  0.00000000000E+00  0.00000000000E+00  0.45593999997E+02  0.45594000000E+02  0.51100000000E-03 0.  1.
         11   -1    0    0    0    0 -0.00000000000E+00 -0.00000000000E+00 -0.45593999997E+02  0.45594000000E+02  0.51100000000E-03 0. -1.
         23    2    1    2    0    0 -0.35527136788E-14  0.00000000000E+00  0.88817841970E-15  0.91188000000E+02  0.91188000000E+02 0.  0.
    9900012    2    3    3    0    0 -0.24921740657E+02 -0.26460142943E+02  0.58776952770E+01  0.54367087142E+02  0.40000006757E+02 0.  0.
        -12    1    3    3    0    0  0.24921740657E+02  0.26460142943E+02 -0.58776952770E+01  0.36820912858E+02  0.00000000000E+00 0.  1.
         11    1    4    4    0    0 -0.14842480598E+02 -0.25191147196E+02  0.17107223932E+02  0.33875510893E+02  0.51100000000E-03 0.  1.
        -11    1    4    4    0    0 -0.11034140195E+02  0.12601692973E+01 -0.13122512389E+02  0.17191294546E+02  0.51100000000E-03 0. -1.
         12    1    4    4    0    0  0.95488013605E+00 -0.25291650451E+01  0.18929837341E+01  0.33002817027E+01  0.00000000000E+00 0. -1.
</event>
<event>
 8    1  0.1280925E-006  0.9118800E+02  0.7816164E-02  0.1184000E+00
        -11   -1    0    0    0    0  0.00000000000E+00  0.00000000000E+00  0.45593999997E+02  0.45594000000E+02  0.51100000000E-03 0. -1.
         11   -1    0    0    0    0 -0.00000000000E+00 -0.00000000000E+00 -0.45593999997E+02  0.45594000000E+02  0.51100000000E-03 0.  1.
         23    2    1    2    0    0  0.00000000000E+00  0.17763568394E-14  0.00000000000E+00  0.91188000000E+02  0.91188000000E+02 0.  0.
    9900012    2    3    3    0    0  0.30200713084E+02 -0.87998250442E+01  0.19137914149E+02  0.54367085433E+02  0.40000002861E+02 0.  0.
        -12    1    3    3    0    0 -0.30200713084E+02  0.87998250442E+01 -0.19137914149E+02  0.36820914567E+02  0.00000000000E+00 0.  1.
         11    1    4    4    0    0  0.16571042558E+02  0.52610124291E+01  0.52363886859E+01  0.18157573350E+02  0.51100000000E-03 0. -1.
        -11    1    4    4    0    0  0.13482262691E+02  0.19247017132E+00 -0.32881141640E+01  0.13878766049E+02  0.51100000000E-03 0.  1.
        -12    1    4    4    0    0  0.14740783458E+00 -0.14253307645E+02  0.17189639627E+02  0.22330746033E+02  0.00000000000E+00 0.  1.
</event>
<event>
 8    1  0.1280925E-006  0.9118800E+02  0.7816164E-02  0.1184000E+00
        -11   -1    0    0    0    0  0.00000000000E+00  0.00000000000E+00  0.45593999997E+02  0.45594000000E+02  0.51100000000E-03 0. -1.
         11   -1    0    0    0    0 -0.00000000000E+00 -0.00000000000E+00 -0.45593999997E+02  0.45594000000E+02  0.51100000000E-03 0.  1.
         23    2    1    2    0    0  0.00000000000E+00  0.00000000000E+00 -0.35527136788E-14  0.91188000000E+02  0.91188000000E+02 0.  0.
    9900012    2    3    3    0    0  0.14552521831E+02 -0.16423284514E+02  0.29568209699E+02  0.54367093022E+02  0.40000020163E+02 0.  0.
        -12    1    3    3    0    0 -0.14552521831E+02  0.16423284514E+02 -0.29568209699E+02  0.36820906978E+02  0.00000000000E+00 0.  1.
         11    1    4    4    0    0  0.15276220041E+02 -0.35762041430E+01  0.23294384228E+02  0.28085235830E+02  0.51100000000E-03 0. -1.
        -11    1    4    4    0    0 -0.65685162089E+01  0.35877076333E+01 -0.65470556737E+00  0.75130347323E+01  0.51100000000E-03 0.  1.
        -12    1    4    4    0    0  0.58448179995E+01 -0.16434788004E+02  0.69285310383E+01  0.18768822460E+02  0.00000000000E+00 0.  1.
</event>
<event>
 8    1  0.1280925E-006  0.9118800E+02  0.7816164E-02  0.1184000E+00
        -11   -1    0    0    0    0  0.00000000000E+00  0.00000000000E+00  0.45593999997E+02  0.45594000000E+02  0.51100000000E-03 0. -1.
         11   -1    0    0    0    0 -0.00000000000E+00 -0.00000000000E+00 -0.45593999997E+02  0.45594000000E+02  0.51100000000E-03 0.  1.
         23    2    1    2    0    0  0.35527136788E-14  0.00000000000E+00  0.00000000000E+00  0.91188000000E+02  0.91188000000E+02 0.  0.
    9900012    2    3    3    0    0  0.24805838336E+02 -0.85862181552E+01 -0.25821179130E+02  0.54366999886E+02  0.39999807839E+02 0.  0.
         12    1    3    3    0    0 -0.24805838336E+02  0.85862181552E+01  0.25821179130E+02  0.36821000114E+02  0.00000000000E+00 0. -1.
         11    1    4    4    0    0  0.38598205110E+01 -0.10644477733E+02 -0.20464971131E+02  0.23388419447E+02  0.51100000000E-03 0. -1.
        -11    1    4    4    0    0  0.12639602681E+02 -0.25338342783E+01 -0.13358393443E+02  0.18564119902E+02  0.51100000000E-03 0.  1.
         12    1    4    4    0    0  0.83064151433E+01  0.45920938556E+01  0.80021854447E+01  0.12414460536E+02  0.00000000000E+00 0. -1.
</event>
<event>
 8    1  0.1280925E-006  0.9118800E+02  0.7816164E-02  0.1184000E+00
        -11   -1    0    0    0    0  0.00000000000E+00  0.00000000000E+00  0.45593999997E+02  0.45594000000E+02  0.51100000000E-03 0. -1.
         11   -1    0    0    0    0 -0.00000000000E+00 -0.00000000000E+00 -0.45593999997E+02  0.45594000000E+02  0.51100000000E-03 0.  1.
         23    2    1    2    0    0 -0.17763568394E-14 -0.88817841970E-15  0.00000000000E+00  0.91188000000E+02  0.91188000000E+02 0.  0.
    9900012    2    3    3    0    0  0.13908954056E+02  0.53428711537E+01 -0.33671557557E+02  0.54367094750E+02  0.40000024102E+02 0.  0.
         12    1    3    3    0    0 -0.13908954056E+02 -0.53428711537E+01  0.33671557557E+02  0.36820905250E+02  0.00000000000E+00 0. -1.
         11    1    4    4    0    0 -0.10790159406E+02  0.40476890485E+01 -0.12115598790E+02  0.16721215893E+02  0.51100000000E-03 0. -1.
        -11    1    4    4    0    0  0.44036537850E+00  0.56915769551E+01 -0.16029815921E+01  0.59293777201E+01  0.51100000000E-03 0.  1.
        -12    1    4    4    0    0  0.24258748083E+02 -0.43963948499E+01 -0.19952977175E+02  0.31716501137E+02  0.00000000000E+00 0.  1.
</event>
<event>
 8    1  0.1280925E-006  0.9118800E+02  0.7816164E-02  0.1184000E+00
        -11   -1    0    0    0    0  0.00000000000E+00  0.00000000000E+00  0.45593999997E+02  0.45594000000E+02  0.51100000000E-03 0.  1.
         11   -1    0    0    0    0 -0.00000000000E+00 -0.00000000000E+00 -0.45593999997E+02  0.45594000000E+02  0.51100000000E-03 0. -1.
         23    2    1    2    0    0  0.35527136788E-14 -0.35527136788E-14  0.00000000000E+00  0.91188000000E+02  0.91188000000E+02 0.  0.
    9900012    2    3    3    0    0 -0.25811834319E+02 -0.24181668176E+02 -0.10236145350E+02  0.54367047564E+02  0.39999916532E+02 0.  0.
        -12    1    3    3    0    0  0.25811834319E+02  0.24181668176E+02  0.10236145350E+02  0.36820952436E+02  0.00000000000E+00 0.  1.
         11    1    4    4    0    0 -0.27886602706E+01 -0.23209340773E+02 -0.14917980095E+02  0.27730781734E+02  0.51100000000E-03 0. -1.
        -11    1    4    4    0    0 -0.27132310953E+01 -0.12166626391E+00  0.56674694094E+01  0.62846348680E+01  0.51100000000E-03 0.  1.
         12    1    4    4    0    0 -0.20309942953E+02 -0.85066113882E+00 -0.98563466503E+00  0.20351630962E+02  0.00000000000E+00 0. -1.
</event>
<event>
 8    1  0.1280925E-006  0.9118800E+02  0.7816164E-02  0.1184000E+00
        -11   -1    0    0    0    0  0.00000000000E+00  0.00000000000E+00  0.45593999997E+02  0.45594000000E+02  0.51100000000E-03 0.  1.
         11   -1    0    0    0    0 -0.00000000000E+00 -0.00000000000E+00 -0.45593999997E+02  0.45594000000E+02  0.51100000000E-03 0. -1.
         23    2    1    2    0    0  0.00000000000E+00  0.00000000000E+00  0.00000000000E+00  0.91188000000E+02  0.91188000000E+02 0.  0.
    9900012    2    3    3    0    0 -0.18587252802E+02 -0.20699401862E+02 -0.24121093509E+02  0.54367104353E+02  0.40000045993E+02 0.  0.
        -12    1    3    3    0    0  0.18587252802E+02  0.20699401862E+02  0.24121093509E+02  0.36820895647E+02  0.00000000000E+00 0.  1.
         11    1    4    4    0    0 -0.19789362298E+02 -0.12541482946E+02 -0.19250749486E+02  0.30323242087E+02  0.51100000000E-03 0. -1.
        -11    1    4    4    0    0  0.48815163157E+01  0.63406351085E+01 -0.42784103151E+01  0.90740095991E+01  0.51100000000E-03 0.  1.
        -12    1    4    4    0    0 -0.36794068197E+01 -0.14498554025E+02 -0.59193370870E+00  0.14969852667E+02  0.00000000000E+00 0.  1.
</event>
<event>
 8    1  0.1280925E-006  0.9118800E+02  0.7816164E-02  0.1184000E+00
        -11   -1    0    0    0    0  0.00000000000E+00  0.00000000000E+00  0.45593999997E+02  0.45594000000E+02  0.51100000000E-03 0. -1.
         11   -1    0    0    0    0 -0.00000000000E+00 -0.00000000000E+00 -0.45593999997E+02  0.45594000000E+02  0.51100000000E-03 0.  1.
         23    2    1    2    0    0  0.88817841970E-15  0.00000000000E+00  0.35527136788E-14  0.91188000000E+02  0.91188000000E+02 0.  0.
    9900012    2    3    3    0    0 -0.78663092548E+01  0.18538203216E+02  0.30825935002E+02  0.54367053943E+02  0.39999931074E+02 0.  0.
        -12    1    3    3    0    0  0.78663092548E+01 -0.18538203216E+02 -0.30825935002E+02  0.36820946057E+02  0.00000000000E+00 0.  1.
         11    1    4    4    0    0  0.16267541138E+01  0.17132945762E+02  0.25108163908E+01  0.17392192463E+02  0.51100000000E-03 0. -1.
        -11    1    4    4    0    0 -0.14384819711E+02  0.24896303252E+01  0.28434280663E+02  0.31962941266E+02  0.51100000000E-03 0.  1.
        -12    1    4    4    0    0  0.48917563426E+01 -0.10843728716E+01 -0.11916205166E+00  0.50119202144E+01  0.00000000000E+00 0.  1.
</event>
<event>
 8    1  0.1280925E-006  0.9118800E+02  0.7816164E-02  0.1184000E+00
        -11   -1    0    0    0    0  0.00000000000E+00  0.00000000000E+00  0.45593999997E+02  0.45594000000E+02  0.51100000000E-03 0. -1.
         11   -1    0    0    0    0 -0.00000000000E+00 -0.00000000000E+00 -0.45593999997E+02  0.45594000000E+02  0.51100000000E-03 0.  1.
         23    2    1    2    0    0 -0.35527136788E-14  0.00000000000E+00 -0.35527136788E-14  0.91188000000E+02  0.91188000000E+02 0.  0.
    9900012    2    3    3    0    0  0.22766505825E+02 -0.27289586473E+02 -0.96304089410E+01  0.54367080759E+02  0.39999992207E+02 0.  0.
        -12    1    3    3    0    0 -0.22766505825E+02  0.27289586473E+02  0.96304089410E+01  0.36820919241E+02  0.00000000000E+00 0.  1.
         11    1    4    4    0    0  0.13870542542E+02 -0.15281878210E+02  0.96756065291E+01  0.22793532285E+02  0.51100000000E-03 0. -1.
        -11    1    4    4    0    0  0.13556469328E+02 -0.14022267382E+02 -0.17440667450E+02  0.26164455365E+02  0.51100000000E-03 0.  1.
        -12    1    4    4    0    0 -0.46605060444E+01  0.20145591196E+01 -0.18653480197E+01  0.54090931098E+01  0.00000000000E+00 0.  1.
</event>
<event>
 8    1  0.1280925E-006  0.9118800E+02  0.7816164E-02  0.1184000E+00
        -11   -1    0    0    0    0  0.00000000000E+00  0.00000000000E+00  0.45593999997E+02  0.45594000000E+02  0.51100000000E-03 0. -1.
         11   -1    0    0    0    0 -0.00000000000E+00 -0.00000000000E+00 -0.45593999997E+02  0.45594000000E+02  0.51100000000E-03 0.  1.
         23    2    1    2    0    0  0.35527136788E-14  0.00000000000E+00  0.00000000000E+00  0.91188000000E+02  0.91188000000E+02 0.  0.
    9900012    2    3    3    0    0  0.30277123397E+02 -0.20088244241E+01 -0.20857648862E+02  0.54367067193E+02  0.39999961280E+02 0.  0.
         12    1    3    3    0    0 -0.30277123397E+02  0.20088244241E+01  0.20857648862E+02  0.36820932807E+02  0.00000000000E+00 0. -1.
         11    1    4    4    0    0  0.85592544589E+01 -0.72921711439E+01 -0.13423209724E+02  0.17510544150E+02  0.51100000000E-03 0. -1.
        -11    1    4    4    0    0  0.12361145469E+02  0.90361866812E+01 -0.17056027857E+02  0.22920704038E+02  0.51100000000E-03 0.  1.
         12    1    4    4    0    0  0.93567234686E+01 -0.37528399613E+01  0.96215887198E+01  0.13935819005E+02  0.00000000000E+00 0. -1.
</event>
<event>
 8    1  0.1280925E-006  0.9118800E+02  0.7816164E-02  0.1184000E+00
        -11   -1    0    0    0    0  0.00000000000E+00  0.00000000000E+00  0.45593999997E+02  0.45594000000E+02  0.51100000000E-03 0. -1.
         11   -1    0    0    0    0 -0.00000000000E+00 -0.00000000000E+00 -0.45593999997E+02  0.45594000000E+02  0.51100000000E-03 0.  1.
         23    2    1    2    0    0  0.00000000000E+00  0.44408920985E-15  0.44408920985E-15  0.91188000000E+02  0.91188000000E+02 0.  0.
    9900012    2    3    3    0    0  0.36714213291E+02  0.27917600324E+01  0.22625103180E+00  0.54367101435E+02  0.40000039340E+02 0.  0.
         12    1    3    3    0    0 -0.36714213291E+02 -0.27917600324E+01 -0.22625103180E+00  0.36820898565E+02  0.00000000000E+00 0. -1.
         11    1    4    4    0    0  0.22985858908E+01 -0.20065545286E+01 -0.39481462732E+00  0.30766275407E+01  0.51100000000E-03 0. -1.
        -11    1    4    4    0    0 -0.63873014881E+01  0.33136700567E+01  0.69132782483E+01  0.99785492905E+01  0.51100000000E-03 0.  1.
         12    1    4    4    0    0  0.40802928888E+02  0.14846445043E+01 -0.62922125892E+01  0.41311924603E+02  0.00000000000E+00 0. -1.
</event>
<event>
 8    1  0.1280925E-006  0.9118800E+02  0.7816164E-02  0.1184000E+00
        -11   -1    0    0    0    0  0.00000000000E+00  0.00000000000E+00  0.45593999997E+02  0.45594000000E+02  0.51100000000E-03 0.  1.
         11   -1    0    0    0    0 -0.00000000000E+00 -0.00000000000E+00 -0.45593999997E+02  0.45594000000E+02  0.51100000000E-03 0. -1.
         23    2    1    2    0    0  0.00000000000E+00  0.35527136788E-14 -0.35527136788E-14  0.91188000000E+02  0.91188000000E+02 0.  0.
    9900012    2    3    3    0    0 -0.46129365793E+01 -0.28701910064E+02  0.22598673120E+02  0.54367097621E+02  0.40000030647E+02 0.  0.
         12    1    3    3    0    0  0.46129365793E+01  0.28701910064E+02 -0.22598673120E+02  0.36820902379E+02  0.00000000000E+00 0. -1.
         11    1    4    4    0    0  0.32630549637E+01  0.42869540620E+01  0.26784119221E+01  0.60165931815E+01  0.51100000000E-03 0. -1.
        -11    1    4    4    0    0  0.35299879934E+01  0.37241909159E+01  0.48422328514E+01  0.70553265311E+01  0.51100000000E-03 0.  1.
        -12    1    4    4    0    0 -0.11405979536E+02 -0.36713055042E+02  0.15078028347E+02  0.41295177909E+02  0.00000000000E+00 0.  1.
</event>
<event>
 8    1  0.1280925E-006  0.9118800E+02  0.7816164E-02  0.1184000E+00
        -11   -1    0    0    0    0  0.00000000000E+00  0.00000000000E+00  0.45593999997E+02  0.45594000000E+02  0.51100000000E-03 0.  1.
         11   -1    0    0    0    0 -0.00000000000E+00 -0.00000000000E+00 -0.45593999997E+02  0.45594000000E+02  0.51100000000E-03 0. -1.
         23    2    1    2    0    0  0.00000000000E+00  0.00000000000E+00 -0.35527136788E-14  0.91188000000E+02  0.91188000000E+02 0.  0.
    9900012    2    3    3    0    0 -0.24343660397E+02 -0.96433423646E+01  0.25887671969E+02  0.54367089997E+02  0.40000013266E+02 0.  0.
         12    1    3    3    0    0  0.24343660397E+02  0.96433423646E+01 -0.25887671969E+02  0.36820910003E+02  0.00000000000E+00 0. -1.
         11    1    4    4    0    0 -0.12673491230E+02 -0.62237305973E+01 -0.90619194075E+01  0.16777085150E+02  0.51100000000E-03 0. -1.
        -11    1    4    4    0    0 -0.47131543436E+01 -0.26383998978E+01  0.73800429231E+01  0.91454913315E+01  0.51100000000E-03 0.  1.
         12    1    4    4    0    0 -0.69570148236E+01 -0.78121186943E+00  0.27569548453E+02  0.28444513516E+02  0.00000000000E+00 0. -1.
</event>
<event>
 8    1  0.1280925E-006  0.9118800E+02  0.7816164E-02  0.1184000E+00
        -11   -1    0    0    0    0  0.00000000000E+00  0.00000000000E+00  0.45593999997E+02  0.45594000000E+02  0.51100000000E-03 0.  1.
         11   -1    0    0    0    0 -0.00000000000E+00 -0.00000000000E+00 -0.45593999997E+02  0.45594000000E+02  0.51100000000E-03 0. -1.
         23    2    1    2    0    0  0.17763568394E-14 -0.71054273576E-14  0.00000000000E+00  0.91188000000E+02  0.91188000000E+02 0.  0.
    9900012    2    3    3    0    0 -0.14814112232E+02  0.32248203127E+02  0.98170955019E+01  0.54367083522E+02  0.39999998506E+02 0.  0.
        -12    1    3    3    0    0  0.14814112232E+02 -0.32248203127E+02 -0.98170955019E+01  0.36820916478E+02  0.00000000000E+00 0.  1.
         11    1    4    4    0    0 -0.14301911002E+01  0.43708788532E+01 -0.59065264836E+01  0.74857921355E+01  0.51100000000E-03 0. -1.
        -11    1    4    4    0    0 -0.11013120561E+02  0.34969405013E+02  0.12457538239E+02  0.38721290922E+02  0.51100000000E-03 0.  1.
        -12    1    4    4    0    0 -0.23708005704E+01 -0.70920807387E+01  0.32660837465E+01  0.81600004649E+01  0.00000000000E+00 0.  1.
</event>
<event>
 8    1  0.1280925E-006  0.9118800E+02  0.7816164E-02  0.1184000E+00
        -11   -1    0    0    0    0  0.00000000000E+00  0.00000000000E+00  0.45593999997E+02  0.45594000000E+02  0.51100000000E-03 0. -1.
         11   -1    0    0    0    0 -0.00000000000E+00 -0.00000000000E+00 -0.45593999997E+02  0.45594000000E+02  0.51100000000E-03 0.  1.
         23    2    1    2    0    0 -0.71054273576E-14 -0.17763568394E-14  0.17763568394E-14  0.91188000000E+02  0.91188000000E+02 0.  0.
    9900012    2    3    3    0    0 -0.34439902559E+02 -0.76114339376E+01  0.10570600595E+02  0.54367103599E+02  0.40000044275E+02 0.  0.
        -12    1    3    3    0    0  0.34439902559E+02  0.76114339376E+01 -0.10570600595E+02  0.36820896401E+02  0.00000000000E+00 0.  1.
         11    1    4    4    0    0  0.87308894031E+00 -0.79935666247E-01  0.80412671243E+01  0.80889215124E+01  0.51100000000E-03 0. -1.
        -11    1    4    4    0    0 -0.11082151555E+02  0.59195683081E+01 -0.98110699819E+01  0.15940905447E+02  0.51100000000E-03 0.  1.
        -12    1    4    4    0    0 -0.24230839944E+02 -0.13451066579E+02  0.12340403452E+02  0.30337276639E+02  0.00000000000E+00 0.  1.
</event>
<event>
 8    1  0.1280925E-006  0.9118800E+02  0.7816164E-02  0.1184000E+00
        -11   -1    0    0    0    0  0.00000000000E+00  0.00000000000E+00  0.45593999997E+02  0.45594000000E+02  0.51100000000E-03 0.  1.
         11   -1    0    0    0    0 -0.00000000000E+00 -0.00000000000E+00 -0.45593999997E+02  0.45594000000E+02  0.51100000000E-03 0. -1.
         23    2    1    2    0    0  0.00000000000E+00  0.00000000000E+00  0.00000000000E+00  0.91188000000E+02  0.91188000000E+02 0.  0.
    9900012    2    3    3    0    0  0.92173668350E+01 -0.32497912717E+02  0.14652841152E+02  0.54367082899E+02  0.39999997085E+02 0.  0.
         12    1    3    3    0    0 -0.92173668350E+01  0.32497912717E+02 -0.14652841152E+02  0.36820917101E+02  0.00000000000E+00 0. -1.
         11    1    4    4    0    0  0.10780520796E+02  0.23568512737E+01 -0.24619221692E+01  0.11306433460E+02  0.51100000000E-03 0. -1.
        -11    1    4    4    0    0  0.60674684257E+01 -0.11153457311E+02  0.12343885536E+02  0.17708339659E+02  0.51100000000E-03 0.  1.
         12    1    4    4    0    0 -0.76306223870E+01 -0.23701306679E+02  0.47708777852E+01  0.25352309779E+02  0.00000000000E+00 0. -1.
</event>
<event>
 8    1  0.1280925E-006  0.9118800E+02  0.7816164E-02  0.1184000E+00
        -11   -1    0    0    0    0  0.00000000000E+00  0.00000000000E+00  0.45593999997E+02  0.45594000000E+02  0.51100000000E-03 0.  1.
         11   -1    0    0    0    0 -0.00000000000E+00 -0.00000000000E+00 -0.45593999997E+02  0.45594000000E+02  0.51100000000E-03 0. -1.
         23    2    1    2    0    0  0.00000000000E+00  0.00000000000E+00  0.17763568394E-14  0.91188000000E+02  0.91188000000E+02 0.  0.
    9900012    2    3    3    0    0  0.29940592432E+02  0.18111396608E+02  0.11459404800E+02  0.54367085826E+02  0.40000003756E+02 0.  0.
         12    1    3    3    0    0 -0.29940592432E+02 -0.18111396608E+02 -0.11459404800E+02  0.36820914174E+02  0.00000000000E+00 0. -1.
         11    1    4    4    0    0  0.25369482735E+01  0.91478145130E+01  0.97361072802E+01  0.13598176427E+02  0.51100000000E-03 0.  1.
        -11    1    4    4    0    0  0.27619569832E+02  0.95802134878E+01 -0.85627468494E+01  0.30462136531E+02  0.51100000000E-03 0. -1.
         12    1    4    4    0    0 -0.21592567335E+00 -0.61663139290E+00  0.10286044370E+02  0.10306772868E+02  0.00000000000E+00 0. -1.
</event>
<event>
 8    1  0.1280925E-006  0.9118800E+02  0.7816164E-02  0.1184000E+00
        -11   -1    0    0    0    0  0.00000000000E+00  0.00000000000E+00  0.45593999997E+02  0.45594000000E+02  0.51100000000E-03 0.  1.
         11   -1    0    0    0    0 -0.00000000000E+00 -0.00000000000E+00 -0.45593999997E+02  0.45594000000E+02  0.51100000000E-03 0. -1.
         23    2    1    2    0    0  0.00000000000E+00  0.00000000000E+00 -0.17763568394E-14  0.91188000000E+02  0.91188000000E+02 0.  0.
    9900012    2    3    3    0    0 -0.27504222973E+02 -0.21464866985E+02  0.11771018939E+02  0.54367086338E+02  0.40000004925E+02 0.  0.
        -12    1    3    3    0    0  0.27504222973E+02  0.21464866985E+02 -0.11771018939E+02  0.36820913662E+02  0.00000000000E+00 0.  1.
         11    1    4    4    0    0 -0.14072594882E+02 -0.12454146018E+02  0.39334645530E+00  0.18796233704E+02  0.51100000000E-03 0. -1.
        -11    1    4    4    0    0 -0.13614134245E+02 -0.16475060625E+02  0.16080984778E+02  0.26746408087E+02  0.51100000000E-03 0.  1.
        -12    1    4    4    0    0  0.18250615444E+00  0.74643396587E+01 -0.47033122941E+01  0.88244445476E+01  0.00000000000E+00 0.  1.
</event>
<event>
 8    1  0.1280925E-006  0.9118800E+02  0.7816164E-02  0.1184000E+00
        -11   -1    0    0    0    0  0.00000000000E+00  0.00000000000E+00  0.45593999997E+02  0.45594000000E+02  0.51100000000E-03 0.  1.
         11   -1    0    0    0    0 -0.00000000000E+00 -0.00000000000E+00 -0.45593999997E+02  0.45594000000E+02  0.51100000000E-03 0. -1.
         23    2    1    2    0    0  0.35527136788E-14  0.00000000000E+00  0.00000000000E+00  0.91188000000E+02  0.91188000000E+02 0.  0.
    9900012    2    3    3    0    0 -0.21207563512E+02  0.23263268513E+02 -0.19100769016E+02  0.54367084897E+02  0.40000001639E+02 0.  0.
        -12    1    3    3    0    0  0.21207563512E+02 -0.23263268513E+02  0.19100769016E+02  0.36820915103E+02  0.00000000000E+00 0.  1.
         11    1    4    4    0    0  0.53170653050E+01  0.98449754955E+01  0.71417575179E+01  0.13274013209E+02  0.51100000000E-03 0. -1.
        -11    1    4    4    0    0 -0.66240162597E+01 -0.14360410599E+01 -0.60822637033E+01  0.91067962178E+01  0.51100000000E-03 0.  1.
         12    1    4    4    0    0 -0.19900612557E+02  0.14854334078E+02 -0.20160262831E+02  0.31986275470E+02  0.00000000000E+00 0. -1.
</event>
<event>
 8    1  0.1280925E-006  0.9118800E+02  0.7816164E-02  0.1184000E+00
        -11   -1    0    0    0    0  0.00000000000E+00  0.00000000000E+00  0.45593999997E+02  0.45594000000E+02  0.51100000000E-03 0. -1.
         11   -1    0    0    0    0 -0.00000000000E+00 -0.00000000000E+00 -0.45593999997E+02  0.45594000000E+02  0.51100000000E-03 0.  1.
         23    2    1    2    0    0  0.17763568394E-14  0.00000000000E+00  0.00000000000E+00  0.91188000000E+02  0.91188000000E+02 0.  0.
    9900012    2    3    3    0    0  0.13181105917E+02  0.84591415763E+01  0.33323888947E+02  0.54367079262E+02  0.39999988794E+02 0.  0.
        -12    1    3    3    0    0 -0.13181105917E+02 -0.84591415763E+01 -0.33323888947E+02  0.36820920738E+02  0.00000000000E+00 0.  1.
         11    1    4    4    0    0 -0.75732690211E+01 -0.29920739973E+01 -0.70143893669E+00  0.81730610737E+01  0.51100000000E-03 0.  1.
        -11    1    4    4    0    0  0.95329951970E+01 -0.50352041256E+01  0.80963847316E+01  0.13482682374E+02  0.51100000000E-03 0. -1.
        -12    1    4    4    0    0  0.11221379741E+02  0.16486419699E+02  0.25928943152E+02  0.32711335815E+02  0.00000000000E+00 0.  1.
</event>
<event>
 8    1  0.1280925E-006  0.9118800E+02  0.7816164E-02  0.1184000E+00
        -11   -1    0    0    0    0  0.00000000000E+00  0.00000000000E+00  0.45593999997E+02  0.45594000000E+02  0.51100000000E-03 0.  1.
         11   -1    0    0    0    0 -0.00000000000E+00 -0.00000000000E+00 -0.45593999997E+02  0.45594000000E+02  0.51100000000E-03 0. -1.
         23    2    1    2    0    0  0.00000000000E+00  0.35527136788E-14  0.35527136788E-14  0.91188000000E+02  0.91188000000E+02 0.  0.
    9900012    2    3    3    0    0  0.10673208496E+02 -0.29037235055E+02 -0.19967495372E+02  0.54367091936E+02  0.40000017686E+02 0.  0.
        -12    1    3    3    0    0 -0.10673208496E+02  0.29037235055E+02  0.19967495372E+02  0.36820908064E+02  0.00000000000E+00 0.  1.
         11    1    4    4    0    0  0.10356245019E+02  0.32646482213E+01 -0.61404651302E+01  0.12474576192E+02  0.51100000000E-03 0. -1.
        -11    1    4    4    0    0  0.16688082806E+01  0.28388859938E+01 -0.43783659929E+01  0.54785293457E+01  0.51100000000E-03 0.  1.
        -12    1    4    4    0    0 -0.13518448035E+01 -0.35140769270E+02 -0.94486642493E+01  0.36413986397E+02  0.00000000000E+00 0.  1.
</event>
<event>
 8    1  0.1280925E-006  0.9118800E+02  0.7816164E-02  0.1184000E+00
        -11   -1    0    0    0    0  0.00000000000E+00  0.00000000000E+00  0.45593999997E+02  0.45594000000E+02  0.51100000000E-03 0. -1.
         11   -1    0    0    0    0 -0.00000000000E+00 -0.00000000000E+00 -0.45593999997E+02  0.45594000000E+02  0.51100000000E-03 0.  1.
         23    2    1    2    0    0  0.33306690739E-15 -0.44408920985E-15 -0.71054273576E-14  0.91188000000E+02  0.91188000000E+02 0.  0.
    9900012    2    3    3    0    0 -0.32422893752E+00  0.37144016181E+01 -0.36631656911E+02  0.54367079427E+02  0.39999989169E+02 0.  0.
         12    1    3    3    0    0  0.32422893752E+00 -0.37144016181E+01  0.36631656911E+02  0.36820920573E+02  0.00000000000E+00 0. -1.
         11    1    4    4    0    0 -0.53042249625E+01  0.10720183346E+01  0.48921032742E+01  0.72949777566E+01  0.51100000000E-03 0. -1.
        -11    1    4    4    0    0 -0.19583097156E-01  0.11690345685E+02 -0.24688355280E+02  0.27316285480E+02  0.51100000000E-03 0.  1.
        -12    1    4    4    0    0  0.49995791222E+01 -0.90479624012E+01 -0.16835404905E+02  0.19755816190E+02  0.00000000000E+00 0.  1.
</event>
<event>
 8    1  0.1280925E-006  0.9118800E+02  0.7816164E-02  0.1184000E+00
        -11   -1    0    0    0    0  0.00000000000E+00  0.00000000000E+00  0.45593999997E+02  0.45594000000E+02  0.51100000000E-03 0. -1.
         11   -1    0    0    0    0 -0.00000000000E+00 -0.00000000000E+00 -0.45593999997E+02  0.45594000000E+02  0.51100000000E-03 0.  1.
         23    2    1    2    0    0  0.17763568394E-14  0.88817841970E-15  0.00000000000E+00  0.91188000000E+02  0.91188000000E+02 0.  0.
    9900012    2    3    3    0    0 -0.61773481795E+01 -0.76675157331E+01  0.35479899567E+02  0.54367167563E+02  0.40000190094E+02 0.  0.
        -12    1    3    3    0    0  0.61773481795E+01  0.76675157331E+01 -0.35479899567E+02  0.36820832437E+02  0.00000000000E+00 0.  1.
         11    1    4    4    0    0 -0.18084795733E+02  0.49369161118E+01  0.15452976237E+02  0.24294597182E+02  0.51100000000E-03 0. -1.
        -11    1    4    4    0    0  0.11886988714E+02 -0.15161902622E+02  0.19592892893E+02  0.27478450538E+02  0.51100000000E-03 0.  1.
        -12    1    4    4    0    0  0.20458839566E-01  0.25574707775E+01  0.43403043734E+00  0.25941198435E+01  0.00000000000E+00 0.  1.
</event>
<event>
 8    1  0.1280925E-006  0.9118800E+02  0.7816164E-02  0.1184000E+00
        -11   -1    0    0    0    0  0.00000000000E+00  0.00000000000E+00  0.45593999997E+02  0.45594000000E+02  0.51100000000E-03 0.  1.
         11   -1    0    0    0    0 -0.00000000000E+00 -0.00000000000E+00 -0.45593999997E+02  0.45594000000E+02  0.51100000000E-03 0. -1.
         23    2    1    2    0    0 -0.17763568394E-14  0.00000000000E+00  0.00000000000E+00  0.91188000000E+02  0.91188000000E+02 0.  0.
    9900012    2    3    3    0    0 -0.13401968720E+02  0.22271821783E+02 -0.26079350826E+02  0.54367090850E+02  0.40000015211E+02 0.  0.
         12    1    3    3    0    0  0.13401968720E+02 -0.22271821783E+02  0.26079350826E+02  0.36820909150E+02  0.00000000000E+00 0. -1.
         11    1    4    4    0    0  0.50978170619E+00  0.32220423483E+01 -0.25766075640E+01  0.41569629638E+01  0.51100000000E-03 0. -1.
        -11    1    4    4    0    0  0.98867046185E+01  0.13735629823E+02 -0.18944971464E+02  0.25403275358E+02  0.51100000000E-03 0.  1.
        -12    1    4    4    0    0 -0.23798455045E+02  0.53141496117E+01 -0.45577717979E+01  0.24806852529E+02  0.00000000000E+00 0.  1.
</event>
<event>
 8    1  0.1280925E-006  0.9118800E+02  0.7816164E-02  0.1184000E+00
        -11   -1    0    0    0    0  0.00000000000E+00  0.00000000000E+00  0.45593999997E+02  0.45594000000E+02  0.51100000000E-03 0. -1.
         11   -1    0    0    0    0 -0.00000000000E+00 -0.00000000000E+00 -0.45593999997E+02  0.45594000000E+02  0.51100000000E-03 0.  1.
         23    2    1    2    0    0  0.00000000000E+00  0.00000000000E+00  0.17763568394E-14  0.91188000000E+02  0.91188000000E+02 0.  0.
    9900012    2    3    3    0    0  0.24968470632E+02  0.25038699731E+02 -0.10267232149E+02  0.54367121874E+02  0.40000085937E+02 0.  0.
         12    1    3    3    0    0 -0.24968470632E+02 -0.25038699731E+02  0.10267232149E+02  0.36820878126E+02  0.00000000000E+00 0. -1.
         11    1    4    4    0    0 -0.21862738752E+01  0.95101797920E+01 -0.16759415733E+02  0.19393332079E+02  0.51100000000E-03 0.  1.
        -11    1    4    4    0    0  0.20653613842E+02  0.16283263381E+02  0.92388253225E+01  0.27876017016E+02  0.51100000000E-03 0. -1.
         12    1    4    4    0    0  0.65011306656E+01 -0.75474344217E+00 -0.27466417382E+01  0.70977727797E+01  0.00000000000E+00 0. -1.
</event>
<event>
 8    1  0.1280925E-006  0.9118800E+02  0.7816164E-02  0.1184000E+00
        -11   -1    0    0    0    0  0.00000000000E+00  0.00000000000E+00  0.45593999997E+02  0.45594000000E+02  0.51100000000E-03 0. -1.
         11   -1    0    0    0    0 -0.00000000000E+00 -0.00000000000E+00 -0.45593999997E+02  0.45594000000E+02  0.51100000000E-03 0.  1.
         23    2    1    2    0    0  0.00000000000E+00  0.00000000000E+00  0.17763568394E-14  0.91188000000E+02  0.91188000000E+02 0.  0.
    9900012    2    3    3    0    0 -0.14161533647E+02  0.30606107253E+02  0.14781643789E+02  0.54367084347E+02  0.40000000386E+02 0.  0.
        -12    1    3    3    0    0  0.14161533647E+02 -0.30606107253E+02 -0.14781643789E+02  0.36820915653E+02  0.00000000000E+00 0.  1.
         11    1    4    4    0    0 -0.13034714641E+02  0.17371952745E+02  0.17432417748E+02  0.27849195981E+02  0.51100000000E-03 0. -1.
        -11    1    4    4    0    0 -0.16586274132E-01  0.19047662744E+01  0.96043317261E+01  0.97914042829E+01  0.51100000000E-03 0.  1.
         12    1    4    4    0    0 -0.11102327320E+01  0.11329388233E+02 -0.12255105685E+02  0.16726484084E+02  0.00000000000E+00 0. -1.
</event>
<event>
 8    1  0.1280925E-006  0.9118800E+02  0.7816164E-02  0.1184000E+00
        -11   -1    0    0    0    0  0.00000000000E+00  0.00000000000E+00  0.45593999997E+02  0.45594000000E+02  0.51100000000E-03 0. -1.
         11   -1    0    0    0    0 -0.00000000000E+00 -0.00000000000E+00 -0.45593999997E+02  0.45594000000E+02  0.51100000000E-03 0.  1.
         23    2    1    2    0    0 -0.35527136788E-14 -0.17763568394E-14  0.35527136788E-14  0.91188000000E+02  0.91188000000E+02 0.  0.
    9900012    2    3    3    0    0  0.22427767743E+02  0.13266070106E+02 -0.26015120298E+02  0.54367083850E+02  0.39999999253E+02 0.  0.
         12    1    3    3    0    0 -0.22427767743E+02 -0.13266070106E+02  0.26015120298E+02  0.36820916150E+02  0.00000000000E+00 0. -1.
         11    1    4    4    0    0 -0.28422558101E+01  0.49053598468E+01  0.76123925088E+01  0.94915485189E+01  0.51100000000E-03 0. -1.
        -11    1    4    4    0    0  0.73693247482E+01  0.23102715028E+01 -0.19092490958E+01  0.79554719554E+01  0.51100000000E-03 0.  1.
        -12    1    4    4    0    0  0.17900698805E+02  0.60504387563E+01 -0.31718263711E+02  0.36920063376E+02  0.00000000000E+00 0.  1.
</event>
<event>
 8    1  0.1280925E-006  0.9118800E+02  0.7816164E-02  0.1184000E+00
        -11   -1    0    0    0    0  0.00000000000E+00  0.00000000000E+00  0.45593999997E+02  0.45594000000E+02  0.51100000000E-03 0. -1.
         11   -1    0    0    0    0 -0.00000000000E+00 -0.00000000000E+00 -0.45593999997E+02  0.45594000000E+02  0.51100000000E-03 0.  1.
         23    2    1    2    0    0  0.00000000000E+00  0.00000000000E+00  0.00000000000E+00  0.91188000000E+02  0.91188000000E+02 0.  0.
    9900012    2    3    3    0    0 -0.60359233299E+01 -0.34193327085E+02 -0.12254131416E+02  0.54367085776E+02  0.40000003643E+02 0.  0.
         12    1    3    3    0    0  0.60359233299E+01  0.34193327085E+02  0.12254131416E+02  0.36820914224E+02  0.00000000000E+00 0. -1.
         11    1    4    4    0    0  0.42175581918E+01 -0.64057732017E+00 -0.98392536268E+01  0.10724227180E+02  0.51100000000E-03 0. -1.
        -11    1    4    4    0    0 -0.15235712803E+02 -0.27885100547E+02 -0.96293503743E+01  0.33202863822E+02  0.51100000000E-03 0.  1.
         12    1    4    4    0    0  0.49822312809E+01 -0.56676492176E+01  0.72144725854E+01  0.10439994774E+02  0.00000000000E+00 0. -1.
</event>
<event>
 8    1  0.1280925E-006  0.9118800E+02  0.7816164E-02  0.1184000E+00
        -11   -1    0    0    0    0  0.00000000000E+00  0.00000000000E+00  0.45593999997E+02  0.45594000000E+02  0.51100000000E-03 0.  1.
         11   -1    0    0    0    0 -0.00000000000E+00 -0.00000000000E+00 -0.45593999997E+02  0.45594000000E+02  0.51100000000E-03 0. -1.
         23    2    1    2    0    0 -0.17763568394E-14 -0.35527136788E-14 -0.35527136788E-14  0.91188000000E+02  0.91188000000E+02 0.  0.
    9900012    2    3    3    0    0 -0.12812245286E+02  0.27960111506E+02 -0.20244925447E+02  0.54367102794E+02  0.40000042439E+02 0.  0.
         12    1    3    3    0    0  0.12812245286E+02 -0.27960111506E+02  0.20244925447E+02  0.36820897206E+02  0.00000000000E+00 0. -1.
         11    1    4    4    0    0 -0.23312582408E+01 -0.37539238868E+01 -0.53058659421E+01  0.69049926278E+01  0.51100000000E-03 0. -1.
        -11    1    4    4    0    0 -0.49081211314E+01  0.19726228712E+02  0.72931551992E+01  0.21596385468E+02  0.51100000000E-03 0.  1.
         12    1    4    4    0    0 -0.55728659134E+01  0.11987806681E+02 -0.22232214705E+02  0.25865724698E+02  0.00000000000E+00 0. -1.
</event>
<event>
 8    1  0.1280925E-006  0.9118800E+02  0.7816164E-02  0.1184000E+00
        -11   -1    0    0    0    0  0.00000000000E+00  0.00000000000E+00  0.45593999997E+02  0.45594000000E+02  0.51100000000E-03 0.  1.
         11   -1    0    0    0    0 -0.00000000000E+00 -0.00000000000E+00 -0.45593999997E+02  0.45594000000E+02  0.51100000000E-03 0. -1.
         23    2    1    2    0    0 -0.35527136788E-14 -0.88817841970E-15  0.00000000000E+00  0.91188000000E+02  0.91188000000E+02 0.  0.
    9900012    2    3    3    0    0  0.18154616964E+02  0.64602244489E+01  0.31376033096E+02  0.54367081084E+02  0.39999992946E+02 0.  0.
         12    1    3    3    0    0 -0.18154616964E+02 -0.64602244489E+01 -0.31376033096E+02  0.36820918916E+02  0.00000000000E+00 0. -1.
         11    1    4    4    0    0  0.63843832284E+01  0.10395702016E+02  0.26105496628E+02  0.28815411225E+02  0.51100000000E-03 0. -1.
        -11    1    4    4    0    0 -0.39734970349E+01  0.53320780413E+00  0.80109810162E+01  0.89581698104E+01  0.51100000000E-03 0.  1.
        -12    1    4    4    0    0  0.15743730770E+02 -0.44686853711E+01 -0.27404445489E+01  0.16593500048E+02  0.00000000000E+00 0.  1.
</event>
<event>
 8    1  0.1280925E-006  0.9118800E+02  0.7816164E-02  0.1184000E+00
        -11   -1    0    0    0    0  0.00000000000E+00  0.00000000000E+00  0.45593999997E+02  0.45594000000E+02  0.51100000000E-03 0. -1.
         11   -1    0    0    0    0 -0.00000000000E+00 -0.00000000000E+00 -0.45593999997E+02  0.45594000000E+02  0.51100000000E-03 0.  1.
         23    2    1    2    0    0  0.35527136788E-14 -0.35527136788E-14  0.00000000000E+00  0.91188000000E+02  0.91188000000E+02 0.  0.
    9900012    2    3    3    0    0  0.25288576932E+02 -0.25221611854E+02 -0.89519642948E+01  0.54367088923E+02  0.40000010818E+02 0.  0.
         12    1    3    3    0    0 -0.25288576932E+02  0.25221611854E+02  0.89519642948E+01  0.36820911077E+02  0.00000000000E+00 0. -1.
         11    1    4    4    0    0  0.31995813564E+02 -0.19643825243E+02  0.32284596752E+01  0.37683350541E+02  0.51100000000E-03 0. -1.
        -11    1    4    4    0    0 -0.49846936658E+01 -0.53122526421E+01 -0.12886699782E+02  0.14803183124E+02  0.51100000000E-03 0.  1.
        -12    1    4    4    0    0 -0.17225429661E+01 -0.26553396875E+00  0.70627581183E+00  0.18805552587E+01  0.00000000000E+00 0.  1.
</event>
<event>
 8    1  0.1280925E-006  0.9118800E+02  0.7816164E-02  0.1184000E+00
        -11   -1    0    0    0    0  0.00000000000E+00  0.00000000000E+00  0.45593999997E+02  0.45594000000E+02  0.51100000000E-03 0. -1.
         11   -1    0    0    0    0 -0.00000000000E+00 -0.00000000000E+00 -0.45593999997E+02  0.45594000000E+02  0.51100000000E-03 0.  1.
         23    2    1    2    0    0  0.00000000000E+00  0.00000000000E+00  0.00000000000E+00  0.91188000000E+02  0.91188000000E+02 0.  0.
    9900012    2    3    3    0    0 -0.17405355127E+02  0.23945505312E+02  0.21896419641E+02  0.54366989628E+02  0.39999784453E+02 0.  0.
        -12    1    3    3    0    0  0.17405355127E+02 -0.23945505312E+02 -0.21896419641E+02  0.36821010372E+02  0.00000000000E+00 0.  1.
         11    1    4    4    0    0 -0.38870219582E+01  0.62099343256E+01 -0.72930762318E+01  0.10337368389E+02  0.51100000000E-03 0. -1.
        -11    1    4    4    0    0 -0.22750895250E+00  0.55787818412E+01  0.24894011192E+02  0.25512474609E+02  0.51100000000E-03 0.  1.
        -12    1    4    4    0    0 -0.13290824216E+02  0.12156789145E+02  0.42954846811E+01  0.18517146630E+02  0.00000000000E+00 0.  1.
</event>
<event>
 8    1  0.1280925E-006  0.9118800E+02  0.7816164E-02  0.1184000E+00
        -11   -1    0    0    0    0  0.00000000000E+00  0.00000000000E+00  0.45593999997E+02  0.45594000000E+02  0.51100000000E-03 0. -1.
         11   -1    0    0    0    0 -0.00000000000E+00 -0.00000000000E+00 -0.45593999997E+02  0.45594000000E+02  0.51100000000E-03 0.  1.
         23    2    1    2    0    0  0.17763568394E-14  0.00000000000E+00  0.00000000000E+00  0.91188000000E+02  0.91188000000E+02 0.  0.
    9900012    2    3    3    0    0  0.15581797611E+02  0.66843903344E+01  0.32684955023E+02  0.54367085077E+02  0.40000002049E+02 0.  0.
        -12    1    3    3    0    0 -0.15581797611E+02 -0.66843903344E+01 -0.32684955023E+02  0.36820914923E+02  0.00000000000E+00 0.  1.
         11    1    4    4    0    0  0.20859874424E+01  0.78266982935E+01  0.19933255233E+02  0.21516115222E+02  0.51100000000E-03 0. -1.
        -11    1    4    4    0    0  0.13685555916E+02 -0.10810136825E+02  0.14908370747E+02  0.22943692325E+02  0.51100000000E-03 0.  1.
         12    1    4    4    0    0 -0.18974574733E+00  0.96678288663E+01 -0.21566709569E+01  0.99072775299E+01  0.00000000000E+00 0. -1.
</event>
<event>
 8    1  0.1280925E-006  0.9118800E+02  0.7816164E-02  0.1184000E+00
        -11   -1    0    0    0    0  0.00000000000E+00  0.00000000000E+00  0.45593999997E+02  0.45594000000E+02  0.51100000000E-03 0.  1.
         11   -1    0    0    0    0 -0.00000000000E+00 -0.00000000000E+00 -0.45593999997E+02  0.45594000000E+02  0.51100000000E-03 0. -1.
         23    2    1    2    0    0  0.88817841970E-15  0.00000000000E+00 -0.35527136788E-14  0.91188000000E+02  0.91188000000E+02 0.  0.
    9900012    2    3    3    0    0 -0.33513357260E+01 -0.22826164339E+02  0.28696949325E+02  0.54367080265E+02  0.39999991081E+02 0.  0.
         12    1    3    3    0    0  0.33513357260E+01  0.22826164339E+02 -0.28696949325E+02  0.36820919735E+02  0.00000000000E+00 0. -1.
         11    1    4    4    0    0 -0.90585194124E+01 -0.72669288445E+00 -0.58805710930E+00  0.91066276919E+01  0.51100000000E-03 0. -1.
        -11    1    4    4    0    0  0.30633339803E+01 -0.18208121188E+02  0.31811432416E+01  0.18736044536E+02  0.51100000000E-03 0.  1.
        -12    1    4    4    0    0  0.26438497061E+01 -0.38913502663E+01  0.26103863192E+02  0.26524408037E+02  0.00000000000E+00 0.  1.
</event>
<event>
 8    1  0.1280925E-006  0.9118800E+02  0.7816164E-02  0.1184000E+00
        -11   -1    0    0    0    0  0.00000000000E+00  0.00000000000E+00  0.45593999997E+02  0.45594000000E+02  0.51100000000E-03 0.  1.
         11   -1    0    0    0    0 -0.00000000000E+00 -0.00000000000E+00 -0.45593999997E+02  0.45594000000E+02  0.51100000000E-03 0. -1.
         23    2    1    2    0    0  0.00000000000E+00  0.00000000000E+00  0.00000000000E+00  0.91188000000E+02  0.91188000000E+02 0.  0.
    9900012    2    3    3    0    0  0.27408134666E+02  0.15925231305E+02  0.18733860473E+02  0.54367131376E+02  0.40000107598E+02 0.  0.
         12    1    3    3    0    0 -0.27408134666E+02 -0.15925231305E+02 -0.18733860473E+02  0.36820868624E+02  0.00000000000E+00 0. -1.
         11    1    4    4    0    0 -0.28154127279E+01 -0.32589013598E+01 -0.11387128251E+01  0.44546216518E+01  0.51100000000E-03 0. -1.
        -11    1    4    4    0    0  0.15048403587E+02 -0.53098600943E+01  0.21946628677E+01  0.16107936246E+02  0.51100000000E-03 0.  1.
        -12    1    4    4    0    0  0.15175143807E+02  0.24493992759E+02  0.17677910431E+02  0.33804573478E+02  0.00000000000E+00 0.  1.
</event>
<event>
 8    1  0.1280925E-006  0.9118800E+02  0.7816164E-02  0.1184000E+00
        -11   -1    0    0    0    0  0.00000000000E+00  0.00000000000E+00  0.45593999997E+02  0.45594000000E+02  0.51100000000E-03 0. -1.
         11   -1    0    0    0    0 -0.00000000000E+00 -0.00000000000E+00 -0.45593999997E+02  0.45594000000E+02  0.51100000000E-03 0.  1.
         23    2    1    2    0    0  0.17763568394E-14  0.35527136788E-14  0.35527136788E-14  0.91188000000E+02  0.91188000000E+02 0.  0.
    9900012    2    3    3    0    0  0.11486890965E+02  0.17679662399E+02  0.30187113394E+02  0.54367069245E+02  0.39999965958E+02 0.  0.
        -12    1    3    3    0    0 -0.11486890965E+02 -0.17679662399E+02 -0.30187113394E+02  0.36820930755E+02  0.00000000000E+00 0.  1.
         11    1    4    4    0    0  0.21478008075E+02  0.36739354204E+01  0.14866317967E+02  0.26378211510E+02  0.51100000000E-03 0. -1.
        -11    1    4    4    0    0 -0.26990405814E+01  0.52618323754E+01  0.15512749182E+02  0.16601719412E+02  0.51100000000E-03 0.  1.
        -12    1    4    4    0    0 -0.72920765287E+01  0.87438946033E+01 -0.19195375455E+00  0.11387138323E+02  0.00000000000E+00 0.  1.
</event>
<event>
 8    1  0.1280925E-006  0.9118800E+02  0.7816164E-02  0.1184000E+00
        -11   -1    0    0    0    0  0.00000000000E+00  0.00000000000E+00  0.45593999997E+02  0.45594000000E+02  0.51100000000E-03 0.  1.
         11   -1    0    0    0    0 -0.00000000000E+00 -0.00000000000E+00 -0.45593999997E+02  0.45594000000E+02  0.51100000000E-03 0. -1.
         23    2    1    2    0    0  0.00000000000E+00  0.35527136788E-14  0.00000000000E+00  0.91188000000E+02  0.91188000000E+02 0.  0.
    9900012    2    3    3    0    0  0.10364015528E+02  0.26749452920E+02 -0.23083211329E+02  0.54367072599E+02  0.39999973605E+02 0.  0.
        -12    1    3    3    0    0 -0.10364015528E+02 -0.26749452920E+02  0.23083211329E+02  0.36820927401E+02  0.00000000000E+00 0.  1.
         11    1    4    4    0    0  0.24001186795E+01  0.23806621846E+02 -0.12073241666E+02  0.26800727191E+02  0.51100000000E-03 0. -1.
        -11    1    4    4    0    0  0.50335336189E+01 -0.47739509739E+01  0.56673753017E+01  0.89580249869E+01  0.51100000000E-03 0.  1.
         12    1    4    4    0    0  0.29303632293E+01  0.77167820480E+01 -0.16677344965E+02  0.18608320422E+02  0.00000000000E+00 0. -1.
</event>
<event>
 8    1  0.1280925E-006  0.9118800E+02  0.7816164E-02  0.1184000E+00
        -11   -1    0    0    0    0  0.00000000000E+00  0.00000000000E+00  0.45593999997E+02  0.45594000000E+02  0.51100000000E-03 0.  1.
         11   -1    0    0    0    0 -0.00000000000E+00 -0.00000000000E+00 -0.45593999997E+02  0.45594000000E+02  0.51100000000E-03 0. -1.
         23    2    1    2    0    0 -0.88817841970E-15  0.00000000000E+00  0.35527136788E-14  0.91188000000E+02  0.91188000000E+02 0.  0.
    9900012    2    3    3    0    0  0.37703235276E+01 -0.32551358300E+02  0.16792071258E+02  0.54367083066E+02  0.39999997466E+02 0.  0.
         12    1    3    3    0    0 -0.37703235276E+01  0.32551358300E+02 -0.16792071258E+02  0.36820916934E+02  0.00000000000E+00 0. -1.
         11    1    4    4    0    0  0.16959196947E+02 -0.12964417204E+02 -0.31498138132E+01  0.21578039805E+02  0.51100000000E-03 0. -1.
        -11    1    4    4    0    0 -0.53052105331E+01 -0.10375456049E+02  0.16472965655E+02  0.20178056020E+02  0.51100000000E-03 0.  1.
        -12    1    4    4    0    0 -0.78836628859E+01 -0.92114850472E+01  0.34689194167E+01  0.12610987241E+02  0.00000000000E+00 0.  1.
</event>
<event>
 8    1  0.1280925E-006  0.9118800E+02  0.7816164E-02  0.1184000E+00
        -11   -1    0    0    0    0  0.00000000000E+00  0.00000000000E+00  0.45593999997E+02  0.45594000000E+02  0.51100000000E-03 0. -1.
         11   -1    0    0    0    0 -0.00000000000E+00 -0.00000000000E+00 -0.45593999997E+02  0.45594000000E+02  0.51100000000E-03 0.  1.
         23    2    1    2    0    0  0.00000000000E+00  0.88817841970E-15  0.00000000000E+00  0.91188000000E+02  0.91188000000E+02 0.  0.
    9900012    2    3    3    0    0  0.24131820542E+02 -0.63517717668E+01 -0.27075745672E+02  0.54367003667E+02  0.39999816459E+02 0.  0.
         12    1    3    3    0    0 -0.24131820542E+02  0.63517717668E+01  0.27075745672E+02  0.36820996333E+02  0.00000000000E+00 0. -1.
         11    1    4    4    0    0 -0.31748232898E+01 -0.17952603521E+01 -0.26043060641E+02  0.26297214120E+02  0.51100000000E-03 0. -1.
        -11    1    4    4    0    0  0.10417334864E+01  0.52271774442E+00  0.51348259426E+00  0.12736196971E+01  0.51100000000E-03 0.  1.
         12    1    4    4    0    0  0.26264910345E+02 -0.50792291591E+01 -0.15461676256E+01  0.26796169850E+02  0.00000000000E+00 0. -1.
</event>
<event>
 8    1  0.1280925E-006  0.9118800E+02  0.7816164E-02  0.1184000E+00
        -11   -1    0    0    0    0  0.00000000000E+00  0.00000000000E+00  0.45593999997E+02  0.45594000000E+02  0.51100000000E-03 0.  1.
         11   -1    0    0    0    0 -0.00000000000E+00 -0.00000000000E+00 -0.45593999997E+02  0.45594000000E+02  0.51100000000E-03 0. -1.
         23    2    1    2    0    0 -0.35527136788E-14  0.00000000000E+00 -0.17763568394E-14  0.91188000000E+02  0.91188000000E+02 0.  0.
    9900012    2    3    3    0    0 -0.15638236682E+02 -0.32195927828E+02 -0.86399707310E+01  0.54367064250E+02  0.39999954572E+02 0.  0.
        -12    1    3    3    0    0  0.15638236682E+02  0.32195927828E+02  0.86399707310E+01  0.36820935750E+02  0.00000000000E+00 0.  1.
         11    1    4    4    0    0  0.56525847693E+01 -0.11520388300E+02 -0.18332201967E+02  0.22377235987E+02  0.51100000000E-03 0. -1.
        -11    1    4    4    0    0 -0.12514336593E+01  0.40878026240E+00 -0.38756030145E-01  0.13170762307E+01  0.51100000000E-03 0.  1.
         12    1    4    4    0    0 -0.20039387792E+02 -0.21084319790E+02  0.97309872665E+01  0.30672752033E+02  0.00000000000E+00 0. -1.
</event>
<event>
 8    1  0.1280925E-006  0.9118800E+02  0.7816164E-02  0.1184000E+00
        -11   -1    0    0    0    0  0.00000000000E+00  0.00000000000E+00  0.45593999997E+02  0.45594000000E+02  0.51100000000E-03 0.  1.
         11   -1    0    0    0    0 -0.00000000000E+00 -0.00000000000E+00 -0.45593999997E+02  0.45594000000E+02  0.51100000000E-03 0. -1.
         23    2    1    2    0    0  0.00000000000E+00 -0.35527136788E-14  0.00000000000E+00  0.91188000000E+02  0.91188000000E+02 0.  0.
    9900012    2    3    3    0    0 -0.17927592369E+02 -0.17659612720E+02  0.26879716540E+02  0.54367086773E+02  0.40000005917E+02 0.  0.
         12    1    3    3    0    0  0.17927592369E+02  0.17659612720E+02 -0.26879716540E+02  0.36820913227E+02  0.00000000000E+00 0. -1.
         11    1    4    4    0    0 -0.68767833750E+01  0.49929537834E+01  0.59134672608E+01  0.10353203967E+02  0.51100000000E-03 0. -1.
        -11    1    4    4    0    0  0.98315347850E+01 -0.11115729594E+02  0.78088655397E+01  0.16768926677E+02  0.51100000000E-03 0.  1.
         12    1    4    4    0    0 -0.20882343779E+02 -0.11536836909E+02  0.13157383740E+02  0.27244956129E+02  0.00000000000E+00 0. -1.
</event>
<event>
 8    1  0.1280925E-006  0.9118800E+02  0.7816164E-02  0.1184000E+00
        -11   -1    0    0    0    0  0.00000000000E+00  0.00000000000E+00  0.45593999997E+02  0.45594000000E+02  0.51100000000E-03 0. -1.
         11   -1    0    0    0    0 -0.00000000000E+00 -0.00000000000E+00 -0.45593999997E+02  0.45594000000E+02  0.51100000000E-03 0.  1.
         23    2    1    2    0    0  0.17763568394E-14 -0.71054273576E-14  0.49960036108E-15  0.91188000000E+02  0.91188000000E+02 0.  0.
    9900012    2    3    3    0    0  0.11985857745E+02 -0.34812194060E+02 -0.47942666882E+00  0.54367088943E+02  0.40000010864E+02 0.  0.
         12    1    3    3    0    0 -0.11985857745E+02  0.34812194060E+02  0.47942666882E+00  0.36820911057E+02  0.00000000000E+00 0. -1.
         11    1    4    4    0    0  0.11872990039E+02 -0.10375222135E+02  0.10719158003E+02  0.19066029355E+02  0.51100000000E-03 0. -1.
        -11    1    4    4    0    0 -0.31050300946E+01 -0.83441304914E+01 -0.15905720279E+02  0.18227936345E+02  0.51100000000E-03 0.  1.
         12    1    4    4    0    0  0.32178978005E+01 -0.16092841433E+02  0.47071356064E+01  0.17073123243E+02  0.00000000000E+00 0. -1.
</event>
<event>
 8    1  0.1280925E-006  0.9118800E+02  0.7816164E-02  0.1184000E+00
        -11   -1    0    0    0    0  0.00000000000E+00  0.00000000000E+00  0.45593999997E+02  0.45594000000E+02  0.51100000000E-03 0.  1.
         11   -1    0    0    0    0 -0.00000000000E+00 -0.00000000000E+00 -0.45593999997E+02  0.45594000000E+02  0.51100000000E-03 0. -1.
         23    2    1    2    0    0 -0.35527136788E-14  0.00000000000E+00  0.00000000000E+00  0.91188000000E+02  0.91188000000E+02 0.  0.
    9900012    2    3    3    0    0  0.31970699912E+02  0.67642647785E+01  0.16967579468E+02  0.54367086325E+02  0.40000004896E+02 0.  0.
        -12    1    3    3    0    0 -0.31970699912E+02 -0.67642647785E+01 -0.16967579468E+02  0.36820913675E+02  0.00000000000E+00 0.  1.
         11    1    4    4    0    0  0.31443168576E+02  0.82503258040E+01  0.21403597707E+02  0.38921134632E+02  0.51100000000E-03 0. -1.
        -11    1    4    4    0    0 -0.36143038400E+01  0.36606088163E+01 -0.67137794078E+01  0.84580188787E+01  0.51100000000E-03 0.  1.
        -12    1    4    4    0    0  0.41418351753E+01 -0.51466698417E+01  0.22777611685E+01  0.69879328145E+01  0.00000000000E+00 0.  1.
</event>
<event>
 8    1  0.1280925E-006  0.9118800E+02  0.7816164E-02  0.1184000E+00
        -11   -1    0    0    0    0  0.00000000000E+00  0.00000000000E+00  0.45593999997E+02  0.45594000000E+02  0.51100000000E-03 0. -1.
         11   -1    0    0    0    0 -0.00000000000E+00 -0.00000000000E+00 -0.45593999997E+02  0.45594000000E+02  0.51100000000E-03 0.  1.
         23    2    1    2    0    0  0.00000000000E+00 -0.35527136788E-14  0.00000000000E+00  0.91188000000E+02  0.91188000000E+02 0.  0.
    9900012    2    3    3    0    0 -0.94629274141E+01  0.30863634987E+02 -0.17710676081E+02  0.54367095514E+02  0.40000025844E+02 0.  0.
         12    1    3    3    0    0  0.94629274141E+01 -0.30863634987E+02  0.17710676081E+02  0.36820904486E+02  0.00000000000E+00 0. -1.
         11    1    4    4    0    0 -0.60907482823E+01 -0.84353996216E+01 -0.19008526604E+01  0.10576692418E+02  0.51100000000E-03 0. -1.
        -11    1    4    4    0    0 -0.55215871479E+01  0.11333411016E+02 -0.68399703064E+01  0.14342918948E+02  0.51100000000E-03 0.  1.
         12    1    4    4    0    0  0.21494080161E+01  0.27965623593E+02 -0.89698531147E+01  0.29447484148E+02  0.00000000000E+00 0. -1.
</event>
<event>
 8    1  0.1280925E-006  0.9118800E+02  0.7816164E-02  0.1184000E+00
        -11   -1    0    0    0    0  0.00000000000E+00  0.00000000000E+00  0.45593999997E+02  0.45594000000E+02  0.51100000000E-03 0.  1.
         11   -1    0    0    0    0 -0.00000000000E+00 -0.00000000000E+00 -0.45593999997E+02  0.45594000000E+02  0.51100000000E-03 0. -1.
         23    2    1    2    0    0  0.00000000000E+00  0.00000000000E+00  0.19984014443E-14  0.91188000000E+02  0.91188000000E+02 0.  0.
    9900012    2    3    3    0    0 -0.17220012929E+02  0.32527208229E+02 -0.11095000419E+01  0.54367094107E+02  0.40000022636E+02 0.  0.
        -12    1    3    3    0    0  0.17220012929E+02 -0.32527208229E+02  0.11095000419E+01  0.36820905893E+02  0.00000000000E+00 0.  1.
         11    1    4    4    0    0  0.42054408764E+01  0.42202620130E+01  0.83700472678E+01  0.10273949384E+02  0.51100000000E-03 0. -1.
        -11    1    4    4    0    0 -0.97674828235E+01  0.60371034121E+01  0.75397548288E+01  0.13736747849E+02  0.51100000000E-03 0.  1.
         12    1    4    4    0    0 -0.11657970982E+02  0.22269842804E+02 -0.17019302138E+02  0.30356396874E+02  0.00000000000E+00 0. -1.
</event>
<event>
 8    1  0.1280925E-006  0.9118800E+02  0.7816164E-02  0.1184000E+00
        -11   -1    0    0    0    0  0.00000000000E+00  0.00000000000E+00  0.45593999997E+02  0.45594000000E+02  0.51100000000E-03 0.  1.
         11   -1    0    0    0    0 -0.00000000000E+00 -0.00000000000E+00 -0.45593999997E+02  0.45594000000E+02  0.51100000000E-03 0. -1.
         23    2    1    2    0    0  0.00000000000E+00 -0.35527136788E-14 -0.17763568394E-14  0.91188000000E+02  0.91188000000E+02 0.  0.
    9900012    2    3    3    0    0 -0.31203109127E+02  0.18109053347E+02 -0.73625498240E+01  0.54367095989E+02  0.40000026926E+02 0.  0.
        -12    1    3    3    0    0  0.31203109127E+02 -0.18109053347E+02  0.73625498240E+01  0.36820904011E+02  0.00000000000E+00 0.  1.
         11    1    4    4    0    0 -0.29681453094E+02  0.14965383443E+02 -0.17211771452E+02  0.37432558504E+02  0.51100000000E-03 0. -1.
        -11    1    4    4    0    0  0.22516127685E+01 -0.19162610013E+01 -0.19579079588E+01  0.35461556820E+01  0.51100000000E-03 0.  1.
        -12    1    4    4    0    0 -0.37732688008E+01  0.50599309048E+01  0.11807129587E+02  0.13388381802E+02  0.00000000000E+00 0.  1.
</event>
<event>
 8    1  0.1280925E-006  0.9118800E+02  0.7816164E-02  0.1184000E+00
        -11   -1    0    0    0    0  0.00000000000E+00  0.00000000000E+00  0.45593999997E+02  0.45594000000E+02  0.51100000000E-03 0. -1.
         11   -1    0    0    0    0 -0.00000000000E+00 -0.00000000000E+00 -0.45593999997E+02  0.45594000000E+02  0.51100000000E-03 0.  1.
         23    2    1    2    0    0  0.00000000000E+00  0.00000000000E+00  0.35527136788E-14  0.91188000000E+02  0.91188000000E+02 0.  0.
    9900012    2    3    3    0    0  0.24903041330E+02 -0.96888097122E+01  0.25332674145E+02  0.54367097234E+02  0.40000029765E+02 0.  0.
        -12    1    3    3    0    0 -0.24903041330E+02  0.96888097122E+01 -0.25332674145E+02  0.36820902766E+02  0.00000000000E+00 0.  1.
         11    1    4    4    0    0  0.16896706565E+02 -0.77055459060E+01  0.56233762029E+01  0.19403517481E+02  0.51100000000E-03 0. -1.
        -11    1    4    4    0    0  0.74321685274E+01  0.11817537094E+01 -0.56441334198E+01  0.94069077369E+01  0.51100000000E-03 0.  1.
         12    1    4    4    0    0  0.57416623763E+00 -0.31650175156E+01  0.25353431362E+02  0.25556672016E+02  0.00000000000E+00 0. -1.
</event>
<event>
 8    1  0.1280925E-006  0.9118800E+02  0.7816164E-02  0.1184000E+00
        -11   -1    0    0    0    0  0.00000000000E+00  0.00000000000E+00  0.45593999997E+02  0.45594000000E+02  0.51100000000E-03 0. -1.
         11   -1    0    0    0    0 -0.00000000000E+00 -0.00000000000E+00 -0.45593999997E+02  0.45594000000E+02  0.51100000000E-03 0.  1.
         23    2    1    2    0    0  0.00000000000E+00 -0.35527136788E-14  0.35527136788E-14  0.91188000000E+02  0.91188000000E+02 0.  0.
    9900012    2    3    3    0    0  0.22375034279E+02  0.22724989671E+02 -0.18404182965E+02  0.54367064853E+02  0.39999955945E+02 0.  0.
         12    1    3    3    0    0 -0.22375034279E+02 -0.22724989671E+02  0.18404182965E+02  0.36820935147E+02  0.00000000000E+00 0. -1.
         11    1    4    4    0    0  0.63110570880E+01  0.12605398314E+02  0.47837593078E+01  0.14886566481E+02  0.51100000000E-03 0. -1.
        -11    1    4    4    0    0  0.96242191395E+01  0.17860166396E+02 -0.92790230540E+01  0.22309446583E+02  0.51100000000E-03 0.  1.
         12    1    4    4    0    0  0.64397580511E+01 -0.77405750392E+01 -0.13908919219E+02  0.17171051789E+02  0.00000000000E+00 0. -1.
</event>
<event>
 8    1  0.1280925E-006  0.9118800E+02  0.7816164E-02  0.1184000E+00
        -11   -1    0    0    0    0  0.00000000000E+00  0.00000000000E+00  0.45593999997E+02  0.45594000000E+02  0.51100000000E-03 0. -1.
         11   -1    0    0    0    0 -0.00000000000E+00 -0.00000000000E+00 -0.45593999997E+02  0.45594000000E+02  0.51100000000E-03 0.  1.
         23    2    1    2    0    0 -0.71054273576E-14  0.35527136788E-14  0.00000000000E+00  0.91188000000E+02  0.91188000000E+02 0.  0.
    9900012    2    3    3    0    0  0.33178165693E+02 -0.15869657469E+02 -0.17726261548E+01  0.54367096828E+02  0.40000028838E+02 0.  0.
         12    1    3    3    0    0 -0.33178165693E+02  0.15869657469E+02  0.17726261548E+01  0.36820903172E+02  0.00000000000E+00 0. -1.
         11    1    4    4    0    0  0.44248614531E+01  0.43439664271E+00 -0.58637518081E+01  0.73587828376E+01  0.51100000000E-03 0. -1.
        -11    1    4    4    0    0  0.32711174885E+02 -0.22306013936E+02  0.26927698111E+01  0.39684130702E+02  0.51100000000E-03 0.  1.
         12    1    4    4    0    0 -0.39578706446E+01  0.60019598245E+01  0.13983558422E+01  0.73241832880E+01  0.00000000000E+00 0. -1.
</event>
<event>
 8    1  0.1280925E-006  0.9118800E+02  0.7816164E-02  0.1184000E+00
        -11   -1    0    0    0    0  0.00000000000E+00  0.00000000000E+00  0.45593999997E+02  0.45594000000E+02  0.51100000000E-03 0. -1.
         11   -1    0    0    0    0 -0.00000000000E+00 -0.00000000000E+00 -0.45593999997E+02  0.45594000000E+02  0.51100000000E-03 0.  1.
         23    2    1    2    0    0  0.00000000000E+00  0.00000000000E+00  0.00000000000E+00  0.91188000000E+02  0.91188000000E+02 0.  0.
    9900012    2    3    3    0    0 -0.11751557121E+02 -0.22319755655E+02  0.26823637185E+02  0.54367107844E+02  0.40000053953E+02 0.  0.
        -12    1    3    3    0    0  0.11751557121E+02  0.22319755655E+02 -0.26823637185E+02  0.36820892156E+02  0.00000000000E+00 0.  1.
         11    1    4    4    0    0 -0.74063966760E+01 -0.14438721853E+02 -0.14139499722E+01  0.16288973425E+02  0.51100000000E-03 0. -1.
        -11    1    4    4    0    0  0.33990960563E+01 -0.84765564588E+01  0.36110904775E+00  0.91398174711E+01  0.51100000000E-03 0.  1.
         12    1    4    4    0    0 -0.77442565015E+01  0.59552265606E+00  0.27876478110E+02  0.28938316948E+02  0.00000000000E+00 0. -1.
</event>
<event>
 8    1  0.1280925E-006  0.9118800E+02  0.7816164E-02  0.1184000E+00
        -11   -1    0    0    0    0  0.00000000000E+00  0.00000000000E+00  0.45593999997E+02  0.45594000000E+02  0.51100000000E-03 0. -1.
         11   -1    0    0    0    0 -0.00000000000E+00 -0.00000000000E+00 -0.45593999997E+02  0.45594000000E+02  0.51100000000E-03 0.  1.
         23    2    1    2    0    0  0.00000000000E+00  0.22204460493E-15  0.00000000000E+00  0.91188000000E+02  0.91188000000E+02 0.  0.
    9900012    2    3    3    0    0 -0.23352165625E+02 -0.15141420106E+01  0.28428199230E+02  0.54367098642E+02  0.40000032974E+02 0.  0.
        -12    1    3    3    0    0  0.23352165625E+02  0.15141420106E+01 -0.28428199230E+02  0.36820901358E+02  0.00000000000E+00 0.  1.
         11    1    4    4    0    0 -0.16824061918E+01  0.10398710423E+02  0.24349998987E+02  0.26530852229E+02  0.51100000000E-03 0. -1.
        -11    1    4    4    0    0 -0.25478936122E+01  0.24524013824E+01 -0.19103137466E+00  0.35415431166E+01  0.51100000000E-03 0.  1.
        -12    1    4    4    0    0 -0.19121865821E+02 -0.14365253816E+02  0.42692316167E+01  0.24294703296E+02  0.00000000000E+00 0.  1.
</event>
<event>
 8    1  0.1280925E-006  0.9118800E+02  0.7816164E-02  0.1184000E+00
        -11   -1    0    0    0    0  0.00000000000E+00  0.00000000000E+00  0.45593999997E+02  0.45594000000E+02  0.51100000000E-03 0.  1.
         11   -1    0    0    0    0 -0.00000000000E+00 -0.00000000000E+00 -0.45593999997E+02  0.45594000000E+02  0.51100000000E-03 0. -1.
         23    2    1    2    0    0  0.00000000000E+00 -0.35527136788E-14  0.00000000000E+00  0.91188000000E+02  0.91188000000E+02 0.  0.
    9900012    2    3    3    0    0  0.64367207621E+01 -0.26836239506E+02  0.24375509315E+02  0.54367074165E+02  0.39999977173E+02 0.  0.
         12    1    3    3    0    0 -0.64367207621E+01  0.26836239506E+02 -0.24375509315E+02  0.36820925835E+02  0.00000000000E+00 0. -1.
         11    1    4    4    0    0 -0.11117245982E+02 -0.26624509945E+02  0.17407846154E+02  0.33697044322E+02  0.51100000000E-03 0.  1.
        -11    1    4    4    0    0  0.54011630599E+01 -0.64737288448E+00 -0.17422223607E+01  0.57120042950E+01  0.51100000000E-03 0. -1.
         12    1    4    4    0    0  0.12152803684E+02  0.43564332365E+00  0.87098855221E+01  0.14958025548E+02  0.00000000000E+00 0. -1.
</event>
<event>
 8    1  0.1280925E-006  0.9118800E+02  0.7816164E-02  0.1184000E+00
        -11   -1    0    0    0    0  0.00000000000E+00  0.00000000000E+00  0.45593999997E+02  0.45594000000E+02  0.51100000000E-03 0. -1.
         11   -1    0    0    0    0 -0.00000000000E+00 -0.00000000000E+00 -0.45593999997E+02  0.45594000000E+02  0.51100000000E-03 0.  1.
         23    2    1    2    0    0  0.00000000000E+00 -0.17763568394E-14  0.00000000000E+00  0.91188000000E+02  0.91188000000E+02 0.  0.
    9900012    2    3    3    0    0  0.25810871188E+02  0.12025495769E+02 -0.23344511825E+02  0.54367084038E+02  0.39999999680E+02 0.  0.
         12    1    3    3    0    0 -0.25810871188E+02 -0.12025495769E+02  0.23344511825E+02  0.36820915962E+02  0.00000000000E+00 0. -1.
         11    1    4    4    0    0  0.15699203274E+02  0.10986979470E+02  0.40791131169E+01  0.19591270132E+02  0.51100000000E-03 0. -1.
        -11    1    4    4    0    0  0.14449296034E+02 -0.32844334564E+01 -0.15954948316E+02  0.21774527206E+02  0.51100000000E-03 0.  1.
         12    1    4    4    0    0 -0.43376281201E+01  0.43229497552E+01 -0.11468676626E+02  0.13001286699E+02  0.00000000000E+00 0. -1.
</event>
<event>
 8    1  0.1280925E-006  0.9118800E+02  0.7816164E-02  0.1184000E+00
        -11   -1    0    0    0    0  0.00000000000E+00  0.00000000000E+00  0.45593999997E+02  0.45594000000E+02  0.51100000000E-03 0. -1.
         11   -1    0    0    0    0 -0.00000000000E+00 -0.00000000000E+00 -0.45593999997E+02  0.45594000000E+02  0.51100000000E-03 0.  1.
         23    2    1    2    0    0 -0.35527136788E-14 -0.35527136788E-14 -0.35527136788E-14  0.91188000000E+02  0.91188000000E+02 0.  0.
    9900012    2    3    3    0    0 -0.21544263274E+02 -0.21664189532E+02 -0.20549649356E+02  0.54367075558E+02  0.39999980350E+02 0.  0.
         12    1    3    3    0    0  0.21544263274E+02  0.21664189532E+02  0.20549649356E+02  0.36820924442E+02  0.00000000000E+00 0. -1.
         11    1    4    4    0    0 -0.26767744835E+01 -0.25797013411E+01  0.40595479128E+01  0.55045354174E+01  0.51100000000E-03 0. -1.
        -11    1    4    4    0    0 -0.19097790703E+02 -0.22768510764E+02 -0.65510780817E+01  0.30431025557E+02  0.51100000000E-03 0.  1.
        -12    1    4    4    0    0  0.23030191307E+00  0.36840225729E+01 -0.18058119187E+02  0.18431514584E+02  0.00000000000E+00 0.  1.
</event>
<event>
 8    1  0.1280925E-006  0.9118800E+02  0.7816164E-02  0.1184000E+00
        -11   -1    0    0    0    0  0.00000000000E+00  0.00000000000E+00  0.45593999997E+02  0.45594000000E+02  0.51100000000E-03 0.  1.
         11   -1    0    0    0    0 -0.00000000000E+00 -0.00000000000E+00 -0.45593999997E+02  0.45594000000E+02  0.51100000000E-03 0. -1.
         23    2    1    2    0    0  0.00000000000E+00 -0.88817841970E-15  0.00000000000E+00  0.91188000000E+02  0.91188000000E+02 0.  0.
    9900012    2    3    3    0    0 -0.34597075584E+02  0.47384973069E+01  0.11677859116E+02  0.54367036009E+02  0.39999890189E+02 0.  0.
         12    1    3    3    0    0  0.34597075584E+02 -0.47384973069E+01 -0.11677859116E+02  0.36820963991E+02  0.00000000000E+00 0. -1.
         11    1    4    4    0    0 -0.15592602025E+02  0.14880327619E+02  0.82906930939E+01  0.23093050474E+02  0.51100000000E-03 0. -1.
        -11    1    4    4    0    0 -0.22230974325E+02 -0.41689841981E+01  0.68770545054E+01  0.23640865628E+02  0.51100000000E-03 0.  1.
         12    1    4    4    0    0  0.32265007656E+01 -0.59728461140E+01 -0.34898884828E+01  0.76331199070E+01  0.00000000000E+00 0. -1.
</event>
<event>
 8    1  0.1280925E-006  0.9118800E+02  0.7816164E-02  0.1184000E+00
        -11   -1    0    0    0    0  0.00000000000E+00  0.00000000000E+00  0.45593999997E+02  0.45594000000E+02  0.51100000000E-03 0. -1.
         11   -1    0    0    0    0 -0.00000000000E+00 -0.00000000000E+00 -0.45593999997E+02  0.45594000000E+02  0.51100000000E-03 0.  1.
         23    2    1    2    0    0 -0.88817841970E-15 -0.35527136788E-14 -0.35527136788E-14  0.91188000000E+02  0.91188000000E+02 0.  0.
    9900012    2    3    3    0    0 -0.59633211821E+01 -0.20136313769E+02 -0.30244781323E+02  0.54367093860E+02  0.40000022072E+02 0.  0.
         12    1    3    3    0    0  0.59633211821E+01  0.20136313769E+02  0.30244781323E+02  0.36820906140E+02  0.00000000000E+00 0. -1.
         11    1    4    4    0    0 -0.12390137579E+01 -0.21379419171E+02 -0.16165825310E+02  0.26831858441E+02  0.51100000000E-03 0. -1.
        -11    1    4    4    0    0  0.55231612298E+00 -0.78419811799E+01 -0.15054772003E+02  0.16983753480E+02  0.51100000000E-03 0.  1.
         12    1    4    4    0    0 -0.52766235472E+01  0.90850865820E+01  0.97581599035E+00  0.10551481939E+02  0.00000000000E+00 0. -1.
</event>
<event>
 8    1  0.1280925E-006  0.9118800E+02  0.7816164E-02  0.1184000E+00
        -11   -1    0    0    0    0  0.00000000000E+00  0.00000000000E+00  0.45593999997E+02  0.45594000000E+02  0.51100000000E-03 0. -1.
         11   -1    0    0    0    0 -0.00000000000E+00 -0.00000000000E+00 -0.45593999997E+02  0.45594000000E+02  0.51100000000E-03 0.  1.
         23    2    1    2    0    0 -0.88817841970E-15  0.44408920985E-15  0.00000000000E+00  0.91188000000E+02  0.91188000000E+02 0.  0.
    9900012    2    3    3    0    0 -0.40905989251E+01  0.38406461851E+01 -0.36390894638E+02  0.54367071505E+02  0.39999971109E+02 0.  0.
         12    1    3    3    0    0  0.40905989251E+01 -0.38406461851E+01  0.36390894638E+02  0.36820928495E+02  0.00000000000E+00 0. -1.
         11    1    4    4    0    0 -0.54177828083E+01  0.28283428254E+01  0.54762227407E+01  0.82061507092E+01  0.51100000000E-03 0. -1.
        -11    1    4    4    0    0  0.79383108552E+01  0.62195945094E+01 -0.29712190638E+02  0.31376972573E+02  0.51100000000E-03 0.  1.
        -12    1    4    4    0    0 -0.66111269720E+01 -0.52072911497E+01 -0.12154926741E+02  0.14783948223E+02  0.00000000000E+00 0.  1.
</event>
<event>
 8    1  0.1280925E-006  0.9118800E+02  0.7816164E-02  0.1184000E+00
        -11   -1    0    0    0    0  0.00000000000E+00  0.00000000000E+00  0.45593999997E+02  0.45594000000E+02  0.51100000000E-03 0.  1.
         11   -1    0    0    0    0 -0.00000000000E+00 -0.00000000000E+00 -0.45593999997E+02  0.45594000000E+02  0.51100000000E-03 0. -1.
         23    2    1    2    0    0  0.00000000000E+00 -0.17763568394E-14 -0.53290705182E-14  0.91188000000E+02  0.91188000000E+02 0.  0.
    9900012    2    3    3    0    0 -0.33065253911E+02 -0.13893918743E+02  0.83322792557E+01  0.54367097352E+02  0.40000030033E+02 0.  0.
         12    1    3    3    0    0  0.33065253911E+02  0.13893918743E+02 -0.83322792557E+01  0.36820902648E+02  0.00000000000E+00 0. -1.
         11    1    4    4    0    0 -0.12595482312E+02 -0.33074682689E+01 -0.13206972379E+02  0.18547496885E+02  0.51100000000E-03 0. -1.
        -11    1    4    4    0    0 -0.39210614343E+01 -0.10506596878E+02  0.45494289957E+01  0.12102090942E+02  0.51100000000E-03 0.  1.
         12    1    4    4    0    0 -0.16548710165E+02 -0.79853596551E-01  0.16989822639E+02  0.23717509524E+02  0.00000000000E+00 0. -1.
</event>
<event>
 8    1  0.1280925E-006  0.9118800E+02  0.7816164E-02  0.1184000E+00
        -11   -1    0    0    0    0  0.00000000000E+00  0.00000000000E+00  0.45593999997E+02  0.45594000000E+02  0.51100000000E-03 0.  1.
         11   -1    0    0    0    0 -0.00000000000E+00 -0.00000000000E+00 -0.45593999997E+02  0.45594000000E+02  0.51100000000E-03 0. -1.
         23    2    1    2    0    0  0.00000000000E+00  0.23592239273E-15  0.00000000000E+00  0.91188000000E+02  0.91188000000E+02 0.  0.
    9900012    2    3    3    0    0 -0.11332127855E+02 -0.76575212552E-01 -0.35033658992E+02  0.54367078666E+02  0.39999987435E+02 0.  0.
        -12    1    3    3    0    0  0.11332127855E+02  0.76575212552E-01  0.35033658992E+02  0.36820921334E+02  0.00000000000E+00 0.  1.
         11    1    4    4    0    0 -0.13360050747E+02  0.33173688713E+01 -0.26443583888E+02  0.29812061675E+02  0.51100000000E-03 0. -1.
        -11    1    4    4    0    0 -0.60162277645E+00 -0.14476840495E+01 -0.16197919209E+02  0.16273608267E+02  0.51100000000E-03 0.  1.
        -12    1    4    4    0    0  0.26295456682E+01 -0.19462600343E+01  0.76078441046E+01  0.82814087245E+01  0.00000000000E+00 0.  1.
</event>
<event>
 8    1  0.1280925E-006  0.9118800E+02  0.7816164E-02  0.1184000E+00
        -11   -1    0    0    0    0  0.00000000000E+00  0.00000000000E+00  0.45593999997E+02  0.45594000000E+02  0.51100000000E-03 0.  1.
         11   -1    0    0    0    0 -0.00000000000E+00 -0.00000000000E+00 -0.45593999997E+02  0.45594000000E+02  0.51100000000E-03 0. -1.
         23    2    1    2    0    0  0.00000000000E+00 -0.71054273576E-14  0.00000000000E+00  0.91188000000E+02  0.91188000000E+02 0.  0.
    9900012    2    3    3    0    0 -0.78257625739E+01 -0.34827479822E+02 -0.90323829205E+01  0.54367084044E+02  0.39999999695E+02 0.  0.
        -12    1    3    3    0    0  0.78257625739E+01  0.34827479822E+02  0.90323829205E+01  0.36820915956E+02  0.00000000000E+00 0.  1.
         11    1    4    4    0    0 -0.35634459120E+01 -0.28462328495E+02 -0.14361547828E+02  0.32078908124E+02  0.51100000000E-03 0. -1.
        -11    1    4    4    0    0 -0.12436928147E+02 -0.46396410273E+01  0.36429282520E+01  0.13764969201E+02  0.51100000000E-03 0.  1.
        -12    1    4    4    0    0  0.81746114847E+01 -0.17255102997E+01  0.16862366553E+01  0.85232067192E+01  0.00000000000E+00 0.  1.
</event>
<event>
 8    1  0.1280925E-006  0.9118800E+02  0.7816164E-02  0.1184000E+00
        -11   -1    0    0    0    0  0.00000000000E+00  0.00000000000E+00  0.45593999997E+02  0.45594000000E+02  0.51100000000E-03 0. -1.
         11   -1    0    0    0    0 -0.00000000000E+00 -0.00000000000E+00 -0.45593999997E+02  0.45594000000E+02  0.51100000000E-03 0.  1.
         23    2    1    2    0    0  0.35527136788E-14 -0.35527136788E-14  0.00000000000E+00  0.91188000000E+02  0.91188000000E+02 0.  0.
    9900012    2    3    3    0    0 -0.29388077755E+02  0.18507698300E+02 -0.12230483070E+02  0.54367099324E+02  0.40000034528E+02 0.  0.
         12    1    3    3    0    0  0.29388077755E+02 -0.18507698300E+02  0.12230483070E+02  0.36820900676E+02  0.00000000000E+00 0. -1.
         11    1    4    4    0    0 -0.99847096649E+01  0.15418920542E+01  0.63242010793E+01  0.11919202060E+02  0.51100000000E-03 0. -1.
        -11    1    4    4    0    0 -0.25995522949E+02  0.13162387553E+02 -0.95614970037E+01  0.30666559714E+02  0.51100000000E-03 0.  1.
        -12    1    4    4    0    0  0.65921548586E+01  0.38034186929E+01 -0.89931871453E+01  0.11781337550E+02  0.00000000000E+00 0.  1.
</event>
<event>
 8    1  0.1280925E-006  0.9118800E+02  0.7816164E-02  0.1184000E+00
        -11   -1    0    0    0    0  0.00000000000E+00  0.00000000000E+00  0.45593999997E+02  0.45594000000E+02  0.51100000000E-03 0. -1.
         11   -1    0    0    0    0 -0.00000000000E+00 -0.00000000000E+00 -0.45593999997E+02  0.45594000000E+02  0.51100000000E-03 0.  1.
         23    2    1    2    0    0  0.00000000000E+00 -0.17763568394E-14  0.00000000000E+00  0.91188000000E+02  0.91188000000E+02 0.  0.
    9900012    2    3    3    0    0  0.60290996722E+01 -0.11858287794E+02 -0.34333857036E+02  0.54367044401E+02  0.39999909321E+02 0.  0.
         12    1    3    3    0    0 -0.60290996722E+01  0.11858287794E+02  0.34333857036E+02  0.36820955599E+02  0.00000000000E+00 0. -1.
         11    1    4    4    0    0 -0.38165391982E+00 -0.18541358783E+02 -0.36551630595E+01  0.18902059741E+02  0.51100000000E-03 0. -1.
        -11    1    4    4    0    0  0.99389020215E+01  0.70608297234E+01 -0.14703762037E+02  0.19100725329E+02  0.51100000000E-03 0.  1.
         12    1    4    4    0    0 -0.35281484295E+01 -0.37775873510E+00 -0.15974931939E+02  0.16364259331E+02  0.00000000000E+00 0. -1.
</event>
<event>
 8    1  0.1280925E-006  0.9118800E+02  0.7816164E-02  0.1184000E+00
        -11   -1    0    0    0    0  0.00000000000E+00  0.00000000000E+00  0.45593999997E+02  0.45594000000E+02  0.51100000000E-03 0. -1.
         11   -1    0    0    0    0 -0.00000000000E+00 -0.00000000000E+00 -0.45593999997E+02  0.45594000000E+02  0.51100000000E-03 0.  1.
         23    2    1    2    0    0  0.00000000000E+00 -0.17763568394E-14  0.35527136788E-14  0.91188000000E+02  0.91188000000E+02 0.  0.
    9900012    2    3    3    0    0  0.24007467074E+02  0.14127192670E+02 -0.24079953692E+02  0.54367079073E+02  0.39999988364E+02 0.  0.
         12    1    3    3    0    0 -0.24007467074E+02 -0.14127192670E+02  0.24079953692E+02  0.36820920927E+02  0.00000000000E+00 0. -1.
         11    1    4    4    0    0  0.87886993956E+01  0.11832848469E+02  0.22617157962E+01  0.14912172831E+02  0.51100000000E-03 0. -1.
        -11    1    4    4    0    0 -0.44112839196E+01  0.76557126970E+01 -0.10096176275E+02  0.13416487557E+02  0.51100000000E-03 0.  1.
        -12    1    4    4    0    0  0.19630051598E+02 -0.53613684955E+01 -0.16245493213E+02  0.26038418685E+02  0.00000000000E+00 0.  1.
</event>
<event>
 8    1  0.1280925E-006  0.9118800E+02  0.7816164E-02  0.1184000E+00
        -11   -1    0    0    0    0  0.00000000000E+00  0.00000000000E+00  0.45593999997E+02  0.45594000000E+02  0.51100000000E-03 0. -1.
         11   -1    0    0    0    0 -0.00000000000E+00 -0.00000000000E+00 -0.45593999997E+02  0.45594000000E+02  0.51100000000E-03 0.  1.
         23    2    1    2    0    0  0.00000000000E+00  0.35527136788E-14  0.35527136788E-14  0.91188000000E+02  0.91188000000E+02 0.  0.
    9900012    2    3    3    0    0 -0.16277573833E+02 -0.29804993518E+02 -0.14229833495E+02  0.54367011287E+02  0.39999833831E+02 0.  0.
         12    1    3    3    0    0  0.16277573833E+02  0.29804993518E+02  0.14229833495E+02  0.36820988713E+02  0.00000000000E+00 0. -1.
         11    1    4    4    0    0  0.59994876071E+01 -0.29946741753E+01 -0.26246684830E+01  0.72007506463E+01  0.51100000000E-03 0. -1.
        -11    1    4    4    0    0 -0.14155711201E+02 -0.29739564104E+02 -0.16919459761E+02  0.37028285831E+02  0.51100000000E-03 0.  1.
         12    1    4    4    0    0 -0.81213502390E+01  0.29292447618E+01  0.53142947485E+01  0.10137974810E+02  0.00000000000E+00 0. -1.
</event>
<event>
 8    1  0.1280925E-006  0.9118800E+02  0.7816164E-02  0.1184000E+00
        -11   -1    0    0    0    0  0.00000000000E+00  0.00000000000E+00  0.45593999997E+02  0.45594000000E+02  0.51100000000E-03 0.  1.
         11   -1    0    0    0    0 -0.00000000000E+00 -0.00000000000E+00 -0.45593999997E+02  0.45594000000E+02  0.51100000000E-03 0. -1.
         23    2    1    2    0    0 -0.17763568394E-14  0.00000000000E+00  0.00000000000E+00  0.91188000000E+02  0.91188000000E+02 0.  0.
    9900012    2    3    3    0    0 -0.93808293790E+01 -0.10358023107E+02  0.34065994398E+02  0.54367074199E+02  0.39999977251E+02 0.  0.
         12    1    3    3    0    0  0.93808293790E+01  0.10358023107E+02 -0.34065994398E+02  0.36820925801E+02  0.00000000000E+00 0. -1.
         11    1    4    4    0    0  0.79528151684E+01 -0.90814576008E+01  0.64508860702E+01  0.13687003785E+02  0.51100000000E-03 0. -1.
        -11    1    4    4    0    0 -0.10955460941E+02 -0.12640524356E+02  0.13762909957E+02  0.21661548217E+02  0.51100000000E-03 0.  1.
        -12    1    4    4    0    0 -0.63781836066E+01  0.11363958849E+02  0.13852198371E+02  0.19018522197E+02  0.00000000000E+00 0.  1.
</event>
<event>
 8    1  0.1280925E-006  0.9118800E+02  0.7816164E-02  0.1184000E+00
        -11   -1    0    0    0    0  0.00000000000E+00  0.00000000000E+00  0.45593999997E+02  0.45594000000E+02  0.51100000000E-03 0.  1.
         11   -1    0    0    0    0 -0.00000000000E+00 -0.00000000000E+00 -0.45593999997E+02  0.45594000000E+02  0.51100000000E-03 0. -1.
         23    2    1    2    0    0  0.00000000000E+00  0.00000000000E+00 -0.17763568394E-14  0.91188000000E+02  0.91188000000E+02 0.  0.
    9900012    2    3    3    0    0 -0.19959367255E+02  0.27460630185E+02 -0.14259042275E+02  0.54367043495E+02  0.39999907254E+02 0.  0.
         12    1    3    3    0    0  0.19959367255E+02 -0.27460630185E+02  0.14259042275E+02  0.36820956505E+02  0.00000000000E+00 0. -1.
         11    1    4    4    0    0  0.56343201862E+01  0.50614241570E+01 -0.13895574989E+02  0.15825630572E+02  0.51100000000E-03 0. -1.
        -11    1    4    4    0    0 -0.60443600069E+01  0.16489735149E+02  0.30785907018E+01  0.17830405888E+02  0.51100000000E-03 0.  1.
         12    1    4    4    0    0 -0.19549327434E+02  0.59094708795E+01 -0.34420579879E+01  0.20711007035E+02  0.00000000000E+00 0. -1.
</event>
<event>
 8    1  0.1280925E-006  0.9118800E+02  0.7816164E-02  0.1184000E+00
        -11   -1    0    0    0    0  0.00000000000E+00  0.00000000000E+00  0.45593999997E+02  0.45594000000E+02  0.51100000000E-03 0. -1.
         11   -1    0    0    0    0 -0.00000000000E+00 -0.00000000000E+00 -0.45593999997E+02  0.45594000000E+02  0.51100000000E-03 0.  1.
         23    2    1    2    0    0  0.00000000000E+00  0.00000000000E+00 -0.35527136788E-14  0.91188000000E+02  0.91188000000E+02 0.  0.
    9900012    2    3    3    0    0 -0.16256182064E+02  0.16004240755E+02  0.28902961439E+02  0.54367077179E+02  0.39999984045E+02 0.  0.
        -12    1    3    3    0    0  0.16256182064E+02 -0.16004240755E+02 -0.28902961439E+02  0.36820922821E+02  0.00000000000E+00 0.  1.
         11    1    4    4    0    0 -0.20612068207E+02  0.83997950007E+00  0.27843568558E+02  0.34652954154E+02  0.51100000000E-03 0. -1.
        -11    1    4    4    0    0 -0.31951072033E+01  0.63362588632E+00 -0.36033173838E+00  0.32771986554E+01  0.51100000000E-03 0.  1.
        -12    1    4    4    0    0  0.75509933462E+01  0.14530635368E+02  0.14197246195E+01  0.16436924369E+02  0.00000000000E+00 0.  1.
</event>
<event>
 8    1  0.1280925E-006  0.9118800E+02  0.7816164E-02  0.1184000E+00
        -11   -1    0    0    0    0  0.00000000000E+00  0.00000000000E+00  0.45593999997E+02  0.45594000000E+02  0.51100000000E-03 0. -1.
         11   -1    0    0    0    0 -0.00000000000E+00 -0.00000000000E+00 -0.45593999997E+02  0.45594000000E+02  0.51100000000E-03 0.  1.
         23    2    1    2    0    0  0.88817841970E-15  0.35527136788E-14 -0.35527136788E-14  0.91188000000E+02  0.91188000000E+02 0.  0.
    9900012    2    3    3    0    0  0.56602135481E+01  0.18771705121E+02 -0.31166716314E+02  0.54367093760E+02  0.40000021844E+02 0.  0.
         12    1    3    3    0    0 -0.56602135481E+01 -0.18771705121E+02  0.31166716314E+02  0.36820906240E+02  0.00000000000E+00 0. -1.
         11    1    4    4    0    0 -0.73623654873E+01 -0.54430243319E+01 -0.12656440222E+01  0.92429862327E+01  0.51100000000E-03 0. -1.
        -11    1    4    4    0    0 -0.20214900354E+00  0.15760259570E+02 -0.67325353330E+01  0.17139243805E+02  0.51100000000E-03 0.  1.
        -12    1    4    4    0    0  0.13224728039E+02  0.84544698820E+01 -0.23168536959E+02  0.27984863722E+02  0.00000000000E+00 0.  1.
</event>
<event>
 8    1  0.1280925E-006  0.9118800E+02  0.7816164E-02  0.1184000E+00
        -11   -1    0    0    0    0  0.00000000000E+00  0.00000000000E+00  0.45593999997E+02  0.45594000000E+02  0.51100000000E-03 0. -1.
         11   -1    0    0    0    0 -0.00000000000E+00 -0.00000000000E+00 -0.45593999997E+02  0.45594000000E+02  0.51100000000E-03 0.  1.
         23    2    1    2    0    0  0.00000000000E+00 -0.35527136788E-14  0.00000000000E+00  0.91188000000E+02  0.91188000000E+02 0.  0.
    9900012    2    3    3    0    0 -0.13418313747E+02 -0.25564607483E+02  0.22851242115E+02  0.54367087928E+02  0.40000008551E+02 0.  0.
         12    1    3    3    0    0  0.13418313747E+02  0.25564607483E+02 -0.22851242115E+02  0.36820912072E+02  0.00000000000E+00 0. -1.
         11    1    4    4    0    0 -0.15264874857E+02 -0.21491094137E+02  0.13573441136E+02  0.29649988805E+02  0.51100000000E-03 0. -1.
        -11    1    4    4    0    0 -0.14062453923E+00 -0.34506585624E+01  0.16676790352E+02  0.17030624078E+02  0.51100000000E-03 0.  1.
         12    1    4    4    0    0  0.19871856492E+01 -0.62285478334E+00 -0.73989893727E+01  0.76864750454E+01  0.00000000000E+00 0. -1.
</event>
<event>
 8    1  0.1280925E-006  0.9118800E+02  0.7816164E-02  0.1184000E+00
        -11   -1    0    0    0    0  0.00000000000E+00  0.00000000000E+00  0.45593999997E+02  0.45594000000E+02  0.51100000000E-03 0. -1.
         11   -1    0    0    0    0 -0.00000000000E+00 -0.00000000000E+00 -0.45593999997E+02  0.45594000000E+02  0.51100000000E-03 0.  1.
         23    2    1    2    0    0  0.35527136788E-14 -0.88817841970E-15  0.00000000000E+00  0.91188000000E+02  0.91188000000E+02 0.  0.
    9900012    2    3    3    0    0  0.26956001282E+02 -0.57797694683E+01 -0.24407965491E+02  0.54367074976E+02  0.39999979023E+02 0.  0.
         12    1    3    3    0    0 -0.26956001282E+02  0.57797694683E+01  0.24407965491E+02  0.36820925024E+02  0.00000000000E+00 0. -1.
         11    1    4    4    0    0  0.12344519780E+02 -0.13284101424E+02 -0.11097807399E+02  0.21260664349E+02  0.51100000000E-03 0. -1.
        -11    1    4    4    0    0  0.91493982443E+01 -0.54540836524E+01 -0.15568559695E+02  0.18863683839E+02  0.51100000000E-03 0.  1.
        -12    1    4    4    0    0  0.54620832576E+01  0.12958415608E+02  0.22584016030E+01  0.14242726789E+02  0.00000000000E+00 0.  1.
</event>
<event>
 8    1  0.1280925E-006  0.9118800E+02  0.7816164E-02  0.1184000E+00
        -11   -1    0    0    0    0  0.00000000000E+00  0.00000000000E+00  0.45593999997E+02  0.45594000000E+02  0.51100000000E-03 0. -1.
         11   -1    0    0    0    0 -0.00000000000E+00 -0.00000000000E+00 -0.45593999997E+02  0.45594000000E+02  0.51100000000E-03 0.  1.
         23    2    1    2    0    0  0.00000000000E+00  0.00000000000E+00  0.35527136788E-14  0.91188000000E+02  0.91188000000E+02 0.  0.
    9900012    2    3    3    0    0 -0.19796337477E+02  0.18703134718E+02 -0.24780597088E+02  0.54367079074E+02  0.39999988364E+02 0.  0.
         12    1    3    3    0    0  0.19796337477E+02 -0.18703134718E+02  0.24780597088E+02  0.36820920926E+02  0.00000000000E+00 0. -1.
         11    1    4    4    0    0 -0.70172366960E+01  0.63951879087E+01  0.56799064662E+01  0.11063515579E+02  0.51100000000E-03 0. -1.
        -11    1    4    4    0    0  0.30655462483E+01  0.89133585883E+01 -0.24131834361E+02  0.25907353493E+02  0.51100000000E-03 0.  1.
        -12    1    4    4    0    0 -0.15844647029E+02  0.33945882213E+01 -0.63286691938E+01  0.17396210002E+02  0.00000000000E+00 0.  1.
</event>
<event>
 8    1  0.1280925E-006  0.9118800E+02  0.7816164E-02  0.1184000E+00
        -11   -1    0    0    0    0  0.00000000000E+00  0.00000000000E+00  0.45593999997E+02  0.45594000000E+02  0.51100000000E-03 0.  1.
         11   -1    0    0    0    0 -0.00000000000E+00 -0.00000000000E+00 -0.45593999997E+02  0.45594000000E+02  0.51100000000E-03 0. -1.
         23    2    1    2    0    0 -0.22204460493E-14  0.19984014443E-14  0.00000000000E+00  0.91188000000E+02  0.91188000000E+02 0.  0.
    9900012    2    3    3    0    0  0.12337210567E+01 -0.35232349407E+00 -0.36798537897E+02  0.54367101167E+02  0.40000038730E+02 0.  0.
        -12    1    3    3    0    0 -0.12337210567E+01  0.35232349407E+00  0.36798537897E+02  0.36820898833E+02  0.00000000000E+00 0.  1.
         11    1    4    4    0    0 -0.10001687005E+02  0.14682580668E+02 -0.25475208125E+02  0.31057980412E+02  0.51100000000E-03 0. -1.
        -11    1    4    4    0    0  0.94333414215E+01 -0.74571933016E+01 -0.41519426181E+01  0.12721489303E+02  0.51100000000E-03 0.  1.
         12    1    4    4    0    0  0.18020666398E+01 -0.75777108601E+01 -0.71713871538E+01  0.10587631452E+02  0.00000000000E+00 0. -1.
</event>
<event>
 8    1  0.1280925E-006  0.9118800E+02  0.7816164E-02  0.1184000E+00
        -11   -1    0    0    0    0  0.00000000000E+00  0.00000000000E+00  0.45593999997E+02  0.45594000000E+02  0.51100000000E-03 0. -1.
         11   -1    0    0    0    0 -0.00000000000E+00 -0.00000000000E+00 -0.45593999997E+02  0.45594000000E+02  0.51100000000E-03 0.  1.
         23    2    1    2    0    0  0.17763568394E-14 -0.35527136788E-14 -0.35527136788E-14  0.91188000000E+02  0.91188000000E+02 0.  0.
    9900012    2    3    3    0    0 -0.96925895191E+01  0.28523955904E+02  0.21171144098E+02  0.54367086182E+02  0.40000004568E+02 0.  0.
        -12    1    3    3    0    0  0.96925895191E+01 -0.28523955904E+02 -0.21171144098E+02  0.36820913818E+02  0.00000000000E+00 0.  1.
         11    1    4    4    0    0 -0.12260742097E+01  0.40359374196E+01  0.38784848821E+01  0.57301565480E+01  0.51100000000E-03 0. -1.
        -11    1    4    4    0    0 -0.90880025196E+01 -0.64536032946E+01  0.13423786535E+02  0.17448175563E+02  0.51100000000E-03 0.  1.
        -12    1    4    4    0    0  0.62148721032E+00  0.30941621779E+02  0.38688726811E+01  0.31188754071E+02  0.00000000000E+00 0.  1.
</event>
<event>
 8    1  0.1280925E-006  0.9118800E+02  0.7816164E-02  0.1184000E+00
        -11   -1    0    0    0    0  0.00000000000E+00  0.00000000000E+00  0.45593999997E+02  0.45594000000E+02  0.51100000000E-03 0.  1.
         11   -1    0    0    0    0 -0.00000000000E+00 -0.00000000000E+00 -0.45593999997E+02  0.45594000000E+02  0.51100000000E-03 0. -1.
         23    2    1    2    0    0 -0.17763568394E-14  0.00000000000E+00 -0.44408920985E-15  0.91188000000E+02  0.91188000000E+02 0.  0.
    9900012    2    3    3    0    0 -0.14189678607E+02 -0.33960283386E+02 -0.10628805661E+01  0.54367115414E+02  0.40000071209E+02 0.  0.
        -12    1    3    3    0    0  0.14189678607E+02  0.33960283386E+02  0.10628805661E+01  0.36820884586E+02  0.00000000000E+00 0.  1.
         11    1    4    4    0    0 -0.60923920952E+01 -0.94450363654E+01 -0.54979383296E+01  0.12512125300E+02  0.51100000000E-03 0. -1.
        -11    1    4    4    0    0 -0.40860673925E+01  0.36610715837E+01  0.11314910947E+02  0.12574840034E+02  0.51100000000E-03 0.  1.
        -12    1    4    4    0    0 -0.40112191189E+01 -0.28176318604E+02 -0.68798531835E+01  0.29280150080E+02  0.00000000000E+00 0.  1.
</event>
<event>
 8    1  0.1280925E-006  0.9118800E+02  0.7816164E-02  0.1184000E+00
        -11   -1    0    0    0    0  0.00000000000E+00  0.00000000000E+00  0.45593999997E+02  0.45594000000E+02  0.51100000000E-03 0. -1.
         11   -1    0    0    0    0 -0.00000000000E+00 -0.00000000000E+00 -0.45593999997E+02  0.45594000000E+02  0.51100000000E-03 0.  1.
         23    2    1    2    0    0  0.44408920985E-15 -0.88817841970E-15 -0.71054273576E-14  0.91188000000E+02  0.91188000000E+02 0.  0.
    9900012    2    3    3    0    0  0.33222591481E+01 -0.69741636284E+01 -0.36001388353E+02  0.54367131902E+02  0.40000108796E+02 0.  0.
         12    1    3    3    0    0 -0.33222591481E+01  0.69741636284E+01  0.36001388353E+02  0.36820868098E+02  0.00000000000E+00 0. -1.
         11    1    4    4    0    0  0.42185578121E+01 -0.42211358597E+00  0.54608475160E+01  0.69134120193E+01  0.51100000000E-03 0. -1.
        -11    1    4    4    0    0  0.13409833256E+01 -0.56539670187E+01 -0.43747609365E+02  0.44131835502E+02  0.51100000000E-03 0.  1.
         12    1    4    4    0    0 -0.22372819897E+01 -0.89808302375E+00  0.22853734962E+01  0.33218843802E+01  0.00000000000E+00 0. -1.
</event>
<event>
 8    1  0.1280925E-006  0.9118800E+02  0.7816164E-02  0.1184000E+00
        -11   -1    0    0    0    0  0.00000000000E+00  0.00000000000E+00  0.45593999997E+02  0.45594000000E+02  0.51100000000E-03 0. -1.
         11   -1    0    0    0    0 -0.00000000000E+00 -0.00000000000E+00 -0.45593999997E+02  0.45594000000E+02  0.51100000000E-03 0.  1.
         23    2    1    2    0    0  0.00000000000E+00  0.00000000000E+00  0.00000000000E+00  0.91188000000E+02  0.91188000000E+02 0.  0.
    9900012    2    3    3    0    0  0.29442783068E+02 -0.89285562897E+01  0.20228333515E+02  0.54367053936E+02  0.39999931058E+02 0.  0.
        -12    1    3    3    0    0 -0.29442783068E+02  0.89285562897E+01 -0.20228333515E+02  0.36820946064E+02  0.00000000000E+00 0.  1.
         11    1    4    4    0    0  0.30774634887E+02  0.33069161948E+01  0.45678498741E+01  0.31287043643E+02  0.51100000000E-03 0. -1.
        -11    1    4    4    0    0  0.85453920276E+00 -0.11996654493E+02  0.65240707745E+01  0.13682596830E+02  0.51100000000E-03 0.  1.
         12    1    4    4    0    0 -0.21863910215E+01 -0.23881799103E+00  0.91364128667E+01  0.93974134634E+01  0.00000000000E+00 0. -1.
</event>
<event>
 8    1  0.1280925E-006  0.9118800E+02  0.7816164E-02  0.1184000E+00
        -11   -1    0    0    0    0  0.00000000000E+00  0.00000000000E+00  0.45593999997E+02  0.45594000000E+02  0.51100000000E-03 0.  1.
         11   -1    0    0    0    0 -0.00000000000E+00 -0.00000000000E+00 -0.45593999997E+02  0.45594000000E+02  0.51100000000E-03 0. -1.
         23    2    1    2    0    0  0.00000000000E+00  0.88817841970E-15 -0.35527136788E-14  0.91188000000E+02  0.91188000000E+02 0.  0.
    9900012    2    3    3    0    0  0.18869215690E+02  0.65312622926E+01 -0.30936622622E+02  0.54367091441E+02  0.40000016557E+02 0.  0.
        -12    1    3    3    0    0 -0.18869215690E+02 -0.65312622926E+01  0.30936622622E+02  0.36820908559E+02  0.00000000000E+00 0.  1.
         11    1    4    4    0    0  0.17490437809E+02  0.11267440086E+02 -0.11208677510E+02  0.23632711919E+02  0.51100000000E-03 0. -1.
        -11    1    4    4    0    0 -0.22799478289E+01 -0.65522601424E+01  0.30605597166E+01  0.75826974828E+01  0.51100000000E-03 0.  1.
        -12    1    4    4    0    0  0.36587257099E+01  0.18160823486E+01 -0.22788504828E+02  0.23151682039E+02  0.00000000000E+00 0.  1.
</event>
<event>
 8    1  0.1280925E-006  0.9118800E+02  0.7816164E-02  0.1184000E+00
        -11   -1    0    0    0    0  0.00000000000E+00  0.00000000000E+00  0.45593999997E+02  0.45594000000E+02  0.51100000000E-03 0. -1.
         11   -1    0    0    0    0 -0.00000000000E+00 -0.00000000000E+00 -0.45593999997E+02  0.45594000000E+02  0.51100000000E-03 0.  1.
         23    2    1    2    0    0 -0.35527136788E-14 -0.19984014443E-14  0.00000000000E+00  0.91188000000E+02  0.91188000000E+02 0.  0.
    9900012    2    3    3    0    0  0.31864098358E+02  0.19488742023E+01  0.18348255131E+02  0.54367118137E+02  0.40000077416E+02 0.  0.
        -12    1    3    3    0    0 -0.31864098358E+02 -0.19488742023E+01 -0.18348255131E+02  0.36820881863E+02  0.00000000000E+00 0.  1.
         11    1    4    4    0    0  0.20679856572E+02  0.12687462145E+02  0.12897284980E+02  0.27476683272E+02  0.51100000000E-03 0. -1.
        -11    1    4    4    0    0  0.16565889016E+02 -0.39215642111E+01  0.81004032813E+00  0.17042990065E+02  0.51100000000E-03 0.  1.
         12    1    4    4    0    0 -0.53816472299E+01 -0.68170237318E+01  0.46409298228E+01  0.98474447999E+01  0.00000000000E+00 0. -1.
</event>
<event>
 8    1  0.1280925E-006  0.9118800E+02  0.7816164E-02  0.1184000E+00
        -11   -1    0    0    0    0  0.00000000000E+00  0.00000000000E+00  0.45593999997E+02  0.45594000000E+02  0.51100000000E-03 0. -1.
         11   -1    0    0    0    0 -0.00000000000E+00 -0.00000000000E+00 -0.45593999997E+02  0.45594000000E+02  0.51100000000E-03 0.  1.
         23    2    1    2    0    0 -0.35527136788E-14 -0.71054273576E-14  0.00000000000E+00  0.91188000000E+02  0.91188000000E+02 0.  0.
    9900012    2    3    3    0    0 -0.16130795429E+02 -0.32107503593E+02 -0.80427600738E+01  0.54367077446E+02  0.39999984654E+02 0.  0.
         12    1    3    3    0    0  0.16130795429E+02  0.32107503593E+02  0.80427600738E+01  0.36820922554E+02  0.00000000000E+00 0. -1.
         11    1    4    4    0    0 -0.23085412033E+01 -0.60137804542E+01 -0.51060215341E+01  0.82198767634E+01  0.51100000000E-03 0. -1.
        -11    1    4    4    0    0 -0.20715145034E+02 -0.28354262890E+02 -0.94860681056E+01  0.36373987218E+02  0.51100000000E-03 0.  1.
         12    1    4    4    0    0  0.68928908085E+01  0.22605397512E+01  0.65493295658E+01  0.97732134647E+01  0.00000000000E+00 0. -1.
</event>
<event>
 8    1  0.1280925E-006  0.9118800E+02  0.7816164E-02  0.1184000E+00
        -11   -1    0    0    0    0  0.00000000000E+00  0.00000000000E+00  0.45593999997E+02  0.45594000000E+02  0.51100000000E-03 0. -1.
         11   -1    0    0    0    0 -0.00000000000E+00 -0.00000000000E+00 -0.45593999997E+02  0.45594000000E+02  0.51100000000E-03 0.  1.
         23    2    1    2    0    0 -0.44408920985E-15 -0.55511151231E-16  0.00000000000E+00  0.91188000000E+02  0.91188000000E+02 0.  0.
    9900012    2    3    3    0    0 -0.34912832046E+01 -0.21750078230E+00  0.36654369238E+02  0.54367093585E+02  0.40000021445E+02 0.  0.
        -12    1    3    3    0    0  0.34912832046E+01  0.21750078230E+00 -0.36654369238E+02  0.36820906415E+02  0.00000000000E+00 0.  1.
         11    1    4    4    0    0 -0.69637142974E+01  0.24702805062E+01 -0.37987278471E+00  0.73986421855E+01  0.51100000000E-03 0. -1.
        -11    1    4    4    0    0  0.15987619620E+02 -0.29015843678E+01  0.23036330802E+02  0.28190347817E+02  0.51100000000E-03 0.  1.
         12    1    4    4    0    0 -0.12515188527E+02  0.21380307931E+00  0.13997911221E+02  0.18778103583E+02  0.00000000000E+00 0. -1.
</event>
<event>
 8    1  0.1280925E-006  0.9118800E+02  0.7816164E-02  0.1184000E+00
        -11   -1    0    0    0    0  0.00000000000E+00  0.00000000000E+00  0.45593999997E+02  0.45594000000E+02  0.51100000000E-03 0.  1.
         11   -1    0    0    0    0 -0.00000000000E+00 -0.00000000000E+00 -0.45593999997E+02  0.45594000000E+02  0.51100000000E-03 0. -1.
         23    2    1    2    0    0 -0.17763568394E-14  0.00000000000E+00 -0.13322676296E-14  0.91188000000E+02  0.91188000000E+02 0.  0.
    9900012    2    3    3    0    0 -0.10078685496E+02 -0.35253534286E+02 -0.33746356511E+01  0.54367085471E+02  0.40000002948E+02 0.  0.
        -12    1    3    3    0    0  0.10078685496E+02  0.35253534286E+02  0.33746356511E+01  0.36820914529E+02  0.00000000000E+00 0.  1.
         11    1    4    4    0    0 -0.33743164843E+01 -0.13105929415E+02 -0.85123757508E+01  0.15987868487E+02  0.51100000000E-03 0. -1.
        -11    1    4    4    0    0  0.10825768806E+02 -0.16069541255E+02  0.40412640822E+01  0.19792908882E+02  0.51100000000E-03 0.  1.
        -12    1    4    4    0    0 -0.17530137817E+02 -0.60780636157E+01  0.10964760175E+01  0.18586308102E+02  0.00000000000E+00 0.  1.
</event>
<event>
 8    1  0.1280925E-006  0.9118800E+02  0.7816164E-02  0.1184000E+00
        -11   -1    0    0    0    0  0.00000000000E+00  0.00000000000E+00  0.45593999997E+02  0.45594000000E+02  0.51100000000E-03 0. -1.
         11   -1    0    0    0    0 -0.00000000000E+00 -0.00000000000E+00 -0.45593999997E+02  0.45594000000E+02  0.51100000000E-03 0.  1.
         23    2    1    2    0    0  0.00000000000E+00  0.00000000000E+00  0.35527136788E-14  0.91188000000E+02  0.91188000000E+02 0.  0.
    9900012    2    3    3    0    0  0.14447730622E+02  0.16156956114E+02 -0.29765706878E+02  0.54367062248E+02  0.39999950006E+02 0.  0.
         12    1    3    3    0    0 -0.14447730622E+02 -0.16156956114E+02  0.29765706878E+02  0.36820937752E+02  0.00000000000E+00 0. -1.
         11    1    4    4    0    0 -0.46401308406E+01 -0.76254900560E+01 -0.13430205251E+01  0.90267722473E+01  0.51100000000E-03 0. -1.
        -11    1    4    4    0    0  0.20865482459E+02  0.14149490870E+02 -0.17620431527E+02  0.30758024280E+02  0.51100000000E-03 0.  1.
        -12    1    4    4    0    0 -0.17776209966E+01  0.96329553001E+01 -0.10802254826E+02  0.14582265721E+02  0.00000000000E+00 0.  1.
</event>
<event>
 8    1  0.1280925E-006  0.9118800E+02  0.7816164E-02  0.1184000E+00
        -11   -1    0    0    0    0  0.00000000000E+00  0.00000000000E+00  0.45593999997E+02  0.45594000000E+02  0.51100000000E-03 0.  1.
         11   -1    0    0    0    0 -0.00000000000E+00 -0.00000000000E+00 -0.45593999997E+02  0.45594000000E+02  0.51100000000E-03 0. -1.
         23    2    1    2    0    0  0.22204460493E-14  0.17763568394E-14  0.00000000000E+00  0.91188000000E+02  0.91188000000E+02 0.  0.
    9900012    2    3    3    0    0  0.15598781493E+01  0.13420987988E+02  0.34252353283E+02  0.54367084153E+02  0.39999999944E+02 0.  0.
         12    1    3    3    0    0 -0.15598781493E+01 -0.13420987988E+02 -0.34252353283E+02  0.36820915847E+02  0.00000000000E+00 0. -1.
         11    1    4    4    0    0 -0.12836507002E+02  0.11338136837E+02  0.28496740435E+02  0.33247458168E+02  0.51100000000E-03 0. -1.
        -11    1    4    4    0    0  0.13018713212E+02  0.60145482350E+01  0.79645724903E+01  0.16404148846E+02  0.51100000000E-03 0.  1.
         12    1    4    4    0    0  0.13776719395E+01 -0.39316970845E+01 -0.22089596432E+01  0.47154771383E+01  0.00000000000E+00 0. -1.
</event>
<event>
 8    1  0.1280925E-006  0.9118800E+02  0.7816164E-02  0.1184000E+00
        -11   -1    0    0    0    0  0.00000000000E+00  0.00000000000E+00  0.45593999997E+02  0.45594000000E+02  0.51100000000E-03 0.  1.
         11   -1    0    0    0    0 -0.00000000000E+00 -0.00000000000E+00 -0.45593999997E+02  0.45594000000E+02  0.51100000000E-03 0. -1.
         23    2    1    2    0    0  0.00000000000E+00  0.00000000000E+00  0.88817841970E-15  0.91188000000E+02  0.91188000000E+02 0.  0.
    9900012    2    3    3    0    0  0.14198728984E+02 -0.33594336859E+02  0.50593562971E+01  0.54367075787E+02  0.39999980872E+02 0.  0.
         12    1    3    3    0    0 -0.14198728984E+02  0.33594336859E+02 -0.50593562971E+01  0.36820924213E+02  0.00000000000E+00 0. -1.
         11    1    4    4    0    0  0.15363994423E+02 -0.64592087973E+01  0.10181515031E+02  0.19530410941E+02  0.51100000000E-03 0. -1.
        -11    1    4    4    0    0  0.86489020118E+01 -0.11224600464E+02 -0.74314004330E+01  0.16000652307E+02  0.51100000000E-03 0.  1.
         12    1    4    4    0    0 -0.98141674504E+01 -0.15910527598E+02  0.23092416986E+01  0.18836012540E+02  0.00000000000E+00 0. -1.
</event>
<event>
 8    1  0.1280925E-006  0.9118800E+02  0.7816164E-02  0.1184000E+00
        -11   -1    0    0    0    0  0.00000000000E+00  0.00000000000E+00  0.45593999997E+02  0.45594000000E+02  0.51100000000E-03 0.  1.
         11   -1    0    0    0    0 -0.00000000000E+00 -0.00000000000E+00 -0.45593999997E+02  0.45594000000E+02  0.51100000000E-03 0. -1.
         23    2    1    2    0    0  0.00000000000E+00  0.38857805862E-15  0.00000000000E+00  0.91188000000E+02  0.91188000000E+02 0.  0.
    9900012    2    3    3    0    0 -0.32473277090E+02  0.28556840148E+00 -0.17354671426E+02  0.54367083464E+02  0.39999998372E+02 0.  0.
         12    1    3    3    0    0  0.32473277090E+02 -0.28556840148E+00  0.17354671426E+02  0.36820916536E+02  0.00000000000E+00 0. -1.
         11    1    4    4    0    0 -0.25956135104E+02 -0.66992795378E+01 -0.18753895063E+01  0.26872260455E+02  0.51100000000E-03 0. -1.
        -11    1    4    4    0    0 -0.11708337793E+02 -0.19025682333E+01 -0.11311000997E+02  0.16390353369E+02  0.51100000000E-03 0.  1.
         12    1    4    4    0    0  0.51911958072E+01  0.88874161726E+01 -0.41682809229E+01  0.11104469640E+02  0.00000000000E+00 0. -1.
</event>
<event>
 8    1  0.1280925E-006  0.9118800E+02  0.7816164E-02  0.1184000E+00
        -11   -1    0    0    0    0  0.00000000000E+00  0.00000000000E+00  0.45593999997E+02  0.45594000000E+02  0.51100000000E-03 0.  1.
         11   -1    0    0    0    0 -0.00000000000E+00 -0.00000000000E+00 -0.45593999997E+02  0.45594000000E+02  0.51100000000E-03 0. -1.
         23    2    1    2    0    0 -0.17763568394E-14  0.00000000000E+00  0.00000000000E+00  0.91188000000E+02  0.91188000000E+02 0.  0.
    9900012    2    3    3    0    0  0.10735748610E+02 -0.15503795390E+02 -0.31625255595E+02  0.54367071696E+02  0.39999971544E+02 0.  0.
        -12    1    3    3    0    0 -0.10735748610E+02  0.15503795390E+02  0.31625255595E+02  0.36820928304E+02  0.00000000000E+00 0.  1.
         11    1    4    4    0    0  0.12750421910E+02 -0.76535619499E+01 -0.45227631366E+01  0.15543669324E+02  0.51100000000E-03 0. -1.
        -11    1    4    4    0    0 -0.10694836090E+02 -0.12492677425E+02 -0.10466998677E+02  0.19493705903E+02  0.51100000000E-03 0.  1.
         12    1    4    4    0    0  0.86801627903E+01  0.46424439847E+01 -0.16635493782E+02  0.19329696469E+02  0.00000000000E+00 0. -1.
</event>
<event>
 8    1  0.1280925E-006  0.9118800E+02  0.7816164E-02  0.1184000E+00
        -11   -1    0    0    0    0  0.00000000000E+00  0.00000000000E+00  0.45593999997E+02  0.45594000000E+02  0.51100000000E-03 0.  1.
         11   -1    0    0    0    0 -0.00000000000E+00 -0.00000000000E+00 -0.45593999997E+02  0.45594000000E+02  0.51100000000E-03 0. -1.
         23    2    1    2    0    0  0.00000000000E+00 -0.35527136788E-14  0.00000000000E+00  0.91188000000E+02  0.91188000000E+02 0.  0.
    9900012    2    3    3    0    0  0.20098806587E+02 -0.29831588190E+02  0.78675125102E+01  0.54367035411E+02  0.39999888826E+02 0.  0.
         12    1    3    3    0    0 -0.20098806587E+02  0.29831588190E+02 -0.78675125102E+01  0.36820964589E+02  0.00000000000E+00 0. -1.
         11    1    4    4    0    0  0.14355871866E+02 -0.19395504345E+02  0.43301701401E+01  0.24515852412E+02  0.51100000000E-03 0. -1.
        -11    1    4    4    0    0  0.66999986623E+01 -0.16189440366E+02  0.10764911815E+02  0.20563834469E+02  0.51100000000E-03 0.  1.
         12    1    4    4    0    0 -0.95706394095E+00  0.57533565201E+01 -0.72275694445E+01  0.92873485296E+01  0.00000000000E+00 0. -1.
</event>
<event>
 8    1  0.1280925E-006  0.9118800E+02  0.7816164E-02  0.1184000E+00
        -11   -1    0    0    0    0  0.00000000000E+00  0.00000000000E+00  0.45593999997E+02  0.45594000000E+02  0.51100000000E-03 0.  1.
         11   -1    0    0    0    0 -0.00000000000E+00 -0.00000000000E+00 -0.45593999997E+02  0.45594000000E+02  0.51100000000E-03 0. -1.
         23    2    1    2    0    0 -0.17763568394E-14 -0.35527136788E-14  0.00000000000E+00  0.91188000000E+02  0.91188000000E+02 0.  0.
    9900012    2    3    3    0    0 -0.86601341044E+01 -0.31455776401E+02 -0.17068020728E+02  0.54367066779E+02  0.39999960336E+02 0.  0.
         12    1    3    3    0    0  0.86601341044E+01  0.31455776401E+02  0.17068020728E+02  0.36820933221E+02  0.00000000000E+00 0. -1.
         11    1    4    4    0    0 -0.15592818305E+02 -0.20790575205E+02 -0.14735824893E+02  0.29875216076E+02  0.51100000000E-03 0. -1.
        -11    1    4    4    0    0 -0.31788734427E+01 -0.13452558869E+02 -0.41438824137E+00  0.13829255018E+02  0.51100000000E-03 0.  1.
        -12    1    4    4    0    0  0.10111557643E+02  0.27873576732E+01 -0.19178075935E+01  0.10662595685E+02  0.00000000000E+00 0.  1.
</event>
<event>
 8    1  0.1280925E-006  0.9118800E+02  0.7816164E-02  0.1184000E+00
        -11   -1    0    0    0    0  0.00000000000E+00  0.00000000000E+00  0.45593999997E+02  0.45594000000E+02  0.51100000000E-03 0.  1.
         11   -1    0    0    0    0 -0.00000000000E+00 -0.00000000000E+00 -0.45593999997E+02  0.45594000000E+02  0.51100000000E-03 0. -1.
         23    2    1    2    0    0 -0.17763568394E-14  0.22204460493E-15  0.00000000000E+00  0.91188000000E+02  0.91188000000E+02 0.  0.
    9900012    2    3    3    0    0 -0.55431529301E+01 -0.60701173704E+00 -0.36396226563E+02  0.54367077746E+02  0.39999985337E+02 0.  0.
        -12    1    3    3    0    0  0.55431529301E+01  0.60701173704E+00  0.36396226563E+02  0.36820922254E+02  0.00000000000E+00 0.  1.
         11    1    4    4    0    0  0.17090314050E+01 -0.13027279508E+02 -0.63568487587E+01  0.14595901004E+02  0.51100000000E-03 0.  1.
        -11    1    4    4    0    0  0.45198007345E+01 -0.13933821120E+00  0.66499400767E+00  0.45705832350E+01  0.51100000000E-03 0. -1.
        -12    1    4    4    0    0 -0.11771985070E+02  0.12559605982E+02 -0.30704371812E+02  0.35200593507E+02  0.00000000000E+00 0.  1.
</event>
<event>
 8    1  0.1280925E-006  0.9118800E+02  0.7816164E-02  0.1184000E+00
        -11   -1    0    0    0    0  0.00000000000E+00  0.00000000000E+00  0.45593999997E+02  0.45594000000E+02  0.51100000000E-03 0.  1.
         11   -1    0    0    0    0 -0.00000000000E+00 -0.00000000000E+00 -0.45593999997E+02  0.45594000000E+02  0.51100000000E-03 0. -1.
         23    2    1    2    0    0  0.00000000000E+00  0.00000000000E+00  0.00000000000E+00  0.91188000000E+02  0.91188000000E+02 0.  0.
    9900012    2    3    3    0    0 -0.12400846654E+02  0.93519551703E+01  0.33384749904E+02  0.54367060449E+02  0.39999945906E+02 0.  0.
         12    1    3    3    0    0  0.12400846654E+02 -0.93519551703E+01 -0.33384749904E+02  0.36820939551E+02  0.00000000000E+00 0. -1.
         11    1    4    4    0    0 -0.65399416577E+01  0.68535431905E+01  0.86288415124E+01  0.12814007853E+02  0.51100000000E-03 0. -1.
        -11    1    4    4    0    0 -0.15797509139E+02  0.65336147235E+01  0.30820209222E+01  0.17370902958E+02  0.51100000000E-03 0.  1.
         12    1    4    4    0    0  0.99366041429E+01 -0.40352027437E+01  0.21673887469E+02  0.24182149638E+02  0.00000000000E+00 0. -1.
</event>
<event>
 8    1  0.1280925E-006  0.9118800E+02  0.7816164E-02  0.1184000E+00
        -11   -1    0    0    0    0  0.00000000000E+00  0.00000000000E+00  0.45593999997E+02  0.45594000000E+02  0.51100000000E-03 0.  1.
         11   -1    0    0    0    0 -0.00000000000E+00 -0.00000000000E+00 -0.45593999997E+02  0.45594000000E+02  0.51100000000E-03 0. -1.
         23    2    1    2    0    0  0.00000000000E+00  0.00000000000E+00  0.35527136788E-14  0.91188000000E+02  0.91188000000E+02 0.  0.
    9900012    2    3    3    0    0  0.15991224842E+02 -0.15194299568E+02  0.29482093793E+02  0.54367083855E+02  0.39999999265E+02 0.  0.
         12    1    3    3    0    0 -0.15991224842E+02  0.15194299568E+02 -0.29482093793E+02  0.36820916145E+02  0.00000000000E+00 0. -1.
         11    1    4    4    0    0  0.10755968633E+02 -0.29983331335E+01 -0.57676582651E+01  0.12567686539E+02  0.51100000000E-03 0. -1.
        -11    1    4    4    0    0  0.96974361840E+01 -0.47220586828E+00  0.12585405694E+02  0.15895146544E+02  0.51100000000E-03 0.  1.
         12    1    4    4    0    0 -0.44621799752E+01 -0.11723760567E+02  0.22664346364E+02  0.25904250772E+02  0.00000000000E+00 0. -1.
</event>
<event>
 8    1  0.1280925E-006  0.9118800E+02  0.7816164E-02  0.1184000E+00
        -11   -1    0    0    0    0  0.00000000000E+00  0.00000000000E+00  0.45593999997E+02  0.45594000000E+02  0.51100000000E-03 0.  1.
         11   -1    0    0    0    0 -0.00000000000E+00 -0.00000000000E+00 -0.45593999997E+02  0.45594000000E+02  0.51100000000E-03 0. -1.
         23    2    1    2    0    0  0.00000000000E+00  0.88817841970E-15 -0.17763568394E-14  0.91188000000E+02  0.91188000000E+02 0.  0.
    9900012    2    3    3    0    0 -0.33058596161E+02  0.79527003537E+01 -0.14130131517E+02  0.54367124946E+02  0.40000092939E+02 0.  0.
        -12    1    3    3    0    0  0.33058596161E+02 -0.79527003537E+01  0.14130131517E+02  0.36820875054E+02  0.00000000000E+00 0.  1.
         11    1    4    4    0    0 -0.57485259776E+01  0.14363195216E+02 -0.13977864426E+02  0.20850122827E+02  0.51100000000E-03 0. -1.
        -11    1    4    4    0    0 -0.91143208330E+01 -0.63035876779E+01 -0.80336300512E+01  0.13687412974E+02  0.51100000000E-03 0.  1.
        -12    1    4    4    0    0 -0.18195749350E+02 -0.10690718399E+00  0.78813629600E+01  0.19829589145E+02  0.00000000000E+00 0.  1.
</event>
<event>
 8    1  0.1280925E-006  0.9118800E+02  0.7816164E-02  0.1184000E+00
        -11   -1    0    0    0    0  0.00000000000E+00  0.00000000000E+00  0.45593999997E+02  0.45594000000E+02  0.51100000000E-03 0.  1.
         11   -1    0    0    0    0 -0.00000000000E+00 -0.00000000000E+00 -0.45593999997E+02  0.45594000000E+02  0.51100000000E-03 0. -1.
         23    2    1    2    0    0 -0.17763568394E-14  0.35527136788E-14  0.35527136788E-14  0.91188000000E+02  0.91188000000E+02 0.  0.
    9900012    2    3    3    0    0 -0.89697983352E+01 -0.29915517926E+02  0.19503455537E+02  0.54367078327E+02  0.39999986662E+02 0.  0.
         12    1    3    3    0    0  0.89697983352E+01  0.29915517926E+02 -0.19503455537E+02  0.36820921673E+02  0.00000000000E+00 0. -1.
         11    1    4    4    0    0 -0.30417379254E+01 -0.10067247064E+02 -0.22035842843E+01  0.10745111308E+02  0.51100000000E-03 0. -1.
        -11    1    4    4    0    0 -0.14173757532E+02  0.19660115025E+01  0.10497821713E+02  0.17747249499E+02  0.51100000000E-03 0.  1.
        -12    1    4    4    0    0  0.82456971225E+01 -0.21814282364E+02  0.11209218109E+02  0.25874717520E+02  0.00000000000E+00 0.  1.
</event>
<event>
 8    1  0.1280925E-006  0.9118800E+02  0.7816164E-02  0.1184000E+00
        -11   -1    0    0    0    0  0.00000000000E+00  0.00000000000E+00  0.45593999997E+02  0.45594000000E+02  0.51100000000E-03 0.  1.
         11   -1    0    0    0    0 -0.00000000000E+00 -0.00000000000E+00 -0.45593999997E+02  0.45594000000E+02  0.51100000000E-03 0. -1.
         23    2    1    2    0    0  0.00000000000E+00  0.00000000000E+00 -0.88817841970E-15  0.91188000000E+02  0.91188000000E+02 0.  0.
    9900012    2    3    3    0    0 -0.32875915064E+02  0.15798767545E+02 -0.50351029376E+01  0.54367094134E+02  0.40000022697E+02 0.  0.
         12    1    3    3    0    0  0.32875915064E+02 -0.15798767545E+02  0.50351029376E+01  0.36820905866E+02  0.00000000000E+00 0. -1.
         11    1    4    4    0    0 -0.88546110821E+01  0.85409378256E+01  0.53443196769E+01  0.13413184164E+02  0.51100000000E-03 0. -1.
        -11    1    4    4    0    0 -0.10370367432E+02 -0.11024763211E+02 -0.99873264739E+01  0.18133852732E+02  0.51100000000E-03 0.  1.
        -12    1    4    4    0    0 -0.13650936549E+02  0.18282592930E+02 -0.39209614060E+00  0.22820057237E+02  0.00000000000E+00 0.  1.
</event>
<event>
 8    1  0.1280925E-006  0.9118800E+02  0.7816164E-02  0.1184000E+00
        -11   -1    0    0    0    0  0.00000000000E+00  0.00000000000E+00  0.45593999997E+02  0.45594000000E+02  0.51100000000E-03 0.  1.
         11   -1    0    0    0    0 -0.00000000000E+00 -0.00000000000E+00 -0.45593999997E+02  0.45594000000E+02  0.51100000000E-03 0. -1.
         23    2    1    2    0    0 -0.35527136788E-14  0.00000000000E+00 -0.35527136788E-14  0.91188000000E+02  0.91188000000E+02 0.  0.
    9900012    2    3    3    0    0  0.24418440264E+02  0.19188209591E+02  0.19782137362E+02  0.54367074280E+02  0.39999977437E+02 0.  0.
         12    1    3    3    0    0 -0.24418440264E+02 -0.19188209591E+02 -0.19782137362E+02  0.36820925720E+02  0.00000000000E+00 0. -1.
         11    1    4    4    0    0  0.38860100256E+01  0.11800804493E+02 -0.10325751375E+02  0.16154912638E+02  0.51100000000E-03 0. -1.
        -11    1    4    4    0    0  0.10306839938E+02  0.82453026850E+01  0.15467703512E+02  0.20333858908E+02  0.51100000000E-03 0.  1.
         12    1    4    4    0    0  0.10225590301E+02 -0.85789758773E+00  0.14640185225E+02  0.17878302735E+02  0.00000000000E+00 0. -1.
</event>
<event>
 8    1  0.1280925E-006  0.9118800E+02  0.7816164E-02  0.1184000E+00
        -11   -1    0    0    0    0  0.00000000000E+00  0.00000000000E+00  0.45593999997E+02  0.45594000000E+02  0.51100000000E-03 0.  1.
         11   -1    0    0    0    0 -0.00000000000E+00 -0.00000000000E+00 -0.45593999997E+02  0.45594000000E+02  0.51100000000E-03 0. -1.
         23    2    1    2    0    0  0.35527136788E-14  0.00000000000E+00  0.00000000000E+00  0.91188000000E+02  0.91188000000E+02 0.  0.
    9900012    2    3    3    0    0 -0.21065652381E+02  0.28009164321E+02 -0.11291822457E+02  0.54367078629E+02  0.39999987350E+02 0.  0.
        -12    1    3    3    0    0  0.21065652381E+02 -0.28009164321E+02  0.11291822457E+02  0.36820921371E+02  0.00000000000E+00 0.  1.
         11    1    4    4    0    0 -0.52542180581E+01 -0.26548415542E+01 -0.14949935963E+02  0.16067220563E+02  0.51100000000E-03 0. -1.
        -11    1    4    4    0    0 -0.12627817321E+02  0.18411001397E+02  0.96157962993E+01  0.24308234849E+02  0.51100000000E-03 0.  1.
         12    1    4    4    0    0 -0.31836170019E+01  0.12253004478E+02 -0.59576827940E+01  0.13991623216E+02  0.00000000000E+00 0. -1.
</event>
<event>
 8    1  0.1280925E-006  0.9118800E+02  0.7816164E-02  0.1184000E+00
        -11   -1    0    0    0    0  0.00000000000E+00  0.00000000000E+00  0.45593999997E+02  0.45594000000E+02  0.51100000000E-03 0.  1.
         11   -1    0    0    0    0 -0.00000000000E+00 -0.00000000000E+00 -0.45593999997E+02  0.45594000000E+02  0.51100000000E-03 0. -1.
         23    2    1    2    0    0  0.00000000000E+00  0.00000000000E+00  0.35527136788E-14  0.91188000000E+02  0.91188000000E+02 0.  0.
    9900012    2    3    3    0    0 -0.17026546956E+02 -0.66162550162E+01 -0.31970308221E+02  0.54367099149E+02  0.40000034131E+02 0.  0.
        -12    1    3    3    0    0  0.17026546956E+02  0.66162550162E+01  0.31970308221E+02  0.36820900851E+02  0.00000000000E+00 0.  1.
         11    1    4    4    0    0 -0.26948367525E+02 -0.43155397159E+01 -0.33467335943E+02  0.43184499195E+02  0.51100000000E-03 0. -1.
        -11    1    4    4    0    0  0.17330472900E+01 -0.18609723095E+01  0.15570831551E+01  0.29818080185E+01  0.51100000000E-03 0.  1.
        -12    1    4    4    0    0  0.81887732793E+01 -0.43974299090E+00 -0.60055433191E-01  0.82007919358E+01  0.00000000000E+00 0.  1.
</event>
<event>
 8    1  0.1280925E-006  0.9118800E+02  0.7816164E-02  0.1184000E+00
        -11   -1    0    0    0    0  0.00000000000E+00  0.00000000000E+00  0.45593999997E+02  0.45594000000E+02  0.51100000000E-03 0.  1.
         11   -1    0    0    0    0 -0.00000000000E+00 -0.00000000000E+00 -0.45593999997E+02  0.45594000000E+02  0.51100000000E-03 0. -1.
         23    2    1    2    0    0 -0.88817841970E-15  0.00000000000E+00  0.00000000000E+00  0.91188000000E+02  0.91188000000E+02 0.  0.
    9900012    2    3    3    0    0  0.58583571871E+01 -0.27891690774E+02 -0.23313372530E+02  0.54367080648E+02  0.39999991954E+02 0.  0.
        -12    1    3    3    0    0 -0.58583571871E+01  0.27891690774E+02  0.23313372530E+02  0.36820919352E+02  0.00000000000E+00 0.  1.
         11    1    4    4    0    0  0.70295945152E+00 -0.36034577808E+01 -0.11833439389E+02  0.12389888942E+02  0.51100000000E-03 0. -1.
        -11    1    4    4    0    0 -0.72644196864E+01  0.48215517686E+01 -0.28550692142E+01  0.91744523170E+01  0.51100000000E-03 0.  1.
         12    1    4    4    0    0  0.12419817422E+02 -0.29109784762E+02 -0.86248639271E+01  0.32802739389E+02  0.00000000000E+00 0. -1.
</event>
<event>
 8    1  0.1280925E-006  0.9118800E+02  0.7816164E-02  0.1184000E+00
        -11   -1    0    0    0    0  0.00000000000E+00  0.00000000000E+00  0.45593999997E+02  0.45594000000E+02  0.51100000000E-03 0.  1.
         11   -1    0    0    0    0 -0.00000000000E+00 -0.00000000000E+00 -0.45593999997E+02  0.45594000000E+02  0.51100000000E-03 0. -1.
         23    2    1    2    0    0 -0.17763568394E-14  0.00000000000E+00  0.00000000000E+00  0.91188000000E+02  0.91188000000E+02 0.  0.
    9900012    2    3    3    0    0  0.75134669947E+01  0.19771491322E+02  0.30139931974E+02  0.54367088078E+02  0.40000008892E+02 0.  0.
         12    1    3    3    0    0 -0.75134669947E+01 -0.19771491322E+02 -0.30139931974E+02  0.36820911922E+02  0.00000000000E+00 0. -1.
         11    1    4    4    0    0 -0.28120791771E+01 -0.37795580277E+01 -0.46464601491E+01  0.66168300841E+01  0.51100000000E-03 0. -1.
        -11    1    4    4    0    0  0.16448502623E+02  0.17904903672E+02  0.24526635997E+02  0.34535412082E+02  0.51100000000E-03 0.  1.
        -12    1    4    4    0    0 -0.61229564517E+01  0.56461456782E+01  0.10259756126E+02  0.13214845912E+02  0.00000000000E+00 0.  1.
</event>
<event>
 8    1  0.1280925E-006  0.9118800E+02  0.7816164E-02  0.1184000E+00
        -11   -1    0    0    0    0  0.00000000000E+00  0.00000000000E+00  0.45593999997E+02  0.45594000000E+02  0.51100000000E-03 0. -1.
         11   -1    0    0    0    0 -0.00000000000E+00 -0.00000000000E+00 -0.45593999997E+02  0.45594000000E+02  0.51100000000E-03 0.  1.
         23    2    1    2    0    0 -0.17763568394E-14  0.35527136788E-14  0.00000000000E+00  0.91188000000E+02  0.91188000000E+02 0.  0.
    9900012    2    3    3    0    0  0.42134914268E+01 -0.27138616954E+02  0.24525866613E+02  0.54367133996E+02  0.40000113570E+02 0.  0.
        -12    1    3    3    0    0 -0.42134914268E+01  0.27138616954E+02 -0.24525866613E+02  0.36820866004E+02  0.00000000000E+00 0.  1.
         11    1    4    4    0    0 -0.15635335179E+02 -0.12364949890E+02  0.75397093982E+01  0.21312036740E+02  0.51100000000E-03 0. -1.
        -11    1    4    4    0    0  0.11482707244E+02 -0.49492961477E+01  0.10474513365E+01  0.12547719019E+02  0.51100000000E-03 0.  1.
         12    1    4    4    0    0  0.83661193615E+01 -0.98243709163E+01  0.15938705878E+02  0.20507378237E+02  0.00000000000E+00 0. -1.
</event>
<event>
 8    1  0.1280925E-006  0.9118800E+02  0.7816164E-02  0.1184000E+00
        -11   -1    0    0    0    0  0.00000000000E+00  0.00000000000E+00  0.45593999997E+02  0.45594000000E+02  0.51100000000E-03 0. -1.
         11   -1    0    0    0    0 -0.00000000000E+00 -0.00000000000E+00 -0.45593999997E+02  0.45594000000E+02  0.51100000000E-03 0.  1.
         23    2    1    2    0    0  0.00000000000E+00  0.17763568394E-14 -0.35527136788E-14  0.91188000000E+02  0.91188000000E+02 0.  0.
    9900012    2    3    3    0    0 -0.17592272034E+02  0.13090000570E+02 -0.29579439294E+02  0.54367090462E+02  0.40000014325E+02 0.  0.
         12    1    3    3    0    0  0.17592272034E+02 -0.13090000570E+02  0.29579439294E+02  0.36820909538E+02  0.00000000000E+00 0. -1.
         11    1    4    4    0    0 -0.22996543230E+01  0.35263472849E+01  0.68089070399E+01  0.80052951549E+01  0.51100000000E-03 0. -1.
        -11    1    4    4    0    0 -0.10928120135E+02  0.12744687842E+02 -0.10247347431E+02  0.19668731721E+02  0.51100000000E-03 0.  1.
         12    1    4    4    0    0 -0.43644975763E+01 -0.31810345560E+01 -0.26140998903E+02  0.26693063586E+02  0.00000000000E+00 0. -1.
</event>
<event>
 8    1  0.1280925E-006  0.9118800E+02  0.7816164E-02  0.1184000E+00
        -11   -1    0    0    0    0  0.00000000000E+00  0.00000000000E+00  0.45593999997E+02  0.45594000000E+02  0.51100000000E-03 0. -1.
         11   -1    0    0    0    0 -0.00000000000E+00 -0.00000000000E+00 -0.45593999997E+02  0.45594000000E+02  0.51100000000E-03 0.  1.
         23    2    1    2    0    0  0.00000000000E+00  0.17763568394E-14  0.35527136788E-14  0.91188000000E+02  0.91188000000E+02 0.  0.
    9900012    2    3    3    0    0  0.20650249566E+02 -0.35681087086E+01  0.30275663190E+02  0.54367082188E+02  0.39999995464E+02 0.  0.
        -12    1    3    3    0    0 -0.20650249566E+02  0.35681087086E+01 -0.30275663190E+02  0.36820917812E+02  0.00000000000E+00 0.  1.
         11    1    4    4    0    0  0.34976080781E+01  0.10108172926E+02  0.12333265965E+02  0.16325375089E+02  0.51100000000E-03 0. -1.
        -11    1    4    4    0    0  0.12193652030E+02  0.46702195534E+01  0.19476599463E+01  0.13201874110E+02  0.51100000000E-03 0.  1.
         12    1    4    4    0    0  0.49589894581E+01 -0.18346501188E+02  0.15994737279E+02  0.24839832989E+02  0.00000000000E+00 0. -1.
</event>
<event>
 8    1  0.1280925E-006  0.9118800E+02  0.7816164E-02  0.1184000E+00
        -11   -1    0    0    0    0  0.00000000000E+00  0.00000000000E+00  0.45593999997E+02  0.45594000000E+02  0.51100000000E-03 0.  1.
         11   -1    0    0    0    0 -0.00000000000E+00 -0.00000000000E+00 -0.45593999997E+02  0.45594000000E+02  0.51100000000E-03 0. -1.
         23    2    1    2    0    0  0.00000000000E+00  0.00000000000E+00  0.00000000000E+00  0.91188000000E+02  0.91188000000E+02 0.  0.
    9900012    2    3    3    0    0  0.24717447146E+02 -0.16583272462E+02  0.21675515407E+02  0.54367012953E+02  0.39999837628E+02 0.  0.
         12    1    3    3    0    0 -0.24717447146E+02  0.16583272462E+02 -0.21675515407E+02  0.36820987047E+02  0.00000000000E+00 0. -1.
         11    1    4    4    0    0  0.22372618183E+02 -0.14083145279E+02  0.31770764303E+02  0.41330987043E+02  0.51100000000E-03 0.  1.
        -11    1    4    4    0    0 -0.26256670873E+01  0.77215936130E-01 -0.27908419260E+01  0.38326086248E+01  0.51100000000E-03 0. -1.
         12    1    4    4    0    0  0.49704960503E+01 -0.25773431191E+01 -0.73044069696E+01  0.92034172848E+01  0.00000000000E+00 0. -1.
</event>
<event>
 8    1  0.1280925E-006  0.9118800E+02  0.7816164E-02  0.1184000E+00
        -11   -1    0    0    0    0  0.00000000000E+00  0.00000000000E+00  0.45593999997E+02  0.45594000000E+02  0.51100000000E-03 0.  1.
         11   -1    0    0    0    0 -0.00000000000E+00 -0.00000000000E+00 -0.45593999997E+02  0.45594000000E+02  0.51100000000E-03 0. -1.
         23    2    1    2    0    0  0.00000000000E+00  0.00000000000E+00  0.00000000000E+00  0.91188000000E+02  0.91188000000E+02 0.  0.
    9900012    2    3    3    0    0  0.35384467942E+02 -0.98580659152E+01 -0.25569070470E+01  0.54367084628E+02  0.40000001027E+02 0.  0.
        -12    1    3    3    0    0 -0.35384467942E+02  0.98580659152E+01  0.25569070470E+01  0.36820915372E+02  0.00000000000E+00 0.  1.
         11    1    4    4    0    0  0.23658939182E+02 -0.25334671051E+01 -0.60329647172E+00  0.23801845006E+02  0.51100000000E-03 0. -1.
        -11    1    4    4    0    0  0.17035806692E+02  0.37408379111E+01  0.22620613489E+01  0.17587765626E+02  0.51100000000E-03 0.  1.
         12    1    4    4    0    0 -0.53102779316E+01 -0.11065436721E+02 -0.42156719242E+01  0.12977473996E+02  0.00000000000E+00 0. -1.
</event>
<event>
 8    1  0.1280925E-006  0.9118800E+02  0.7816164E-02  0.1184000E+00
        -11   -1    0    0    0    0  0.00000000000E+00  0.00000000000E+00  0.45593999997E+02  0.45594000000E+02  0.51100000000E-03 0. -1.
         11   -1    0    0    0    0 -0.00000000000E+00 -0.00000000000E+00 -0.45593999997E+02  0.45594000000E+02  0.51100000000E-03 0.  1.
         23    2    1    2    0    0  0.00000000000E+00  0.35527136788E-14  0.00000000000E+00  0.91188000000E+02  0.91188000000E+02 0.  0.
    9900012    2    3    3    0    0  0.28643645430E+02  0.18119106767E+02  0.14388153791E+02  0.54367089866E+02  0.40000012969E+02 0.  0.
        -12    1    3    3    0    0 -0.28643645430E+02 -0.18119106767E+02 -0.14388153791E+02  0.36820910134E+02  0.00000000000E+00 0.  1.
         11    1    4    4    0    0  0.77102105392E+01  0.11217247795E+02 -0.34532626186E+01  0.14042756767E+02  0.51100000000E-03 0. -1.
        -11    1    4    4    0    0 -0.17220884596E+01  0.45673703896E+01 -0.57435417677E+01  0.75375548580E+01  0.51100000000E-03 0.  1.
         12    1    4    4    0    0  0.22655523351E+02  0.23344885825E+01  0.23584958177E+02  0.32786778241E+02  0.00000000000E+00 0. -1.
</event>
<event>
 8    1  0.1280925E-006  0.9118800E+02  0.7816164E-02  0.1184000E+00
        -11   -1    0    0    0    0  0.00000000000E+00  0.00000000000E+00  0.45593999997E+02  0.45594000000E+02  0.51100000000E-03 0. -1.
         11   -1    0    0    0    0 -0.00000000000E+00 -0.00000000000E+00 -0.45593999997E+02  0.45594000000E+02  0.51100000000E-03 0.  1.
         23    2    1    2    0    0 -0.35527136788E-14 -0.17763568394E-14 -0.17763568394E-14  0.91188000000E+02  0.91188000000E+02 0.  0.
    9900012    2    3    3    0    0 -0.29472412752E+02  0.15981819366E+02 -0.15223010932E+02  0.54367058601E+02  0.39999941694E+02 0.  0.
         12    1    3    3    0    0  0.29472412752E+02 -0.15981819366E+02  0.15223010932E+02  0.36820941399E+02  0.00000000000E+00 0. -1.
         11    1    4    4    0    0 -0.18856329817E+02 -0.68187591974E+01 -0.86946480223E+01  0.21855286675E+02  0.51100000000E-03 0. -1.
        -11    1    4    4    0    0 -0.15768637116E+02  0.12459118085E+02 -0.58814031425E+01  0.20939685841E+02  0.51100000000E-03 0.  1.
         12    1    4    4    0    0  0.51525541816E+01  0.10341460478E+02 -0.64695976737E+00  0.11572086085E+02  0.00000000000E+00 0. -1.
</event>
<event>
 8    1  0.1280925E-006  0.9118800E+02  0.7816164E-02  0.1184000E+00
        -11   -1    0    0    0    0  0.00000000000E+00  0.00000000000E+00  0.45593999997E+02  0.45594000000E+02  0.51100000000E-03 0.  1.
         11   -1    0    0    0    0 -0.00000000000E+00 -0.00000000000E+00 -0.45593999997E+02  0.45594000000E+02  0.51100000000E-03 0. -1.
         23    2    1    2    0    0 -0.88817841970E-15  0.00000000000E+00  0.00000000000E+00  0.91188000000E+02  0.91188000000E+02 0.  0.
    9900012    2    3    3    0    0 -0.40062372446E+01 -0.10274870490E+02 -0.35130518565E+02  0.54367133157E+02  0.40000111658E+02 0.  0.
        -12    1    3    3    0    0  0.40062372446E+01  0.10274870490E+02  0.35130518565E+02  0.36820866843E+02  0.00000000000E+00 0.  1.
         11    1    4    4    0    0  0.13586354820E+01 -0.79689450391E+01 -0.24378590749E+02  0.25683957300E+02  0.51100000000E-03 0. -1.
        -11    1    4    4    0    0  0.72425866760E+01 -0.78989789326E+01 -0.10329254675E+02  0.14884301540E+02  0.51100000000E-03 0.  1.
        -12    1    4    4    0    0 -0.12607459403E+02  0.55930534818E+01 -0.42267314063E+00  0.13798874317E+02  0.00000000000E+00 0.  1.
</event>
<event>
 8    1  0.1280925E-006  0.9118800E+02  0.7816164E-02  0.1184000E+00
        -11   -1    0    0    0    0  0.00000000000E+00  0.00000000000E+00  0.45593999997E+02  0.45594000000E+02  0.51100000000E-03 0.  1.
         11   -1    0    0    0    0 -0.00000000000E+00 -0.00000000000E+00 -0.45593999997E+02  0.45594000000E+02  0.51100000000E-03 0. -1.
         23    2    1    2    0    0  0.00000000000E+00 -0.17763568394E-14  0.00000000000E+00  0.91188000000E+02  0.91188000000E+02 0.  0.
    9900012    2    3    3    0    0  0.32943832000E+01 -0.12960536549E+02 -0.34306681930E+02  0.54367124218E+02  0.40000091280E+02 0.  0.
        -12    1    3    3    0    0 -0.32943832000E+01  0.12960536549E+02  0.34306681930E+02  0.36820875782E+02  0.00000000000E+00 0.  1.
         11    1    4    4    0    0 -0.37167316749E+01 -0.13273620352E+01 -0.22067591297E+02  0.22417728926E+02  0.51100000000E-03 0. -1.
        -11    1    4    4    0    0  0.33078795452E+01 -0.19376088294E+02 -0.40148998412E+01  0.20062260233E+02  0.51100000000E-03 0.  1.
        -12    1    4    4    0    0  0.37032353296E+01  0.77429137806E+01 -0.82241907919E+01  0.11887135059E+02  0.00000000000E+00 0.  1.
</event>
<event>
 8    1  0.1280925E-006  0.9118800E+02  0.7816164E-02  0.1184000E+00
        -11   -1    0    0    0    0  0.00000000000E+00  0.00000000000E+00  0.45593999997E+02  0.45594000000E+02  0.51100000000E-03 0. -1.
         11   -1    0    0    0    0 -0.00000000000E+00 -0.00000000000E+00 -0.45593999997E+02  0.45594000000E+02  0.51100000000E-03 0.  1.
         23    2    1    2    0    0  0.00000000000E+00  0.00000000000E+00  0.00000000000E+00  0.91188000000E+02  0.91188000000E+02 0.  0.
    9900012    2    3    3    0    0  0.16129476159E+02 -0.16111113011E+02 -0.28914651039E+02  0.54367014023E+02  0.39999840068E+02 0.  0.
         12    1    3    3    0    0 -0.16129476159E+02  0.16111113011E+02  0.28914651039E+02  0.36820985977E+02  0.00000000000E+00 0. -1.
         11    1    4    4    0    0 -0.31253075868E+01  0.98137179144E-01 -0.16505905316E+01  0.35357641016E+01  0.51100000000E-03 0. -1.
        -11    1    4    4    0    0  0.26215085014E+02 -0.21337587594E+02 -0.18553215041E+02  0.38558333927E+02  0.51100000000E-03 0.  1.
        -12    1    4    4    0    0 -0.69603012680E+01  0.51283374037E+01 -0.87108454660E+01  0.12272915994E+02  0.00000000000E+00 0.  1.
</event>
<event>
 8    1  0.1280925E-006  0.9118800E+02  0.7816164E-02  0.1184000E+00
        -11   -1    0    0    0    0  0.00000000000E+00  0.00000000000E+00  0.45593999997E+02  0.45594000000E+02  0.51100000000E-03 0. -1.
         11   -1    0    0    0    0 -0.00000000000E+00 -0.00000000000E+00 -0.45593999997E+02  0.45594000000E+02  0.51100000000E-03 0.  1.
         23    2    1    2    0    0  0.00000000000E+00  0.00000000000E+00  0.35527136788E-14  0.91188000000E+02  0.91188000000E+02 0.  0.
    9900012    2    3    3    0    0  0.84144832455E+01  0.31541171722E+02 -0.17033209994E+02  0.54367091747E+02  0.40000017256E+02 0.  0.
         12    1    3    3    0    0 -0.84144832455E+01 -0.31541171722E+02  0.17033209994E+02  0.36820908253E+02  0.00000000000E+00 0. -1.
         11    1    4    4    0    0  0.26773882808E+01  0.59253562358E+00 -0.11019719206E+01  0.29553085873E+01  0.51100000000E-03 0. -1.
        -11    1    4    4    0    0  0.40449675844E+01  0.22573402108E+02 -0.28270783384E+02  0.36402711971E+02  0.51100000000E-03 0.  1.
         12    1    4    4    0    0  0.16921273803E+01  0.83752339904E+01  0.12339545310E+02  0.15009071188E+02  0.00000000000E+00 0. -1.
</event>
<event>
 8    1  0.1280925E-006  0.9118800E+02  0.7816164E-02  0.1184000E+00
        -11   -1    0    0    0    0  0.00000000000E+00  0.00000000000E+00  0.45593999997E+02  0.45594000000E+02  0.51100000000E-03 0.  1.
         11   -1    0    0    0    0 -0.00000000000E+00 -0.00000000000E+00 -0.45593999997E+02  0.45594000000E+02  0.51100000000E-03 0. -1.
         23    2    1    2    0    0  0.00000000000E+00  0.00000000000E+00  0.00000000000E+00  0.91188000000E+02  0.91188000000E+02 0.  0.
    9900012    2    3    3    0    0  0.59908171431E+01 -0.34903485904E+02 -0.10081478756E+02  0.54367089743E+02  0.40000012687E+02 0.  0.
        -12    1    3    3    0    0 -0.59908171431E+01  0.34903485904E+02  0.10081478756E+02  0.36820910257E+02  0.00000000000E+00 0.  1.
         11    1    4    4    0    0  0.11421552977E+02  0.26689024351E+00 -0.14449826294E+01  0.11515688337E+02  0.51100000000E-03 0. -1.
        -11    1    4    4    0    0  0.39304758964E+01 -0.15769855726E+02  0.54172529925E+01  0.17131363654E+02  0.51100000000E-03 0.  1.
        -12    1    4    4    0    0 -0.93612117304E+01 -0.19400520421E+02 -0.14053749119E+02  0.25720037752E+02  0.00000000000E+00 0.  1.
</event>
<event>
 8    1  0.1280925E-006  0.9118800E+02  0.7816164E-02  0.1184000E+00
        -11   -1    0    0    0    0  0.00000000000E+00  0.00000000000E+00  0.45593999997E+02  0.45594000000E+02  0.51100000000E-03 0.  1.
         11   -1    0    0    0    0 -0.00000000000E+00 -0.00000000000E+00 -0.45593999997E+02  0.45594000000E+02  0.51100000000E-03 0. -1.
         23    2    1    2    0    0  0.35527136788E-14  0.00000000000E+00  0.35527136788E-14  0.91188000000E+02  0.91188000000E+02 0.  0.
    9900012    2    3    3    0    0  0.18772438805E+02  0.10166511907E+02  0.30000292429E+02  0.54367082455E+02  0.39999996073E+02 0.  0.
        -12    1    3    3    0    0 -0.18772438805E+02 -0.10166511907E+02 -0.30000292429E+02  0.36820917545E+02  0.00000000000E+00 0.  1.
         11    1    4    4    0    0  0.67698333156E+01  0.84816426936E+01  0.21802986688E+02  0.24354447944E+02  0.51100000000E-03 0. -1.
        -11    1    4    4    0    0  0.15335049574E+02 -0.78753445994E+01  0.41702243582E+00  0.17244091915E+02  0.51100000000E-03 0.  1.
        -12    1    4    4    0    0 -0.33324440843E+01  0.95602138123E+01  0.77802833051E+01  0.12768542596E+02  0.00000000000E+00 0.  1.
</event>
<event>
 8    1  0.1280925E-006  0.9118800E+02  0.7816164E-02  0.1184000E+00
        -11   -1    0    0    0    0  0.00000000000E+00  0.00000000000E+00  0.45593999997E+02  0.45594000000E+02  0.51100000000E-03 0.  1.
         11   -1    0    0    0    0 -0.00000000000E+00 -0.00000000000E+00 -0.45593999997E+02  0.45594000000E+02  0.51100000000E-03 0. -1.
         23    2    1    2    0    0  0.00000000000E+00  0.71054273576E-14  0.88817841970E-15  0.91188000000E+02  0.91188000000E+02 0.  0.
    9900012    2    3    3    0    0  0.18956998270E+02  0.31209701543E+02 -0.47293722346E+01  0.54367079105E+02  0.39999988436E+02 0.  0.
         12    1    3    3    0    0 -0.18956998270E+02 -0.31209701543E+02  0.47293722346E+01  0.36820920895E+02  0.00000000000E+00 0. -1.
         11    1    4    4    0    0 -0.49052890839E+01 -0.15241926304E+01 -0.24226029151E+01  0.56792630962E+01  0.51100000000E-03 0. -1.
        -11    1    4    4    0    0  0.56560426712E+01  0.14190474995E+02 -0.13505827353E+02  0.20390384303E+02  0.51100000000E-03 0.  1.
        -12    1    4    4    0    0  0.18206244683E+02  0.18543419179E+02  0.11199058034E+02  0.28297431705E+02  0.00000000000E+00 0.  1.
</event>
<event>
 8    1  0.1280925E-006  0.9118800E+02  0.7816164E-02  0.1184000E+00
        -11   -1    0    0    0    0  0.00000000000E+00  0.00000000000E+00  0.45593999997E+02  0.45594000000E+02  0.51100000000E-03 0.  1.
         11   -1    0    0    0    0 -0.00000000000E+00 -0.00000000000E+00 -0.45593999997E+02  0.45594000000E+02  0.51100000000E-03 0. -1.
         23    2    1    2    0    0 -0.33306690739E-15  0.00000000000E+00 -0.17763568394E-14  0.91188000000E+02  0.91188000000E+02 0.  0.
    9900012    2    3    3    0    0 -0.41792245274E+00 -0.34032892964E+02  0.14048740179E+02  0.54367087962E+02  0.40000008628E+02 0.  0.
        -12    1    3    3    0    0  0.41792245274E+00  0.34032892964E+02 -0.14048740179E+02  0.36820912038E+02  0.00000000000E+00 0.  1.
         11    1    4    4    0    0  0.99801698915E+01 -0.13875873894E+01  0.12098540452E+02  0.15744963358E+02  0.51100000000E-03 0. -1.
        -11    1    4    4    0    0 -0.92366138418E+01 -0.26284666493E+02  0.87859432663E+01  0.29212865783E+02  0.51100000000E-03 0.  1.
         12    1    4    4    0    0 -0.11614785025E+01 -0.63606390817E+01 -0.68357435390E+01  0.94092588215E+01  0.00000000000E+00 0. -1.
</event>
<event>
 8    1  0.1280925E-006  0.9118800E+02  0.7816164E-02  0.1184000E+00
        -11   -1    0    0    0    0  0.00000000000E+00  0.00000000000E+00  0.45593999997E+02  0.45594000000E+02  0.51100000000E-03 0.  1.
         11   -1    0    0    0    0 -0.00000000000E+00 -0.00000000000E+00 -0.45593999997E+02  0.45594000000E+02  0.51100000000E-03 0. -1.
         23    2    1    2    0    0 -0.71054273576E-14  0.55511151231E-15  0.13322676296E-14  0.91188000000E+02  0.91188000000E+02 0.  0.
    9900012    2    3    3    0    0 -0.36737105370E+02  0.71901539455E+00 -0.23764220610E+01  0.54367091865E+02  0.40000017524E+02 0.  0.
        -12    1    3    3    0    0  0.36737105370E+02 -0.71901539455E+00  0.23764220610E+01  0.36820908135E+02  0.00000000000E+00 0.  1.
         11    1    4    4    0    0 -0.79055036421E+01 -0.35943935038E+01 -0.11388669656E+02  0.14321956894E+02  0.51100000000E-03 0. -1.
        -11    1    4    4    0    0  0.49185816157E+01 -0.30179042617E+00  0.65979246709E+00  0.49718053997E+01  0.51100000000E-03 0.  1.
         12    1    4    4    0    0 -0.33750183343E+02  0.46151993245E+01  0.83524551278E+01  0.35073329571E+02  0.00000000000E+00 0. -1.
</event>
<event>
 8    1  0.1280925E-006  0.9118800E+02  0.7816164E-02  0.1184000E+00
        -11   -1    0    0    0    0  0.00000000000E+00  0.00000000000E+00  0.45593999997E+02  0.45594000000E+02  0.51100000000E-03 0. -1.
         11   -1    0    0    0    0 -0.00000000000E+00 -0.00000000000E+00 -0.45593999997E+02  0.45594000000E+02  0.51100000000E-03 0.  1.
         23    2    1    2    0    0  0.00000000000E+00  0.35527136788E-14 -0.35527136788E-14  0.91188000000E+02  0.91188000000E+02 0.  0.
    9900012    2    3    3    0    0  0.11627789607E+01 -0.25253198298E+02  0.26771479542E+02  0.54366970736E+02  0.39999741386E+02 0.  0.
        -12    1    3    3    0    0 -0.11627789607E+01  0.25253198298E+02 -0.26771479542E+02  0.36821029264E+02  0.00000000000E+00 0.  1.
         11    1    4    4    0    0  0.14687942232E+02 -0.13126610121E+02  0.16266751968E+02  0.25547030358E+02  0.51100000000E-03 0. -1.
        -11    1    4    4    0    0 -0.15842184328E+02 -0.18507959686E+01  0.40149913443E+01  0.16447504545E+02  0.51100000000E-03 0.  1.
        -12    1    4    4    0    0  0.23170210570E+01 -0.10275792209E+02  0.64897362298E+01  0.12372435832E+02  0.00000000000E+00 0.  1.
</event>
<event>
 8    1  0.1280925E-006  0.9118800E+02  0.7816164E-02  0.1184000E+00
        -11   -1    0    0    0    0  0.00000000000E+00  0.00000000000E+00  0.45593999997E+02  0.45594000000E+02  0.51100000000E-03 0.  1.
         11   -1    0    0    0    0 -0.00000000000E+00 -0.00000000000E+00 -0.45593999997E+02  0.45594000000E+02  0.51100000000E-03 0. -1.
         23    2    1    2    0    0  0.00000000000E+00  0.17763568394E-14  0.00000000000E+00  0.91188000000E+02  0.91188000000E+02 0.  0.
    9900012    2    3    3    0    0 -0.68420664999E+01  0.76095258683E+01 -0.35370347515E+02  0.54367078756E+02  0.39999987641E+02 0.  0.
        -12    1    3    3    0    0  0.68420664999E+01 -0.76095258683E+01  0.35370347515E+02  0.36820921244E+02  0.00000000000E+00 0.  1.
         11    1    4    4    0    0 -0.62425850132E+01  0.33906966103E+01 -0.23434295177E+02  0.24487402513E+02  0.51100000000E-03 0. -1.
        -11    1    4    4    0    0  0.95716763652E+01 -0.72793396997E+01 -0.57446272870E+01  0.13326909538E+02  0.51100000000E-03 0.  1.
        -12    1    4    4    0    0 -0.10171157852E+02  0.11498168958E+02 -0.61914250506E+01  0.16552766705E+02  0.00000000000E+00 0.  1.
</event>
<event>
 8    1  0.1280925E-006  0.9118800E+02  0.7816164E-02  0.1184000E+00
        -11   -1    0    0    0    0  0.00000000000E+00  0.00000000000E+00  0.45593999997E+02  0.45594000000E+02  0.51100000000E-03 0. -1.
         11   -1    0    0    0    0 -0.00000000000E+00 -0.00000000000E+00 -0.45593999997E+02  0.45594000000E+02  0.51100000000E-03 0.  1.
         23    2    1    2    0    0  0.00000000000E+00  0.22204460493E-14  0.00000000000E+00  0.91188000000E+02  0.91188000000E+02 0.  0.
    9900012    2    3    3    0    0 -0.21117848652E+02 -0.20126248600E+01  0.30095930310E+02  0.54367092736E+02  0.40000019511E+02 0.  0.
        -12    1    3    3    0    0  0.21117848652E+02  0.20126248600E+01 -0.30095930310E+02  0.36820907264E+02  0.00000000000E+00 0.  1.
         11    1    4    4    0    0 -0.16862430563E+02 -0.44996583999E+01  0.16586671073E+02  0.24077087610E+02  0.51100000000E-03 0. -1.
        -11    1    4    4    0    0 -0.78255934484E+01 -0.10325339651E+02  0.10443171387E+02  0.16640684499E+02  0.51100000000E-03 0.  1.
        -12    1    4    4    0    0  0.35701753601E+01  0.12812373191E+02  0.30660878502E+01  0.13649320627E+02  0.00000000000E+00 0.  1.
</event>
<event>
 8    1  0.1280925E-006  0.9118800E+02  0.7816164E-02  0.1184000E+00
        -11   -1    0    0    0    0  0.00000000000E+00  0.00000000000E+00  0.45593999997E+02  0.45594000000E+02  0.51100000000E-03 0. -1.
         11   -1    0    0    0    0 -0.00000000000E+00 -0.00000000000E+00 -0.45593999997E+02  0.45594000000E+02  0.51100000000E-03 0.  1.
         23    2    1    2    0    0  0.71054273576E-14  0.11102230246E-15  0.88817841970E-15  0.91188000000E+02  0.91188000000E+02 0.  0.
    9900012    2    3    3    0    0  0.36243700709E+02 -0.53973263881E+00  0.64715350740E+01  0.54367110295E+02  0.40000059540E+02 0.  0.
        -12    1    3    3    0    0 -0.36243700709E+02  0.53973263881E+00 -0.64715350740E+01  0.36820889705E+02  0.00000000000E+00 0.  1.
         11    1    4    4    0    0  0.64851273813E+01  0.35486224246E+01  0.73645485740E+01  0.10434853819E+02  0.51100000000E-03 0. -1.
        -11    1    4    4    0    0  0.20833196393E+02 -0.17694259896E+02  0.19942023263E+01  0.27405943669E+02  0.51100000000E-03 0.  1.
        -12    1    4    4    0    0  0.89253769354E+01  0.13605904833E+02 -0.28872158264E+01  0.16526312807E+02  0.00000000000E+00 0.  1.
</event>
<event>
 8    1  0.1280925E-006  0.9118800E+02  0.7816164E-02  0.1184000E+00
        -11   -1    0    0    0    0  0.00000000000E+00  0.00000000000E+00  0.45593999997E+02  0.45594000000E+02  0.51100000000E-03 0. -1.
         11   -1    0    0    0    0 -0.00000000000E+00 -0.00000000000E+00 -0.45593999997E+02  0.45594000000E+02  0.51100000000E-03 0.  1.
         23    2    1    2    0    0  0.00000000000E+00 -0.44408920985E-15  0.00000000000E+00  0.91188000000E+02  0.91188000000E+02 0.  0.
    9900012    2    3    3    0    0  0.10577554181E+02  0.28095126719E+01 -0.35156833456E+02  0.54367069097E+02  0.39999965620E+02 0.  0.
         12    1    3    3    0    0 -0.10577554181E+02 -0.28095126719E+01  0.35156833456E+02  0.36820930903E+02  0.00000000000E+00 0. -1.
         11    1    4    4    0    0  0.92722604888E+01  0.95979467417E+01 -0.86443107153E+01  0.15900298872E+02  0.51100000000E-03 0. -1.
        -11    1    4    4    0    0 -0.85965594786E+01 -0.71041541199E+01 -0.11177535855E+01  0.11207997768E+02  0.51100000000E-03 0.  1.
         12    1    4    4    0    0  0.99018531710E+01  0.31572005011E+00 -0.25394769155E+02  0.27258772456E+02  0.00000000000E+00 0. -1.
</event>
<event>
 8    1  0.1280925E-006  0.9118800E+02  0.7816164E-02  0.1184000E+00
        -11   -1    0    0    0    0  0.00000000000E+00  0.00000000000E+00  0.45593999997E+02  0.45594000000E+02  0.51100000000E-03 0.  1.
         11   -1    0    0    0    0 -0.00000000000E+00 -0.00000000000E+00 -0.45593999997E+02  0.45594000000E+02  0.51100000000E-03 0. -1.
         23    2    1    2    0    0 -0.35527136788E-14 -0.35527136788E-14 -0.88817841970E-15  0.91188000000E+02  0.91188000000E+02 0.  0.
    9900012    2    3    3    0    0 -0.27848465886E+02  0.23162830593E+02  0.66125672316E+01  0.54367084494E+02  0.40000000722E+02 0.  0.
         12    1    3    3    0    0  0.27848465886E+02 -0.23162830593E+02 -0.66125672316E+01  0.36820915506E+02  0.00000000000E+00 0. -1.
         11    1    4    4    0    0  0.56365475631E+00  0.50752592239E+01  0.10381985069E+02  0.11569856399E+02  0.51100000000E-03 0. -1.
        -11    1    4    4    0    0 -0.60692350395E+01 -0.66700374613E+01 -0.27683542883E+01  0.94333874841E+01  0.51100000000E-03 0.  1.
        -12    1    4    4    0    0 -0.22342885603E+02  0.24757608831E+02 -0.10010635489E+01  0.33363840611E+02  0.00000000000E+00 0.  1.
</event>
<event>
 8    1  0.1280925E-006  0.9118800E+02  0.7816164E-02  0.1184000E+00
        -11   -1    0    0    0    0  0.00000000000E+00  0.00000000000E+00  0.45593999997E+02  0.45594000000E+02  0.51100000000E-03 0.  1.
         11   -1    0    0    0    0 -0.00000000000E+00 -0.00000000000E+00 -0.45593999997E+02  0.45594000000E+02  0.51100000000E-03 0. -1.
         23    2    1    2    0    0  0.00000000000E+00  0.00000000000E+00 -0.53290705182E-14  0.91188000000E+02  0.91188000000E+02 0.  0.
    9900012    2    3    3    0    0 -0.19736659603E+02 -0.27467502398E+02 -0.14552629651E+02  0.54367103079E+02  0.40000043089E+02 0.  0.
        -12    1    3    3    0    0  0.19736659603E+02  0.27467502398E+02  0.14552629651E+02  0.36820896921E+02  0.00000000000E+00 0.  1.
         11    1    4    4    0    0 -0.15934786743E+02 -0.30932750072E+02 -0.84017642018E+01  0.35795839109E+02  0.51100000000E-03 0. -1.
        -11    1    4    4    0    0  0.41345382375E+01  0.29969028892E+01  0.34073099047E+01  0.61388593739E+01  0.51100000000E-03 0.  1.
        -12    1    4    4    0    0 -0.79364110974E+01  0.46834478433E+00 -0.95581753541E+01  0.12432404596E+02  0.00000000000E+00 0.  1.
</event>
<event>
 8    1  0.1280925E-006  0.9118800E+02  0.7816164E-02  0.1184000E+00
        -11   -1    0    0    0    0  0.00000000000E+00  0.00000000000E+00  0.45593999997E+02  0.45594000000E+02  0.51100000000E-03 0. -1.
         11   -1    0    0    0    0 -0.00000000000E+00 -0.00000000000E+00 -0.45593999997E+02  0.45594000000E+02  0.51100000000E-03 0.  1.
         23    2    1    2    0    0 -0.44408920985E-15  0.00000000000E+00  0.00000000000E+00  0.91188000000E+02  0.91188000000E+02 0.  0.
    9900012    2    3    3    0    0 -0.20760752599E+01  0.13341703151E+02 -0.34255922634E+02  0.54367090628E+02  0.40000014706E+02 0.  0.
         12    1    3    3    0    0  0.20760752599E+01 -0.13341703151E+02  0.34255922634E+02  0.36820909372E+02  0.00000000000E+00 0. -1.
         11    1    4    4    0    0 -0.14645819868E+01  0.86093024585E+01 -0.27503326712E+02  0.28856508273E+02  0.51100000000E-03 0. -1.
        -11    1    4    4    0    0  0.59433505108E+01 -0.54818111334E+01 -0.10083907378E+02  0.12925125023E+02  0.51100000000E-03 0.  1.
         12    1    4    4    0    0 -0.65548437839E+01  0.10214211825E+02  0.33313114559E+01  0.12585457332E+02  0.00000000000E+00 0. -1.
</event>
<event>
 8    1  0.1280925E-006  0.9118800E+02  0.7816164E-02  0.1184000E+00
        -11   -1    0    0    0    0  0.00000000000E+00  0.00000000000E+00  0.45593999997E+02  0.45594000000E+02  0.51100000000E-03 0.  1.
         11   -1    0    0    0    0 -0.00000000000E+00 -0.00000000000E+00 -0.45593999997E+02  0.45594000000E+02  0.51100000000E-03 0. -1.
         23    2    1    2    0    0  0.22204460493E-15  0.00000000000E+00  0.35527136788E-14  0.91188000000E+02  0.91188000000E+02 0.  0.
    9900012    2    3    3    0    0 -0.11804424879E+01 -0.23615118138E+02  0.28226103917E+02  0.54367079432E+02  0.39999989181E+02 0.  0.
         12    1    3    3    0    0  0.11804424879E+01  0.23615118138E+02 -0.28226103917E+02  0.36820920568E+02  0.00000000000E+00 0. -1.
         11    1    4    4    0    0  0.62547234551E+01 -0.14469365873E+02 -0.50937873819E+01  0.16565952566E+02  0.51100000000E-03 0. -1.
        -11    1    4    4    0    0 -0.17773759873E+01 -0.11271202025E+02  0.17770704656E+02  0.21118641166E+02  0.51100000000E-03 0.  1.
         12    1    4    4    0    0 -0.56577899558E+01  0.21254497596E+01  0.15549186643E+02  0.16682485700E+02  0.00000000000E+00 0. -1.
</event>
<event>
 8    1  0.1280925E-006  0.9118800E+02  0.7816164E-02  0.1184000E+00
        -11   -1    0    0    0    0  0.00000000000E+00  0.00000000000E+00  0.45593999997E+02  0.45594000000E+02  0.51100000000E-03 0. -1.
         11   -1    0    0    0    0 -0.00000000000E+00 -0.00000000000E+00 -0.45593999997E+02  0.45594000000E+02  0.51100000000E-03 0.  1.
         23    2    1    2    0    0 -0.71054273576E-14 -0.35527136788E-14  0.00000000000E+00  0.91188000000E+02  0.91188000000E+02 0.  0.
    9900012    2    3    3    0    0  0.22714357130E+02  0.27801046564E+02 -0.81816004418E+01  0.54367098386E+02  0.40000032390E+02 0.  0.
         12    1    3    3    0    0 -0.22714357130E+02 -0.27801046564E+02  0.81816004418E+01  0.36820901614E+02  0.00000000000E+00 0. -1.
         11    1    4    4    0    0 -0.61220661430E+01  0.35497281725E+01 -0.11112401365E+02  0.13174434649E+02  0.51100000000E-03 0. -1.
        -11    1    4    4    0    0  0.14293951590E+02  0.34584717608E+01 -0.32847116887E+01  0.15068756091E+02  0.51100000000E-03 0.  1.
         12    1    4    4    0    0  0.14542471683E+02  0.20792846631E+02  0.62155126124E+01  0.26123907646E+02  0.00000000000E+00 0. -1.
</event>
<event>
 8    1  0.1280925E-006  0.9118800E+02  0.7816164E-02  0.1184000E+00
        -11   -1    0    0    0    0  0.00000000000E+00  0.00000000000E+00  0.45593999997E+02  0.45594000000E+02  0.51100000000E-03 0.  1.
         11   -1    0    0    0    0 -0.00000000000E+00 -0.00000000000E+00 -0.45593999997E+02  0.45594000000E+02  0.51100000000E-03 0. -1.
         23    2    1    2    0    0  0.88817841970E-15  0.17763568394E-14 -0.71054273576E-14  0.91188000000E+02  0.91188000000E+02 0.  0.
    9900012    2    3    3    0    0 -0.72610656591E+01 -0.96163126690E+01  0.34793451388E+02  0.54367071123E+02  0.39999970240E+02 0.  0.
         12    1    3    3    0    0  0.72610656591E+01  0.96163126690E+01 -0.34793451388E+02  0.36820928877E+02  0.00000000000E+00 0. -1.
         11    1    4    4    0    0 -0.23413201276E+01 -0.31937867757E+01  0.29075536547E+01  0.49128324239E+01  0.51100000000E-03 0. -1.
        -11    1    4    4    0    0 -0.15321267820E+02 -0.15364760752E+02  0.27548999548E+02  0.35067998188E+02  0.51100000000E-03 0.  1.
         12    1    4    4    0    0  0.10401522288E+02  0.89422348590E+01  0.43368981855E+01  0.14386240512E+02  0.00000000000E+00 0. -1.
</event>
<event>
 8    1  0.1280925E-006  0.9118800E+02  0.7816164E-02  0.1184000E+00
        -11   -1    0    0    0    0  0.00000000000E+00  0.00000000000E+00  0.45593999997E+02  0.45594000000E+02  0.51100000000E-03 0. -1.
         11   -1    0    0    0    0 -0.00000000000E+00 -0.00000000000E+00 -0.45593999997E+02  0.45594000000E+02  0.51100000000E-03 0.  1.
         23    2    1    2    0    0  0.00000000000E+00  0.00000000000E+00  0.88817841970E-15  0.91188000000E+02  0.91188000000E+02 0.  0.
    9900012    2    3    3    0    0  0.25034885793E+02 -0.26995452519E+02  0.52894189017E+00  0.54367085524E+02  0.40000003068E+02 0.  0.
         12    1    3    3    0    0 -0.25034885793E+02  0.26995452519E+02 -0.52894189017E+00  0.36820914476E+02  0.00000000000E+00 0. -1.
         11    1    4    4    0    0  0.13664438283E+02 -0.26334288044E+01  0.54621612839E+01  0.14949482500E+02  0.51100000000E-03 0. -1.
        -11    1    4    4    0    0  0.55835788008E+01 -0.25143742156E+02  0.65138285721E+01  0.26567161774E+02  0.51100000000E-03 0.  1.
        -12    1    4    4    0    0  0.57868687091E+01  0.78171844124E+00 -0.11447047966E+02  0.12850441250E+02  0.00000000000E+00 0.  1.
</event>
<event>
 8    1  0.1280925E-006  0.9118800E+02  0.7816164E-02  0.1184000E+00
        -11   -1    0    0    0    0  0.00000000000E+00  0.00000000000E+00  0.45593999997E+02  0.45594000000E+02  0.51100000000E-03 0. -1.
         11   -1    0    0    0    0 -0.00000000000E+00 -0.00000000000E+00 -0.45593999997E+02  0.45594000000E+02  0.51100000000E-03 0.  1.
         23    2    1    2    0    0  0.00000000000E+00  0.00000000000E+00  0.35527136788E-14  0.91188000000E+02  0.91188000000E+02 0.  0.
    9900012    2    3    3    0    0 -0.44972727450E+01  0.32602304223E+02  0.16511935387E+02  0.54367085929E+02  0.40000003992E+02 0.  0.
         12    1    3    3    0    0  0.44972727450E+01 -0.32602304223E+02 -0.16511935387E+02  0.36820914071E+02  0.00000000000E+00 0. -1.
         11    1    4    4    0    0 -0.63905743130E+01  0.14825487718E+02  0.30023069609E+01  0.16420973585E+02  0.51100000000E-03 0. -1.
        -11    1    4    4    0    0 -0.53667492809E+01  0.24406640900E+02  0.12830220374E+02  0.28090935779E+02  0.51100000000E-03 0.  1.
         12    1    4    4    0    0  0.72600508489E+01 -0.66298243943E+01  0.67940805181E+00  0.98551765651E+01  0.00000000000E+00 0. -1.
</event>
<event>
 8    1  0.1280925E-006  0.9118800E+02  0.7816164E-02  0.1184000E+00
        -11   -1    0    0    0    0  0.00000000000E+00  0.00000000000E+00  0.45593999997E+02  0.45594000000E+02  0.51100000000E-03 0.  1.
         11   -1    0    0    0    0 -0.00000000000E+00 -0.00000000000E+00 -0.45593999997E+02  0.45594000000E+02  0.51100000000E-03 0. -1.
         23    2    1    2    0    0  0.17763568394E-14  0.00000000000E+00 -0.35527136788E-14  0.91188000000E+02  0.91188000000E+02 0.  0.
    9900012    2    3    3    0    0  0.10369560792E+02 -0.22228379003E+02  0.27461815324E+02  0.54367083050E+02  0.39999997430E+02 0.  0.
         12    1    3    3    0    0 -0.10369560792E+02  0.22228379003E+02 -0.27461815324E+02  0.36820916950E+02  0.00000000000E+00 0. -1.
         11    1    4    4    0    0 -0.51308116073E+01  0.17677078773E+01 -0.21433431588E+01  0.58347184205E+01  0.51100000000E-03 0. -1.
        -11    1    4    4    0    0  0.15157290811E+02 -0.27608936305E+01  0.53877175277E+01  0.16321565451E+02  0.51100000000E-03 0.  1.
        -12    1    4    4    0    0  0.34308158875E+00 -0.21235193249E+02  0.24217440955E+02  0.32210799179E+02  0.00000000000E+00 0.  1.
</event>
<event>
 8    1  0.1280925E-006  0.9118800E+02  0.7816164E-02  0.1184000E+00
        -11   -1    0    0    0    0  0.00000000000E+00  0.00000000000E+00  0.45593999997E+02  0.45594000000E+02  0.51100000000E-03 0.  1.
         11   -1    0    0    0    0 -0.00000000000E+00 -0.00000000000E+00 -0.45593999997E+02  0.45594000000E+02  0.51100000000E-03 0. -1.
         23    2    1    2    0    0  0.25535129566E-14 -0.88817841970E-15  0.00000000000E+00  0.91188000000E+02  0.91188000000E+02 0.  0.
    9900012    2    3    3    0    0 -0.90150668059E+00  0.61433670925E+01 -0.36293617416E+02  0.54367077433E+02  0.39999984625E+02 0.  0.
        -12    1    3    3    0    0  0.90150668059E+00 -0.61433670925E+01  0.36293617416E+02  0.36820922567E+02  0.00000000000E+00 0.  1.
         11    1    4    4    0    0  0.15355143382E-01  0.54493561944E+01 -0.86175642345E+01  0.10195986088E+02  0.51100000000E-03 0.  1.
        -11    1    4    4    0    0  0.14331827746E+02  0.91316964601E+01 -0.14013317633E+02  0.22026398665E+02  0.51100000000E-03 0. -1.
        -12    1    4    4    0    0 -0.15248689570E+02 -0.84376855620E+01 -0.13662735548E+02  0.22144692680E+02  0.00000000000E+00 0.  1.
</event>
<event>
 8    1  0.1280925E-006  0.9118800E+02  0.7816164E-02  0.1184000E+00
        -11   -1    0    0    0    0  0.00000000000E+00  0.00000000000E+00  0.45593999997E+02  0.45594000000E+02  0.51100000000E-03 0.  1.
         11   -1    0    0    0    0 -0.00000000000E+00 -0.00000000000E+00 -0.45593999997E+02  0.45594000000E+02  0.51100000000E-03 0. -1.
         23    2    1    2    0    0  0.00000000000E+00  0.00000000000E+00  0.88817841970E-15  0.91188000000E+02  0.91188000000E+02 0.  0.
    9900012    2    3    3    0    0 -0.34141440888E+02  0.11763316680E+02 -0.71948508090E+01  0.54367089047E+02  0.40000011101E+02 0.  0.
         12    1    3    3    0    0  0.34141440888E+02 -0.11763316680E+02  0.71948508090E+01  0.36820910953E+02  0.00000000000E+00 0. -1.
         11    1    4    4    0    0 -0.21772132161E+02  0.89299554741E+01 -0.13751906583E+02  0.27255912726E+02  0.51100000000E-03 0. -1.
        -11    1    4    4    0    0 -0.13500407907E+02 -0.16362966853E+01 -0.51400747088E+01  0.14538185883E+02  0.51100000000E-03 0.  1.
         12    1    4    4    0    0  0.11310991801E+01  0.44696578909E+01  0.11697130483E+02  0.12572990438E+02  0.00000000000E+00 0. -1.
</event>
<event>
 8    1  0.1280925E-006  0.9118800E+02  0.7816164E-02  0.1184000E+00
        -11   -1    0    0    0    0  0.00000000000E+00  0.00000000000E+00  0.45593999997E+02  0.45594000000E+02  0.51100000000E-03 0.  1.
         11   -1    0    0    0    0 -0.00000000000E+00 -0.00000000000E+00 -0.45593999997E+02  0.45594000000E+02  0.51100000000E-03 0. -1.
         23    2    1    2    0    0  0.11102230246E-15  0.88817841970E-15  0.71054273576E-14  0.91188000000E+02  0.91188000000E+02 0.  0.
    9900012    2    3    3    0    0 -0.48883233741E+00  0.72504983345E+01  0.36096695330E+02  0.54367080717E+02  0.39999992110E+02 0.  0.
         12    1    3    3    0    0  0.48883233741E+00 -0.72504983345E+01 -0.36096695330E+02  0.36820919283E+02  0.00000000000E+00 0. -1.
         11    1    4    4    0    0 -0.11379911098E+01  0.17236589891E+01  0.12127168809E+02  0.12301798554E+02  0.51100000000E-03 0. -1.
        -11    1    4    4    0    0 -0.26030072268E+01  0.12104310418E+02  0.30072452572E+02  0.32521414195E+02  0.51100000000E-03 0.  1.
         12    1    4    4    0    0  0.32521659992E+01 -0.65774710723E+01 -0.61029260512E+01  0.95438679674E+01  0.00000000000E+00 0. -1.
</event>
<event>
 8    1  0.1280925E-006  0.9118800E+02  0.7816164E-02  0.1184000E+00
        -11   -1    0    0    0    0  0.00000000000E+00  0.00000000000E+00  0.45593999997E+02  0.45594000000E+02  0.51100000000E-03 0.  1.
         11   -1    0    0    0    0 -0.00000000000E+00 -0.00000000000E+00 -0.45593999997E+02  0.45594000000E+02  0.51100000000E-03 0. -1.
         23    2    1    2    0    0 -0.35527136788E-14  0.35527136788E-14  0.00000000000E+00  0.91188000000E+02  0.91188000000E+02 0.  0.
    9900012    2    3    3    0    0 -0.31059308801E+02  0.10064542539E+02  0.17023634258E+02  0.54367084706E+02  0.40000001204E+02 0.  0.
         12    1    3    3    0    0  0.31059308801E+02 -0.10064542539E+02 -0.17023634258E+02  0.36820915294E+02  0.00000000000E+00 0. -1.
         11    1    4    4    0    0  0.22221494901E+01 -0.41144964641E+01  0.45500974639E+01  0.65246008845E+01  0.51100000000E-03 0. -1.
        -11    1    4    4    0    0 -0.85002772329E+01 -0.61612031180E+01 -0.46661986662E+01  0.11488626861E+02  0.51100000000E-03 0.  1.
        -12    1    4    4    0    0 -0.24781181058E+02  0.20340242122E+02  0.17139735461E+02  0.36353856960E+02  0.00000000000E+00 0.  1.
</event>
<event>
 8    1  0.1280925E-006  0.9118800E+02  0.7816164E-02  0.1184000E+00
        -11   -1    0    0    0    0  0.00000000000E+00  0.00000000000E+00  0.45593999997E+02  0.45594000000E+02  0.51100000000E-03 0. -1.
         11   -1    0    0    0    0 -0.00000000000E+00 -0.00000000000E+00 -0.45593999997E+02  0.45594000000E+02  0.51100000000E-03 0.  1.
         23    2    1    2    0    0 -0.35527136788E-14 -0.35527136788E-14  0.22204460493E-15  0.91188000000E+02  0.91188000000E+02 0.  0.
    9900012    2    3    3    0    0 -0.29551574323E+02 -0.21960079289E+02  0.49158345673E+00  0.54367051049E+02  0.39999924477E+02 0.  0.
         12    1    3    3    0    0  0.29551574323E+02  0.21960079289E+02 -0.49158345673E+00  0.36820948951E+02  0.00000000000E+00 0. -1.
         11    1    4    4    0    0  0.37658887695E+00  0.19270714678E+01  0.36398085622E+01  0.41356535463E+01  0.51100000000E-03 0. -1.
        -11    1    4    4    0    0  0.58755208458E+01 -0.52378614883E+01  0.46117703286E+01  0.91227936514E+01  0.51100000000E-03 0.  1.
         12    1    4    4    0    0 -0.35803684046E+02 -0.18649289268E+02 -0.77599954341E+01  0.41108603851E+02  0.00000000000E+00 0. -1.
</event>
<event>
 8    1  0.1280925E-006  0.9118800E+02  0.7816164E-02  0.1184000E+00
        -11   -1    0    0    0    0  0.00000000000E+00  0.00000000000E+00  0.45593999997E+02  0.45594000000E+02  0.51100000000E-03 0.  1.
         11   -1    0    0    0    0 -0.00000000000E+00 -0.00000000000E+00 -0.45593999997E+02  0.45594000000E+02  0.51100000000E-03 0. -1.
         23    2    1    2    0    0  0.71054273576E-14  0.88817841970E-15 -0.35527136788E-14  0.91188000000E+02  0.91188000000E+02 0.  0.
    9900012    2    3    3    0    0 -0.29600543981E+02  0.27079938382E+01  0.21731427356E+02  0.54367077014E+02  0.39999983669E+02 0.  0.
         12    1    3    3    0    0  0.29600543981E+02 -0.27079938382E+01 -0.21731427356E+02  0.36820922986E+02  0.00000000000E+00 0. -1.
         11    1    4    4    0    0 -0.13427553387E+02 -0.13972664939E+02  0.79727710129E+01  0.20954704325E+02  0.51100000000E-03 0. -1.
        -11    1    4    4    0    0 -0.17373736327E+02  0.57632865295E+01  0.12904171663E+02  0.22395978035E+02  0.51100000000E-03 0.  1.
        -12    1    4    4    0    0  0.12007457340E+01  0.10917372247E+02  0.85448468053E+00  0.11016394654E+02  0.00000000000E+00 0.  1.
</event>
<event>
 8    1  0.1280925E-006  0.9118800E+02  0.7816164E-02  0.1184000E+00
        -11   -1    0    0    0    0  0.00000000000E+00  0.00000000000E+00  0.45593999997E+02  0.45594000000E+02  0.51100000000E-03 0.  1.
         11   -1    0    0    0    0 -0.00000000000E+00 -0.00000000000E+00 -0.45593999997E+02  0.45594000000E+02  0.51100000000E-03 0. -1.
         23    2    1    2    0    0  0.00000000000E+00  0.00000000000E+00  0.11102230246E-15  0.91188000000E+02  0.91188000000E+02 0.  0.
    9900012    2    3    3    0    0 -0.32435648893E+02 -0.17402503035E+02  0.92826963814E+00  0.54367080464E+02  0.39999991534E+02 0.  0.
        -12    1    3    3    0    0  0.32435648893E+02  0.17402503035E+02 -0.92826963814E+00  0.36820919536E+02  0.00000000000E+00 0.  1.
         11    1    4    4    0    0  0.10473609356E+01 -0.31063230206E+01 -0.82713249868E+00  0.33808809605E+01  0.51100000000E-03 0. -1.
        -11    1    4    4    0    0 -0.39036685912E+02 -0.41446421174E+01  0.28722918392E+01  0.39361033599E+02  0.51100000000E-03 0.  1.
        -12    1    4    4    0    0  0.55536760838E+01 -0.10151537897E+02 -0.11168897023E+01  0.11625165905E+02  0.00000000000E+00 0.  1.
</event>
<event>
 8    1  0.1280925E-006  0.9118800E+02  0.7816164E-02  0.1184000E+00
        -11   -1    0    0    0    0  0.00000000000E+00  0.00000000000E+00  0.45593999997E+02  0.45594000000E+02  0.51100000000E-03 0.  1.
         11   -1    0    0    0    0 -0.00000000000E+00 -0.00000000000E+00 -0.45593999997E+02  0.45594000000E+02  0.51100000000E-03 0. -1.
         23    2    1    2    0    0  0.00000000000E+00  0.17763568394E-14  0.00000000000E+00  0.91188000000E+02  0.91188000000E+02 0.  0.
    9900012    2    3    3    0    0 -0.25507431549E+02  0.11591107473E+02  0.23891369974E+02  0.54367076656E+02  0.39999982852E+02 0.  0.
         12    1    3    3    0    0  0.25507431549E+02 -0.11591107473E+02 -0.23891369974E+02  0.36820923344E+02  0.00000000000E+00 0. -1.
         11    1    4    4    0    0  0.13746882843E+01 -0.13604570065E+01  0.17167130696E+02  0.17275734072E+02  0.51100000000E-03 0. -1.
        -11    1    4    4    0    0 -0.24535789906E+02  0.10793456033E+02  0.13195981338E+02  0.29877041406E+02  0.51100000000E-03 0.  1.
         12    1    4    4    0    0 -0.23463299277E+01  0.21581084469E+01 -0.64717420593E+01  0.72143011776E+01  0.00000000000E+00 0. -1.
</event>
<event>
 8    1  0.1280925E-006  0.9118800E+02  0.7816164E-02  0.1184000E+00
        -11   -1    0    0    0    0  0.00000000000E+00  0.00000000000E+00  0.45593999997E+02  0.45594000000E+02  0.51100000000E-03 0.  1.
         11   -1    0    0    0    0 -0.00000000000E+00 -0.00000000000E+00 -0.45593999997E+02  0.45594000000E+02  0.51100000000E-03 0. -1.
         23    2    1    2    0    0  0.35527136788E-14  0.00000000000E+00  0.00000000000E+00  0.91188000000E+02  0.91188000000E+02 0.  0.
    9900012    2    3    3    0    0 -0.29767961067E+02 -0.18774263102E+02 -0.10824707648E+02  0.54367098914E+02  0.40000033594E+02 0.  0.
        -12    1    3    3    0    0  0.29767961067E+02  0.18774263102E+02  0.10824707648E+02  0.36820901086E+02  0.00000000000E+00 0.  1.
         11    1    4    4    0    0 -0.13834974981E+02 -0.12179164575E+02  0.15597964021E+01  0.18497879542E+02  0.51100000000E-03 0. -1.
        -11    1    4    4    0    0 -0.56016612401E+01 -0.11835631326E+02 -0.18581223031E+02  0.22731533761E+02  0.51100000000E-03 0.  1.
        -12    1    4    4    0    0 -0.10331324846E+02  0.52405327988E+01  0.61967189812E+01  0.13137685611E+02  0.00000000000E+00 0.  1.
</event>
<event>
 8    1  0.1280925E-006  0.9118800E+02  0.7816164E-02  0.1184000E+00
        -11   -1    0    0    0    0  0.00000000000E+00  0.00000000000E+00  0.45593999997E+02  0.45594000000E+02  0.51100000000E-03 0. -1.
         11   -1    0    0    0    0 -0.00000000000E+00 -0.00000000000E+00 -0.45593999997E+02  0.45594000000E+02  0.51100000000E-03 0.  1.
         23    2    1    2    0    0  0.00000000000E+00  0.00000000000E+00 -0.17763568394E-14  0.91188000000E+02  0.91188000000E+02 0.  0.
    9900012    2    3    3    0    0  0.49989097973E+01 -0.35357222114E+02  0.89809771802E+01  0.54367079236E+02  0.39999988734E+02 0.  0.
         12    1    3    3    0    0 -0.49989097973E+01  0.35357222114E+02 -0.89809771802E+01  0.36820920764E+02  0.00000000000E+00 0. -1.
         11    1    4    4    0    0  0.89841595177E+01  0.18318939139E+01  0.31232950634E+01  0.96863785733E+01  0.51100000000E-03 0. -1.
        -11    1    4    4    0    0 -0.11008595919E+02 -0.35272356455E+02  0.39928806449E+01  0.37165459907E+02  0.51100000000E-03 0.  1.
        -12    1    4    4    0    0  0.70233461984E+01 -0.19167595730E+01  0.18648014719E+01  0.75152407555E+01  0.00000000000E+00 0.  1.
</event>
<event>
 8    1  0.1280925E-006  0.9118800E+02  0.7816164E-02  0.1184000E+00
        -11   -1    0    0    0    0  0.00000000000E+00  0.00000000000E+00  0.45593999997E+02  0.45594000000E+02  0.51100000000E-03 0.  1.
         11   -1    0    0    0    0 -0.00000000000E+00 -0.00000000000E+00 -0.45593999997E+02  0.45594000000E+02  0.51100000000E-03 0. -1.
         23    2    1    2    0    0 -0.17763568394E-14 -0.71054273576E-14 -0.17763568394E-14  0.91188000000E+02  0.91188000000E+02 0.  0.
    9900012    2    3    3    0    0 -0.10999410918E+02  0.34863740271E+02 -0.43944585377E+01  0.54367099793E+02  0.40000035597E+02 0.  0.
         12    1    3    3    0    0  0.10999410918E+02 -0.34863740271E+02  0.43944585377E+01  0.36820900207E+02  0.00000000000E+00 0. -1.
         11    1    4    4    0    0  0.33249113765E+01  0.14583232794E+02 -0.18618768638E+02  0.23882718862E+02  0.51100000000E-03 0. -1.
        -11    1    4    4    0    0 -0.25027811396E+01  0.11290372282E+02  0.32328711282E+01  0.12007825603E+02  0.51100000000E-03 0.  1.
         12    1    4    4    0    0 -0.11821541155E+02  0.89901351949E+01  0.10991438972E+02  0.18476555328E+02  0.00000000000E+00 0. -1.
</event>
<event>
 8    1  0.1280925E-006  0.9118800E+02  0.7816164E-02  0.1184000E+00
        -11   -1    0    0    0    0  0.00000000000E+00  0.00000000000E+00  0.45593999997E+02  0.45594000000E+02  0.51100000000E-03 0. -1.
         11   -1    0    0    0    0 -0.00000000000E+00 -0.00000000000E+00 -0.45593999997E+02  0.45594000000E+02  0.51100000000E-03 0.  1.
         23    2    1    2    0    0  0.00000000000E+00  0.35527136788E-14  0.00000000000E+00  0.91188000000E+02  0.91188000000E+02 0.  0.
    9900012    2    3    3    0    0  0.82271485704E+01  0.11642823402E+02 -0.33948952867E+02  0.54367181010E+02  0.40000220748E+02 0.  0.
         12    1    3    3    0    0 -0.82271485704E+01 -0.11642823402E+02  0.33948952867E+02  0.36820818990E+02  0.00000000000E+00 0. -1.
         11    1    4    4    0    0  0.23593498346E+01 -0.24021123674E+01 -0.84300201836E+01  0.90775501114E+01  0.51100000000E-03 0. -1.
        -11    1    4    4    0    0  0.13787023470E-01 -0.47650292676E+01 -0.25138476636E+02  0.25586103686E+02  0.51100000000E-03 0.  1.
        -12    1    4    4    0    0  0.58540117124E+01  0.18809965037E+02 -0.38045604721E+00  0.19703527212E+02  0.00000000000E+00 0.  1.
</event>
<event>
 8    1  0.1280925E-006  0.9118800E+02  0.7816164E-02  0.1184000E+00
        -11   -1    0    0    0    0  0.00000000000E+00  0.00000000000E+00  0.45593999997E+02  0.45594000000E+02  0.51100000000E-03 0.  1.
         11   -1    0    0    0    0 -0.00000000000E+00 -0.00000000000E+00 -0.45593999997E+02  0.45594000000E+02  0.51100000000E-03 0. -1.
         23    2    1    2    0    0  0.00000000000E+00  0.88817841970E-15  0.00000000000E+00  0.91188000000E+02  0.91188000000E+02 0.  0.
    9900012    2    3    3    0    0  0.34755915561E+02  0.53295637766E+01 -0.10927107869E+02  0.54367087424E+02  0.40000007400E+02 0.  0.
        -12    1    3    3    0    0 -0.34755915561E+02 -0.53295637766E+01  0.10927107869E+02  0.36820912576E+02  0.00000000000E+00 0.  1.
         11    1    4    4    0    0  0.27076098925E+02 -0.52797079149E+01 -0.93227924856E+01  0.29118806786E+02  0.51100000000E-03 0. -1.
        -11    1    4    4    0    0  0.12927547839E+02  0.99629522164E+01  0.47342391824E+01  0.16993967485E+02  0.51100000000E-03 0.  1.
        -12    1    4    4    0    0 -0.52477312023E+01  0.64631947518E+00 -0.63385545658E+01  0.82543131525E+01  0.00000000000E+00 0.  1.
</event>
<event>
 8    1  0.1280925E-006  0.9118800E+02  0.7816164E-02  0.1184000E+00
        -11   -1    0    0    0    0  0.00000000000E+00  0.00000000000E+00  0.45593999997E+02  0.45594000000E+02  0.51100000000E-03 0.  1.
         11   -1    0    0    0    0 -0.00000000000E+00 -0.00000000000E+00 -0.45593999997E+02  0.45594000000E+02  0.51100000000E-03 0. -1.
         23    2    1    2    0    0  0.71054273576E-14  0.00000000000E+00  0.00000000000E+00  0.91188000000E+02  0.91188000000E+02 0.  0.
    9900012    2    3    3    0    0  0.34132702762E+02 -0.76388728025E+01  0.11506265101E+02  0.54366974592E+02  0.39999750176E+02 0.  0.
         12    1    3    3    0    0 -0.34132702762E+02  0.76388728025E+01 -0.11506265101E+02  0.36821025408E+02  0.00000000000E+00 0. -1.
         11    1    4    4    0    0  0.17204191519E+02 -0.41011880141E+01 -0.10765137431E+01  0.17718996333E+02  0.51100000000E-03 0. -1.
        -11    1    4    4    0    0 -0.53451646302E+01 -0.80887887685E+01 -0.16379592156E+01  0.98327106801E+01  0.51100000000E-03 0.  1.
        -12    1    4    4    0    0  0.22273675873E+02  0.45511039801E+01  0.14220738060E+02  0.26815267578E+02  0.00000000000E+00 0.  1.
</event>
<event>
 8    1  0.1280925E-006  0.9118800E+02  0.7816164E-02  0.1184000E+00
        -11   -1    0    0    0    0  0.00000000000E+00  0.00000000000E+00  0.45593999997E+02  0.45594000000E+02  0.51100000000E-03 0.  1.
         11   -1    0    0    0    0 -0.00000000000E+00 -0.00000000000E+00 -0.45593999997E+02  0.45594000000E+02  0.51100000000E-03 0. -1.
         23    2    1    2    0    0  0.00000000000E+00  0.00000000000E+00  0.00000000000E+00  0.91188000000E+02  0.91188000000E+02 0.  0.
    9900012    2    3    3    0    0  0.32156603998E+02 -0.32902703049E+01 -0.17632567393E+02  0.54367075348E+02  0.39999979871E+02 0.  0.
        -12    1    3    3    0    0 -0.32156603998E+02  0.32902703049E+01  0.17632567393E+02  0.36820924652E+02  0.00000000000E+00 0.  1.
         11    1    4    4    0    0  0.22962654509E+02 -0.64276417535E+01 -0.12362876122E+02  0.26859612560E+02  0.51100000000E-03 0. -1.
        -11    1    4    4    0    0  0.10011875625E+02  0.89447955253E+01  0.60753163049E+01  0.14736230488E+02  0.51100000000E-03 0.  1.
        -12    1    4    4    0    0 -0.81792613600E+00 -0.58074240767E+01 -0.11345007576E+02  0.12771232301E+02  0.00000000000E+00 0.  1.
</event>
<event>
 8    1  0.1280925E-006  0.9118800E+02  0.7816164E-02  0.1184000E+00
        -11   -1    0    0    0    0  0.00000000000E+00  0.00000000000E+00  0.45593999997E+02  0.45594000000E+02  0.51100000000E-03 0. -1.
         11   -1    0    0    0    0 -0.00000000000E+00 -0.00000000000E+00 -0.45593999997E+02  0.45594000000E+02  0.51100000000E-03 0.  1.
         23    2    1    2    0    0  0.17763568394E-14  0.45796699766E-15  0.71054273576E-14  0.91188000000E+02  0.91188000000E+02 0.  0.
    9900012    2    3    3    0    0  0.11300079996E+02  0.83827046282E-01  0.35043986773E+02  0.54367084153E+02  0.39999999944E+02 0.  0.
        -12    1    3    3    0    0 -0.11300079996E+02 -0.83827046282E-01 -0.35043986773E+02  0.36820915847E+02  0.00000000000E+00 0.  1.
         11    1    4    4    0    0  0.66625510901E+00  0.31475913332E+00 -0.73237911026E+00  0.10389170345E+01  0.51100000000E-03 0. -1.
        -11    1    4    4    0    0  0.49312874764E+01  0.77513869126E+01 -0.56304474789E+01  0.10775135002E+02  0.51100000000E-03 0.  1.
         12    1    4    4    0    0  0.57025374106E+01 -0.79823189996E+01  0.41406813362E+02  0.42553032116E+02  0.00000000000E+00 0. -1.
</event>
<event>
 8    1  0.1280925E-006  0.9118800E+02  0.7816164E-02  0.1184000E+00
        -11   -1    0    0    0    0  0.00000000000E+00  0.00000000000E+00  0.45593999997E+02  0.45594000000E+02  0.51100000000E-03 0.  1.
         11   -1    0    0    0    0 -0.00000000000E+00 -0.00000000000E+00 -0.45593999997E+02  0.45594000000E+02  0.51100000000E-03 0. -1.
         23    2    1    2    0    0  0.00000000000E+00 -0.44408920985E-15 -0.35527136788E-14  0.91188000000E+02  0.91188000000E+02 0.  0.
    9900012    2    3    3    0    0  0.22251621686E+02 -0.24787144458E+01 -0.29231842282E+02  0.54367091590E+02  0.40000016898E+02 0.  0.
        -12    1    3    3    0    0 -0.22251621686E+02  0.24787144458E+01  0.29231842282E+02  0.36820908410E+02  0.00000000000E+00 0.  1.
         11    1    4    4    0    0 -0.33143325747E+01  0.56167338420E+01 -0.22723794155E+01  0.69062441267E+01  0.51100000000E-03 0. -1.
        -11    1    4    4    0    0 -0.42911596378E+01 -0.55518489300E+01  0.19872314197E+00  0.70197271120E+01  0.51100000000E-03 0.  1.
         12    1    4    4    0    0  0.29857113898E+02 -0.25435993578E+01 -0.27158186008E+02  0.40441120351E+02  0.00000000000E+00 0. -1.
</event>
<event>
 8    1  0.1280925E-006  0.9118800E+02  0.7816164E-02  0.1184000E+00
        -11   -1    0    0    0    0  0.00000000000E+00  0.00000000000E+00  0.45593999997E+02  0.45594000000E+02  0.51100000000E-03 0.  1.
         11   -1    0    0    0    0 -0.00000000000E+00 -0.00000000000E+00 -0.45593999997E+02  0.45594000000E+02  0.51100000000E-03 0. -1.
         23    2    1    2    0    0  0.00000000000E+00  0.17763568394E-14  0.00000000000E+00  0.91188000000E+02  0.91188000000E+02 0.  0.
    9900012    2    3    3    0    0 -0.33891426986E+02  0.11843563939E+02  0.81780350171E+01  0.54367094434E+02  0.40000023382E+02 0.  0.
        -12    1    3    3    0    0  0.33891426986E+02 -0.11843563939E+02 -0.81780350171E+01  0.36820905566E+02  0.00000000000E+00 0.  1.
         11    1    4    4    0    0 -0.67095742535E+01  0.12842177698E+02  0.25516682796E+01  0.14712271271E+02  0.51100000000E-03 0. -1.
        -11    1    4    4    0    0 -0.32989210515E+02 -0.17376369461E-02  0.67073930104E+01  0.33664181777E+02  0.51100000000E-03 0.  1.
         12    1    4    4    0    0  0.58073577824E+01 -0.99687612241E+00 -0.10810262729E+01  0.59906413863E+01  0.00000000000E+00 0. -1.
</event>
<event>
 8    1  0.1280925E-006  0.9118800E+02  0.7816164E-02  0.1184000E+00
        -11   -1    0    0    0    0  0.00000000000E+00  0.00000000000E+00  0.45593999997E+02  0.45594000000E+02  0.51100000000E-03 0. -1.
         11   -1    0    0    0    0 -0.00000000000E+00 -0.00000000000E+00 -0.45593999997E+02  0.45594000000E+02  0.51100000000E-03 0.  1.
         23    2    1    2    0    0 -0.17763568394E-14  0.88817841970E-15  0.00000000000E+00  0.91188000000E+02  0.91188000000E+02 0.  0.
    9900012    2    3    3    0    0  0.86594733668E+01 -0.49398443128E+01  0.35445605404E+02  0.54367089049E+02  0.40000011104E+02 0.  0.
        -12    1    3    3    0    0 -0.86594733668E+01  0.49398443128E+01 -0.35445605404E+02  0.36820910951E+02  0.00000000000E+00 0.  1.
         11    1    4    4    0    0  0.20899817892E+01 -0.35294467777E+00  0.12511198451E+01  0.24612791293E+01  0.51100000000E-03 0. -1.
        -11    1    4    4    0    0  0.14722878317E+02 -0.69064717964E+01 -0.42073597962E+00  0.16267744701E+02  0.51100000000E-03 0.  1.
         12    1    4    4    0    0 -0.81533867398E+01  0.23195721614E+01  0.34615221539E+02  0.35638065218E+02  0.00000000000E+00 0. -1.
</event>
<event>
 8    1  0.1280925E-006  0.9118800E+02  0.7816164E-02  0.1184000E+00
        -11   -1    0    0    0    0  0.00000000000E+00  0.00000000000E+00  0.45593999997E+02  0.45594000000E+02  0.51100000000E-03 0.  1.
         11   -1    0    0    0    0 -0.00000000000E+00 -0.00000000000E+00 -0.45593999997E+02  0.45594000000E+02  0.51100000000E-03 0. -1.
         23    2    1    2    0    0 -0.35527136788E-14 -0.17763568394E-14  0.00000000000E+00  0.91188000000E+02  0.91188000000E+02 0.  0.
    9900012    2    3    3    0    0  0.29642898453E+02  0.93566188768E+01 -0.19736561110E+02  0.54367087601E+02  0.40000007803E+02 0.  0.
        -12    1    3    3    0    0 -0.29642898453E+02 -0.93566188768E+01  0.19736561110E+02  0.36820912399E+02  0.00000000000E+00 0.  1.
         11    1    4    4    0    0  0.35935582967E+01  0.44810847966E+01 -0.55135217057E+01  0.79619535320E+01  0.51100000000E-03 0. -1.
        -11    1    4    4    0    0  0.22735337240E+02 -0.32682844431E+01 -0.24024620946E+02  0.33237924942E+02  0.51100000000E-03 0.  1.
        -12    1    4    4    0    0  0.33140029167E+01  0.81438185233E+01  0.98015815417E+01  0.13167209127E+02  0.00000000000E+00 0.  1.
</event>
<event>
 8    1  0.1280925E-006  0.9118800E+02  0.7816164E-02  0.1184000E+00
        -11   -1    0    0    0    0  0.00000000000E+00  0.00000000000E+00  0.45593999997E+02  0.45594000000E+02  0.51100000000E-03 0.  1.
         11   -1    0    0    0    0 -0.00000000000E+00 -0.00000000000E+00 -0.45593999997E+02  0.45594000000E+02  0.51100000000E-03 0. -1.
         23    2    1    2    0    0  0.17763568394E-14 -0.88817841970E-15  0.00000000000E+00  0.91188000000E+02  0.91188000000E+02 0.  0.
    9900012    2    3    3    0    0  0.12336160123E+02 -0.35969444537E+01  0.34505975690E+02  0.54367065543E+02  0.39999957518E+02 0.  0.
         12    1    3    3    0    0 -0.12336160123E+02  0.35969444537E+01 -0.34505975690E+02  0.36820934457E+02  0.00000000000E+00 0. -1.
         11    1    4    4    0    0 -0.34188485054E+01  0.37829806770E+01  0.17771423122E+02  0.18488454450E+02  0.51100000000E-03 0.  1.
        -11    1    4    4    0    0 -0.71551069910E+01 -0.48963053611E+01  0.51825037626E+01  0.10100876583E+02  0.51100000000E-03 0. -1.
         12    1    4    4    0    0  0.22910115619E+02 -0.24836197696E+01  0.11552048805E+02  0.25777734509E+02  0.00000000000E+00 0. -1.
</event>
<event>
 8    1  0.1280925E-006  0.9118800E+02  0.7816164E-02  0.1184000E+00
        -11   -1    0    0    0    0  0.00000000000E+00  0.00000000000E+00  0.45593999997E+02  0.45594000000E+02  0.51100000000E-03 0.  1.
         11   -1    0    0    0    0 -0.00000000000E+00 -0.00000000000E+00 -0.45593999997E+02  0.45594000000E+02  0.51100000000E-03 0. -1.
         23    2    1    2    0    0  0.00000000000E+00  0.00000000000E+00 -0.35527136788E-14  0.91188000000E+02  0.91188000000E+02 0.  0.
    9900012    2    3    3    0    0 -0.10494600395E+02  0.29146750605E+02 -0.19902519616E+02  0.54367082095E+02  0.39999995253E+02 0.  0.
        -12    1    3    3    0    0  0.10494600395E+02 -0.29146750605E+02  0.19902519616E+02  0.36820917905E+02  0.00000000000E+00 0.  1.
         11    1    4    4    0    0 -0.14778865044E+00  0.23761209243E+02 -0.11589101901E+02  0.26437174382E+02  0.51100000000E-03 0. -1.
        -11    1    4    4    0    0 -0.34231806787E+01  0.11497191761E+02  0.39035335699E+01  0.12615116287E+02  0.51100000000E-03 0.  1.
        -12    1    4    4    0    0 -0.69236310655E+01 -0.61116503987E+01 -0.12216951285E+02  0.15314791426E+02  0.00000000000E+00 0.  1.
</event>
<event>
 8    1  0.1280925E-006  0.9118800E+02  0.7816164E-02  0.1184000E+00
        -11   -1    0    0    0    0  0.00000000000E+00  0.00000000000E+00  0.45593999997E+02  0.45594000000E+02  0.51100000000E-03 0.  1.
         11   -1    0    0    0    0 -0.00000000000E+00 -0.00000000000E+00 -0.45593999997E+02  0.45594000000E+02  0.51100000000E-03 0. -1.
         23    2    1    2    0    0  0.00000000000E+00  0.00000000000E+00  0.88817841970E-15  0.91188000000E+02  0.91188000000E+02 0.  0.
    9900012    2    3    3    0    0 -0.10106935307E+02 -0.35125977405E+02  0.44494434133E+01  0.54367055191E+02  0.39999933918E+02 0.  0.
        -12    1    3    3    0    0  0.10106935307E+02  0.35125977405E+02 -0.44494434133E+01  0.36820944809E+02  0.00000000000E+00 0.  1.
         11    1    4    4    0    0 -0.82107905760E+01 -0.35291575602E+02  0.13099310695E+02  0.38529265907E+02  0.51100000000E-03 0.  1.
        -11    1    4    4    0    0 -0.40184480874E+01 -0.21980722310E+01 -0.10980735879E+02  0.11897731182E+02  0.51100000000E-03 0. -1.
        -12    1    4    4    0    0  0.21223033562E+01  0.23636704282E+01  0.23308685976E+01  0.39400581021E+01  0.00000000000E+00 0.  1.
</event>
<event>
 8    1  0.1280925E-006  0.9118800E+02  0.7816164E-02  0.1184000E+00
        -11   -1    0    0    0    0  0.00000000000E+00  0.00000000000E+00  0.45593999997E+02  0.45594000000E+02  0.51100000000E-03 0. -1.
         11   -1    0    0    0    0 -0.00000000000E+00 -0.00000000000E+00 -0.45593999997E+02  0.45594000000E+02  0.51100000000E-03 0.  1.
         23    2    1    2    0    0  0.00000000000E+00  0.71054273576E-14  0.35527136788E-14  0.91188000000E+02  0.91188000000E+02 0.  0.
    9900012    2    3    3    0    0 -0.51274756174E+01  0.32132118745E+02  0.17234151558E+02  0.54367081473E+02  0.39999993834E+02 0.  0.
        -12    1    3    3    0    0  0.51274756174E+01 -0.32132118745E+02 -0.17234151558E+02  0.36820918527E+02  0.00000000000E+00 0.  1.
         11    1    4    4    0    0 -0.12292960104E+02 -0.12832912005E-01 -0.21256732360E+01  0.12475396577E+02  0.51100000000E-03 0. -1.
        -11    1    4    4    0    0  0.15330466446E+01  0.25701692465E+02  0.66899811956E+01  0.26602313363E+02  0.51100000000E-03 0.  1.
         12    1    4    4    0    0  0.56324378419E+01  0.64432591917E+01  0.12669843599E+02  0.15289371533E+02  0.00000000000E+00 0. -1.
</event>
<event>
 8    1  0.1280925E-006  0.9118800E+02  0.7816164E-02  0.1184000E+00
        -11   -1    0    0    0    0  0.00000000000E+00  0.00000000000E+00  0.45593999997E+02  0.45594000000E+02  0.51100000000E-03 0. -1.
         11   -1    0    0    0    0 -0.00000000000E+00 -0.00000000000E+00 -0.45593999997E+02  0.45594000000E+02  0.51100000000E-03 0.  1.
         23    2    1    2    0    0  0.00000000000E+00  0.88817841970E-15  0.00000000000E+00  0.91188000000E+02  0.91188000000E+02 0.  0.
    9900012    2    3    3    0    0  0.43380949056E+01 -0.78312278879E+01  0.35715988803E+02  0.54367094881E+02  0.40000024400E+02 0.  0.
        -12    1    3    3    0    0 -0.43380949056E+01  0.78312278879E+01 -0.35715988803E+02  0.36820905119E+02  0.00000000000E+00 0.  1.
         11    1    4    4    0    0 -0.11939654030E+02 -0.84067220238E+01  0.11511442288E+02  0.18594128572E+02  0.51100000000E-03 0. -1.
        -11    1    4    4    0    0  0.12376627892E+02  0.10765540001E+01  0.27796501063E+02  0.30446434242E+02  0.51100000000E-03 0.  1.
        -12    1    4    4    0    0  0.39011210437E+01 -0.50105986425E+00 -0.35919545477E+01  0.53265320667E+01  0.00000000000E+00 0.  1.
</event>
<event>
 8    1  0.1280925E-006  0.9118800E+02  0.7816164E-02  0.1184000E+00
        -11   -1    0    0    0    0  0.00000000000E+00  0.00000000000E+00  0.45593999997E+02  0.45594000000E+02  0.51100000000E-03 0.  1.
         11   -1    0    0    0    0 -0.00000000000E+00 -0.00000000000E+00 -0.45593999997E+02  0.45594000000E+02  0.51100000000E-03 0. -1.
         23    2    1    2    0    0 -0.17763568394E-14  0.00000000000E+00  0.00000000000E+00  0.91188000000E+02  0.91188000000E+02 0.  0.
    9900012    2    3    3    0    0 -0.14501024926E+02  0.28878557547E+02  0.17650157359E+02  0.54367097449E+02  0.40000030254E+02 0.  0.
         12    1    3    3    0    0  0.14501024926E+02 -0.28878557547E+02 -0.17650157359E+02  0.36820902551E+02  0.00000000000E+00 0. -1.
         11    1    4    4    0    0  0.51329118341E+01  0.16380059999E+02 -0.22988264691E+01  0.17318711062E+02  0.51100000000E-03 0. -1.
        -11    1    4    4    0    0 -0.12995539811E+02  0.15167245417E+02  0.51744240480E+01  0.20632596856E+02  0.51100000000E-03 0.  1.
         12    1    4    4    0    0 -0.66383969487E+01 -0.26687478689E+01  0.14774559780E+02  0.16415789531E+02  0.00000000000E+00 0. -1.
</event>
<event>
 8    1  0.1280925E-006  0.9118800E+02  0.7816164E-02  0.1184000E+00
        -11   -1    0    0    0    0  0.00000000000E+00  0.00000000000E+00  0.45593999997E+02  0.45594000000E+02  0.51100000000E-03 0. -1.
         11   -1    0    0    0    0 -0.00000000000E+00 -0.00000000000E+00 -0.45593999997E+02  0.45594000000E+02  0.51100000000E-03 0.  1.
         23    2    1    2    0    0  0.00000000000E+00  0.00000000000E+00  0.35527136788E-14  0.91188000000E+02  0.91188000000E+02 0.  0.
    9900012    2    3    3    0    0  0.20017459973E+02 -0.17823046018E+02 -0.25247184236E+02  0.54367082236E+02  0.39999995574E+02 0.  0.
        -12    1    3    3    0    0 -0.20017459973E+02  0.17823046018E+02  0.25247184236E+02  0.36820917764E+02  0.00000000000E+00 0.  1.
         11    1    4    4    0    0  0.11161255011E+02 -0.37864528067E+01  0.14741520334E+01  0.11877877031E+02  0.51100000000E-03 0. -1.
        -11    1    4    4    0    0  0.16212894705E+02  0.60073125068E+00 -0.16709329017E+02  0.23289922911E+02  0.51100000000E-03 0.  1.
        -12    1    4    4    0    0 -0.73566897434E+01 -0.14637324462E+02 -0.10012007253E+02  0.19199282294E+02  0.00000000000E+00 0.  1.
</event>
<event>
 8    1  0.1280925E-006  0.9118800E+02  0.7816164E-02  0.1184000E+00
        -11   -1    0    0    0    0  0.00000000000E+00  0.00000000000E+00  0.45593999997E+02  0.45594000000E+02  0.51100000000E-03 0. -1.
         11   -1    0    0    0    0 -0.00000000000E+00 -0.00000000000E+00 -0.45593999997E+02  0.45594000000E+02  0.51100000000E-03 0.  1.
         23    2    1    2    0    0  0.35527136788E-14  0.00000000000E+00  0.00000000000E+00  0.91188000000E+02  0.91188000000E+02 0.  0.
    9900012    2    3    3    0    0  0.30509134305E+02 -0.17651097974E+02 -0.10649504616E+02  0.54367075456E+02  0.39999980117E+02 0.  0.
         12    1    3    3    0    0 -0.30509134305E+02  0.17651097974E+02  0.10649504616E+02  0.36820924544E+02  0.00000000000E+00 0. -1.
         11    1    4    4    0    0  0.49948361733E+01 -0.20363861451E+02 -0.10573345250E+02  0.23482565269E+02  0.51100000000E-03 0. -1.
        -11    1    4    4    0    0  0.94623198355E+01  0.28990390704E+01 -0.82372795631E+01  0.12876051377E+02  0.51100000000E-03 0.  1.
         12    1    4    4    0    0  0.16051978296E+02 -0.18627559286E+00  0.81611201971E+01  0.18008458809E+02  0.00000000000E+00 0. -1.
</event>
<event>
 8    1  0.1280925E-006  0.9118800E+02  0.7816164E-02  0.1184000E+00
        -11   -1    0    0    0    0  0.00000000000E+00  0.00000000000E+00  0.45593999997E+02  0.45594000000E+02  0.51100000000E-03 0. -1.
         11   -1    0    0    0    0 -0.00000000000E+00 -0.00000000000E+00 -0.45593999997E+02  0.45594000000E+02  0.51100000000E-03 0.  1.
         23    2    1    2    0    0  0.88817841970E-15  0.00000000000E+00  0.00000000000E+00  0.91188000000E+02  0.91188000000E+02 0.  0.
    9900012    2    3    3    0    0  0.54099180220E+01  0.35281785910E+02  0.90392923887E+01  0.54367076099E+02  0.39999981584E+02 0.  0.
        -12    1    3    3    0    0 -0.54099180220E+01 -0.35281785910E+02 -0.90392923887E+01  0.36820923901E+02  0.00000000000E+00 0.  1.
         11    1    4    4    0    0  0.16261328743E+01  0.12947034047E+02 -0.74978938282E-01  0.13048970106E+02  0.51100000000E-03 0. -1.
        -11    1    4    4    0    0 -0.27046390440E+01  0.98162950257E+01 -0.12119628297E+02  0.15829090647E+02  0.51100000000E-03 0.  1.
        -12    1    4    4    0    0  0.64884241916E+01  0.12518456838E+02  0.21233899624E+02  0.25489015346E+02  0.00000000000E+00 0.  1.
</event>
<event>
 8    1  0.1280925E-006  0.9118800E+02  0.7816164E-02  0.1184000E+00
        -11   -1    0    0    0    0  0.00000000000E+00  0.00000000000E+00  0.45593999997E+02  0.45594000000E+02  0.51100000000E-03 0. -1.
         11   -1    0    0    0    0 -0.00000000000E+00 -0.00000000000E+00 -0.45593999997E+02  0.45594000000E+02  0.51100000000E-03 0.  1.
         23    2    1    2    0    0  0.66613381478E-15  0.00000000000E+00  0.00000000000E+00  0.91188000000E+02  0.91188000000E+02 0.  0.
    9900012    2    3    3    0    0  0.25324634035E+00 -0.23110274528E+01 -0.36747437556E+02  0.54367093594E+02  0.40000021467E+02 0.  0.
         12    1    3    3    0    0 -0.25324634035E+00  0.23110274528E+01  0.36747437556E+02  0.36820906406E+02  0.00000000000E+00 0. -1.
         11    1    4    4    0    0  0.69585505073E+01  0.16961742827E+02 -0.14944743506E+02  0.23653065417E+02  0.51100000000E-03 0. -1.
        -11    1    4    4    0    0 -0.37518242711E+01 -0.24869153680E+01 -0.57357748632E+01  0.72910936731E+01  0.51100000000E-03 0.  1.
         12    1    4    4    0    0 -0.29534798958E+01 -0.16785854912E+02 -0.16066919187E+02  0.23422934504E+02  0.00000000000E+00 0. -1.
</event>
<event>
 8    1  0.1280925E-006  0.9118800E+02  0.7816164E-02  0.1184000E+00
        -11   -1    0    0    0    0  0.00000000000E+00  0.00000000000E+00  0.45593999997E+02  0.45594000000E+02  0.51100000000E-03 0. -1.
         11   -1    0    0    0    0 -0.00000000000E+00 -0.00000000000E+00 -0.45593999997E+02  0.45594000000E+02  0.51100000000E-03 0.  1.
         23    2    1    2    0    0  0.00000000000E+00  0.35527136788E-14  0.00000000000E+00  0.91188000000E+02  0.91188000000E+02 0.  0.
    9900012    2    3    3    0    0 -0.15090451010E+02 -0.30745049104E+02  0.13520371398E+02  0.54367079332E+02  0.39999988953E+02 0.  0.
        -12    1    3    3    0    0  0.15090451010E+02  0.30745049104E+02 -0.13520371398E+02  0.36820920668E+02  0.00000000000E+00 0.  1.
         11    1    4    4    0    0 -0.70267691395E+01 -0.81204874536E+01  0.25092530402E+02  0.27293825003E+02  0.51100000000E-03 0. -1.
        -11    1    4    4    0    0 -0.84114129975E+01 -0.18757641612E+02 -0.10256838909E+02  0.22973979458E+02  0.51100000000E-03 0.  1.
         12    1    4    4    0    0  0.34773112691E+00 -0.38669200380E+01 -0.13153200956E+01  0.40992748713E+01  0.00000000000E+00 0. -1.
</event>
<event>
 8    1  0.1280925E-006  0.9118800E+02  0.7816164E-02  0.1184000E+00
        -11   -1    0    0    0    0  0.00000000000E+00  0.00000000000E+00  0.45593999997E+02  0.45594000000E+02  0.51100000000E-03 0. -1.
         11   -1    0    0    0    0 -0.00000000000E+00 -0.00000000000E+00 -0.45593999997E+02  0.45594000000E+02  0.51100000000E-03 0.  1.
         23    2    1    2    0    0  0.35527136788E-14  0.35527136788E-14  0.88817841970E-15  0.91188000000E+02  0.91188000000E+02 0.  0.
    9900012    2    3    3    0    0  0.19828981428E+02  0.30245624756E+02 -0.69132920630E+01  0.54367083003E+02  0.39999997321E+02 0.  0.
        -12    1    3    3    0    0 -0.19828981428E+02 -0.30245624756E+02  0.69132920630E+01  0.36820916997E+02  0.00000000000E+00 0.  1.
         11    1    4    4    0    0  0.14369511580E+02  0.20227529429E+02  0.46313400527E+01  0.25240545176E+02  0.51100000000E-03 0. -1.
        -11    1    4    4    0    0  0.13895649563E+02  0.92967052725E+00 -0.86447933016E+01  0.16391638586E+02  0.51100000000E-03 0.  1.
        -12    1    4    4    0    0 -0.84361797141E+01  0.90884248005E+01 -0.28998388141E+01  0.12734899241E+02  0.00000000000E+00 0.  1.
</event>
<event>
 8    1  0.1280925E-006  0.9118800E+02  0.7816164E-02  0.1184000E+00
        -11   -1    0    0    0    0  0.00000000000E+00  0.00000000000E+00  0.45593999997E+02  0.45594000000E+02  0.51100000000E-03 0.  1.
         11   -1    0    0    0    0 -0.00000000000E+00 -0.00000000000E+00 -0.45593999997E+02  0.45594000000E+02  0.51100000000E-03 0. -1.
         23    2    1    2    0    0  0.00000000000E+00  0.44408920985E-15  0.35527136788E-14  0.91188000000E+02  0.91188000000E+02 0.  0.
    9900012    2    3    3    0    0 -0.25742082584E+02  0.33088992388E+01  0.26118537205E+02  0.54367060093E+02  0.39999945094E+02 0.  0.
         12    1    3    3    0    0  0.25742082584E+02 -0.33088992388E+01 -0.26118537205E+02  0.36820939907E+02  0.00000000000E+00 0. -1.
         11    1    4    4    0    0 -0.10270919977E+01  0.33354216484E+00 -0.88198289285E+01  0.88856936104E+01  0.51100000000E-03 0. -1.
        -11    1    4    4    0    0 -0.35154885410E+01  0.50795308612E+01  0.15328120939E+02  0.16526088020E+02  0.51100000000E-03 0.  1.
        -12    1    4    4    0    0 -0.21199502045E+02 -0.21041737872E+01  0.19610245194E+02  0.28955278463E+02  0.00000000000E+00 0.  1.
</event>
<event>
 8    1  0.1280925E-006  0.9118800E+02  0.7816164E-02  0.1184000E+00
        -11   -1    0    0    0    0  0.00000000000E+00  0.00000000000E+00  0.45593999997E+02  0.45594000000E+02  0.51100000000E-03 0.  1.
         11   -1    0    0    0    0 -0.00000000000E+00 -0.00000000000E+00 -0.45593999997E+02  0.45594000000E+02  0.51100000000E-03 0. -1.
         23    2    1    2    0    0  0.00000000000E+00  0.00000000000E+00 -0.13322676296E-14  0.91188000000E+02  0.91188000000E+02 0.  0.
    9900012    2    3    3    0    0 -0.29509919857E+02 -0.21992622875E+02 -0.11268061547E+01  0.54367074930E+02  0.39999978918E+02 0.  0.
        -12    1    3    3    0    0  0.29509919857E+02  0.21992622875E+02  0.11268061547E+01  0.36820925070E+02  0.00000000000E+00 0.  1.
         11    1    4    4    0    0 -0.25040223701E+02 -0.13176662591E+02 -0.16528065648E+02  0.32769104266E+02  0.51100000000E-03 0. -1.
        -11    1    4    4    0    0  0.18852494874E+01 -0.76878893472E+01  0.50180634660E+01  0.93722339628E+01  0.51100000000E-03 0.  1.
        -12    1    4    4    0    0 -0.63549456432E+01 -0.11280709365E+01  0.10383196027E+02  0.12225736702E+02  0.00000000000E+00 0.  1.
</event>
<event>
 8    1  0.1280925E-006  0.9118800E+02  0.7816164E-02  0.1184000E+00
        -11   -1    0    0    0    0  0.00000000000E+00  0.00000000000E+00  0.45593999997E+02  0.45594000000E+02  0.51100000000E-03 0. -1.
         11   -1    0    0    0    0 -0.00000000000E+00 -0.00000000000E+00 -0.45593999997E+02  0.45594000000E+02  0.51100000000E-03 0.  1.
         23    2    1    2    0    0 -0.35527136788E-14  0.00000000000E+00  0.00000000000E+00  0.91188000000E+02  0.91188000000E+02 0.  0.
    9900012    2    3    3    0    0 -0.26189898032E+02  0.15359270739E+02 -0.20831753490E+02  0.54367083254E+02  0.39999997894E+02 0.  0.
         12    1    3    3    0    0  0.26189898032E+02 -0.15359270739E+02  0.20831753490E+02  0.36820916746E+02  0.00000000000E+00 0. -1.
         11    1    4    4    0    0 -0.84693751161E+01 -0.70315280165E+01  0.24547769223E+01  0.11278237057E+02  0.51100000000E-03 0. -1.
        -11    1    4    4    0    0 -0.10660831486E+02 -0.17467956761E+01 -0.96258137804E+01  0.14469309393E+02  0.51100000000E-03 0.  1.
         12    1    4    4    0    0 -0.70596914299E+01  0.24137594432E+02 -0.13660716632E+02  0.28619536805E+02  0.00000000000E+00 0. -1.
</event>
<event>
 8    1  0.1280925E-006  0.9118800E+02  0.7816164E-02  0.1184000E+00
        -11   -1    0    0    0    0  0.00000000000E+00  0.00000000000E+00  0.45593999997E+02  0.45594000000E+02  0.51100000000E-03 0. -1.
         11   -1    0    0    0    0 -0.00000000000E+00 -0.00000000000E+00 -0.45593999997E+02  0.45594000000E+02  0.51100000000E-03 0.  1.
         23    2    1    2    0    0  0.00000000000E+00  0.88817841970E-15  0.00000000000E+00  0.91188000000E+02  0.91188000000E+02 0.  0.
    9900012    2    3    3    0    0  0.45213543303E+01  0.78493293254E+01 -0.35689330742E+02  0.54367042046E+02  0.39999903952E+02 0.  0.
         12    1    3    3    0    0 -0.45213543303E+01 -0.78493293254E+01  0.35689330742E+02  0.36820957954E+02  0.00000000000E+00 0. -1.
         11    1    4    4    0    0 -0.58379265816E+01  0.15977993918E+02 -0.46539090945E+01  0.17636228240E+02  0.51100000000E-03 0. -1.
        -11    1    4    4    0    0  0.20842351987E+01 -0.33865839702E+01 -0.25280981013E+02  0.25591814875E+02  0.51100000000E-03 0.  1.
         12    1    4    4    0    0  0.82750457133E+01 -0.47420806219E+01 -0.57544406342E+01  0.11138998931E+02  0.00000000000E+00 0. -1.
</event>
<event>
 8    1  0.1280925E-006  0.9118800E+02  0.7816164E-02  0.1184000E+00
        -11   -1    0    0    0    0  0.00000000000E+00  0.00000000000E+00  0.45593999997E+02  0.45594000000E+02  0.51100000000E-03 0.  1.
         11   -1    0    0    0    0 -0.00000000000E+00 -0.00000000000E+00 -0.45593999997E+02  0.45594000000E+02  0.51100000000E-03 0. -1.
         23    2    1    2    0    0 -0.10408340856E-15  0.00000000000E+00 -0.53290705182E-14  0.91188000000E+02  0.91188000000E+02 0.  0.
    9900012    2    3    3    0    0 -0.46538064301E-01  0.35653103671E+02 -0.91996808263E+01  0.54367080749E+02  0.39999992184E+02 0.  0.
        -12    1    3    3    0    0  0.46538064301E-01 -0.35653103671E+02  0.91996808263E+01  0.36820919251E+02  0.00000000000E+00 0.  1.
         11    1    4    4    0    0  0.28224709175E+01  0.32837554687E+02  0.33902964368E+00  0.32960374411E+02  0.51100000000E-03 0. -1.
        -11    1    4    4    0    0 -0.59794709681E+01  0.26783113015E+01 -0.14293292211E+02  0.15723410157E+02  0.51100000000E-03 0.  1.
         12    1    4    4    0    0  0.31104619863E+01  0.13723768207E+00  0.47545817411E+01  0.56832961812E+01  0.00000000000E+00 0. -1.
</event>
<event>
 8    1  0.1280925E-006  0.9118800E+02  0.7816164E-02  0.1184000E+00
        -11   -1    0    0    0    0  0.00000000000E+00  0.00000000000E+00  0.45593999997E+02  0.45594000000E+02  0.51100000000E-03 0.  1.
         11   -1    0    0    0    0 -0.00000000000E+00 -0.00000000000E+00 -0.45593999997E+02  0.45594000000E+02  0.51100000000E-03 0. -1.
         23    2    1    2    0    0  0.35527136788E-14  0.00000000000E+00  0.00000000000E+00  0.91188000000E+02  0.91188000000E+02 0.  0.
    9900012    2    3    3    0    0  0.28557671862E+02 -0.17476674314E+02 -0.15323345119E+02  0.54367086473E+02  0.40000005233E+02 0.  0.
        -12    1    3    3    0    0 -0.28557671862E+02  0.17476674314E+02  0.15323345119E+02  0.36820913527E+02  0.00000000000E+00 0.  1.
         11    1    4    4    0    0  0.31198256095E+02 -0.21141539049E+02 -0.12937335470E+02  0.39845583270E+02  0.51100000000E-03 0. -1.
        -11    1    4    4    0    0  0.52912177895E+01 -0.57771510004E+00 -0.10956323545E+01  0.54342571664E+01  0.51100000000E-03 0.  1.
        -12    1    4    4    0    0 -0.79318020226E+01  0.42425798348E+01 -0.12903772945E+01  0.90872460373E+01  0.00000000000E+00 0.  1.
</event>
<event>
 8    1  0.1280925E-006  0.9118800E+02  0.7816164E-02  0.1184000E+00
        -11   -1    0    0    0    0  0.00000000000E+00  0.00000000000E+00  0.45593999997E+02  0.45594000000E+02  0.51100000000E-03 0. -1.
         11   -1    0    0    0    0 -0.00000000000E+00 -0.00000000000E+00 -0.45593999997E+02  0.45594000000E+02  0.51100000000E-03 0.  1.
         23    2    1    2    0    0  0.71054273576E-14 -0.17763568394E-14  0.00000000000E+00  0.91188000000E+02  0.91188000000E+02 0.  0.
    9900012    2    3    3    0    0  0.33733943575E+02 -0.88677154839E+01 -0.11796814609E+02  0.54367079833E+02  0.39999990096E+02 0.  0.
         12    1    3    3    0    0 -0.33733943575E+02  0.88677154839E+01  0.11796814609E+02  0.36820920167E+02  0.00000000000E+00 0. -1.
         11    1    4    4    0    0  0.15807364517E+02 -0.61099432240E+00 -0.84841717210E+01  0.17950689599E+02  0.51100000000E-03 0.  1.
        -11    1    4    4    0    0  0.16530660084E+02 -0.18892637973E+02 -0.48852511308E+01  0.25574600120E+02  0.51100000000E-03 0. -1.
        -12    1    4    4    0    0  0.13959189742E+01  0.10635916812E+02  0.15726082431E+01  0.10841790115E+02  0.00000000000E+00 0.  1.
</event>
<event>
 8    1  0.1280925E-006  0.9118800E+02  0.7816164E-02  0.1184000E+00
        -11   -1    0    0    0    0  0.00000000000E+00  0.00000000000E+00  0.45593999997E+02  0.45594000000E+02  0.51100000000E-03 0.  1.
         11   -1    0    0    0    0 -0.00000000000E+00 -0.00000000000E+00 -0.45593999997E+02  0.45594000000E+02  0.51100000000E-03 0. -1.
         23    2    1    2    0    0  0.00000000000E+00  0.88817841970E-15  0.00000000000E+00  0.91188000000E+02  0.91188000000E+02 0.  0.
    9900012    2    3    3    0    0 -0.26968084203E+02  0.32396080265E+01 -0.24859756160E+02  0.54367080646E+02  0.39999991948E+02 0.  0.
        -12    1    3    3    0    0  0.26968084203E+02 -0.32396080265E+01  0.24859756160E+02  0.36820919354E+02  0.00000000000E+00 0.  1.
         11    1    4    4    0    0 -0.16141337044E+02  0.12716263566E+02 -0.13314156370E+02  0.24484952129E+02  0.51100000000E-03 0. -1.
        -11    1    4    4    0    0 -0.83444381022E+01 -0.13342569066E+02 -0.16720932369E+02  0.22961780769E+02  0.51100000000E-03 0.  1.
        -12    1    4    4    0    0 -0.24823090570E+01  0.38659135265E+01  0.51753325787E+01  0.69203477477E+01  0.00000000000E+00 0.  1.
</event>
<event>
 8    1  0.1280925E-006  0.9118800E+02  0.7816164E-02  0.1184000E+00
        -11   -1    0    0    0    0  0.00000000000E+00  0.00000000000E+00  0.45593999997E+02  0.45594000000E+02  0.51100000000E-03 0. -1.
         11   -1    0    0    0    0 -0.00000000000E+00 -0.00000000000E+00 -0.45593999997E+02  0.45594000000E+02  0.51100000000E-03 0.  1.
         23    2    1    2    0    0 -0.35527136788E-14  0.71054273576E-14  0.00000000000E+00  0.91188000000E+02  0.91188000000E+02 0.  0.
    9900012    2    3    3    0    0  0.10600123986E+02 -0.33326091507E+02 -0.11523409482E+02  0.54367082442E+02  0.39999996044E+02 0.  0.
         12    1    3    3    0    0 -0.10600123986E+02  0.33326091507E+02  0.11523409482E+02  0.36820917558E+02  0.00000000000E+00 0. -1.
         11    1    4    4    0    0 -0.14205350947E+02 -0.62304539410E+01 -0.54410647402E+01  0.16438240100E+02  0.51100000000E-03 0. -1.
        -11    1    4    4    0    0  0.57299939962E+01 -0.31129758109E+01 -0.28447437729E+01  0.71144934458E+01  0.51100000000E-03 0.  1.
         12    1    4    4    0    0  0.19075480937E+02 -0.23982661756E+02 -0.32376009693E+01  0.30814348896E+02  0.00000000000E+00 0. -1.
</event>
<event>
 8    1  0.1280925E-006  0.9118800E+02  0.7816164E-02  0.1184000E+00
        -11   -1    0    0    0    0  0.00000000000E+00  0.00000000000E+00  0.45593999997E+02  0.45594000000E+02  0.51100000000E-03 0. -1.
         11   -1    0    0    0    0 -0.00000000000E+00 -0.00000000000E+00 -0.45593999997E+02  0.45594000000E+02  0.51100000000E-03 0.  1.
         23    2    1    2    0    0  0.00000000000E+00 -0.88817841970E-15  0.00000000000E+00  0.91188000000E+02  0.91188000000E+02 0.  0.
    9900012    2    3    3    0    0  0.16271474085E+02  0.23846422497E+01  0.32944385325E+02  0.54367083227E+02  0.39999997833E+02 0.  0.
        -12    1    3    3    0    0 -0.16271474085E+02 -0.23846422497E+01 -0.32944385325E+02  0.36820916773E+02  0.00000000000E+00 0.  1.
         11    1    4    4    0    0 -0.65542947118E+01  0.64105677095E+01  0.22245399095E+02  0.24060588909E+02  0.51100000000E-03 0. -1.
        -11    1    4    4    0    0  0.11610756700E+02 -0.95366206398E+01  0.21786670412E+01  0.15182338249E+02  0.51100000000E-03 0.  1.
         12    1    4    4    0    0  0.11215012097E+02  0.55106951801E+01  0.85203191889E+01  0.15124156068E+02  0.00000000000E+00 0. -1.
</event>
<event>
 8    1  0.1280925E-006  0.9118800E+02  0.7816164E-02  0.1184000E+00
        -11   -1    0    0    0    0  0.00000000000E+00  0.00000000000E+00  0.45593999997E+02  0.45594000000E+02  0.51100000000E-03 0. -1.
         11   -1    0    0    0    0 -0.00000000000E+00 -0.00000000000E+00 -0.45593999997E+02  0.45594000000E+02  0.51100000000E-03 0.  1.
         23    2    1    2    0    0  0.00000000000E+00 -0.17763568394E-14  0.17763568394E-14  0.91188000000E+02  0.91188000000E+02 0.  0.
    9900012    2    3    3    0    0 -0.31943478817E+02  0.11436100410E+02 -0.14304101211E+02  0.54367115397E+02  0.40000071169E+02 0.  0.
         12    1    3    3    0    0  0.31943478817E+02 -0.11436100410E+02  0.14304101211E+02  0.36820884603E+02  0.00000000000E+00 0. -1.
         11    1    4    4    0    0 -0.12070763036E+02 -0.44919853494E+01  0.21670263209E+01  0.13060522806E+02  0.51100000000E-03 0. -1.
        -11    1    4    4    0    0 -0.16827732452E+02  0.23966644922E+02 -0.12798079559E+02  0.31958777963E+02  0.51100000000E-03 0.  1.
        -12    1    4    4    0    0 -0.30449833297E+01 -0.80385591620E+01 -0.36730479736E+01  0.93478146268E+01  0.00000000000E+00 0.  1.
</event>
<event>
 8    1  0.1280925E-006  0.9118800E+02  0.7816164E-02  0.1184000E+00
        -11   -1    0    0    0    0  0.00000000000E+00  0.00000000000E+00  0.45593999997E+02  0.45594000000E+02  0.51100000000E-03 0. -1.
         11   -1    0    0    0    0 -0.00000000000E+00 -0.00000000000E+00 -0.45593999997E+02  0.45594000000E+02  0.51100000000E-03 0.  1.
         23    2    1    2    0    0  0.17763568394E-14  0.71054273576E-14 -0.88817841970E-15  0.91188000000E+02  0.91188000000E+02 0.  0.
    9900012    2    3    3    0    0 -0.14828561509E+02 -0.32916953091E+02  0.72365289523E+01  0.54367090335E+02  0.40000014038E+02 0.  0.
        -12    1    3    3    0    0  0.14828561509E+02  0.32916953091E+02 -0.72365289523E+01  0.36820909665E+02  0.00000000000E+00 0.  1.
         11    1    4    4    0    0 -0.15630422035E+02 -0.18377197278E+02 -0.10611314208E+02  0.26355862010E+02  0.51100000000E-03 0.  1.
        -11    1    4    4    0    0  0.56386726849E+00  0.22194248640E+01  0.85350402381E+01  0.88368945422E+01  0.51100000000E-03 0. -1.
        -12    1    4    4    0    0  0.23799325791E+00 -0.16759180677E+02  0.93128029222E+01  0.19174333783E+02  0.00000000000E+00 0.  1.
</event>
<event>
 8    1  0.1280925E-006  0.9118800E+02  0.7816164E-02  0.1184000E+00
        -11   -1    0    0    0    0  0.00000000000E+00  0.00000000000E+00  0.45593999997E+02  0.45594000000E+02  0.51100000000E-03 0. -1.
         11   -1    0    0    0    0 -0.00000000000E+00 -0.00000000000E+00 -0.45593999997E+02  0.45594000000E+02  0.51100000000E-03 0.  1.
         23    2    1    2    0    0  0.00000000000E+00  0.83266726847E-16  0.00000000000E+00  0.91188000000E+02  0.91188000000E+02 0.  0.
    9900012    2    3    3    0    0  0.96556917687E+01  0.22122504915E+00 -0.35531655280E+02  0.54367084056E+02  0.39999999722E+02 0.  0.
         12    1    3    3    0    0 -0.96556917687E+01 -0.22122504915E+00  0.35531655280E+02  0.36820915944E+02  0.00000000000E+00 0. -1.
         11    1    4    4    0    0  0.14066101424E+02 -0.27140363308E+01  0.19163364361E+00  0.14326825405E+02  0.51100000000E-03 0. -1.
        -11    1    4    4    0    0  0.41315411205E+01  0.73669997727E+01 -0.15874892472E+02  0.17982061310E+02  0.51100000000E-03 0.  1.
         12    1    4    4    0    0 -0.85419507758E+01 -0.44317383927E+01 -0.19848396451E+02  0.22058197341E+02  0.00000000000E+00 0. -1.
</event>
<event>
 8    1  0.1280925E-006  0.9118800E+02  0.7816164E-02  0.1184000E+00
        -11   -1    0    0    0    0  0.00000000000E+00  0.00000000000E+00  0.45593999997E+02  0.45594000000E+02  0.51100000000E-03 0.  1.
         11   -1    0    0    0    0 -0.00000000000E+00 -0.00000000000E+00 -0.45593999997E+02  0.45594000000E+02  0.51100000000E-03 0. -1.
         23    2    1    2    0    0  0.00000000000E+00  0.35527136788E-14  0.00000000000E+00  0.91188000000E+02  0.91188000000E+02 0.  0.
    9900012    2    3    3    0    0  0.14033427608E+02 -0.14354786994E+02  0.30867269990E+02  0.54367009292E+02  0.39999829282E+02 0.  0.
         12    1    3    3    0    0 -0.14033427608E+02  0.14354786994E+02 -0.30867269990E+02  0.36820990708E+02  0.00000000000E+00 0. -1.
         11    1    4    4    0    0  0.18350065857E+02 -0.14605565718E+02  0.83293270993E+01  0.24888253396E+02  0.51100000000E-03 0. -1.
        -11    1    4    4    0    0 -0.37339456957E+01  0.20416459309E+01 -0.21162015116E+01  0.47527863054E+01  0.51100000000E-03 0.  1.
        -12    1    4    4    0    0 -0.58269255366E+00 -0.17908672071E+01  0.24654144403E+02  0.24725969591E+02  0.00000000000E+00 0.  1.
</event>
<event>
 8    1  0.1280925E-006  0.9118800E+02  0.7816164E-02  0.1184000E+00
        -11   -1    0    0    0    0  0.00000000000E+00  0.00000000000E+00  0.45593999997E+02  0.45594000000E+02  0.51100000000E-03 0.  1.
         11   -1    0    0    0    0 -0.00000000000E+00 -0.00000000000E+00 -0.45593999997E+02  0.45594000000E+02  0.51100000000E-03 0. -1.
         23    2    1    2    0    0  0.71054273576E-14 -0.17763568394E-14 -0.17763568394E-14  0.91188000000E+02  0.91188000000E+02 0.  0.
    9900012    2    3    3    0    0 -0.32914106557E+02  0.79220051208E+01  0.14480518714E+02  0.54367054904E+02  0.39999933264E+02 0.  0.
         12    1    3    3    0    0  0.32914106557E+02 -0.79220051208E+01 -0.14480518714E+02  0.36820945096E+02  0.00000000000E+00 0. -1.
         11    1    4    4    0    0  0.42752434434E+01 -0.48607866307E+00  0.43245497038E+01  0.61004679631E+01  0.51100000000E-03 0. -1.
        -11    1    4    4    0    0 -0.21067870271E+02 -0.10447584916E+01  0.18257440551E+02  0.27897684739E+02  0.51100000000E-03 0.  1.
        -12    1    4    4    0    0 -0.16121479729E+02  0.94528422755E+01 -0.81014715415E+01  0.20368902201E+02  0.00000000000E+00 0.  1.
</event>
<event>
 8    1  0.1280925E-006  0.9118800E+02  0.7816164E-02  0.1184000E+00
        -11   -1    0    0    0    0  0.00000000000E+00  0.00000000000E+00  0.45593999997E+02  0.45594000000E+02  0.51100000000E-03 0. -1.
         11   -1    0    0    0    0 -0.00000000000E+00 -0.00000000000E+00 -0.45593999997E+02  0.45594000000E+02  0.51100000000E-03 0.  1.
         23    2    1    2    0    0  0.88817841970E-15  0.00000000000E+00  0.71054273576E-14  0.91188000000E+02  0.91188000000E+02 0.  0.
    9900012    2    3    3    0    0  0.51755114670E+01  0.62135860652E+01  0.35921923879E+02  0.54367093087E+02  0.40000020310E+02 0.  0.
        -12    1    3    3    0    0 -0.51755114670E+01 -0.62135860652E+01 -0.35921923879E+02  0.36820906913E+02  0.00000000000E+00 0.  1.
         11    1    4    4    0    0  0.88914736424E+01  0.13555389075E+02  0.29613021852E+02  0.33760005036E+02  0.51100000000E-03 0. -1.
        -11    1    4    4    0    0  0.65794429025E+00 -0.37200210617E+01  0.11992042270E+02  0.12573007813E+02  0.51100000000E-03 0.  1.
         12    1    4    4    0    0 -0.43739064656E+01 -0.36217819486E+01 -0.56831402433E+01  0.80340802385E+01  0.00000000000E+00 0. -1.
</event>
<event>
 8    1  0.1280925E-006  0.9118800E+02  0.7816164E-02  0.1184000E+00
        -11   -1    0    0    0    0  0.00000000000E+00  0.00000000000E+00  0.45593999997E+02  0.45594000000E+02  0.51100000000E-03 0.  1.
         11   -1    0    0    0    0 -0.00000000000E+00 -0.00000000000E+00 -0.45593999997E+02  0.45594000000E+02  0.51100000000E-03 0. -1.
         23    2    1    2    0    0  0.35527136788E-14  0.00000000000E+00  0.00000000000E+00  0.91188000000E+02  0.91188000000E+02 0.  0.
    9900012    2    3    3    0    0  0.15792400081E+02 -0.30774337416E+01 -0.33119524899E+02  0.54367171271E+02  0.40000198546E+02 0.  0.
        -12    1    3    3    0    0 -0.15792400081E+02  0.30774337416E+01  0.33119524899E+02  0.36820828729E+02  0.00000000000E+00 0.  1.
         11    1    4    4    0    0 -0.62092927593E+01 -0.45612768432E+00 -0.10427774490E+02  0.12145033969E+02  0.51100000000E-03 0. -1.
        -11    1    4    4    0    0  0.16065344887E+02  0.10033737279E+02 -0.20774288592E+02  0.28113026463E+02  0.51100000000E-03 0.  1.
         12    1    4    4    0    0  0.59363479528E+01 -0.12655043336E+02 -0.19174618171E+01  0.14109110839E+02  0.00000000000E+00 0. -1.
</event>
<event>
 8    1  0.1280925E-006  0.9118800E+02  0.7816164E-02  0.1184000E+00
        -11   -1    0    0    0    0  0.00000000000E+00  0.00000000000E+00  0.45593999997E+02  0.45594000000E+02  0.51100000000E-03 0.  1.
         11   -1    0    0    0    0 -0.00000000000E+00 -0.00000000000E+00 -0.45593999997E+02  0.45594000000E+02  0.51100000000E-03 0. -1.
         23    2    1    2    0    0  0.49960036108E-15  0.35527136788E-14  0.00000000000E+00  0.91188000000E+02  0.91188000000E+02 0.  0.
    9900012    2    3    3    0    0  0.44389313754E+00  0.25366558499E+02  0.26685562388E+02  0.54367101435E+02  0.40000039341E+02 0.  0.
         12    1    3    3    0    0 -0.44389313754E+00 -0.25366558499E+02 -0.26685562388E+02  0.36820898565E+02  0.00000000000E+00 0. -1.
         11    1    4    4    0    0  0.68732393176E+01 -0.42753769454E+01 -0.36907372488E+01  0.88961681888E+01  0.51100000000E-03 0. -1.
        -11    1    4    4    0    0 -0.10053973847E+01  0.20799690551E+02  0.11141236704E+02  0.23617051181E+02  0.51100000000E-03 0.  1.
         12    1    4    4    0    0 -0.54239487953E+01  0.88422448930E+01  0.19235062932E+02  0.21853882065E+02  0.00000000000E+00 0. -1.
</event>
<event>
 8    1  0.1280925E-006  0.9118800E+02  0.7816164E-02  0.1184000E+00
        -11   -1    0    0    0    0  0.00000000000E+00  0.00000000000E+00  0.45593999997E+02  0.45594000000E+02  0.51100000000E-03 0. -1.
         11   -1    0    0    0    0 -0.00000000000E+00 -0.00000000000E+00 -0.45593999997E+02  0.45594000000E+02  0.51100000000E-03 0.  1.
         23    2    1    2    0    0 -0.35527136788E-14  0.00000000000E+00  0.00000000000E+00  0.91188000000E+02  0.91188000000E+02 0.  0.
    9900012    2    3    3    0    0 -0.88717733381E+01  0.31809905884E+02 -0.16285003895E+02  0.54367084390E+02  0.40000000483E+02 0.  0.
         12    1    3    3    0    0  0.88717733381E+01 -0.31809905884E+02  0.16285003895E+02  0.36820915610E+02  0.00000000000E+00 0. -1.
         11    1    4    4    0    0 -0.21949417518E+02  0.19490664770E+02 -0.81769631305E+01  0.30471719165E+02  0.51100000000E-03 0.  1.
        -11    1    4    4    0    0  0.99613042884E+01  0.11303609266E+01 -0.70013343526E+01  0.12227999915E+02  0.51100000000E-03 0. -1.
        -12    1    4    4    0    0  0.31163398920E+01  0.11188880188E+02 -0.11067064123E+01  0.11667365309E+02  0.00000000000E+00 0.  1.
</event>
<event>
 8    1  0.1280925E-006  0.9118800E+02  0.7816164E-02  0.1184000E+00
        -11   -1    0    0    0    0  0.00000000000E+00  0.00000000000E+00  0.45593999997E+02  0.45594000000E+02  0.51100000000E-03 0. -1.
         11   -1    0    0    0    0 -0.00000000000E+00 -0.00000000000E+00 -0.45593999997E+02  0.45594000000E+02  0.51100000000E-03 0.  1.
         23    2    1    2    0    0 -0.53290705182E-14 -0.17763568394E-14  0.00000000000E+00  0.91188000000E+02  0.91188000000E+02 0.  0.
    9900012    2    3    3    0    0 -0.84388571745E+01 -0.13989332374E+02 -0.32997978195E+02  0.54367050859E+02  0.39999924044E+02 0.  0.
         12    1    3    3    0    0  0.84388571745E+01  0.13989332374E+02  0.32997978195E+02  0.36820949141E+02  0.00000000000E+00 0. -1.
         11    1    4    4    0    0  0.86322850561E+01 -0.18843860595E+01 -0.15277020827E+02  0.17648076998E+02  0.51100000000E-03 0. -1.
        -11    1    4    4    0    0 -0.19621654389E+02 -0.50708032558E+01 -0.20415262317E+02  0.28766391890E+02  0.51100000000E-03 0.  1.
         12    1    4    4    0    0  0.25505121588E+01 -0.70341430589E+01  0.26943049497E+01  0.79525819711E+01  0.00000000000E+00 0. -1.
</event>
<event>
 8    1  0.1280925E-006  0.9118800E+02  0.7816164E-02  0.1184000E+00
        -11   -1    0    0    0    0  0.00000000000E+00  0.00000000000E+00  0.45593999997E+02  0.45594000000E+02  0.51100000000E-03 0.  1.
         11   -1    0    0    0    0 -0.00000000000E+00 -0.00000000000E+00 -0.45593999997E+02  0.45594000000E+02  0.51100000000E-03 0. -1.
         23    2    1    2    0    0  0.00000000000E+00 -0.22204460493E-15 -0.88817841970E-15  0.91188000000E+02  0.91188000000E+02 0.  0.
    9900012    2    3    3    0    0 -0.36024944161E+02 -0.14157606128E+01  0.74819947741E+01  0.54367065388E+02  0.39999957165E+02 0.  0.
         12    1    3    3    0    0  0.36024944161E+02  0.14157606128E+01 -0.74819947741E+01  0.36820934612E+02  0.00000000000E+00 0. -1.
         11    1    4    4    0    0 -0.16497513495E+02  0.18963358866E+01 -0.82989425384E+01  0.18564387650E+02  0.51100000000E-03 0. -1.
        -11    1    4    4    0    0 -0.25082363516E+02 -0.46170022542E+01  0.15973840584E+02  0.30093275871E+02  0.51100000000E-03 0.  1.
        -12    1    4    4    0    0  0.55549328504E+01  0.13049057548E+01 -0.19290327161E+00  0.57094018666E+01  0.00000000000E+00 0.  1.
</event>
<event>
 8    1  0.1280925E-006  0.9118800E+02  0.7816164E-02  0.1184000E+00
        -11   -1    0    0    0    0  0.00000000000E+00  0.00000000000E+00  0.45593999997E+02  0.45594000000E+02  0.51100000000E-03 0.  1.
         11   -1    0    0    0    0 -0.00000000000E+00 -0.00000000000E+00 -0.45593999997E+02  0.45594000000E+02  0.51100000000E-03 0. -1.
         23    2    1    2    0    0 -0.35527136788E-14 -0.26645352591E-14 -0.35527136788E-14  0.91188000000E+02  0.91188000000E+02 0.  0.
    9900012    2    3    3    0    0  0.18995312975E+02  0.67426493201E+01  0.30813896641E+02  0.54367062192E+02  0.39999949879E+02 0.  0.
         12    1    3    3    0    0 -0.18995312975E+02 -0.67426493201E+01 -0.30813896641E+02  0.36820937808E+02  0.00000000000E+00 0. -1.
         11    1    4    4    0    0 -0.11680720233E+01 -0.44101816365E+01  0.25043587770E+01  0.52044123073E+01  0.51100000000E-03 0. -1.
        -11    1    4    4    0    0  0.15886165764E+02  0.14902839090E+02  0.34471317809E+02  0.40776667684E+02  0.51100000000E-03 0.  1.
         12    1    4    4    0    0  0.42772192340E+01 -0.37500081333E+01 -0.61617799454E+01  0.83859822007E+01  0.00000000000E+00 0. -1.
</event>
<event>
 8    1  0.1280925E-006  0.9118800E+02  0.7816164E-02  0.1184000E+00
        -11   -1    0    0    0    0  0.00000000000E+00  0.00000000000E+00  0.45593999997E+02  0.45594000000E+02  0.51100000000E-03 0. -1.
         11   -1    0    0    0    0 -0.00000000000E+00 -0.00000000000E+00 -0.45593999997E+02  0.45594000000E+02  0.51100000000E-03 0.  1.
         23    2    1    2    0    0  0.00000000000E+00  0.00000000000E+00  0.00000000000E+00  0.91188000000E+02  0.91188000000E+02 0.  0.
    9900012    2    3    3    0    0  0.88359700865E+01  0.33218969028E+02  0.13198700617E+02  0.54367082458E+02  0.39999996080E+02 0.  0.
        -12    1    3    3    0    0 -0.88359700865E+01 -0.33218969028E+02 -0.13198700617E+02  0.36820917542E+02  0.00000000000E+00 0.  1.
         11    1    4    4    0    0  0.81480533647E+01  0.24322981529E+02 -0.20419128347E+01  0.25732617674E+02  0.51100000000E-03 0. -1.
        -11    1    4    4    0    0  0.10794958410E+02  0.63977717648E-01  0.61591219685E+01  0.12428596216E+02  0.51100000000E-03 0.  1.
        -12    1    4    4    0    0 -0.10107041688E+02  0.88320097812E+01  0.90814914834E+01  0.16205868568E+02  0.00000000000E+00 0.  1.
</event>
<event>
 8    1  0.1280925E-006  0.9118800E+02  0.7816164E-02  0.1184000E+00
        -11   -1    0    0    0    0  0.00000000000E+00  0.00000000000E+00  0.45593999997E+02  0.45594000000E+02  0.51100000000E-03 0. -1.
         11   -1    0    0    0    0 -0.00000000000E+00 -0.00000000000E+00 -0.45593999997E+02  0.45594000000E+02  0.51100000000E-03 0.  1.
         23    2    1    2    0    0  0.00000000000E+00  0.00000000000E+00  0.00000000000E+00  0.91188000000E+02  0.91188000000E+02 0.  0.
    9900012    2    3    3    0    0  0.15590919658E+02  0.11429913404E+02  0.31337852340E+02  0.54367072724E+02  0.39999973888E+02 0.  0.
        -12    1    3    3    0    0 -0.15590919658E+02 -0.11429913404E+02 -0.31337852340E+02  0.36820927276E+02  0.00000000000E+00 0.  1.
         11    1    4    4    0    0  0.14667208541E+02  0.10919427763E+02  0.15739172110E+02  0.24126384894E+02  0.51100000000E-03 0.  1.
        -11    1    4    4    0    0  0.47202561661E+01  0.19383568224E+01  0.22043107586E+02  0.22626016834E+02  0.51100000000E-03 0. -1.
        -12    1    4    4    0    0 -0.37965450492E+01 -0.14278711810E+01 -0.64444273568E+01  0.76146709960E+01  0.00000000000E+00 0.  1.
</event>
<event>
 8    1  0.1280925E-006  0.9118800E+02  0.7816164E-02  0.1184000E+00
        -11   -1    0    0    0    0  0.00000000000E+00  0.00000000000E+00  0.45593999997E+02  0.45594000000E+02  0.51100000000E-03 0.  1.
         11   -1    0    0    0    0 -0.00000000000E+00 -0.00000000000E+00 -0.45593999997E+02  0.45594000000E+02  0.51100000000E-03 0. -1.
         23    2    1    2    0    0  0.00000000000E+00  0.00000000000E+00  0.00000000000E+00  0.91188000000E+02  0.91188000000E+02 0.  0.
    9900012    2    3    3    0    0 -0.10567386225E+02  0.19318989445E+02 -0.29510783685E+02  0.54367090743E+02  0.40000014967E+02 0.  0.
        -12    1    3    3    0    0  0.10567386225E+02 -0.19318989445E+02  0.29510783685E+02  0.36820909257E+02  0.00000000000E+00 0.  1.
         11    1    4    4    0    0 -0.84119143024E+01  0.13111583710E+02 -0.37526922503E+02  0.40631808260E+02  0.51100000000E-03 0. -1.
        -11    1    4    4    0    0  0.22237029613E+01 -0.11923198756E+01  0.22659065281E+01  0.33912850368E+01  0.51100000000E-03 0.  1.
         12    1    4    4    0    0 -0.43791748841E+01  0.73997256107E+01  0.57502322903E+01  0.10343997446E+02  0.00000000000E+00 0. -1.
</event>
<event>
 8    1  0.1280925E-006  0.9118800E+02  0.7816164E-02  0.1184000E+00
        -11   -1    0    0    0    0  0.00000000000E+00  0.00000000000E+00  0.45593999997E+02  0.45594000000E+02  0.51100000000E-03 0.  1.
         11   -1    0    0    0    0 -0.00000000000E+00 -0.00000000000E+00 -0.45593999997E+02  0.45594000000E+02  0.51100000000E-03 0. -1.
         23    2    1    2    0    0  0.00000000000E+00  0.00000000000E+00  0.17763568394E-14  0.91188000000E+02  0.91188000000E+02 0.  0.
    9900012    2    3    3    0    0 -0.35299244821E+02  0.38724758367E+00 -0.10468656281E+02  0.54367090045E+02  0.40000013375E+02 0.  0.
        -12    1    3    3    0    0  0.35299244821E+02 -0.38724758367E+00  0.10468656281E+02  0.36820909955E+02  0.00000000000E+00 0.  1.
         11    1    4    4    0    0 -0.28018234127E+02 -0.22930295181E+01 -0.79183613104E+01  0.29205819181E+02  0.51100000000E-03 0. -1.
        -11    1    4    4    0    0 -0.11760674761E+01  0.44440678686E+01  0.10048766593E+02  0.11050365796E+02  0.51100000000E-03 0.  1.
        -12    1    4    4    0    0 -0.61049432180E+01 -0.17637907669E+01 -0.12599061563E+02  0.14110905068E+02  0.00000000000E+00 0.  1.
</event>
<event>
 8    1  0.1280925E-006  0.9118800E+02  0.7816164E-02  0.1184000E+00
        -11   -1    0    0    0    0  0.00000000000E+00  0.00000000000E+00  0.45593999997E+02  0.45594000000E+02  0.51100000000E-03 0. -1.
         11   -1    0    0    0    0 -0.00000000000E+00 -0.00000000000E+00 -0.45593999997E+02  0.45594000000E+02  0.51100000000E-03 0.  1.
         23    2    1    2    0    0  0.00000000000E+00  0.35527136788E-14 -0.10658141036E-13  0.91188000000E+02  0.91188000000E+02 0.  0.
    9900012    2    3    3    0    0 -0.73200877146E+01 -0.21282595193E+02  0.29141831146E+02  0.54367097447E+02  0.40000030249E+02 0.  0.
        -12    1    3    3    0    0  0.73200877146E+01  0.21282595193E+02 -0.29141831146E+02  0.36820902553E+02  0.00000000000E+00 0.  1.
         11    1    4    4    0    0 -0.84703404337E+01 -0.13490576663E+02 -0.17767742022E+00  0.15930282336E+02  0.51100000000E-03 0. -1.
        -11    1    4    4    0    0 -0.25652022788E+01  0.71820958426E+01  0.35737205756E+01  0.84222468758E+01  0.51100000000E-03 0.  1.
         12    1    4    4    0    0  0.37154549978E+01 -0.14974114372E+02  0.25745787991E+02  0.30014568235E+02  0.00000000000E+00 0. -1.
</event>
<event>
 8    1  0.1280925E-006  0.9118800E+02  0.7816164E-02  0.1184000E+00
        -11   -1    0    0    0    0  0.00000000000E+00  0.00000000000E+00  0.45593999997E+02  0.45594000000E+02  0.51100000000E-03 0.  1.
         11   -1    0    0    0    0 -0.00000000000E+00 -0.00000000000E+00 -0.45593999997E+02  0.45594000000E+02  0.51100000000E-03 0. -1.
         23    2    1    2    0    0  0.00000000000E+00  0.00000000000E+00  0.17763568394E-14  0.91188000000E+02  0.91188000000E+02 0.  0.
    9900012    2    3    3    0    0  0.10536617333E+02 -0.34396785635E+02  0.78499035689E+01  0.54367079956E+02  0.39999990376E+02 0.  0.
         12    1    3    3    0    0 -0.10536617333E+02  0.34396785635E+02 -0.78499035689E+01  0.36820920044E+02  0.00000000000E+00 0. -1.
         11    1    4    4    0    0 -0.98531691698E+01 -0.78016550727E+01  0.42667774158E+01  0.13272383145E+02  0.51100000000E-03 0. -1.
        -11    1    4    4    0    0 -0.42388851525E+01 -0.12605931487E+01  0.36931918849E+01  0.57616758831E+01  0.51100000000E-03 0.  1.
        -12    1    4    4    0    0  0.24628671655E+02 -0.25334537414E+02 -0.11006573175E+00  0.35333020928E+02  0.00000000000E+00 0.  1.
</event>
<event>
 8    1  0.1280925E-006  0.9118800E+02  0.7816164E-02  0.1184000E+00
        -11   -1    0    0    0    0  0.00000000000E+00  0.00000000000E+00  0.45593999997E+02  0.45594000000E+02  0.51100000000E-03 0.  1.
         11   -1    0    0    0    0 -0.00000000000E+00 -0.00000000000E+00 -0.45593999997E+02  0.45594000000E+02  0.51100000000E-03 0. -1.
         23    2    1    2    0    0  0.00000000000E+00  0.00000000000E+00  0.17763568394E-14  0.91188000000E+02  0.91188000000E+02 0.  0.
    9900012    2    3    3    0    0 -0.22279566340E+02 -0.28999281277E+02 -0.42932800223E+01  0.54367222656E+02  0.40000315688E+02 0.  0.
         12    1    3    3    0    0  0.22279566340E+02  0.28999281277E+02  0.42932800223E+01  0.36820777344E+02  0.00000000000E+00 0. -1.
         11    1    4    4    0    0 -0.62388627783E+00 -0.25743200482E+01  0.91213501259E+01  0.94981780452E+01  0.51100000000E-03 0. -1.
        -11    1    4    4    0    0 -0.10859019282E+02 -0.29568028654E+02 -0.87213772395E+01  0.32684079297E+02  0.51100000000E-03 0.  1.
         12    1    4    4    0    0 -0.10796660780E+02  0.31430674256E+01 -0.46932529087E+01  0.12184965314E+02  0.00000000000E+00 0. -1.
</event>
<event>
 8    1  0.1280925E-006  0.9118800E+02  0.7816164E-02  0.1184000E+00
        -11   -1    0    0    0    0  0.00000000000E+00  0.00000000000E+00  0.45593999997E+02  0.45594000000E+02  0.51100000000E-03 0.  1.
         11   -1    0    0    0    0 -0.00000000000E+00 -0.00000000000E+00 -0.45593999997E+02  0.45594000000E+02  0.51100000000E-03 0. -1.
         23    2    1    2    0    0  0.00000000000E+00 -0.44408920985E-15  0.35527136788E-14  0.91188000000E+02  0.91188000000E+02 0.  0.
    9900012    2    3    3    0    0  0.20856058072E+02 -0.25201863086E+01  0.30239943483E+02  0.54367072809E+02  0.39999974084E+02 0.  0.
         12    1    3    3    0    0 -0.20856058072E+02  0.25201863086E+01 -0.30239943483E+02  0.36820927191E+02  0.00000000000E+00 0. -1.
         11    1    4    4    0    0 -0.52589257260E+01 -0.98593660906E+00  0.91255867159E+00  0.54278111959E+01  0.51100000000E-03 0. -1.
        -11    1    4    4    0    0  0.14413710933E+02 -0.12742308407E+02  0.26089540808E+02  0.32415823702E+02  0.51100000000E-03 0.  1.
         12    1    4    4    0    0  0.11701272864E+02  0.11208058708E+02  0.32378440033E+01  0.16523437912E+02  0.00000000000E+00 0. -1.
</event>
<event>
 8    1  0.1280925E-006  0.9118800E+02  0.7816164E-02  0.1184000E+00
        -11   -1    0    0    0    0  0.00000000000E+00  0.00000000000E+00  0.45593999997E+02  0.45594000000E+02  0.51100000000E-03 0.  1.
         11   -1    0    0    0    0 -0.00000000000E+00 -0.00000000000E+00 -0.45593999997E+02  0.45594000000E+02  0.51100000000E-03 0. -1.
         23    2    1    2    0    0  0.35527136788E-14  0.00000000000E+00  0.00000000000E+00  0.91188000000E+02  0.91188000000E+02 0.  0.
    9900012    2    3    3    0    0  0.24863207609E+02  0.21559418566E+02 -0.16516369622E+02  0.54367108010E+02  0.40000054329E+02 0.  0.
        -12    1    3    3    0    0 -0.24863207609E+02 -0.21559418566E+02  0.16516369622E+02  0.36820891990E+02  0.00000000000E+00 0.  1.
         11    1    4    4    0    0  0.37540439196E+01 -0.83338564310E+01 -0.31498718826E+01  0.96678695637E+01  0.51100000000E-03 0. -1.
        -11    1    4    4    0    0  0.73795387519E+00 -0.32812894607E+01  0.44360353759E+00  0.33923768668E+01  0.51100000000E-03 0.  1.
         12    1    4    4    0    0  0.20371209814E+02  0.33174564458E+02 -0.13810101277E+02  0.41306861579E+02  0.00000000000E+00 0. -1.
</event>
<event>
 8    1  0.1280925E-006  0.9118800E+02  0.7816164E-02  0.1184000E+00
        -11   -1    0    0    0    0  0.00000000000E+00  0.00000000000E+00  0.45593999997E+02  0.45594000000E+02  0.51100000000E-03 0.  1.
         11   -1    0    0    0    0 -0.00000000000E+00 -0.00000000000E+00 -0.45593999997E+02  0.45594000000E+02  0.51100000000E-03 0. -1.
         23    2    1    2    0    0  0.00000000000E+00  0.17763568394E-14  0.00000000000E+00  0.91188000000E+02  0.91188000000E+02 0.  0.
    9900012    2    3    3    0    0 -0.36373508225E+02  0.59590110741E+00 -0.56914622849E+01  0.54367082824E+02  0.39999996914E+02 0.  0.
        -12    1    3    3    0    0  0.36373508225E+02 -0.59590110741E+00  0.56914622849E+01  0.36820917176E+02  0.00000000000E+00 0.  1.
         11    1    4    4    0    0 -0.17830277266E+02  0.55975284145E+01 -0.69185588885E+01  0.19927808938E+02  0.51100000000E-03 0. -1.
        -11    1    4    4    0    0 -0.39525388266E+01  0.11524501159E+02 -0.12856191403E+01  0.12251102276E+02  0.51100000000E-03 0.  1.
        -12    1    4    4    0    0 -0.14590692133E+02 -0.16526128466E+02  0.25127157439E+01  0.22188171610E+02  0.00000000000E+00 0.  1.
</event>
<event>
 8    1  0.1280925E-006  0.9118800E+02  0.7816164E-02  0.1184000E+00
        -11   -1    0    0    0    0  0.00000000000E+00  0.00000000000E+00  0.45593999997E+02  0.45594000000E+02  0.51100000000E-03 0. -1.
         11   -1    0    0    0    0 -0.00000000000E+00 -0.00000000000E+00 -0.45593999997E+02  0.45594000000E+02  0.51100000000E-03 0.  1.
         23    2    1    2    0    0 -0.17763568394E-14  0.00000000000E+00  0.00000000000E+00  0.91188000000E+02  0.91188000000E+02 0.  0.
    9900012    2    3    3    0    0 -0.13672522353E+02  0.25004065721E+02 -0.23316213315E+02  0.54366987338E+02  0.39999779235E+02 0.  0.
         12    1    3    3    0    0  0.13672522353E+02 -0.25004065721E+02  0.23316213315E+02  0.36821012662E+02  0.00000000000E+00 0. -1.
         11    1    4    4    0    0  0.96699437322E-01 -0.44166239817E+01 -0.45397381256E+01  0.63344408346E+01  0.51100000000E-03 0. -1.
        -11    1    4    4    0    0  0.40106124221E+01  0.11502138193E+02  0.51750019999E+01  0.13234985492E+02  0.51100000000E-03 0.  1.
        -12    1    4    4    0    0 -0.17779834212E+02  0.17918551510E+02 -0.23951477189E+02  0.34797561012E+02  0.00000000000E+00 0.  1.
</event>
<event>
 8    1  0.1280925E-006  0.9118800E+02  0.7816164E-02  0.1184000E+00
        -11   -1    0    0    0    0  0.00000000000E+00  0.00000000000E+00  0.45593999997E+02  0.45594000000E+02  0.51100000000E-03 0. -1.
         11   -1    0    0    0    0 -0.00000000000E+00 -0.00000000000E+00 -0.45593999997E+02  0.45594000000E+02  0.51100000000E-03 0.  1.
         23    2    1    2    0    0 -0.17763568394E-14 -0.35527136788E-14  0.00000000000E+00  0.91188000000E+02  0.91188000000E+02 0.  0.
    9900012    2    3    3    0    0  0.15838684720E+02 -0.22822675035E+02 -0.24166955176E+02  0.54367079969E+02  0.39999990406E+02 0.  0.
        -12    1    3    3    0    0 -0.15838684720E+02  0.22822675035E+02  0.24166955176E+02  0.36820920031E+02  0.00000000000E+00 0.  1.
         11    1    4    4    0    0  0.14331445985E+01 -0.29456827763E+02 -0.15735923357E+02  0.33427202837E+02  0.51100000000E-03 0. -1.
        -11    1    4    4    0    0  0.15349031616E+02  0.35061838862E+01 -0.59252819976E+01  0.16822457134E+02  0.51100000000E-03 0.  1.
         12    1    4    4    0    0 -0.94349149537E+00  0.31279688418E+01 -0.25057498218E+01  0.41174199988E+01  0.00000000000E+00 0. -1.
</event>
<event>
 8    1  0.1280925E-006  0.9118800E+02  0.7816164E-02  0.1184000E+00
        -11   -1    0    0    0    0  0.00000000000E+00  0.00000000000E+00  0.45593999997E+02  0.45594000000E+02  0.51100000000E-03 0. -1.
         11   -1    0    0    0    0 -0.00000000000E+00 -0.00000000000E+00 -0.45593999997E+02  0.45594000000E+02  0.51100000000E-03 0.  1.
         23    2    1    2    0    0 -0.35527136788E-14  0.00000000000E+00  0.00000000000E+00  0.91188000000E+02  0.91188000000E+02 0.  0.
    9900012    2    3    3    0    0 -0.20154883063E+02  0.56121286241E+01  0.30299617367E+02  0.54367053359E+02  0.39999929742E+02 0.  0.
        -12    1    3    3    0    0  0.20154883063E+02 -0.56121286241E+01 -0.30299617367E+02  0.36820946641E+02  0.00000000000E+00 0.  1.
         11    1    4    4    0    0 -0.12190160762E+02  0.12278806431E+02  0.33641438553E+02  0.37830087165E+02  0.51100000000E-03 0. -1.
        -11    1    4    4    0    0  0.14459202516E+01 -0.13206288203E+01  0.33007889537E+01  0.38379621980E+01  0.51100000000E-03 0.  1.
         12    1    4    4    0    0 -0.94106425527E+01 -0.53460489863E+01 -0.66426101397E+01  0.12699003996E+02  0.00000000000E+00 0. -1.
</event>
<event>
 8    1  0.1280925E-006  0.9118800E+02  0.7816164E-02  0.1184000E+00
        -11   -1    0    0    0    0  0.00000000000E+00  0.00000000000E+00  0.45593999997E+02  0.45594000000E+02  0.51100000000E-03 0.  1.
         11   -1    0    0    0    0 -0.00000000000E+00 -0.00000000000E+00 -0.45593999997E+02  0.45594000000E+02  0.51100000000E-03 0. -1.
         23    2    1    2    0    0  0.00000000000E+00  0.00000000000E+00  0.00000000000E+00  0.91188000000E+02  0.91188000000E+02 0.  0.
    9900012    2    3    3    0    0 -0.22282996669E+02  0.27869728169E+02 -0.90842810312E+01  0.54367111219E+02  0.40000061646E+02 0.  0.
        -12    1    3    3    0    0  0.22282996669E+02 -0.27869728169E+02  0.90842810312E+01  0.36820888781E+02  0.00000000000E+00 0.  1.
         11    1    4    4    0    0  0.54594702887E+01  0.85922035373E+01 -0.73580694014E+01  0.12560770798E+02  0.51100000000E-03 0. -1.
        -11    1    4    4    0    0 -0.26201091409E+02  0.24520518409E+02 -0.35129070381E+01  0.36056809761E+02  0.51100000000E-03 0.  1.
        -12    1    4    4    0    0 -0.15413755487E+01 -0.52429937768E+01  0.17866954082E+01  0.57495306598E+01  0.00000000000E+00 0.  1.
</event>
<event>
 8    1  0.1280925E-006  0.9118800E+02  0.7816164E-02  0.1184000E+00
        -11   -1    0    0    0    0  0.00000000000E+00  0.00000000000E+00  0.45593999997E+02  0.45594000000E+02  0.51100000000E-03 0. -1.
         11   -1    0    0    0    0 -0.00000000000E+00 -0.00000000000E+00 -0.45593999997E+02  0.45594000000E+02  0.51100000000E-03 0.  1.
         23    2    1    2    0    0  0.00000000000E+00 -0.17763568394E-14  0.71054273576E-14  0.91188000000E+02  0.91188000000E+02 0.  0.
    9900012    2    3    3    0    0  0.38738252260E+01  0.14724530673E+02 -0.33525536557E+02  0.54367083025E+02  0.39999997372E+02 0.  0.
         12    1    3    3    0    0 -0.38738252260E+01 -0.14724530673E+02  0.33525536557E+02  0.36820916975E+02  0.00000000000E+00 0. -1.
         11    1    4    4    0    0  0.15225108869E+01  0.69689314616E+00 -0.89103777260E+01  0.90663405483E+01  0.51100000000E-03 0. -1.
        -11    1    4    4    0    0  0.26969206881E+01  0.23348033903E+02 -0.26876572165E+02  0.35703700087E+02  0.51100000000E-03 0.  1.
         12    1    4    4    0    0 -0.34560634899E+00 -0.93203963764E+01  0.22614133332E+01  0.95970423895E+01  0.00000000000E+00 0. -1.
</event>
<event>
 8    1  0.1280925E-006  0.9118800E+02  0.7816164E-02  0.1184000E+00
        -11   -1    0    0    0    0  0.00000000000E+00  0.00000000000E+00  0.45593999997E+02  0.45594000000E+02  0.51100000000E-03 0.  1.
         11   -1    0    0    0    0 -0.00000000000E+00 -0.00000000000E+00 -0.45593999997E+02  0.45594000000E+02  0.51100000000E-03 0. -1.
         23    2    1    2    0    0  0.00000000000E+00 -0.88817841970E-15 -0.35527136788E-14  0.91188000000E+02  0.91188000000E+02 0.  0.
    9900012    2    3    3    0    0  0.22072506056E+02 -0.70927706653E+01  0.28605538227E+02  0.54367085610E+02  0.40000003264E+02 0.  0.
         12    1    3    3    0    0 -0.22072506056E+02  0.70927706653E+01 -0.28605538227E+02  0.36820914390E+02  0.00000000000E+00 0. -1.
         11    1    4    4    0    0  0.15449262438E+02  0.48607162997E+01 -0.24270405164E+01  0.16376715139E+02  0.51100000000E-03 0. -1.
        -11    1    4    4    0    0  0.93425653793E+01 -0.47922583647E+01  0.66400797170E+01  0.12423362146E+02  0.51100000000E-03 0.  1.
        -12    1    4    4    0    0 -0.27193217613E+01 -0.71612286003E+01  0.24392499026E+02  0.25567008324E+02  0.00000000000E+00 0.  1.
</event>
<event>
 8    1  0.1280925E-006  0.9118800E+02  0.7816164E-02  0.1184000E+00
        -11   -1    0    0    0    0  0.00000000000E+00  0.00000000000E+00  0.45593999997E+02  0.45594000000E+02  0.51100000000E-03 0. -1.
         11   -1    0    0    0    0 -0.00000000000E+00 -0.00000000000E+00 -0.45593999997E+02  0.45594000000E+02  0.51100000000E-03 0.  1.
         23    2    1    2    0    0  0.00000000000E+00  0.00000000000E+00 -0.17763568394E-14  0.91188000000E+02  0.91188000000E+02 0.  0.
    9900012    2    3    3    0    0  0.34255556073E+02  0.12542457883E+02  0.50022604937E+01  0.54367095860E+02  0.40000026631E+02 0.  0.
        -12    1    3    3    0    0 -0.34255556073E+02 -0.12542457883E+02 -0.50022604937E+01  0.36820904140E+02  0.00000000000E+00 0.  1.
         11    1    4    4    0    0  0.52835259834E+01  0.47161338603E+01 -0.77562348279E+01  0.10503177823E+02  0.51100000000E-03 0. -1.
        -11    1    4    4    0    0  0.10398361677E+02  0.50490958922E+01 -0.93414968217E+01  0.14862128314E+02  0.51100000000E-03 0.  1.
         12    1    4    4    0    0  0.18573668413E+02  0.27772281308E+01  0.22099992143E+02  0.29001789723E+02  0.00000000000E+00 0. -1.
</event>
<event>
 8    1  0.1280925E-006  0.9118800E+02  0.7816164E-02  0.1184000E+00
        -11   -1    0    0    0    0  0.00000000000E+00  0.00000000000E+00  0.45593999997E+02  0.45594000000E+02  0.51100000000E-03 0.  1.
         11   -1    0    0    0    0 -0.00000000000E+00 -0.00000000000E+00 -0.45593999997E+02  0.45594000000E+02  0.51100000000E-03 0. -1.
         23    2    1    2    0    0 -0.17763568394E-14 -0.17763568394E-14  0.00000000000E+00  0.91188000000E+02  0.91188000000E+02 0.  0.
    9900012    2    3    3    0    0  0.86651413112E+01  0.13616277478E+02  0.33095246723E+02  0.54367040724E+02  0.39999900939E+02 0.  0.
         12    1    3    3    0    0 -0.86651413112E+01 -0.13616277478E+02 -0.33095246723E+02  0.36820959276E+02  0.00000000000E+00 0. -1.
         11    1    4    4    0    0  0.11751025308E+02  0.10567870466E+02  0.39356549495E+01  0.16286677443E+02  0.51100000000E-03 0. -1.
        -11    1    4    4    0    0  0.40184486034E+01  0.91765262008E+01  0.32617789178E+01  0.10535452732E+02  0.51100000000E-03 0.  1.
         12    1    4    4    0    0 -0.71043326000E+01 -0.61281191894E+01  0.25897812856E+02  0.27544910550E+02  0.00000000000E+00 0. -1.
</event>
<event>
 8    1  0.1280925E-006  0.9118800E+02  0.7816164E-02  0.1184000E+00
        -11   -1    0    0    0    0  0.00000000000E+00  0.00000000000E+00  0.45593999997E+02  0.45594000000E+02  0.51100000000E-03 0.  1.
         11   -1    0    0    0    0 -0.00000000000E+00 -0.00000000000E+00 -0.45593999997E+02  0.45594000000E+02  0.51100000000E-03 0. -1.
         23    2    1    2    0    0 -0.17763568394E-14  0.00000000000E+00  0.00000000000E+00  0.91188000000E+02  0.91188000000E+02 0.  0.
    9900012    2    3    3    0    0 -0.60667921223E+01  0.25012932768E+02 -0.26331089398E+02  0.54367095052E+02  0.40000024790E+02 0.  0.
        -12    1    3    3    0    0  0.60667921223E+01 -0.25012932768E+02  0.26331089398E+02  0.36820904948E+02  0.00000000000E+00 0.  1.
         11    1    4    4    0    0  0.89508016883E+01  0.32346568929E+01 -0.12398044440E+02  0.15629822849E+02  0.51100000000E-03 0. -1.
        -11    1    4    4    0    0  0.65978719784E+01  0.83354190856E+01 -0.51271316130E+01  0.11802482994E+02  0.51100000000E-03 0.  1.
        -12    1    4    4    0    0 -0.21615465789E+02  0.13442856790E+02 -0.88059133450E+01  0.26934789210E+02  0.00000000000E+00 0.  1.
</event>
<event>
 8    1  0.1280925E-006  0.9118800E+02  0.7816164E-02  0.1184000E+00
        -11   -1    0    0    0    0  0.00000000000E+00  0.00000000000E+00  0.45593999997E+02  0.45594000000E+02  0.51100000000E-03 0. -1.
         11   -1    0    0    0    0 -0.00000000000E+00 -0.00000000000E+00 -0.45593999997E+02  0.45594000000E+02  0.51100000000E-03 0.  1.
         23    2    1    2    0    0 -0.17763568394E-14  0.00000000000E+00  0.00000000000E+00  0.91188000000E+02  0.91188000000E+02 0.  0.
    9900012    2    3    3    0    0 -0.13803262265E+02 -0.66183624230E+01  0.33487972704E+02  0.54367121600E+02  0.40000085312E+02 0.  0.
        -12    1    3    3    0    0  0.13803262265E+02  0.66183624230E+01 -0.33487972704E+02  0.36820878400E+02  0.00000000000E+00 0.  1.
         11    1    4    4    0    0 -0.11524735201E+02 -0.62200705075E+00  0.59289621210E+01  0.12975322975E+02  0.51100000000E-03 0. -1.
        -11    1    4    4    0    0  0.10241413294E+02 -0.89224260013E+01  0.33649132942E+01  0.13993529710E+02  0.51100000000E-03 0.  1.
        -12    1    4    4    0    0 -0.12519940358E+02  0.29260706290E+01  0.24194097289E+02  0.27398268915E+02  0.00000000000E+00 0.  1.
</event>
<event>
 8    1  0.1280925E-006  0.9118800E+02  0.7816164E-02  0.1184000E+00
        -11   -1    0    0    0    0  0.00000000000E+00  0.00000000000E+00  0.45593999997E+02  0.45594000000E+02  0.51100000000E-03 0. -1.
         11   -1    0    0    0    0 -0.00000000000E+00 -0.00000000000E+00 -0.45593999997E+02  0.45594000000E+02  0.51100000000E-03 0.  1.
         23    2    1    2    0    0  0.88817841970E-15  0.00000000000E+00  0.00000000000E+00  0.91188000000E+02  0.91188000000E+02 0.  0.
    9900012    2    3    3    0    0 -0.21044412191E+01  0.34858414300E+02 -0.11672327196E+02  0.54367069233E+02  0.39999965931E+02 0.  0.
         12    1    3    3    0    0  0.21044412191E+01 -0.34858414300E+02  0.11672327196E+02  0.36820930767E+02  0.00000000000E+00 0. -1.
         11    1    4    4    0    0  0.57458309032E+01 -0.31006156483E+00  0.16682490553E+01  0.59911406355E+01  0.51100000000E-03 0. -1.
        -11    1    4    4    0    0 -0.13801646214E+02  0.30628537987E+02 -0.60083883177E+00  0.33599907515E+02  0.51100000000E-03 0.  1.
        -12    1    4    4    0    0  0.59513740913E+01  0.45399378777E+01 -0.12739737420E+02  0.14776021083E+02  0.00000000000E+00 0.  1.
</event>
<event>
 8    1  0.1280925E-006  0.9118800E+02  0.7816164E-02  0.1184000E+00
        -11   -1    0    0    0    0  0.00000000000E+00  0.00000000000E+00  0.45593999997E+02  0.45594000000E+02  0.51100000000E-03 0. -1.
         11   -1    0    0    0    0 -0.00000000000E+00 -0.00000000000E+00 -0.45593999997E+02  0.45594000000E+02  0.51100000000E-03 0.  1.
         23    2    1    2    0    0 -0.17763568394E-14  0.00000000000E+00  0.00000000000E+00  0.91188000000E+02  0.91188000000E+02 0.  0.
    9900012    2    3    3    0    0 -0.11448187072E+02 -0.66302509521E+01  0.34362168257E+02  0.54367084446E+02  0.40000000611E+02 0.  0.
        -12    1    3    3    0    0  0.11448187072E+02  0.66302509521E+01 -0.34362168257E+02  0.36820915554E+02  0.00000000000E+00 0.  1.
         11    1    4    4    0    0  0.37535729011E+01  0.10324430357E+01 -0.57076622721E+01  0.69088824726E+01  0.51100000000E-03 0. -1.
        -11    1    4    4    0    0 -0.67129463512E+01 -0.42547439846E+00  0.96728499367E+00  0.67956101785E+01  0.51100000000E-03 0.  1.
         12    1    4    4    0    0 -0.84888136221E+01 -0.72372195893E+01  0.39102545536E+02  0.40662591795E+02  0.00000000000E+00 0. -1.
</event>
<event>
 8    1  0.1280925E-006  0.9118800E+02  0.7816164E-02  0.1184000E+00
        -11   -1    0    0    0    0  0.00000000000E+00  0.00000000000E+00  0.45593999997E+02  0.45594000000E+02  0.51100000000E-03 0.  1.
         11   -1    0    0    0    0 -0.00000000000E+00 -0.00000000000E+00 -0.45593999997E+02  0.45594000000E+02  0.51100000000E-03 0. -1.
         23    2    1    2    0    0  0.00000000000E+00  0.00000000000E+00  0.00000000000E+00  0.91188000000E+02  0.91188000000E+02 0.  0.
    9900012    2    3    3    0    0  0.32359144004E+02 -0.12389594057E+02  0.12456500886E+02  0.54367073125E+02  0.39999974804E+02 0.  0.
        -12    1    3    3    0    0 -0.32359144004E+02  0.12389594057E+02 -0.12456500886E+02  0.36820926875E+02  0.00000000000E+00 0.  1.
         11    1    4    4    0    0  0.10934677470E+02 -0.61921170555E+01  0.36296911850E+01  0.13079913737E+02  0.51100000000E-03 0. -1.
        -11    1    4    4    0    0  0.14780993492E+02  0.10767333115E+02  0.13196433374E+02  0.22551254623E+02  0.51100000000E-03 0.  1.
         12    1    4    4    0    0  0.66434730420E+01 -0.16964810116E+02 -0.43696236729E+01  0.18735904766E+02  0.00000000000E+00 0. -1.
</event>
<event>
 8    1  0.1280925E-006  0.9118800E+02  0.7816164E-02  0.1184000E+00
        -11   -1    0    0    0    0  0.00000000000E+00  0.00000000000E+00  0.45593999997E+02  0.45594000000E+02  0.51100000000E-03 0. -1.
         11   -1    0    0    0    0 -0.00000000000E+00 -0.00000000000E+00 -0.45593999997E+02  0.45594000000E+02  0.51100000000E-03 0.  1.
         23    2    1    2    0    0 -0.35527136788E-14  0.00000000000E+00 -0.44408920985E-15  0.91188000000E+02  0.91188000000E+02 0.  0.
    9900012    2    3    3    0    0  0.16843414321E+02 -0.32713753589E+02  0.13747197396E+01  0.54367080209E+02  0.39999990953E+02 0.  0.
        -12    1    3    3    0    0 -0.16843414321E+02  0.32713753589E+02 -0.13747197396E+01  0.36820919791E+02  0.00000000000E+00 0.  1.
         11    1    4    4    0    0  0.24266824643E+02 -0.11992961898E+02 -0.54532692708E+01  0.27612462030E+02  0.51100000000E-03 0. -1.
        -11    1    4    4    0    0 -0.70637367667E-01 -0.11534484590E+00  0.47789403729E+01  0.47808540471E+01  0.51100000000E-03 0.  1.
        -12    1    4    4    0    0 -0.73527729546E+01 -0.20605446846E+02  0.20490486375E+01  0.21973764132E+02  0.00000000000E+00 0.  1.
</event>
<event>
 8    1  0.1280925E-006  0.9118800E+02  0.7816164E-02  0.1184000E+00
        -11   -1    0    0    0    0  0.00000000000E+00  0.00000000000E+00  0.45593999997E+02  0.45594000000E+02  0.51100000000E-03 0.  1.
         11   -1    0    0    0    0 -0.00000000000E+00 -0.00000000000E+00 -0.45593999997E+02  0.45594000000E+02  0.51100000000E-03 0. -1.
         23    2    1    2    0    0  0.88817841970E-15  0.14294121442E-14  0.00000000000E+00  0.91188000000E+02  0.91188000000E+02 0.  0.
    9900012    2    3    3    0    0  0.59755600001E+01  0.47435252844E-01  0.36332789349E+02  0.54367066425E+02  0.39999959529E+02 0.  0.
         12    1    3    3    0    0 -0.59755600001E+01 -0.47435252844E-01 -0.36332789349E+02  0.36820933575E+02  0.00000000000E+00 0. -1.
         11    1    4    4    0    0 -0.13588034983E+02 -0.32593543407E+01  0.97621794149E+01  0.17045768759E+02  0.51100000000E-03 0. -1.
        -11    1    4    4    0    0  0.86069040255E+01  0.97403437686E+01  0.17073619468E+02  0.21458368429E+02  0.51100000000E-03 0.  1.
        -12    1    4    4    0    0  0.10956690957E+02 -0.64335541750E+01  0.94969904669E+01  0.15862929237E+02  0.00000000000E+00 0.  1.
</event>
<event>
 8    1  0.1280925E-006  0.9118800E+02  0.7816164E-02  0.1184000E+00
        -11   -1    0    0    0    0  0.00000000000E+00  0.00000000000E+00  0.45593999997E+02  0.45594000000E+02  0.51100000000E-03 0. -1.
         11   -1    0    0    0    0 -0.00000000000E+00 -0.00000000000E+00 -0.45593999997E+02  0.45594000000E+02  0.51100000000E-03 0.  1.
         23    2    1    2    0    0 -0.17763568394E-14  0.88817841970E-15  0.00000000000E+00  0.91188000000E+02  0.91188000000E+02 0.  0.
    9900012    2    3    3    0    0  0.15073097282E+02 -0.39596742475E+01 -0.33360192172E+02  0.54367086058E+02  0.40000004286E+02 0.  0.
         12    1    3    3    0    0 -0.15073097282E+02  0.39596742475E+01  0.33360192172E+02  0.36820913942E+02  0.00000000000E+00 0. -1.
         11    1    4    4    0    0  0.15758467471E+02 -0.67457987112E+01 -0.12386283884E+02  0.21148407174E+02  0.51100000000E-03 0. -1.
        -11    1    4    4    0    0 -0.20129223437E+01  0.82165572979E+01 -0.24958787555E+02  0.26353457964E+02  0.51100000000E-03 0.  1.
         12    1    4    4    0    0  0.13275521546E+01 -0.54304328342E+01  0.39848792679E+01  0.68652209192E+01  0.00000000000E+00 0. -1.
</event>
<event>
 8    1  0.1280925E-006  0.9118800E+02  0.7816164E-02  0.1184000E+00
        -11   -1    0    0    0    0  0.00000000000E+00  0.00000000000E+00  0.45593999997E+02  0.45594000000E+02  0.51100000000E-03 0.  1.
         11   -1    0    0    0    0 -0.00000000000E+00 -0.00000000000E+00 -0.45593999997E+02  0.45594000000E+02  0.51100000000E-03 0. -1.
         23    2    1    2    0    0  0.00000000000E+00  0.11102230246E-14  0.00000000000E+00  0.91188000000E+02  0.91188000000E+02 0.  0.
    9900012    2    3    3    0    0  0.29633487101E+02  0.63665847634E+00  0.21845628373E+02  0.54367076997E+02  0.39999983630E+02 0.  0.
         12    1    3    3    0    0 -0.29633487101E+02 -0.63665847634E+00 -0.21845628373E+02  0.36820923003E+02  0.00000000000E+00 0. -1.
         11    1    4    4    0    0  0.98949837646E+01  0.48861164273E+01  0.33059130957E+01  0.11520151870E+02  0.51100000000E-03 0.  1.
        -11    1    4    4    0    0 -0.67172516966E+01  0.67591086148E+01  0.75474932305E+01  0.12156137296E+02  0.51100000000E-03 0. -1.
        -12    1    4    4    0    0  0.26455755033E+02 -0.11008566566E+02  0.10992222047E+02  0.30690787832E+02  0.00000000000E+00 0.  1.
</event>
<event>
 8    1  0.1280925E-006  0.9118800E+02  0.7816164E-02  0.1184000E+00
        -11   -1    0    0    0    0  0.00000000000E+00  0.00000000000E+00  0.45593999997E+02  0.45594000000E+02  0.51100000000E-03 0. -1.
         11   -1    0    0    0    0 -0.00000000000E+00 -0.00000000000E+00 -0.45593999997E+02  0.45594000000E+02  0.51100000000E-03 0.  1.
         23    2    1    2    0    0  0.00000000000E+00  0.00000000000E+00  0.00000000000E+00  0.91188000000E+02  0.91188000000E+02 0.  0.
    9900012    2    3    3    0    0  0.89322477283E+01  0.29262992644E+02  0.20485901328E+02  0.54367082831E+02  0.39999996929E+02 0.  0.
        -12    1    3    3    0    0 -0.89322477283E+01 -0.29262992644E+02 -0.20485901328E+02  0.36820917169E+02  0.00000000000E+00 0.  1.
         11    1    4    4    0    0 -0.99965932563E+01  0.11752021814E+02  0.21332595946E+01  0.15575387322E+02  0.51100000000E-03 0. -1.
        -11    1    4    4    0    0  0.89261344189E+01  0.17385125195E+02  0.20750926298E+02  0.28504725857E+02  0.51100000000E-03 0.  1.
        -12    1    4    4    0    0  0.10002706566E+02  0.12584563459E+00 -0.23982845650E+01  0.10286969652E+02  0.00000000000E+00 0.  1.
</event>
<event>
 8    1  0.1280925E-006  0.9118800E+02  0.7816164E-02  0.1184000E+00
        -11   -1    0    0    0    0  0.00000000000E+00  0.00000000000E+00  0.45593999997E+02  0.45594000000E+02  0.51100000000E-03 0. -1.
         11   -1    0    0    0    0 -0.00000000000E+00 -0.00000000000E+00 -0.45593999997E+02  0.45594000000E+02  0.51100000000E-03 0.  1.
         23    2    1    2    0    0  0.00000000000E+00  0.35527136788E-14 -0.71054273576E-14  0.91188000000E+02  0.91188000000E+02 0.  0.
    9900012    2    3    3    0    0  0.23557252966E+02 -0.10406574579E+02  0.26316097456E+02  0.54367109909E+02  0.40000058660E+02 0.  0.
        -12    1    3    3    0    0 -0.23557252966E+02  0.10406574579E+02 -0.26316097456E+02  0.36820890091E+02  0.00000000000E+00 0.  1.
         11    1    4    4    0    0  0.12646809015E+02 -0.13297056165E+02  0.28004582839E+02  0.33481489530E+02  0.51100000000E-03 0. -1.
        -11    1    4    4    0    0  0.83977290548E+00 -0.67771919349E+01 -0.10660040882E+01  0.69117229424E+01  0.51100000000E-03 0.  1.
        -12    1    4    4    0    0  0.10070671045E+02  0.96676735211E+01 -0.62248129490E+00  0.13973897437E+02  0.00000000000E+00 0.  1.
</event>
<event>
 8    1  0.1280925E-006  0.9118800E+02  0.7816164E-02  0.1184000E+00
        -11   -1    0    0    0    0  0.00000000000E+00  0.00000000000E+00  0.45593999997E+02  0.45594000000E+02  0.51100000000E-03 0. -1.
         11   -1    0    0    0    0 -0.00000000000E+00 -0.00000000000E+00 -0.45593999997E+02  0.45594000000E+02  0.51100000000E-03 0.  1.
         23    2    1    2    0    0  0.00000000000E+00  0.16653345369E-15  0.00000000000E+00  0.91188000000E+02  0.91188000000E+02 0.  0.
    9900012    2    3    3    0    0 -0.32830350947E+02 -0.46406332550E+00  0.16665296486E+02  0.54367090112E+02  0.40000013527E+02 0.  0.
        -12    1    3    3    0    0  0.32830350947E+02  0.46406332550E+00 -0.16665296486E+02  0.36820909888E+02  0.00000000000E+00 0.  1.
         11    1    4    4    0    0  0.26557997930E+01  0.16316265976E+01  0.87738680414E+01  0.93110814927E+01  0.51100000000E-03 0. -1.
        -11    1    4    4    0    0 -0.38064267082E+02 -0.33698652661E+01  0.17251127217E+01  0.38252064448E+02  0.51100000000E-03 0.  1.
        -12    1    4    4    0    0  0.25781163423E+01  0.12741753430E+01  0.61663157232E+01  0.68039441706E+01  0.00000000000E+00 0.  1.
</event>
<event>
 8    1  0.1280925E-006  0.9118800E+02  0.7816164E-02  0.1184000E+00
        -11   -1    0    0    0    0  0.00000000000E+00  0.00000000000E+00  0.45593999997E+02  0.45594000000E+02  0.51100000000E-03 0.  1.
         11   -1    0    0    0    0 -0.00000000000E+00 -0.00000000000E+00 -0.45593999997E+02  0.45594000000E+02  0.51100000000E-03 0. -1.
         23    2    1    2    0    0 -0.35527136788E-14  0.00000000000E+00  0.00000000000E+00  0.91188000000E+02  0.91188000000E+02 0.  0.
    9900012    2    3    3    0    0 -0.30532594343E+02 -0.19637038121E+02  0.61584817975E+01  0.54367089073E+02  0.40000011159E+02 0.  0.
         12    1    3    3    0    0  0.30532594343E+02  0.19637038121E+02 -0.61584817975E+01  0.36820910927E+02  0.00000000000E+00 0. -1.
         11    1    4    4    0    0 -0.15318842545E+02 -0.70530834630E+01 -0.28780785225E+01  0.17108368114E+02  0.51100000000E-03 0. -1.
        -11    1    4    4    0    0 -0.17414946659E+02 -0.12268027076E+01 -0.58440759464E+01  0.18410286145E+02  0.51100000000E-03 0.  1.
         12    1    4    4    0    0  0.22011948614E+01 -0.11357151950E+02  0.14880636266E+02  0.18848434814E+02  0.00000000000E+00 0. -1.
</event>
<event>
 8    1  0.1280925E-006  0.9118800E+02  0.7816164E-02  0.1184000E+00
        -11   -1    0    0    0    0  0.00000000000E+00  0.00000000000E+00  0.45593999997E+02  0.45594000000E+02  0.51100000000E-03 0.  1.
         11   -1    0    0    0    0 -0.00000000000E+00 -0.00000000000E+00 -0.45593999997E+02  0.45594000000E+02  0.51100000000E-03 0. -1.
         23    2    1    2    0    0  0.00000000000E+00  0.15543122345E-14  0.00000000000E+00  0.91188000000E+02  0.91188000000E+02 0.  0.
    9900012    2    3    3    0    0  0.35216297347E+02 -0.14095885014E+01  0.10658577824E+02  0.54367084479E+02  0.40000000687E+02 0.  0.
         12    1    3    3    0    0 -0.35216297347E+02  0.14095885014E+01 -0.10658577824E+02  0.36820915521E+02  0.00000000000E+00 0. -1.
         11    1    4    4    0    0  0.32666138159E+02  0.83882612839E+01 -0.32130675606E+01  0.33878655714E+02  0.51100000000E-03 0. -1.
        -11    1    4    4    0    0  0.17445538200E+01  0.26090958202E+00  0.92017104726E+01  0.93692591876E+01  0.51100000000E-03 0.  1.
         12    1    4    4    0    0  0.80560536807E+00 -0.10058759367E+02  0.46699349121E+01  0.11119169578E+02  0.00000000000E+00 0. -1.
</event>
<event>
 8    1  0.1280925E-006  0.9118800E+02  0.7816164E-02  0.1184000E+00
        -11   -1    0    0    0    0  0.00000000000E+00  0.00000000000E+00  0.45593999997E+02  0.45594000000E+02  0.51100000000E-03 0.  1.
         11   -1    0    0    0    0 -0.00000000000E+00 -0.00000000000E+00 -0.45593999997E+02  0.45594000000E+02  0.51100000000E-03 0. -1.
         23    2    1    2    0    0  0.00000000000E+00  0.71054273576E-14  0.00000000000E+00  0.91188000000E+02  0.91188000000E+02 0.  0.
    9900012    2    3    3    0    0  0.20801718524E+02 -0.30353357362E+02 -0.13198654470E+01  0.54367084185E+02  0.40000000016E+02 0.  0.
        -12    1    3    3    0    0 -0.20801718524E+02  0.30353357362E+02  0.13198654470E+01  0.36820915815E+02  0.00000000000E+00 0.  1.
         11    1    4    4    0    0  0.20021656305E+02 -0.48231553424E+01 -0.53083447844E+01  0.21267535665E+02  0.51100000000E-03 0. -1.
        -11    1    4    4    0    0 -0.32933600465E+01 -0.91331925244E+00  0.71729436872E+01  0.79455329496E+01  0.51100000000E-03 0.  1.
         12    1    4    4    0    0  0.40734222651E+01 -0.24616882767E+02 -0.31844643498E+01  0.25154015570E+02  0.00000000000E+00 0. -1.
</event>
<event>
 8    1  0.1280925E-006  0.9118800E+02  0.7816164E-02  0.1184000E+00
        -11   -1    0    0    0    0  0.00000000000E+00  0.00000000000E+00  0.45593999997E+02  0.45594000000E+02  0.51100000000E-03 0. -1.
         11   -1    0    0    0    0 -0.00000000000E+00 -0.00000000000E+00 -0.45593999997E+02  0.45594000000E+02  0.51100000000E-03 0.  1.
         23    2    1    2    0    0 -0.35527136788E-14  0.00000000000E+00 -0.35527136788E-14  0.91188000000E+02  0.91188000000E+02 0.  0.
    9900012    2    3    3    0    0 -0.18982620058E+02 -0.71354630635E+01  0.30733159403E+02  0.54367057803E+02  0.39999939874E+02 0.  0.
        -12    1    3    3    0    0  0.18982620058E+02  0.71354630635E+01 -0.30733159403E+02  0.36820942197E+02  0.00000000000E+00 0.  1.
         11    1    4    4    0    0 -0.31631407502E+01  0.30757261214E+00  0.17841943503E+02  0.18122775961E+02  0.51100000000E-03 0. -1.
        -11    1    4    4    0    0 -0.11317700989E+01 -0.89426336597E+01  0.18397329458E+02  0.20486906349E+02  0.51100000000E-03 0.  1.
        -12    1    4    4    0    0 -0.14687709209E+02  0.14995979841E+01 -0.55061135576E+01  0.15757375493E+02  0.00000000000E+00 0.  1.
</event>
<event>
 8    1  0.1280925E-006  0.9118800E+02  0.7816164E-02  0.1184000E+00
        -11   -1    0    0    0    0  0.00000000000E+00  0.00000000000E+00  0.45593999997E+02  0.45594000000E+02  0.51100000000E-03 0.  1.
         11   -1    0    0    0    0 -0.00000000000E+00 -0.00000000000E+00 -0.45593999997E+02  0.45594000000E+02  0.51100000000E-03 0. -1.
         23    2    1    2    0    0  0.00000000000E+00 -0.17763568394E-14 -0.17763568394E-14  0.91188000000E+02  0.91188000000E+02 0.  0.
    9900012    2    3    3    0    0 -0.32880943759E+02  0.12856894337E+02  0.10455790320E+02  0.54367085485E+02  0.40000002981E+02 0.  0.
         12    1    3    3    0    0  0.32880943759E+02 -0.12856894337E+02 -0.10455790320E+02  0.36820914515E+02  0.00000000000E+00 0. -1.
         11    1    4    4    0    0 -0.54167440882E+01 -0.54638113621E+01  0.25668717484E+00  0.76980672695E+01  0.51100000000E-03 0. -1.
        -11    1    4    4    0    0 -0.47190728367E+01  0.20072390142E+02 -0.21449423856E+01  0.20730925511E+02  0.51100000000E-03 0.  1.
         12    1    4    4    0    0 -0.22745126834E+02 -0.17516844426E+01  0.12344045531E+02  0.25938092705E+02  0.00000000000E+00 0. -1.
</event>
<event>
 8    1  0.1280925E-006  0.9118800E+02  0.7816164E-02  0.1184000E+00
        -11   -1    0    0    0    0  0.00000000000E+00  0.00000000000E+00  0.45593999997E+02  0.45594000000E+02  0.51100000000E-03 0.  1.
         11   -1    0    0    0    0 -0.00000000000E+00 -0.00000000000E+00 -0.45593999997E+02  0.45594000000E+02  0.51100000000E-03 0. -1.
         23    2    1    2    0    0  0.00000000000E+00  0.00000000000E+00  0.35527136788E-14  0.91188000000E+02  0.91188000000E+02 0.  0.
    9900012    2    3    3    0    0 -0.21066973684E+01  0.32803060489E+02 -0.16592253372E+02  0.54367057274E+02  0.39999938669E+02 0.  0.
         12    1    3    3    0    0  0.21066973684E+01 -0.32803060489E+02  0.16592253372E+02  0.36820942726E+02  0.00000000000E+00 0. -1.
         11    1    4    4    0    0 -0.88377230854E+01  0.10776708411E+02 -0.59238870752E+01  0.15143818272E+02  0.51100000000E-03 0. -1.
        -11    1    4    4    0    0 -0.31869379567E+01  0.24235917032E+02 -0.14432650380E+02  0.28387279636E+02  0.51100000000E-03 0.  1.
        -12    1    4    4    0    0  0.99179636738E+01 -0.22095649538E+01  0.37642840838E+01  0.10835959366E+02  0.00000000000E+00 0.  1.
</event>
<event>
 8    1  0.1280925E-006  0.9118800E+02  0.7816164E-02  0.1184000E+00
        -11   -1    0    0    0    0  0.00000000000E+00  0.00000000000E+00  0.45593999997E+02  0.45594000000E+02  0.51100000000E-03 0.  1.
         11   -1    0    0    0    0 -0.00000000000E+00 -0.00000000000E+00 -0.45593999997E+02  0.45594000000E+02  0.51100000000E-03 0. -1.
         23    2    1    2    0    0  0.17763568394E-14  0.00000000000E+00 -0.26645352591E-14  0.91188000000E+02  0.91188000000E+02 0.  0.
    9900012    2    3    3    0    0 -0.13045838793E+02 -0.33537944380E+02 -0.77969357918E+01  0.54367084330E+02  0.40000000346E+02 0.  0.
        -12    1    3    3    0    0  0.13045838793E+02  0.33537944380E+02  0.77969357918E+01  0.36820915670E+02  0.00000000000E+00 0.  1.
         11    1    4    4    0    0 -0.20877631441E+01 -0.88778600431E+01 -0.49652249498E+01  0.10384055708E+02  0.51100000000E-03 0. -1.
        -11    1    4    4    0    0  0.32167947816E+01 -0.12106772227E+02  0.13902421065E+02  0.18713605055E+02  0.51100000000E-03 0.  1.
        -12    1    4    4    0    0 -0.14174870430E+02 -0.12553312110E+02 -0.16734131907E+02  0.25269423566E+02  0.00000000000E+00 0.  1.
</event>
<event>
 8    1  0.1280925E-006  0.9118800E+02  0.7816164E-02  0.1184000E+00
        -11   -1    0    0    0    0  0.00000000000E+00  0.00000000000E+00  0.45593999997E+02  0.45594000000E+02  0.51100000000E-03 0. -1.
         11   -1    0    0    0    0 -0.00000000000E+00 -0.00000000000E+00 -0.45593999997E+02  0.45594000000E+02  0.51100000000E-03 0.  1.
         23    2    1    2    0    0  0.71054273576E-14  0.00000000000E+00  0.00000000000E+00  0.91188000000E+02  0.91188000000E+02 0.  0.
    9900012    2    3    3    0    0 -0.28692777916E+02 -0.22683281886E+02 -0.42396996947E+01  0.54367057112E+02  0.39999938298E+02 0.  0.
         12    1    3    3    0    0  0.28692777916E+02  0.22683281886E+02  0.42396996947E+01  0.36820942888E+02  0.00000000000E+00 0. -1.
         11    1    4    4    0    0  0.60977861858E+00 -0.18107555535E+00 -0.66714460410E+01  0.67017020868E+01  0.51100000000E-03 0. -1.
        -11    1    4    4    0    0 -0.15178755712E+02 -0.27297976266E+02 -0.38699110184E+01  0.31473009782E+02  0.51100000000E-03 0.  1.
         12    1    4    4    0    0 -0.14123800822E+02  0.47957699348E+01  0.63016573648E+01  0.16192345243E+02  0.00000000000E+00 0. -1.
</event>
<event>
 8    1  0.1280925E-006  0.9118800E+02  0.7816164E-02  0.1184000E+00
        -11   -1    0    0    0    0  0.00000000000E+00  0.00000000000E+00  0.45593999997E+02  0.45594000000E+02  0.51100000000E-03 0. -1.
         11   -1    0    0    0    0 -0.00000000000E+00 -0.00000000000E+00 -0.45593999997E+02  0.45594000000E+02  0.51100000000E-03 0.  1.
         23    2    1    2    0    0  0.00000000000E+00  0.35527136788E-14 -0.17763568394E-14  0.91188000000E+02  0.91188000000E+02 0.  0.
    9900012    2    3    3    0    0 -0.24581480158E+02 -0.25862325834E+02 -0.90925111089E+01  0.54367043704E+02  0.39999907731E+02 0.  0.
         12    1    3    3    0    0  0.24581480158E+02  0.25862325834E+02  0.90925111089E+01  0.36820956296E+02  0.00000000000E+00 0. -1.
         11    1    4    4    0    0 -0.16981528566E+02 -0.24933610538E+02 -0.17095690327E+02  0.34674484494E+02  0.51100000000E-03 0.  1.
        -11    1    4    4    0    0 -0.10041685589E+02 -0.27326103753E+01  0.11196785385E+02  0.15286288370E+02  0.51100000000E-03 0. -1.
         12    1    4    4    0    0  0.24417339968E+01  0.18038950790E+01 -0.31936061665E+01  0.44062708398E+01  0.00000000000E+00 0. -1.
</event>
<event>
 8    1  0.1280925E-006  0.9118800E+02  0.7816164E-02  0.1184000E+00
        -11   -1    0    0    0    0  0.00000000000E+00  0.00000000000E+00  0.45593999997E+02  0.45594000000E+02  0.51100000000E-03 0.  1.
         11   -1    0    0    0    0 -0.00000000000E+00 -0.00000000000E+00 -0.45593999997E+02  0.45594000000E+02  0.51100000000E-03 0. -1.
         23    2    1    2    0    0  0.00000000000E+00  0.66613381478E-15  0.00000000000E+00  0.91188000000E+02  0.91188000000E+02 0.  0.
    9900012    2    3    3    0    0  0.68193144240E+01  0.53588146278E+00 -0.36179945452E+02  0.54367100078E+02  0.40000036247E+02 0.  0.
        -12    1    3    3    0    0 -0.68193144240E+01 -0.53588146278E+00  0.36179945452E+02  0.36820899922E+02  0.00000000000E+00 0.  1.
         11    1    4    4    0    0  0.66379548592E+01  0.37331205773E+01 -0.95688694906E+01  0.12229550178E+02  0.51100000000E-03 0. -1.
        -11    1    4    4    0    0  0.14456316966E+01 -0.10067683469E+02  0.38578737806E+01  0.10878018745E+02  0.51100000000E-03 0.  1.
        -12    1    4    4    0    0 -0.12642721318E+01  0.68704443547E+01 -0.30468949742E+02  0.31259531155E+02  0.00000000000E+00 0.  1.
</event>
<event>
 8    1  0.1280925E-006  0.9118800E+02  0.7816164E-02  0.1184000E+00
        -11   -1    0    0    0    0  0.00000000000E+00  0.00000000000E+00  0.45593999997E+02  0.45594000000E+02  0.51100000000E-03 0. -1.
         11   -1    0    0    0    0 -0.00000000000E+00 -0.00000000000E+00 -0.45593999997E+02  0.45594000000E+02  0.51100000000E-03 0.  1.
         23    2    1    2    0    0  0.00000000000E+00  0.00000000000E+00  0.00000000000E+00  0.91188000000E+02  0.91188000000E+02 0.  0.
    9900012    2    3    3    0    0 -0.25587716490E+02 -0.17637794072E+02 -0.19747328905E+02  0.54367081845E+02  0.39999994682E+02 0.  0.
         12    1    3    3    0    0  0.25587716490E+02  0.17637794072E+02  0.19747328905E+02  0.36820918155E+02  0.00000000000E+00 0. -1.
         11    1    4    4    0    0 -0.13879390423E+02 -0.56158972699E+00 -0.41452287394E+01  0.14496060951E+02  0.51100000000E-03 0. -1.
        -11    1    4    4    0    0  0.26609133865E+01  0.70658036495E+01 -0.74747207849E+01  0.10624381974E+02  0.51100000000E-03 0.  1.
         12    1    4    4    0    0 -0.14369239454E+02 -0.24142007994E+02 -0.81273793803E+01  0.29246638919E+02  0.00000000000E+00 0. -1.
</event>
<event>
 8    1  0.1280925E-006  0.9118800E+02  0.7816164E-02  0.1184000E+00
        -11   -1    0    0    0    0  0.00000000000E+00  0.00000000000E+00  0.45593999997E+02  0.45594000000E+02  0.51100000000E-03 0.  1.
         11   -1    0    0    0    0 -0.00000000000E+00 -0.00000000000E+00 -0.45593999997E+02  0.45594000000E+02  0.51100000000E-03 0. -1.
         23    2    1    2    0    0  0.00000000000E+00 -0.17763568394E-14  0.35527136788E-14  0.91188000000E+02  0.91188000000E+02 0.  0.
    9900012    2    3    3    0    0  0.22932355657E+02 -0.47639247172E+01 -0.28411124825E+02  0.54367083003E+02  0.39999997321E+02 0.  0.
        -12    1    3    3    0    0 -0.22932355657E+02  0.47639247172E+01  0.28411124825E+02  0.36820916997E+02  0.00000000000E+00 0.  1.
         11    1    4    4    0    0  0.53683728677E+01  0.56347716517E+01  0.59519115134E+01  0.97977206399E+01  0.51100000000E-03 0. -1.
        -11    1    4    4    0    0 -0.20825741939E+01  0.36577535142E+01 -0.45650487194E+01  0.62093434529E+01  0.51100000000E-03 0.  1.
         12    1    4    4    0    0  0.19646556984E+02 -0.14056449883E+02 -0.29797987619E+02  0.38360018910E+02  0.00000000000E+00 0. -1.
</event>
<event>
 8    1  0.1280925E-006  0.9118800E+02  0.7816164E-02  0.1184000E+00
        -11   -1    0    0    0    0  0.00000000000E+00  0.00000000000E+00  0.45593999997E+02  0.45594000000E+02  0.51100000000E-03 0.  1.
         11   -1    0    0    0    0 -0.00000000000E+00 -0.00000000000E+00 -0.45593999997E+02  0.45594000000E+02  0.51100000000E-03 0. -1.
         23    2    1    2    0    0 -0.17763568394E-14  0.00000000000E+00  0.00000000000E+00  0.91188000000E+02  0.91188000000E+02 0.  0.
    9900012    2    3    3    0    0  0.11831554577E+02  0.21012652510E+02  0.27825597720E+02  0.54367066583E+02  0.39999959888E+02 0.  0.
         12    1    3    3    0    0 -0.11831554577E+02 -0.21012652510E+02 -0.27825597720E+02  0.36820933417E+02  0.00000000000E+00 0. -1.
         11    1    4    4    0    0  0.78943841105E+01  0.15942322426E+02  0.10698833100E+02  0.20759190129E+02  0.51100000000E-03 0. -1.
        -11    1    4    4    0    0  0.76727173239E+01  0.10525239556E+02 -0.21748603310E+01  0.13205350301E+02  0.51100000000E-03 0.  1.
         12    1    4    4    0    0 -0.37355468572E+01 -0.54549094723E+01  0.19301624951E+02  0.20402526153E+02  0.00000000000E+00 0. -1.
</event>
<event>
 8    1  0.1280925E-006  0.9118800E+02  0.7816164E-02  0.1184000E+00
        -11   -1    0    0    0    0  0.00000000000E+00  0.00000000000E+00  0.45593999997E+02  0.45594000000E+02  0.51100000000E-03 0. -1.
         11   -1    0    0    0    0 -0.00000000000E+00 -0.00000000000E+00 -0.45593999997E+02  0.45594000000E+02  0.51100000000E-03 0.  1.
         23    2    1    2    0    0 -0.66613381478E-15  0.00000000000E+00  0.00000000000E+00  0.91188000000E+02  0.91188000000E+02 0.  0.
    9900012    2    3    3    0    0 -0.10045523039E+01 -0.30583725292E+02  0.20479420069E+02  0.54367081700E+02  0.39999994352E+02 0.  0.
        -12    1    3    3    0    0  0.10045523039E+01  0.30583725292E+02 -0.20479420069E+02  0.36820918300E+02  0.00000000000E+00 0.  1.
         11    1    4    4    0    0 -0.45545042484E+01 -0.21791393430E+02 -0.11019516143E+00  0.22262535341E+02  0.51100000000E-03 0. -1.
        -11    1    4    4    0    0  0.11126724133E+02  0.10511903019E+01  0.14393495112E+02  0.18223108757E+02  0.51100000000E-03 0.  1.
        -12    1    4    4    0    0 -0.75767721883E+01 -0.98435221642E+01  0.61961201182E+01  0.13881437602E+02  0.00000000000E+00 0.  1.
</event>
<event>
 8    1  0.1280925E-006  0.9118800E+02  0.7816164E-02  0.1184000E+00
        -11   -1    0    0    0    0  0.00000000000E+00  0.00000000000E+00  0.45593999997E+02  0.45594000000E+02  0.51100000000E-03 0.  1.
         11   -1    0    0    0    0 -0.00000000000E+00 -0.00000000000E+00 -0.45593999997E+02  0.45594000000E+02  0.51100000000E-03 0. -1.
         23    2    1    2    0    0  0.35527136788E-14 -0.35527136788E-14 -0.17763568394E-14  0.91188000000E+02  0.91188000000E+02 0.  0.
    9900012    2    3    3    0    0  0.24421205437E+02 -0.24700133963E+02 -0.12218381239E+02  0.54367072080E+02  0.39999972422E+02 0.  0.
        -12    1    3    3    0    0 -0.24421205437E+02  0.24700133963E+02  0.12218381239E+02  0.36820927920E+02  0.00000000000E+00 0.  1.
         11    1    4    4    0    0  0.18547020775E+02 -0.20412619208E+02 -0.97997447020E+01  0.29269472134E+02  0.51100000000E-03 0. -1.
        -11    1    4    4    0    0  0.31856185124E+01  0.44429450124E+01  0.89658534984E+01  0.10501164455E+02  0.51100000000E-03 0.  1.
        -12    1    4    4    0    0  0.26885661496E+01 -0.87304597674E+01 -0.11384490036E+02  0.14596435492E+02  0.00000000000E+00 0.  1.
</event>
<event>
 8    1  0.1280925E-006  0.9118800E+02  0.7816164E-02  0.1184000E+00
        -11   -1    0    0    0    0  0.00000000000E+00  0.00000000000E+00  0.45593999997E+02  0.45594000000E+02  0.51100000000E-03 0.  1.
         11   -1    0    0    0    0 -0.00000000000E+00 -0.00000000000E+00 -0.45593999997E+02  0.45594000000E+02  0.51100000000E-03 0. -1.
         23    2    1    2    0    0  0.00000000000E+00  0.71054273576E-14  0.44408920985E-15  0.91188000000E+02  0.91188000000E+02 0.  0.
    9900012    2    3    3    0    0 -0.87280206559E+01 -0.35734461612E+02  0.16279592396E+01  0.54367077380E+02  0.39999984504E+02 0.  0.
        -12    1    3    3    0    0  0.87280206559E+01  0.35734461612E+02 -0.16279592396E+01  0.36820922620E+02  0.00000000000E+00 0.  1.
         11    1    4    4    0    0 -0.44125015015E+01 -0.78049548534E+00  0.38790535319E+00  0.44977564994E+01  0.51100000000E-03 0.  1.
        -11    1    4    4    0    0 -0.17318751850E+01 -0.28721054377E+02 -0.14880783620E+02  0.32393457327E+02  0.51100000000E-03 0. -1.
         12    1    4    4    0    0 -0.25836439694E+01 -0.62329117497E+01  0.16120837507E+02  0.17475863554E+02  0.00000000000E+00 0. -1.
</event>
<event>
 8    1  0.1280925E-006  0.9118800E+02  0.7816164E-02  0.1184000E+00
        -11   -1    0    0    0    0  0.00000000000E+00  0.00000000000E+00  0.45593999997E+02  0.45594000000E+02  0.51100000000E-03 0.  1.
         11   -1    0    0    0    0 -0.00000000000E+00 -0.00000000000E+00 -0.45593999997E+02  0.45594000000E+02  0.51100000000E-03 0. -1.
         23    2    1    2    0    0  0.00000000000E+00  0.35527136788E-14  0.35527136788E-14  0.91188000000E+02  0.91188000000E+02 0.  0.
    9900012    2    3    3    0    0  0.25575554185E+02 -0.19396113077E+02  0.18040624562E+02  0.54367050679E+02  0.39999923632E+02 0.  0.
         12    1    3    3    0    0 -0.25575554185E+02  0.19396113077E+02 -0.18040624562E+02  0.36820949321E+02  0.00000000000E+00 0. -1.
         11    1    4    4    0    0  0.25985350939E+01  0.45116010145E+01 -0.34907446935E+00  0.52181205040E+01  0.51100000000E-03 0. -1.
        -11    1    4    4    0    0  0.15979346499E+02  0.42482968355E+01  0.75636372966E+01  0.18182303208E+02  0.51100000000E-03 0.  1.
        -12    1    4    4    0    0  0.69976725919E+01 -0.28156010927E+02  0.10826061735E+02  0.30966626967E+02  0.00000000000E+00 0.  1.
</event>
<event>
 8    1  0.1280925E-006  0.9118800E+02  0.7816164E-02  0.1184000E+00
        -11   -1    0    0    0    0  0.00000000000E+00  0.00000000000E+00  0.45593999997E+02  0.45594000000E+02  0.51100000000E-03 0. -1.
         11   -1    0    0    0    0 -0.00000000000E+00 -0.00000000000E+00 -0.45593999997E+02  0.45594000000E+02  0.51100000000E-03 0.  1.
         23    2    1    2    0    0  0.00000000000E+00 -0.17763568394E-14 -0.35527136788E-14  0.91188000000E+02  0.91188000000E+02 0.  0.
    9900012    2    3    3    0    0 -0.26217653015E+02 -0.15343628481E+02 -0.20808347316E+02  0.54367087699E+02  0.40000008028E+02 0.  0.
         12    1    3    3    0    0  0.26217653015E+02  0.15343628481E+02  0.20808347316E+02  0.36820912301E+02  0.00000000000E+00 0. -1.
         11    1    4    4    0    0 -0.27210488186E+01  0.26754199278E+01 -0.21275197915E+02  0.21614717788E+02  0.51100000000E-03 0. -1.
        -11    1    4    4    0    0 -0.68535939154E+00 -0.15868421451E+01 -0.39335196377E+01  0.42965523958E+01  0.51100000000E-03 0.  1.
         12    1    4    4    0    0 -0.22811244805E+02 -0.16432206264E+02  0.44003702364E+01  0.28455817516E+02  0.00000000000E+00 0. -1.
</event>
<event>
 8    1  0.1280925E-006  0.9118800E+02  0.7816164E-02  0.1184000E+00
        -11   -1    0    0    0    0  0.00000000000E+00  0.00000000000E+00  0.45593999997E+02  0.45594000000E+02  0.51100000000E-03 0.  1.
         11   -1    0    0    0    0 -0.00000000000E+00 -0.00000000000E+00 -0.45593999997E+02  0.45594000000E+02  0.51100000000E-03 0. -1.
         23    2    1    2    0    0  0.44408920985E-15 -0.44408920985E-15  0.00000000000E+00  0.91188000000E+02  0.91188000000E+02 0.  0.
    9900012    2    3    3    0    0 -0.29772730691E+01 -0.77873503336E+00  0.36692079236E+02  0.54367092056E+02  0.40000017960E+02 0.  0.
         12    1    3    3    0    0  0.29772730691E+01  0.77873503336E+00 -0.36692079236E+02  0.36820907944E+02  0.00000000000E+00 0. -1.
         11    1    4    4    0    0  0.19215213306E+01  0.39640978106E+01 -0.12815053561E+01  0.45878722645E+01  0.51100000000E-03 0. -1.
        -11    1    4    4    0    0 -0.57123551022E+01  0.94259024702E+01  0.32917022244E+02  0.34713239432E+02  0.51100000000E-03 0.  1.
        -12    1    4    4    0    0  0.81356070248E+00 -0.14168735314E+02  0.50565623482E+01  0.15065980360E+02  0.00000000000E+00 0.  1.
</event>
<event>
 8    1  0.1280925E-006  0.9118800E+02  0.7816164E-02  0.1184000E+00
        -11   -1    0    0    0    0  0.00000000000E+00  0.00000000000E+00  0.45593999997E+02  0.45594000000E+02  0.51100000000E-03 0.  1.
         11   -1    0    0    0    0 -0.00000000000E+00 -0.00000000000E+00 -0.45593999997E+02  0.45594000000E+02  0.51100000000E-03 0. -1.
         23    2    1    2    0    0  0.00000000000E+00  0.35527136788E-14  0.35527136788E-14  0.91188000000E+02  0.91188000000E+02 0.  0.
    9900012    2    3    3    0    0  0.11940193445E+02 -0.17180595361E+02  0.30299153323E+02  0.54367085174E+02  0.40000002272E+02 0.  0.
         12    1    3    3    0    0 -0.11940193445E+02  0.17180595361E+02 -0.30299153323E+02  0.36820914826E+02  0.00000000000E+00 0. -1.
         11    1    4    4    0    0  0.20764731131E+01 -0.17660697993E+01 -0.55322137319E+01  0.61673440120E+01  0.51100000000E-03 0. -1.
        -11    1    4    4    0    0  0.13789202309E+01  0.73319792776E+01  0.12324719275E+02  0.14406874977E+02  0.51100000000E-03 0.  1.
        -12    1    4    4    0    0  0.84848001012E+01 -0.22746504840E+02  0.23506647780E+02  0.33792866186E+02  0.00000000000E+00 0.  1.
</event>
<event>
 8    1  0.1280925E-006  0.9118800E+02  0.7816164E-02  0.1184000E+00
        -11   -1    0    0    0    0  0.00000000000E+00  0.00000000000E+00  0.45593999997E+02  0.45594000000E+02  0.51100000000E-03 0. -1.
         11   -1    0    0    0    0 -0.00000000000E+00 -0.00000000000E+00 -0.45593999997E+02  0.45594000000E+02  0.51100000000E-03 0.  1.
         23    2    1    2    0    0  0.35527136788E-14  0.71054273576E-14 -0.35527136788E-14  0.91188000000E+02  0.91188000000E+02 0.  0.
    9900012    2    3    3    0    0  0.12932635775E+02  0.27859900582E+02 -0.20306499380E+02  0.54367067834E+02  0.39999962740E+02 0.  0.
         12    1    3    3    0    0 -0.12932635775E+02 -0.27859900582E+02  0.20306499380E+02  0.36820932166E+02  0.00000000000E+00 0. -1.
         11    1    4    4    0    0  0.69339893960E+01  0.21212129650E+02 -0.14634265862E+02  0.26687007903E+02  0.51100000000E-03 0. -1.
        -11    1    4    4    0    0  0.10339644838E+02  0.14451350626E+02 -0.59698473626E+01  0.18745369244E+02  0.51100000000E-03 0.  1.
         12    1    4    4    0    0 -0.43409984584E+01 -0.78035796944E+01  0.29761384480E+00  0.89346906865E+01  0.00000000000E+00 0. -1.
</event>
<event>
 8    1  0.1280925E-006  0.9118800E+02  0.7816164E-02  0.1184000E+00
        -11   -1    0    0    0    0  0.00000000000E+00  0.00000000000E+00  0.45593999997E+02  0.45594000000E+02  0.51100000000E-03 0.  1.
         11   -1    0    0    0    0 -0.00000000000E+00 -0.00000000000E+00 -0.45593999997E+02  0.45594000000E+02  0.51100000000E-03 0. -1.
         23    2    1    2    0    0 -0.17763568394E-14  0.71054273576E-14  0.17763568394E-14  0.91188000000E+02  0.91188000000E+02 0.  0.
    9900012    2    3    3    0    0  0.13662437002E+02  0.34111251297E+02 -0.23538495366E+01  0.54367078535E+02  0.39999987136E+02 0.  0.
        -12    1    3    3    0    0 -0.13662437002E+02 -0.34111251297E+02  0.23538495366E+01  0.36820921465E+02  0.00000000000E+00 0.  1.
         11    1    4    4    0    0 -0.21247445187E+01  0.68816929681E+01 -0.10380700861E+02  0.12634523656E+02  0.51100000000E-03 0. -1.
        -11    1    4    4    0    0  0.20586956177E+02  0.15035989882E+02 -0.14906592364E+01  0.25536754328E+02  0.51100000000E-03 0.  1.
         12    1    4    4    0    0 -0.47997746561E+01  0.12193568447E+02  0.95175105609E+01  0.16195800551E+02  0.00000000000E+00 0. -1.
</event>
<event>
 8    1  0.1280925E-006  0.9118800E+02  0.7816164E-02  0.1184000E+00
        -11   -1    0    0    0    0  0.00000000000E+00  0.00000000000E+00  0.45593999997E+02  0.45594000000E+02  0.51100000000E-03 0. -1.
         11   -1    0    0    0    0 -0.00000000000E+00 -0.00000000000E+00 -0.45593999997E+02  0.45594000000E+02  0.51100000000E-03 0.  1.
         23    2    1    2    0    0  0.00000000000E+00  0.35527136788E-14 -0.14432899320E-14  0.91188000000E+02  0.91188000000E+02 0.  0.
    9900012    2    3    3    0    0 -0.30303215978E+02 -0.20907772633E+02 -0.59899035805E+00  0.54367100438E+02  0.40000037068E+02 0.  0.
         12    1    3    3    0    0  0.30303215978E+02  0.20907772633E+02  0.59899035805E+00  0.36820899562E+02  0.00000000000E+00 0. -1.
         11    1    4    4    0    0 -0.10878652982E+02 -0.78824249883E+00  0.12893350664E+02  0.16888010793E+02  0.51100000000E-03 0. -1.
        -11    1    4    4    0    0 -0.59137778122E+01 -0.15804769432E+02  0.13760069122E+01  0.16930945045E+02  0.51100000000E-03 0.  1.
        -12    1    4    4    0    0 -0.13510785184E+02 -0.43147607024E+01 -0.14868347935E+02  0.20548144600E+02  0.00000000000E+00 0.  1.
</event>
<event>
 8    1  0.1280925E-006  0.9118800E+02  0.7816164E-02  0.1184000E+00
        -11   -1    0    0    0    0  0.00000000000E+00  0.00000000000E+00  0.45593999997E+02  0.45594000000E+02  0.51100000000E-03 0.  1.
         11   -1    0    0    0    0 -0.00000000000E+00 -0.00000000000E+00 -0.45593999997E+02  0.45594000000E+02  0.51100000000E-03 0. -1.
         23    2    1    2    0    0  0.00000000000E+00  0.17763568394E-14  0.35527136788E-14  0.91188000000E+02  0.91188000000E+02 0.  0.
    9900012    2    3    3    0    0 -0.20275267238E+02  0.14022066787E+02 -0.27350966733E+02  0.54367079319E+02  0.39999988924E+02 0.  0.
        -12    1    3    3    0    0  0.20275267238E+02 -0.14022066787E+02  0.27350966733E+02  0.36820920681E+02  0.00000000000E+00 0.  1.
         11    1    4    4    0    0 -0.16790482799E+02  0.20318924841E+01 -0.56978027292E+01  0.17846956488E+02  0.51100000000E-03 0. -1.
        -11    1    4    4    0    0  0.38241063643E+01  0.14029742424E+02 -0.10677982552E+01  0.14580728903E+02  0.51100000000E-03 0.  1.
         12    1    4    4    0    0 -0.73088908031E+01 -0.20395681220E+01 -0.20585365749E+02  0.21939393928E+02  0.00000000000E+00 0. -1.
</event>
<event>
 8    1  0.1280925E-006  0.9118800E+02  0.7816164E-02  0.1184000E+00
        -11   -1    0    0    0    0  0.00000000000E+00  0.00000000000E+00  0.45593999997E+02  0.45594000000E+02  0.51100000000E-03 0. -1.
         11   -1    0    0    0    0 -0.00000000000E+00 -0.00000000000E+00 -0.45593999997E+02  0.45594000000E+02  0.51100000000E-03 0.  1.
         23    2    1    2    0    0 -0.35527136788E-14  0.00000000000E+00  0.00000000000E+00  0.91188000000E+02  0.91188000000E+02 0.  0.
    9900012    2    3    3    0    0 -0.21204983574E+02  0.27502607587E+02 -0.12236662858E+02  0.54367072930E+02  0.39999974357E+02 0.  0.
        -12    1    3    3    0    0  0.21204983574E+02 -0.27502607587E+02  0.12236662858E+02  0.36820927070E+02  0.00000000000E+00 0.  1.
         11    1    4    4    0    0 -0.49195401293E+01  0.12857516477E+01 -0.69744233405E+01  0.86312000079E+01  0.51100000000E-03 0. -1.
        -11    1    4    4    0    0 -0.22816580226E+01  0.11702827231E+02 -0.18212106566E+02  0.21767934085E+02  0.51100000000E-03 0.  1.
         12    1    4    4    0    0 -0.14003785422E+02  0.14514028708E+02  0.12949867048E+02  0.23967938836E+02  0.00000000000E+00 0. -1.
</event>
<event>
 8    1  0.1280925E-006  0.9118800E+02  0.7816164E-02  0.1184000E+00
        -11   -1    0    0    0    0  0.00000000000E+00  0.00000000000E+00  0.45593999997E+02  0.45594000000E+02  0.51100000000E-03 0.  1.
         11   -1    0    0    0    0 -0.00000000000E+00 -0.00000000000E+00 -0.45593999997E+02  0.45594000000E+02  0.51100000000E-03 0. -1.
         23    2    1    2    0    0  0.35527136788E-14  0.00000000000E+00  0.00000000000E+00  0.91188000000E+02  0.91188000000E+02 0.  0.
    9900012    2    3    3    0    0  0.23839316522E+02  0.19115576409E+02  0.20544052516E+02  0.54367131359E+02  0.40000107560E+02 0.  0.
         12    1    3    3    0    0 -0.23839316522E+02 -0.19115576409E+02 -0.20544052516E+02  0.36820868641E+02  0.00000000000E+00 0. -1.
         11    1    4    4    0    0  0.28571553895E+01  0.91130928659E+01  0.15812342762E+02  0.18472736192E+02  0.51100000000E-03 0. -1.
        -11    1    4    4    0    0  0.10382332495E+02  0.18660227887E+02 -0.17610126847E+00  0.21354810810E+02  0.51100000000E-03 0.  1.
         12    1    4    4    0    0  0.10599828637E+02 -0.86577443439E+01  0.49078110221E+01  0.14539584358E+02  0.00000000000E+00 0. -1.
</event>
<event>
 8    1  0.1280925E-006  0.9118800E+02  0.7816164E-02  0.1184000E+00
        -11   -1    0    0    0    0  0.00000000000E+00  0.00000000000E+00  0.45593999997E+02  0.45594000000E+02  0.51100000000E-03 0. -1.
         11   -1    0    0    0    0 -0.00000000000E+00 -0.00000000000E+00 -0.45593999997E+02  0.45594000000E+02  0.51100000000E-03 0.  1.
         23    2    1    2    0    0 -0.17763568394E-14  0.00000000000E+00 -0.35527136788E-14  0.91188000000E+02  0.91188000000E+02 0.  0.
    9900012    2    3    3    0    0  0.20444726171E+01 -0.23003255290E+02 -0.28678403088E+02  0.54367076249E+02  0.39999981924E+02 0.  0.
         12    1    3    3    0    0 -0.20444726171E+01  0.23003255290E+02  0.28678403088E+02  0.36820923751E+02  0.00000000000E+00 0. -1.
         11    1    4    4    0    0 -0.12999653964E+02 -0.82961279364E+01 -0.20606881320E+02  0.25738304138E+02  0.51100000000E-03 0. -1.
        -11    1    4    4    0    0  0.11250590332E+02 -0.13091784926E+02 -0.13427661271E+02  0.21869446788E+02  0.51100000000E-03 0.  1.
         12    1    4    4    0    0  0.37935362493E+01 -0.16153424280E+01  0.53561395029E+01  0.67593253221E+01  0.00000000000E+00 0. -1.
</event>
<event>
 8    1  0.1280925E-006  0.9118800E+02  0.7816164E-02  0.1184000E+00
        -11   -1    0    0    0    0  0.00000000000E+00  0.00000000000E+00  0.45593999997E+02  0.45594000000E+02  0.51100000000E-03 0. -1.
         11   -1    0    0    0    0 -0.00000000000E+00 -0.00000000000E+00 -0.45593999997E+02  0.45594000000E+02  0.51100000000E-03 0.  1.
         23    2    1    2    0    0  0.00000000000E+00  0.00000000000E+00  0.35527136788E-14  0.91188000000E+02  0.91188000000E+02 0.  0.
    9900012    2    3    3    0    0  0.13678556747E+02  0.26107108107E+02 -0.22070252274E+02  0.54367081437E+02  0.39999993752E+02 0.  0.
         12    1    3    3    0    0 -0.13678556747E+02 -0.26107108107E+02  0.22070252274E+02  0.36820918563E+02  0.00000000000E+00 0. -1.
         11    1    4    4    0    0  0.12739832160E+02  0.11290823265E+02 -0.19568956243E+02  0.25937040351E+02  0.51100000000E-03 0. -1.
        -11    1    4    4    0    0  0.30928858824E+01  0.50841469752E+01 -0.12788843160E+02  0.14105637284E+02  0.51100000000E-03 0.  1.
         12    1    4    4    0    0 -0.21541612951E+01  0.97321378670E+01  0.10287547129E+02  0.14324403802E+02  0.00000000000E+00 0. -1.
</event>
<event>
 8    1  0.1280925E-006  0.9118800E+02  0.7816164E-02  0.1184000E+00
        -11   -1    0    0    0    0  0.00000000000E+00  0.00000000000E+00  0.45593999997E+02  0.45594000000E+02  0.51100000000E-03 0.  1.
         11   -1    0    0    0    0 -0.00000000000E+00 -0.00000000000E+00 -0.45593999997E+02  0.45594000000E+02  0.51100000000E-03 0. -1.
         23    2    1    2    0    0  0.00000000000E+00  0.35527136788E-14  0.88817841970E-15  0.91188000000E+02  0.91188000000E+02 0.  0.
    9900012    2    3    3    0    0  0.32413817651E+02 -0.16547444369E+02 -0.55951354495E+01  0.54367095197E+02  0.40000025120E+02 0.  0.
         12    1    3    3    0    0 -0.32413817651E+02  0.16547444369E+02  0.55951354495E+01  0.36820904803E+02  0.00000000000E+00 0. -1.
         11    1    4    4    0    0  0.11202645772E+02 -0.20086998257E+02 -0.85742837747E+01  0.24545979585E+02  0.51100000000E-03 0. -1.
        -11    1    4    4    0    0  0.61663900198E+01  0.66192823863E+01 -0.70589143005E+01  0.11474647557E+02  0.51100000000E-03 0.  1.
        -12    1    4    4    0    0  0.15044781859E+02 -0.30797284974E+01  0.10038062626E+02  0.18346468055E+02  0.00000000000E+00 0.  1.
</event>
<event>
 8    1  0.1280925E-006  0.9118800E+02  0.7816164E-02  0.1184000E+00
        -11   -1    0    0    0    0  0.00000000000E+00  0.00000000000E+00  0.45593999997E+02  0.45594000000E+02  0.51100000000E-03 0.  1.
         11   -1    0    0    0    0 -0.00000000000E+00 -0.00000000000E+00 -0.45593999997E+02  0.45594000000E+02  0.51100000000E-03 0. -1.
         23    2    1    2    0    0 -0.44408920985E-15  0.88817841970E-15 -0.71054273576E-14  0.91188000000E+02  0.91188000000E+02 0.  0.
    9900012    2    3    3    0    0  0.35892822692E+01 -0.69394849956E+01  0.35982500267E+02  0.54367085770E+02  0.40000003631E+02 0.  0.
         12    1    3    3    0    0 -0.35892822692E+01  0.69394849956E+01 -0.35982500267E+02  0.36820914230E+02  0.00000000000E+00 0. -1.
         11    1    4    4    0    0 -0.70958103010E+01 -0.12260500501E+02  0.14775756642E+02  0.20469327809E+02  0.51100000000E-03 0. -1.
        -11    1    4    4    0    0  0.28096649901E+01  0.81781364066E+01 -0.22956459199E+01  0.89468498865E+01  0.51100000000E-03 0.  1.
        -12    1    4    4    0    0  0.78754275800E+01 -0.28571209012E+01  0.23502389545E+02  0.24950908074E+02  0.00000000000E+00 0.  1.
</event>
<event>
 8    1  0.1280925E-006  0.9118800E+02  0.7816164E-02  0.1184000E+00
        -11   -1    0    0    0    0  0.00000000000E+00  0.00000000000E+00  0.45593999997E+02  0.45594000000E+02  0.51100000000E-03 0. -1.
         11   -1    0    0    0    0 -0.00000000000E+00 -0.00000000000E+00 -0.45593999997E+02  0.45594000000E+02  0.51100000000E-03 0.  1.
         23    2    1    2    0    0  0.00000000000E+00 -0.35527136788E-14  0.00000000000E+00  0.91188000000E+02  0.91188000000E+02 0.  0.
    9900012    2    3    3    0    0  0.25747539634E+02 -0.24998576152E+02 -0.82422294942E+01  0.54366824654E+02  0.39999408359E+02 0.  0.
         12    1    3    3    0    0 -0.25747539634E+02  0.24998576152E+02  0.82422294942E+01  0.36821175346E+02  0.00000000000E+00 0. -1.
         11    1    4    4    0    0 -0.38293475081E+01 -0.47718423872E+01  0.30505483372E+01  0.68366824941E+01  0.51100000000E-03 0. -1.
        -11    1    4    4    0    0  0.21088004766E+02  0.28737656825E+01 -0.26569359991E+01  0.21448118411E+02  0.51100000000E-03 0.  1.
        -12    1    4    4    0    0  0.84888823770E+01 -0.23100499447E+02 -0.86358418322E+01  0.26082023749E+02  0.00000000000E+00 0.  1.
</event>
<event>
 8    1  0.1280925E-006  0.9118800E+02  0.7816164E-02  0.1184000E+00
        -11   -1    0    0    0    0  0.00000000000E+00  0.00000000000E+00  0.45593999997E+02  0.45594000000E+02  0.51100000000E-03 0.  1.
         11   -1    0    0    0    0 -0.00000000000E+00 -0.00000000000E+00 -0.45593999997E+02  0.45594000000E+02  0.51100000000E-03 0. -1.
         23    2    1    2    0    0  0.35527136788E-14 -0.17763568394E-14  0.00000000000E+00  0.91188000000E+02  0.91188000000E+02 0.  0.
    9900012    2    3    3    0    0  0.21375707177E+02  0.81911411322E+01  0.28840318172E+02  0.54367087429E+02  0.40000007411E+02 0.  0.
         12    1    3    3    0    0 -0.21375707177E+02 -0.81911411322E+01 -0.28840318172E+02  0.36820912571E+02  0.00000000000E+00 0. -1.
         11    1    4    4    0    0  0.26057352879E+00  0.65910939976E+01 -0.38265355485E+01  0.76257978739E+01  0.51100000000E-03 0. -1.
        -11    1    4    4    0    0  0.20786636608E+02  0.10144880001E+02  0.29798154031E+02  0.37721781978E+02  0.51100000000E-03 0.  1.
        -12    1    4    4    0    0  0.32849704012E+00 -0.85448328660E+01  0.28686996891E+01  0.90195075764E+01  0.00000000000E+00 0.  1.
</event>
<event>
 8    1  0.1280925E-006  0.9118800E+02  0.7816164E-02  0.1184000E+00
        -11   -1    0    0    0    0  0.00000000000E+00  0.00000000000E+00  0.45593999997E+02  0.45594000000E+02  0.51100000000E-03 0. -1.
         11   -1    0    0    0    0 -0.00000000000E+00 -0.00000000000E+00 -0.45593999997E+02  0.45594000000E+02  0.51100000000E-03 0.  1.
         23    2    1    2    0    0 -0.24424906542E-14  0.00000000000E+00  0.88817841970E-15  0.91188000000E+02  0.91188000000E+02 0.  0.
    9900012    2    3    3    0    0  0.10593430568E+01 -0.36439138201E+02  0.51814359211E+01  0.54367078247E+02  0.39999986479E+02 0.  0.
        -12    1    3    3    0    0 -0.10593430568E+01  0.36439138201E+02 -0.51814359211E+01  0.36820921753E+02  0.00000000000E+00 0.  1.
         11    1    4    4    0    0  0.90520166071E+01 -0.87389634918E+01  0.49980094637E+01  0.13538411518E+02  0.51100000000E-03 0. -1.
        -11    1    4    4    0    0 -0.17681079421E+02 -0.24775807052E+02 -0.18970868418E+01  0.30496887109E+02  0.51100000000E-03 0.  1.
        -12    1    4    4    0    0  0.96884058712E+01 -0.29243676575E+01  0.20805132991E+01  0.10331779620E+02  0.00000000000E+00 0.  1.
</event>
<event>
 8    1  0.1280925E-006  0.9118800E+02  0.7816164E-02  0.1184000E+00
        -11   -1    0    0    0    0  0.00000000000E+00  0.00000000000E+00  0.45593999997E+02  0.45594000000E+02  0.51100000000E-03 0.  1.
         11   -1    0    0    0    0 -0.00000000000E+00 -0.00000000000E+00 -0.45593999997E+02  0.45594000000E+02  0.51100000000E-03 0. -1.
         23    2    1    2    0    0  0.55511151231E-15  0.00000000000E+00  0.35527136788E-14  0.91188000000E+02  0.91188000000E+02 0.  0.
    9900012    2    3    3    0    0  0.94827063533E+00  0.29414447249E+02  0.22128498880E+02  0.54367090358E+02  0.40000014090E+02 0.  0.
         12    1    3    3    0    0 -0.94827063533E+00 -0.29414447249E+02 -0.22128498880E+02  0.36820909642E+02  0.00000000000E+00 0. -1.
         11    1    4    4    0    0  0.59329997132E+01  0.29064434053E+02  0.84374357164E+01  0.30840430187E+02  0.51100000000E-03 0.  1.
        -11    1    4    4    0    0  0.61341130348E+01  0.25314660591E+01  0.13481166639E+01  0.67714903775E+01  0.51100000000E-03 0. -1.
         12    1    4    4    0    0 -0.11118842113E+02 -0.21814528630E+01  0.12342946500E+02  0.16755169794E+02  0.00000000000E+00 0. -1.
</event>
<event>
 8    1  0.1280925E-006  0.9118800E+02  0.7816164E-02  0.1184000E+00
        -11   -1    0    0    0    0  0.00000000000E+00  0.00000000000E+00  0.45593999997E+02  0.45594000000E+02  0.51100000000E-03 0.  1.
         11   -1    0    0    0    0 -0.00000000000E+00 -0.00000000000E+00 -0.45593999997E+02  0.45594000000E+02  0.51100000000E-03 0. -1.
         23    2    1    2    0    0 -0.35527136788E-14  0.00000000000E+00 -0.35527136788E-14  0.91188000000E+02  0.91188000000E+02 0.  0.
    9900012    2    3    3    0    0 -0.25571836054E+02 -0.83538009542E+01 -0.25141161027E+02  0.54367044454E+02  0.39999909441E+02 0.  0.
         12    1    3    3    0    0  0.25571836054E+02  0.83538009542E+01  0.25141161027E+02  0.36820955546E+02  0.00000000000E+00 0. -1.
         11    1    4    4    0    0  0.78292128914E+01 -0.54058223441E+01 -0.12118770696E+02  0.15407274034E+02  0.51100000000E-03 0. -1.
        -11    1    4    4    0    0  0.11763789046E+01 -0.12957597841E+01 -0.19386855139E+01  0.26117738279E+01  0.51100000000E-03 0.  1.
         12    1    4    4    0    0 -0.34577427850E+02 -0.16522188260E+01 -0.11083704817E+02  0.36347996592E+02  0.00000000000E+00 0. -1.
</event>
<event>
 8    1  0.1280925E-006  0.9118800E+02  0.7816164E-02  0.1184000E+00
        -11   -1    0    0    0    0  0.00000000000E+00  0.00000000000E+00  0.45593999997E+02  0.45594000000E+02  0.51100000000E-03 0.  1.
         11   -1    0    0    0    0 -0.00000000000E+00 -0.00000000000E+00 -0.45593999997E+02  0.45594000000E+02  0.51100000000E-03 0. -1.
         23    2    1    2    0    0  0.00000000000E+00 -0.17763568394E-14  0.44408920985E-14  0.91188000000E+02  0.91188000000E+02 0.  0.
    9900012    2    3    3    0    0 -0.35978487760E+02 -0.53481673332E+01  0.57210157975E+01  0.54367020965E+02  0.39999855894E+02 0.  0.
        -12    1    3    3    0    0  0.35978487760E+02  0.53481673332E+01 -0.57210157975E+01  0.36820979035E+02  0.00000000000E+00 0.  1.
         11    1    4    4    0    0 -0.16949270534E+02 -0.77073916350E+01  0.17250197710E+02  0.25382099573E+02  0.51100000000E-03 0. -1.
        -11    1    4    4    0    0 -0.90930422923E+01  0.99475244043E+01 -0.90642957054E+01  0.16241863095E+02  0.51100000000E-03 0.  1.
        -12    1    4    4    0    0 -0.99361749334E+01 -0.75883001025E+01 -0.24648862066E+01  0.12743058297E+02  0.00000000000E+00 0.  1.
</event>
<event>
 8    1  0.1280925E-006  0.9118800E+02  0.7816164E-02  0.1184000E+00
        -11   -1    0    0    0    0  0.00000000000E+00  0.00000000000E+00  0.45593999997E+02  0.45594000000E+02  0.51100000000E-03 0. -1.
         11   -1    0    0    0    0 -0.00000000000E+00 -0.00000000000E+00 -0.45593999997E+02  0.45594000000E+02  0.51100000000E-03 0.  1.
         23    2    1    2    0    0  0.00000000000E+00  0.00000000000E+00  0.00000000000E+00  0.91188000000E+02  0.91188000000E+02 0.  0.
    9900012    2    3    3    0    0  0.17145704932E+02  0.27714638055E+02 -0.17137686780E+02  0.54367127274E+02  0.40000098246E+02 0.  0.
         12    1    3    3    0    0 -0.17145704932E+02 -0.27714638055E+02  0.17137686780E+02  0.36820872726E+02  0.00000000000E+00 0. -1.
         11    1    4    4    0    0  0.43389960773E+01  0.13194881096E+02  0.62346902130E+01  0.15225082476E+02  0.51100000000E-03 0. -1.
        -11    1    4    4    0    0  0.82186482376E+01 -0.43724839417E+01 -0.15677620973E+02  0.18233282598E+02  0.51100000000E-03 0.  1.
        -12    1    4    4    0    0  0.45880606176E+01  0.18892240901E+02 -0.76947560196E+01  0.20908762199E+02  0.00000000000E+00 0.  1.
</event>
<event>
 8    1  0.1280925E-006  0.9118800E+02  0.7816164E-02  0.1184000E+00
        -11   -1    0    0    0    0  0.00000000000E+00  0.00000000000E+00  0.45593999997E+02  0.45594000000E+02  0.51100000000E-03 0.  1.
         11   -1    0    0    0    0 -0.00000000000E+00 -0.00000000000E+00 -0.45593999997E+02  0.45594000000E+02  0.51100000000E-03 0. -1.
         23    2    1    2    0    0  0.00000000000E+00  0.71054273576E-14 -0.88817841970E-15  0.91188000000E+02  0.91188000000E+02 0.  0.
    9900012    2    3    3    0    0 -0.27777712192E+02  0.24070861746E+02 -0.21845700421E+01  0.54367081678E+02  0.39999994300E+02 0.  0.
         12    1    3    3    0    0  0.27777712192E+02 -0.24070861746E+02  0.21845700421E+01  0.36820918322E+02  0.00000000000E+00 0. -1.
         11    1    4    4    0    0 -0.35453738077E+01  0.16711519709E+01 -0.75699519599E+01  0.85244704987E+01  0.51100000000E-03 0.  1.
        -11    1    4    4    0    0  0.34127974894E+01 -0.40857451886E+01 -0.37141631923E+01  0.64911870200E+01  0.51100000000E-03 0. -1.
        -12    1    4    4    0    0 -0.27645135874E+02  0.26485454964E+02  0.90995451101E+01  0.39351424159E+02  0.00000000000E+00 0.  1.
</event>
<event>
 8    1  0.1280925E-006  0.9118800E+02  0.7816164E-02  0.1184000E+00
        -11   -1    0    0    0    0  0.00000000000E+00  0.00000000000E+00  0.45593999997E+02  0.45594000000E+02  0.51100000000E-03 0. -1.
         11   -1    0    0    0    0 -0.00000000000E+00 -0.00000000000E+00 -0.45593999997E+02  0.45594000000E+02  0.51100000000E-03 0.  1.
         23    2    1    2    0    0 -0.71054273576E-14 -0.35527136788E-14  0.35527136788E-14  0.91188000000E+02  0.91188000000E+02 0.  0.
    9900012    2    3    3    0    0 -0.29103051841E+02 -0.18590598148E+02  0.12774216404E+02  0.54367101441E+02  0.40000039356E+02 0.  0.
        -12    1    3    3    0    0  0.29103051841E+02  0.18590598148E+02 -0.12774216404E+02  0.36820898559E+02  0.00000000000E+00 0.  1.
         11    1    4    4    0    0 -0.81784330643E+01 -0.96797630435E+01 -0.10500314767E+02  0.16457253429E+02  0.51100000000E-03 0. -1.
        -11    1    4    4    0    0 -0.42099474844E+01 -0.45397764864E+01 -0.26673183653E+01  0.67414995283E+01  0.51100000000E-03 0.  1.
        -12    1    4    4    0    0 -0.16714671292E+02 -0.43710586178E+01  0.25941849536E+02  0.31168348484E+02  0.00000000000E+00 0.  1.
</event>
<event>
 8    1  0.1280925E-006  0.9118800E+02  0.7816164E-02  0.1184000E+00
        -11   -1    0    0    0    0  0.00000000000E+00  0.00000000000E+00  0.45593999997E+02  0.45594000000E+02  0.51100000000E-03 0.  1.
         11   -1    0    0    0    0 -0.00000000000E+00 -0.00000000000E+00 -0.45593999997E+02  0.45594000000E+02  0.51100000000E-03 0. -1.
         23    2    1    2    0    0  0.00000000000E+00  0.00000000000E+00  0.88817841970E-15  0.91188000000E+02  0.91188000000E+02 0.  0.
    9900012    2    3    3    0    0 -0.25530482387E+02  0.26418673867E+02 -0.24531439765E+01  0.54367220878E+02  0.40000311634E+02 0.  0.
        -12    1    3    3    0    0  0.25530482387E+02 -0.26418673867E+02  0.24531439765E+01  0.36820779122E+02  0.00000000000E+00 0.  1.
         11    1    4    4    0    0 -0.13132658050E+02  0.19039054891E+02 -0.12169770635E+02  0.26135333098E+02  0.51100000000E-03 0. -1.
        -11    1    4    4    0    0  0.67389784617E+00 -0.91498398737E+00 -0.60379468028E+01  0.61439511602E+01  0.51100000000E-03 0.  1.
        -12    1    4    4    0    0 -0.13071722183E+02  0.82946029634E+01  0.15754573461E+02  0.22087936620E+02  0.00000000000E+00 0.  1.
</event>
<event>
 8    1  0.1280925E-006  0.9118800E+02  0.7816164E-02  0.1184000E+00
        -11   -1    0    0    0    0  0.00000000000E+00  0.00000000000E+00  0.45593999997E+02  0.45594000000E+02  0.51100000000E-03 0.  1.
         11   -1    0    0    0    0 -0.00000000000E+00 -0.00000000000E+00 -0.45593999997E+02  0.45594000000E+02  0.51100000000E-03 0. -1.
         23    2    1    2    0    0 -0.35527136788E-14  0.00000000000E+00  0.17763568394E-14  0.91188000000E+02  0.91188000000E+02 0.  0.
    9900012    2    3    3    0    0  0.31381220529E+02 -0.16285340259E+02 -0.10285239317E+02  0.54367089405E+02  0.40000011917E+02 0.  0.
        -12    1    3    3    0    0 -0.31381220529E+02  0.16285340259E+02  0.10285239317E+02  0.36820910595E+02  0.00000000000E+00 0.  1.
         11    1    4    4    0    0  0.14297365721E+02 -0.17007202064E+00  0.62729951404E+01  0.15613905960E+02  0.51100000000E-03 0. -1.
        -11    1    4    4    0    0  0.18433175923E+01  0.65207852425E+00  0.62826319383E+01  0.65798548981E+01  0.51100000000E-03 0.  1.
         12    1    4    4    0    0  0.15240537216E+02 -0.16767346762E+02 -0.22840866396E+02  0.32173328547E+02  0.00000000000E+00 0. -1.
</event>
<event>
 8    1  0.1280925E-006  0.9118800E+02  0.7816164E-02  0.1184000E+00
        -11   -1    0    0    0    0  0.00000000000E+00  0.00000000000E+00  0.45593999997E+02  0.45594000000E+02  0.51100000000E-03 0.  1.
         11   -1    0    0    0    0 -0.00000000000E+00 -0.00000000000E+00 -0.45593999997E+02  0.45594000000E+02  0.51100000000E-03 0. -1.
         23    2    1    2    0    0 -0.35527136788E-14  0.00000000000E+00  0.35527136788E-14  0.91188000000E+02  0.91188000000E+02 0.  0.
    9900012    2    3    3    0    0 -0.28703498379E+02 -0.68675486231E+01  0.22016469749E+02  0.54367095835E+02  0.40000026576E+02 0.  0.
         12    1    3    3    0    0  0.28703498379E+02  0.68675486231E+01 -0.22016469749E+02  0.36820904165E+02  0.00000000000E+00 0. -1.
         11    1    4    4    0    0 -0.57747075520E+00  0.66815102690E+00 -0.74108595938E+01  0.74632927350E+01  0.51100000000E-03 0. -1.
        -11    1    4    4    0    0 -0.27949755751E+01  0.61633109620E+01  0.10328728633E+02  0.12348316724E+02  0.51100000000E-03 0.  1.
        -12    1    4    4    0    0 -0.25331052049E+02 -0.13699010612E+02  0.19098600710E+02  0.34555486377E+02  0.00000000000E+00 0.  1.
</event>
<event>
 8    1  0.1280925E-006  0.9118800E+02  0.7816164E-02  0.1184000E+00
        -11   -1    0    0    0    0  0.00000000000E+00  0.00000000000E+00  0.45593999997E+02  0.45594000000E+02  0.51100000000E-03 0.  1.
         11   -1    0    0    0    0 -0.00000000000E+00 -0.00000000000E+00 -0.45593999997E+02  0.45594000000E+02  0.51100000000E-03 0. -1.
         23    2    1    2    0    0  0.17763568394E-14  0.00000000000E+00  0.00000000000E+00  0.91188000000E+02  0.91188000000E+02 0.  0.
    9900012    2    3    3    0    0  0.15773987491E+02 -0.23694691870E+02  0.23356510252E+02  0.54367032124E+02  0.39999881333E+02 0.  0.
         12    1    3    3    0    0 -0.15773987491E+02  0.23694691870E+02 -0.23356510252E+02  0.36820967876E+02  0.00000000000E+00 0. -1.
         11    1    4    4    0    0  0.43531195760E+01 -0.27767120721E+02  0.76019755945E-01  0.28106376900E+02  0.51100000000E-03 0. -1.
        -11    1    4    4    0    0  0.46915061681E+01  0.20847912206E+01  0.98938869857E+01  0.11146550341E+02  0.51100000000E-03 0.  1.
         12    1    4    4    0    0  0.67293617474E+01  0.19876376310E+01  0.13386603510E+02  0.15114104883E+02  0.00000000000E+00 0. -1.
</event>
<event>
 8    1  0.1280925E-006  0.9118800E+02  0.7816164E-02  0.1184000E+00
        -11   -1    0    0    0    0  0.00000000000E+00  0.00000000000E+00  0.45593999997E+02  0.45594000000E+02  0.51100000000E-03 0.  1.
         11   -1    0    0    0    0 -0.00000000000E+00 -0.00000000000E+00 -0.45593999997E+02  0.45594000000E+02  0.51100000000E-03 0. -1.
         23    2    1    2    0    0  0.00000000000E+00  0.00000000000E+00  0.00000000000E+00  0.91188000000E+02  0.91188000000E+02 0.  0.
    9900012    2    3    3    0    0  0.27009706527E+02  0.14448107020E+02 -0.20433027941E+02  0.54367072880E+02  0.39999974245E+02 0.  0.
        -12    1    3    3    0    0 -0.27009706527E+02 -0.14448107020E+02  0.20433027941E+02  0.36820927120E+02  0.00000000000E+00 0.  1.
         11    1    4    4    0    0  0.77210523814E+01  0.97350963637E+01 -0.22981314740E+01  0.12635986690E+02  0.51100000000E-03 0. -1.
        -11    1    4    4    0    0 -0.48112537581E+01 -0.15845939580E+01 -0.15939904351E+02  0.16725419329E+02  0.51100000000E-03 0.  1.
        -12    1    4    4    0    0  0.24099907903E+02  0.62976046142E+01 -0.21949921163E+01  0.25005666862E+02  0.00000000000E+00 0.  1.
</event>
<event>
 8    1  0.1280925E-006  0.9118800E+02  0.7816164E-02  0.1184000E+00
        -11   -1    0    0    0    0  0.00000000000E+00  0.00000000000E+00  0.45593999997E+02  0.45594000000E+02  0.51100000000E-03 0. -1.
         11   -1    0    0    0    0 -0.00000000000E+00 -0.00000000000E+00 -0.45593999997E+02  0.45594000000E+02  0.51100000000E-03 0.  1.
         23    2    1    2    0    0  0.00000000000E+00  0.88817841970E-15 -0.71054273576E-14  0.91188000000E+02  0.91188000000E+02 0.  0.
    9900012    2    3    3    0    0  0.69168893276E+01  0.59386618368E+01 -0.35674457165E+02  0.54367109782E+02  0.40000058370E+02 0.  0.
         12    1    3    3    0    0 -0.69168893276E+01 -0.59386618368E+01  0.35674457165E+02  0.36820890218E+02  0.00000000000E+00 0. -1.
         11    1    4    4    0    0 -0.46763683873E+01  0.92094685602E+01 -0.36577943157E+00  0.10335208141E+02  0.51100000000E-03 0. -1.
        -11    1    4    4    0    0 -0.62597833614E+01  0.61034863659E+00 -0.31226923527E+01  0.70220097536E+01  0.51100000000E-03 0.  1.
        -12    1    4    4    0    0  0.17853041076E+02 -0.38811553600E+01 -0.32185985381E+02  0.37009891888E+02  0.00000000000E+00 0.  1.
</event>
<event>
 8    1  0.1280925E-006  0.9118800E+02  0.7816164E-02  0.1184000E+00
        -11   -1    0    0    0    0  0.00000000000E+00  0.00000000000E+00  0.45593999997E+02  0.45594000000E+02  0.51100000000E-03 0.  1.
         11   -1    0    0    0    0 -0.00000000000E+00 -0.00000000000E+00 -0.45593999997E+02  0.45594000000E+02  0.51100000000E-03 0. -1.
         23    2    1    2    0    0 -0.35527136788E-14  0.35527136788E-14  0.00000000000E+00  0.91188000000E+02  0.91188000000E+02 0.  0.
    9900012    2    3    3    0    0 -0.17910899100E+02  0.24365429218E+02 -0.21007305325E+02  0.54367064045E+02  0.39999954104E+02 0.  0.
        -12    1    3    3    0    0  0.17910899100E+02 -0.24365429218E+02  0.21007305325E+02  0.36820935955E+02  0.00000000000E+00 0.  1.
         11    1    4    4    0    0  0.33059844713E+01  0.93386714646E+00  0.24398293829E+01  0.42135980884E+01  0.51100000000E-03 0. -1.
        -11    1    4    4    0    0 -0.15174545683E+02  0.19409482173E+02  0.99396066548E+00  0.24657307091E+02  0.51100000000E-03 0.  1.
         12    1    4    4    0    0 -0.60423378881E+01  0.40220798993E+01 -0.24441095374E+02  0.25496158866E+02  0.00000000000E+00 0. -1.
</event>
<event>
 8    1  0.1280925E-006  0.9118800E+02  0.7816164E-02  0.1184000E+00
        -11   -1    0    0    0    0  0.00000000000E+00  0.00000000000E+00  0.45593999997E+02  0.45594000000E+02  0.51100000000E-03 0.  1.
         11   -1    0    0    0    0 -0.00000000000E+00 -0.00000000000E+00 -0.45593999997E+02  0.45594000000E+02  0.51100000000E-03 0. -1.
         23    2    1    2    0    0  0.00000000000E+00  0.17763568394E-14  0.00000000000E+00  0.91188000000E+02  0.91188000000E+02 0.  0.
    9900012    2    3    3    0    0 -0.30917663421E+02  0.15288940731E+02  0.12888980753E+02  0.54367089569E+02  0.40000012291E+02 0.  0.
         12    1    3    3    0    0  0.30917663421E+02 -0.15288940731E+02 -0.12888980753E+02  0.36820910431E+02  0.00000000000E+00 0. -1.
         11    1    4    4    0    0  0.64859975787E+01  0.27332325832E+01  0.25371152375E+01  0.74816895775E+01  0.51100000000E-03 0. -1.
        -11    1    4    4    0    0 -0.15698564614E+02  0.16075283862E+02 -0.25875052796E+00  0.22470572629E+02  0.51100000000E-03 0.  1.
        -12    1    4    4    0    0 -0.21705096386E+02 -0.35195757143E+01  0.10610616044E+02  0.24414827363E+02  0.00000000000E+00 0.  1.
</event>
<event>
 8    1  0.1280925E-006  0.9118800E+02  0.7816164E-02  0.1184000E+00
        -11   -1    0    0    0    0  0.00000000000E+00  0.00000000000E+00  0.45593999997E+02  0.45594000000E+02  0.51100000000E-03 0. -1.
         11   -1    0    0    0    0 -0.00000000000E+00 -0.00000000000E+00 -0.45593999997E+02  0.45594000000E+02  0.51100000000E-03 0.  1.
         23    2    1    2    0    0  0.17763568394E-14  0.00000000000E+00 -0.35527136788E-14  0.91188000000E+02  0.91188000000E+02 0.  0.
    9900012    2    3    3    0    0  0.13466922009E+02 -0.30278202604E+02  0.16051560656E+02  0.54367080120E+02  0.39999990750E+02 0.  0.
        -12    1    3    3    0    0 -0.13466922009E+02  0.30278202604E+02 -0.16051560656E+02  0.36820919880E+02  0.00000000000E+00 0.  1.
         11    1    4    4    0    0  0.43672050967E+01  0.33637127792E+01  0.13626606098E+02  0.14699368626E+02  0.51100000000E-03 0. -1.
        -11    1    4    4    0    0  0.51691210136E+00 -0.29003545934E+02 -0.17391173339E+01  0.29060237512E+02  0.51100000000E-03 0.  1.
        -12    1    4    4    0    0  0.85828048109E+01 -0.46383694488E+01  0.41640718921E+01  0.10607473982E+02  0.00000000000E+00 0.  1.
</event>
<event>
 8    1  0.1280925E-006  0.9118800E+02  0.7816164E-02  0.1184000E+00
        -11   -1    0    0    0    0  0.00000000000E+00  0.00000000000E+00  0.45593999997E+02  0.45594000000E+02  0.51100000000E-03 0.  1.
         11   -1    0    0    0    0 -0.00000000000E+00 -0.00000000000E+00 -0.45593999997E+02  0.45594000000E+02  0.51100000000E-03 0. -1.
         23    2    1    2    0    0  0.00000000000E+00 -0.66613381478E-15  0.00000000000E+00  0.91188000000E+02  0.91188000000E+02 0.  0.
    9900012    2    3    3    0    0 -0.16709306877E+02 -0.17216115522E+01  0.32766090339E+02  0.54367060865E+02  0.39999946854E+02 0.  0.
         12    1    3    3    0    0  0.16709306877E+02  0.17216115522E+01 -0.32766090339E+02  0.36820939135E+02  0.00000000000E+00 0. -1.
         11    1    4    4    0    0 -0.73222300257E+01 -0.61160545912E+01 -0.38156606407E+01  0.10275234435E+02  0.51100000000E-03 0. -1.
        -11    1    4    4    0    0 -0.88184563790E+01 -0.78257554503E+01  0.22769575839E+02  0.25641006326E+02  0.51100000000E-03 0.  1.
         12    1    4    4    0    0 -0.56862047271E+00  0.12220198489E+02  0.13812175141E+02  0.18450820104E+02  0.00000000000E+00 0. -1.
</event>
<event>
 8    1  0.1280925E-006  0.9118800E+02  0.7816164E-02  0.1184000E+00
        -11   -1    0    0    0    0  0.00000000000E+00  0.00000000000E+00  0.45593999997E+02  0.45594000000E+02  0.51100000000E-03 0. -1.
         11   -1    0    0    0    0 -0.00000000000E+00 -0.00000000000E+00 -0.45593999997E+02  0.45594000000E+02  0.51100000000E-03 0.  1.
         23    2    1    2    0    0  0.00000000000E+00  0.00000000000E+00 -0.35527136788E-14  0.91188000000E+02  0.91188000000E+02 0.  0.
    9900012    2    3    3    0    0 -0.32214902831E+02 -0.14341761299E+02 -0.10596902178E+02  0.54367076365E+02  0.39999982189E+02 0.  0.
         12    1    3    3    0    0  0.32214902831E+02  0.14341761299E+02  0.10596902178E+02  0.36820923635E+02  0.00000000000E+00 0. -1.
         11    1    4    4    0    0 -0.74102959995E+01 -0.35631853788E+01  0.53213237008E+01  0.97941443237E+01  0.51100000000E-03 0. -1.
        -11    1    4    4    0    0 -0.17557131005E+02 -0.13055894037E+02 -0.24676248257E+02  0.32979182017E+02  0.51100000000E-03 0.  1.
        -12    1    4    4    0    0 -0.72474758264E+01  0.22773181167E+01  0.87580223775E+01  0.11593750024E+02  0.00000000000E+00 0.  1.
</event>
<event>
 8    1  0.1280925E-006  0.9118800E+02  0.7816164E-02  0.1184000E+00
        -11   -1    0    0    0    0  0.00000000000E+00  0.00000000000E+00  0.45593999997E+02  0.45594000000E+02  0.51100000000E-03 0.  1.
         11   -1    0    0    0    0 -0.00000000000E+00 -0.00000000000E+00 -0.45593999997E+02  0.45594000000E+02  0.51100000000E-03 0. -1.
         23    2    1    2    0    0  0.00000000000E+00  0.00000000000E+00  0.35527136788E-14  0.91188000000E+02  0.91188000000E+02 0.  0.
    9900012    2    3    3    0    0  0.21273098000E+02  0.12578160035E+02 -0.27295156412E+02  0.54367076982E+02  0.39999983596E+02 0.  0.
        -12    1    3    3    0    0 -0.21273098000E+02 -0.12578160035E+02  0.27295156412E+02  0.36820923018E+02  0.00000000000E+00 0.  1.
         11    1    4    4    0    0  0.14599956050E+02 -0.19639930715E+00 -0.33960863425E+02  0.36966708458E+02  0.51100000000E-03 0. -1.
        -11    1    4    4    0    0  0.32016109115E+01  0.88684357402E+01  0.67811516697E+00  0.94530050962E+01  0.51100000000E-03 0.  1.
         12    1    4    4    0    0  0.34715310381E+01  0.39061236016E+01  0.59875918466E+01  0.79473634283E+01  0.00000000000E+00 0. -1.
</event>
<event>
 8    1  0.1280925E-006  0.9118800E+02  0.7816164E-02  0.1184000E+00
        -11   -1    0    0    0    0  0.00000000000E+00  0.00000000000E+00  0.45593999997E+02  0.45594000000E+02  0.51100000000E-03 0. -1.
         11   -1    0    0    0    0 -0.00000000000E+00 -0.00000000000E+00 -0.45593999997E+02  0.45594000000E+02  0.51100000000E-03 0.  1.
         23    2    1    2    0    0  0.00000000000E+00 -0.17763568394E-14 -0.53290705182E-14  0.91188000000E+02  0.91188000000E+02 0.  0.
    9900012    2    3    3    0    0 -0.33214025012E+02  0.80255547549E+01 -0.13718554754E+02  0.54367085683E+02  0.40000003431E+02 0.  0.
         12    1    3    3    0    0  0.33214025012E+02 -0.80255547549E+01  0.13718554754E+02  0.36820914317E+02  0.00000000000E+00 0. -1.
         11    1    4    4    0    0 -0.41479381318E+01  0.22853510940E+01  0.77975895864E+01  0.91230819347E+01  0.51100000000E-03 0. -1.
        -11    1    4    4    0    0 -0.11721004878E+02 -0.65530114492E+01  0.19616047639E+01  0.13570991413E+02  0.51100000000E-03 0.  1.
        -12    1    4    4    0    0 -0.17345082002E+02  0.12293215110E+02 -0.23477749105E+02  0.31673012335E+02  0.00000000000E+00 0.  1.
</event>
<event>
 8    1  0.1280925E-006  0.9118800E+02  0.7816164E-02  0.1184000E+00
        -11   -1    0    0    0    0  0.00000000000E+00  0.00000000000E+00  0.45593999997E+02  0.45594000000E+02  0.51100000000E-03 0.  1.
         11   -1    0    0    0    0 -0.00000000000E+00 -0.00000000000E+00 -0.45593999997E+02  0.45594000000E+02  0.51100000000E-03 0. -1.
         23    2    1    2    0    0 -0.17763568394E-14  0.00000000000E+00  0.00000000000E+00  0.91188000000E+02  0.91188000000E+02 0.  0.
    9900012    2    3    3    0    0  0.95531055858E+01 -0.26511259119E+02 -0.23699484229E+02  0.54367160260E+02  0.40000173445E+02 0.  0.
        -12    1    3    3    0    0 -0.95531055858E+01  0.26511259119E+02  0.23699484229E+02  0.36820839740E+02  0.00000000000E+00 0.  1.
         11    1    4    4    0    0  0.17376247594E+02 -0.48726578729E+01 -0.14892678926E+02  0.23398048231E+02  0.51100000000E-03 0. -1.
        -11    1    4    4    0    0  0.64830818198E+00  0.27688204785E+01  0.14253180557E+01  0.31809121588E+01  0.51100000000E-03 0.  1.
        -12    1    4    4    0    0 -0.84714501899E+01 -0.24407421725E+02 -0.10232123359E+02  0.27788199870E+02  0.00000000000E+00 0.  1.
</event>
<event>
 8    1  0.1280925E-006  0.9118800E+02  0.7816164E-02  0.1184000E+00
        -11   -1    0    0    0    0  0.00000000000E+00  0.00000000000E+00  0.45593999997E+02  0.45594000000E+02  0.51100000000E-03 0.  1.
         11   -1    0    0    0    0 -0.00000000000E+00 -0.00000000000E+00 -0.45593999997E+02  0.45594000000E+02  0.51100000000E-03 0. -1.
         23    2    1    2    0    0  0.35527136788E-14  0.00000000000E+00  0.00000000000E+00  0.91188000000E+02  0.91188000000E+02 0.  0.
    9900012    2    3    3    0    0 -0.29603731523E+02 -0.18254625020E+02  0.12089986979E+02  0.54367081491E+02  0.39999993875E+02 0.  0.
        -12    1    3    3    0    0  0.29603731523E+02  0.18254625020E+02 -0.12089986979E+02  0.36820918509E+02  0.00000000000E+00 0.  1.
         11    1    4    4    0    0  0.86719096940E+00  0.48075828623E+01 -0.60777149478E+01  0.77976594182E+01  0.51100000000E-03 0. -1.
        -11    1    4    4    0    0 -0.15658995317E+02 -0.10059212064E+02 -0.15677295801E+01  0.18677517448E+02  0.51100000000E-03 0.  1.
        -12    1    4    4    0    0 -0.14811927175E+02 -0.13002995817E+02  0.19735431506E+02  0.27891904625E+02  0.00000000000E+00 0.  1.
</event>
<event>
 8    1  0.1280925E-006  0.9118800E+02  0.7816164E-02  0.1184000E+00
        -11   -1    0    0    0    0  0.00000000000E+00  0.00000000000E+00  0.45593999997E+02  0.45594000000E+02  0.51100000000E-03 0. -1.
         11   -1    0    0    0    0 -0.00000000000E+00 -0.00000000000E+00 -0.45593999997E+02  0.45594000000E+02  0.51100000000E-03 0.  1.
         23    2    1    2    0    0  0.17763568394E-14 -0.35527136788E-14  0.00000000000E+00  0.91188000000E+02  0.91188000000E+02 0.  0.
    9900012    2    3    3    0    0 -0.13752416028E+02 -0.21707880929E+02  0.26370805063E+02  0.54367076591E+02  0.39999982705E+02 0.  0.
        -12    1    3    3    0    0  0.13752416028E+02  0.21707880929E+02 -0.26370805063E+02  0.36820923409E+02  0.00000000000E+00 0.  1.
         11    1    4    4    0    0 -0.62436258870E+00 -0.12305545170E+02  0.28091608729E+02  0.30674985767E+02  0.51100000000E-03 0. -1.
        -11    1    4    4    0    0  0.88285201855E+00  0.18692275225E+01 -0.50027277564E+01  0.54130143620E+01  0.51100000000E-03 0.  1.
         12    1    4    4    0    0 -0.14010905458E+02 -0.11271563281E+02  0.32819240900E+01  0.18279076461E+02  0.00000000000E+00 0. -1.
</event>
<event>
 8    1  0.1280925E-006  0.9118800E+02  0.7816164E-02  0.1184000E+00
        -11   -1    0    0    0    0  0.00000000000E+00  0.00000000000E+00  0.45593999997E+02  0.45594000000E+02  0.51100000000E-03 0.  1.
         11   -1    0    0    0    0 -0.00000000000E+00 -0.00000000000E+00 -0.45593999997E+02  0.45594000000E+02  0.51100000000E-03 0. -1.
         23    2    1    2    0    0  0.00000000000E+00  0.35527136788E-14 -0.17763568394E-14  0.91188000000E+02  0.91188000000E+02 0.  0.
    9900012    2    3    3    0    0 -0.30651335799E+02 -0.18433754782E+02  0.87450391910E+01  0.54367035699E+02  0.39999889482E+02 0.  0.
        -12    1    3    3    0    0  0.30651335799E+02  0.18433754782E+02 -0.87450391910E+01  0.36820964301E+02  0.00000000000E+00 0.  1.
         11    1    4    4    0    0 -0.16406569157E+01 -0.15699599459E+02 -0.85629885321E+01  0.17958116582E+02  0.51100000000E-03 0. -1.
        -11    1    4    4    0    0  0.80515134898E+00  0.15877786460E+01  0.27946124032E+00  0.18020567608E+01  0.51100000000E-03 0.  1.
         12    1    4    4    0    0 -0.29815830233E+02 -0.43219339682E+01  0.17028566483E+02  0.34606862356E+02  0.00000000000E+00 0. -1.
</event>
<event>
 8    1  0.1280925E-006  0.9118800E+02  0.7816164E-02  0.1184000E+00
        -11   -1    0    0    0    0  0.00000000000E+00  0.00000000000E+00  0.45593999997E+02  0.45594000000E+02  0.51100000000E-03 0.  1.
         11   -1    0    0    0    0 -0.00000000000E+00 -0.00000000000E+00 -0.45593999997E+02  0.45594000000E+02  0.51100000000E-03 0. -1.
         23    2    1    2    0    0  0.00000000000E+00  0.00000000000E+00  0.00000000000E+00  0.91188000000E+02  0.91188000000E+02 0.  0.
    9900012    2    3    3    0    0  0.14108117658E+02 -0.19875667808E+02  0.27598912169E+02  0.54367066992E+02  0.39999960821E+02 0.  0.
         12    1    3    3    0    0 -0.14108117658E+02  0.19875667808E+02 -0.27598912169E+02  0.36820933008E+02  0.00000000000E+00 0. -1.
         11    1    4    4    0    0  0.52743099191E+01 -0.18301687697E+01  0.41245557572E+01  0.69411687275E+01  0.51100000000E-03 0. -1.
        -11    1    4    4    0    0 -0.12138862218E+02 -0.70324573066E+01 -0.67412817989E-01  0.14028969187E+02  0.51100000000E-03 0.  1.
        -12    1    4    4    0    0  0.20972669956E+02 -0.11013041732E+02  0.23541769230E+02  0.33396929077E+02  0.00000000000E+00 0.  1.
</event>
<event>
 8    1  0.1280925E-006  0.9118800E+02  0.7816164E-02  0.1184000E+00
        -11   -1    0    0    0    0  0.00000000000E+00  0.00000000000E+00  0.45593999997E+02  0.45594000000E+02  0.51100000000E-03 0.  1.
         11   -1    0    0    0    0 -0.00000000000E+00 -0.00000000000E+00 -0.45593999997E+02  0.45594000000E+02  0.51100000000E-03 0. -1.
         23    2    1    2    0    0 -0.88817841970E-15  0.17763568394E-14  0.00000000000E+00  0.91188000000E+02  0.91188000000E+02 0.  0.
    9900012    2    3    3    0    0 -0.62449373847E+01  0.85335552319E+01 -0.35269808544E+02  0.54367079282E+02  0.39999988838E+02 0.  0.
        -12    1    3    3    0    0  0.62449373847E+01 -0.85335552319E+01  0.35269808544E+02  0.36820920718E+02  0.00000000000E+00 0.  1.
         11    1    4    4    0    0 -0.76670416471E+01 -0.41666170238E+01 -0.24872612837E+02  0.26358890239E+02  0.51100000000E-03 0. -1.
        -11    1    4    4    0    0 -0.34857338776E+01 -0.35988893882E+01 -0.97640632319E+01  0.10974482974E+02  0.51100000000E-03 0.  1.
        -12    1    4    4    0    0  0.49078381399E+01  0.16299061644E+02 -0.63313247469E+00  0.17033706068E+02  0.00000000000E+00 0.  1.
</event>
<event>
 8    1  0.1280925E-006  0.9118800E+02  0.7816164E-02  0.1184000E+00
        -11   -1    0    0    0    0  0.00000000000E+00  0.00000000000E+00  0.45593999997E+02  0.45594000000E+02  0.51100000000E-03 0. -1.
         11   -1    0    0    0    0 -0.00000000000E+00 -0.00000000000E+00 -0.45593999997E+02  0.45594000000E+02  0.51100000000E-03 0.  1.
         23    2    1    2    0    0 -0.71054273576E-14  0.00000000000E+00  0.17763568394E-14  0.91188000000E+02  0.91188000000E+02 0.  0.
    9900012    2    3    3    0    0 -0.26161521171E+02 -0.21741000955E+02  0.14095444655E+02  0.54367110922E+02  0.40000060968E+02 0.  0.
        -12    1    3    3    0    0  0.26161521171E+02  0.21741000955E+02 -0.14095444655E+02  0.36820889078E+02  0.00000000000E+00 0.  1.
         11    1    4    4    0    0 -0.19623435389E+02 -0.15138636681E+02 -0.12676695753E+00  0.24784543715E+02  0.51100000000E-03 0. -1.
        -11    1    4    4    0    0  0.60258410930E+01  0.55878799218E+01  0.63632966857E+01  0.10393589749E+02  0.51100000000E-03 0.  1.
        -12    1    4    4    0    0 -0.12563926875E+02 -0.12190244195E+02  0.78589149263E+01  0.19188977458E+02  0.00000000000E+00 0.  1.
</event>
<event>
 8    1  0.1280925E-006  0.9118800E+02  0.7816164E-02  0.1184000E+00
        -11   -1    0    0    0    0  0.00000000000E+00  0.00000000000E+00  0.45593999997E+02  0.45594000000E+02  0.51100000000E-03 0.  1.
         11   -1    0    0    0    0 -0.00000000000E+00 -0.00000000000E+00 -0.45593999997E+02  0.45594000000E+02  0.51100000000E-03 0. -1.
         23    2    1    2    0    0  0.00000000000E+00  0.00000000000E+00  0.88817841970E-15  0.91188000000E+02  0.91188000000E+02 0.  0.
    9900012    2    3    3    0    0 -0.12010028549E+02 -0.34732292152E+02  0.22816088331E+01  0.54367100462E+02  0.40000037124E+02 0.  0.
         12    1    3    3    0    0  0.12010028549E+02  0.34732292152E+02 -0.22816088331E+01  0.36820899538E+02  0.00000000000E+00 0. -1.
         11    1    4    4    0    0 -0.89469769464E+01 -0.12681416942E+02  0.85614879303E+01  0.17724723072E+02  0.51100000000E-03 0. -1.
        -11    1    4    4    0    0 -0.42171432440E+01  0.62627090359E+01 -0.29670651176E+01  0.81122929731E+01  0.51100000000E-03 0.  1.
        -12    1    4    4    0    0  0.11540916414E+01 -0.28313584246E+02 -0.33128139795E+01  0.28530084417E+02  0.00000000000E+00 0.  1.
</event>
<event>
 8    1  0.1280925E-006  0.9118800E+02  0.7816164E-02  0.1184000E+00
        -11   -1    0    0    0    0  0.00000000000E+00  0.00000000000E+00  0.45593999997E+02  0.45594000000E+02  0.51100000000E-03 0.  1.
         11   -1    0    0    0    0 -0.00000000000E+00 -0.00000000000E+00 -0.45593999997E+02  0.45594000000E+02  0.51100000000E-03 0. -1.
         23    2    1    2    0    0  0.00000000000E+00  0.00000000000E+00 -0.13322676296E-14  0.91188000000E+02  0.91188000000E+02 0.  0.
    9900012    2    3    3    0    0  0.25637575196E+02  0.26235682896E+02  0.31911386818E+01  0.54367086309E+02  0.40000004859E+02 0.  0.
        -12    1    3    3    0    0 -0.25637575196E+02 -0.26235682896E+02 -0.31911386818E+01  0.36820913691E+02  0.00000000000E+00 0.  1.
         11    1    4    4    0    0  0.30834184813E+01  0.60798934815E+01 -0.12850494171E+02  0.14546744481E+02  0.51100000000E-03 0. -1.
        -11    1    4    4    0    0  0.11578835479E+02 -0.19618395566E+01  0.56359555150E+01  0.13026213584E+02  0.51100000000E-03 0.  1.
         12    1    4    4    0    0  0.10975321236E+02  0.22117628971E+02  0.10405677338E+02  0.26794128245E+02  0.00000000000E+00 0. -1.
</event>
<event>
 8    1  0.1280925E-006  0.9118800E+02  0.7816164E-02  0.1184000E+00
        -11   -1    0    0    0    0  0.00000000000E+00  0.00000000000E+00  0.45593999997E+02  0.45594000000E+02  0.51100000000E-03 0.  1.
         11   -1    0    0    0    0 -0.00000000000E+00 -0.00000000000E+00 -0.45593999997E+02  0.45594000000E+02  0.51100000000E-03 0. -1.
         23    2    1    2    0    0  0.00000000000E+00  0.13322676296E-14  0.00000000000E+00  0.91188000000E+02  0.91188000000E+02 0.  0.
    9900012    2    3    3    0    0  0.32782535738E+02  0.29759870028E+01  0.16499323886E+02  0.54367097828E+02  0.40000031119E+02 0.  0.
        -12    1    3    3    0    0 -0.32782535738E+02 -0.29759870028E+01 -0.16499323886E+02  0.36820902172E+02  0.00000000000E+00 0.  1.
         11    1    4    4    0    0  0.54505910473E+01 -0.27920613955E+01 -0.88770699644E+01  0.10784568652E+02  0.51100000000E-03 0. -1.
        -11    1    4    4    0    0 -0.19139279727E+01 -0.35724500581E+01  0.61256952918E+01  0.73450434152E+01  0.51100000000E-03 0.  1.
        -12    1    4    4    0    0  0.29245872663E+02  0.93404984564E+01  0.19250698559E+02  0.36237485761E+02  0.00000000000E+00 0.  1.
</event>
<event>
 8    1  0.1280925E-006  0.9118800E+02  0.7816164E-02  0.1184000E+00
        -11   -1    0    0    0    0  0.00000000000E+00  0.00000000000E+00  0.45593999997E+02  0.45594000000E+02  0.51100000000E-03 0.  1.
         11   -1    0    0    0    0 -0.00000000000E+00 -0.00000000000E+00 -0.45593999997E+02  0.45594000000E+02  0.51100000000E-03 0. -1.
         23    2    1    2    0    0 -0.35527136788E-14  0.00000000000E+00  0.00000000000E+00  0.91188000000E+02  0.91188000000E+02 0.  0.
    9900012    2    3    3    0    0 -0.20283738121E+02  0.27079131849E+02 -0.14528255980E+02  0.54367086979E+02  0.40000006387E+02 0.  0.
         12    1    3    3    0    0  0.20283738121E+02 -0.27079131849E+02  0.14528255980E+02  0.36820913021E+02  0.00000000000E+00 0. -1.
         11    1    4    4    0    0  0.53344575784E+01  0.41409322394E+01 -0.91449300239E+00  0.68146940635E+01  0.51100000000E-03 0.  1.
        -11    1    4    4    0    0 -0.17192568774E+02 -0.14060928878E+00 -0.15177657002E+02  0.22933936958E+02  0.51100000000E-03 0. -1.
        -12    1    4    4    0    0 -0.84256269248E+01  0.23078808899E+02  0.15638940243E+01  0.24618455958E+02  0.00000000000E+00 0.  1.
</event>
<event>
 8    1  0.1280925E-006  0.9118800E+02  0.7816164E-02  0.1184000E+00
        -11   -1    0    0    0    0  0.00000000000E+00  0.00000000000E+00  0.45593999997E+02  0.45594000000E+02  0.51100000000E-03 0. -1.
         11   -1    0    0    0    0 -0.00000000000E+00 -0.00000000000E+00 -0.45593999997E+02  0.45594000000E+02  0.51100000000E-03 0.  1.
         23    2    1    2    0    0  0.00000000000E+00 -0.17763568394E-14  0.00000000000E+00  0.91188000000E+02  0.91188000000E+02 0.  0.
    9900012    2    3    3    0    0 -0.99728782163E+01  0.12566128980E+02 -0.33142348277E+02  0.54367066459E+02  0.39999959607E+02 0.  0.
         12    1    3    3    0    0  0.99728782163E+01 -0.12566128980E+02  0.33142348277E+02  0.36820933541E+02  0.00000000000E+00 0. -1.
         11    1    4    4    0    0  0.80432251458E+01  0.11238638601E+02 -0.11675179692E+02  0.18091718809E+02  0.51100000000E-03 0. -1.
        -11    1    4    4    0    0 -0.17140999138E+02 -0.82243840860E+01 -0.10549838382E+02  0.21742893901E+02  0.51100000000E-03 0.  1.
        -12    1    4    4    0    0 -0.87510422383E+00  0.95518744651E+01 -0.10917330204E+02  0.14532453749E+02  0.00000000000E+00 0.  1.
</event>
<event>
 8    1  0.1280925E-006  0.9118800E+02  0.7816164E-02  0.1184000E+00
        -11   -1    0    0    0    0  0.00000000000E+00  0.00000000000E+00  0.45593999997E+02  0.45594000000E+02  0.51100000000E-03 0.  1.
         11   -1    0    0    0    0 -0.00000000000E+00 -0.00000000000E+00 -0.45593999997E+02  0.45594000000E+02  0.51100000000E-03 0. -1.
         23    2    1    2    0    0 -0.88817841970E-15 -0.35527136788E-14  0.00000000000E+00  0.91188000000E+02  0.91188000000E+02 0.  0.
    9900012    2    3    3    0    0 -0.74543947581E+01 -0.24725562627E+02 -0.26246129814E+02  0.54367071458E+02  0.39999971003E+02 0.  0.
        -12    1    3    3    0    0  0.74543947581E+01  0.24725562627E+02  0.26246129814E+02  0.36820928542E+02  0.00000000000E+00 0.  1.
         11    1    4    4    0    0 -0.13127154895E+02 -0.14627999867E+02 -0.10249726410E+02  0.22166584480E+02  0.51100000000E-03 0. -1.
        -11    1    4    4    0    0  0.25853554512E+01 -0.18662170827E+02 -0.10621205176E+02  0.21628006900E+02  0.51100000000E-03 0.  1.
         12    1    4    4    0    0  0.30874046862E+01  0.85646080666E+01 -0.53751982276E+01  0.10572480079E+02  0.00000000000E+00 0. -1.
</event>
<event>
 8    1  0.1280925E-006  0.9118800E+02  0.7816164E-02  0.1184000E+00
        -11   -1    0    0    0    0  0.00000000000E+00  0.00000000000E+00  0.45593999997E+02  0.45594000000E+02  0.51100000000E-03 0.  1.
         11   -1    0    0    0    0 -0.00000000000E+00 -0.00000000000E+00 -0.45593999997E+02  0.45594000000E+02  0.51100000000E-03 0. -1.
         23    2    1    2    0    0  0.00000000000E+00  0.19984014443E-14  0.00000000000E+00  0.91188000000E+02  0.91188000000E+02 0.  0.
    9900012    2    3    3    0    0 -0.28942091857E+02  0.18121989984E+01  0.22690214002E+02  0.54367155934E+02  0.40000163583E+02 0.  0.
        -12    1    3    3    0    0  0.28942091857E+02 -0.18121989984E+01 -0.22690214002E+02  0.36820844066E+02  0.00000000000E+00 0.  1.
         11    1    4    4    0    0 -0.11134684523E+02 -0.59309071345E+01  0.21091675562E+01  0.12790834489E+02  0.51100000000E-03 0. -1.
        -11    1    4    4    0    0 -0.13504739273E+02  0.18272004053E+02  0.19863634383E+02  0.30179597182E+02  0.51100000000E-03 0.  1.
        -12    1    4    4    0    0 -0.43026680608E+01 -0.10528897921E+02  0.71741206288E+00  0.11396724263E+02  0.00000000000E+00 0.  1.
</event>
<event>
 8    1  0.1280925E-006  0.9118800E+02  0.7816164E-02  0.1184000E+00
        -11   -1    0    0    0    0  0.00000000000E+00  0.00000000000E+00  0.45593999997E+02  0.45594000000E+02  0.51100000000E-03 0. -1.
         11   -1    0    0    0    0 -0.00000000000E+00 -0.00000000000E+00 -0.45593999997E+02  0.45594000000E+02  0.51100000000E-03 0.  1.
         23    2    1    2    0    0  0.00000000000E+00  0.00000000000E+00  0.88817841970E-15  0.91188000000E+02  0.91188000000E+02 0.  0.
    9900012    2    3    3    0    0  0.35180266008E+02 -0.10081669796E+02 -0.40607267619E+01  0.54367072743E+02  0.39999973932E+02 0.  0.
        -12    1    3    3    0    0 -0.35180266008E+02  0.10081669796E+02  0.40607267619E+01  0.36820927257E+02  0.00000000000E+00 0.  1.
         11    1    4    4    0    0 -0.22121290254E+01  0.21073268403E+01 -0.88731015780E+00  0.31814557696E+01  0.51100000000E-03 0. -1.
        -11    1    4    4    0    0  0.22218311285E+02  0.66298521358E+01 -0.11151622485E+02  0.25728718973E+02  0.51100000000E-03 0.  1.
         12    1    4    4    0    0  0.15174083748E+02 -0.18818848772E+02  0.79782058813E+01  0.25456898000E+02  0.00000000000E+00 0. -1.
</event>
<event>
 8    1  0.1280925E-006  0.9118800E+02  0.7816164E-02  0.1184000E+00
        -11   -1    0    0    0    0  0.00000000000E+00  0.00000000000E+00  0.45593999997E+02  0.45594000000E+02  0.51100000000E-03 0.  1.
         11   -1    0    0    0    0 -0.00000000000E+00 -0.00000000000E+00 -0.45593999997E+02  0.45594000000E+02  0.51100000000E-03 0. -1.
         23    2    1    2    0    0 -0.44408920985E-15  0.71054273576E-14  0.11102230246E-15  0.91188000000E+02  0.91188000000E+02 0.  0.
    9900012    2    3    3    0    0  0.10223493682E+01 -0.36798348800E+02  0.78526603316E+00  0.54367077749E+02  0.39999985345E+02 0.  0.
         12    1    3    3    0    0 -0.10223493682E+01  0.36798348800E+02 -0.78526603316E+00  0.36820922251E+02  0.00000000000E+00 0. -1.
         11    1    4    4    0    0 -0.80695959237E+01 -0.63529023440E+00 -0.18571125336E+01  0.83048684082E+01  0.51100000000E-03 0. -1.
        -11    1    4    4    0    0 -0.63901788095E+01 -0.13860545648E+01  0.45191144563E+01  0.79484544538E+01  0.51100000000E-03 0.  1.
         12    1    4    4    0    0  0.15482124101E+02 -0.34777004001E+02 -0.18767358895E+01  0.38113754887E+02  0.00000000000E+00 0. -1.
</event>
<event>
 8    1  0.1280925E-006  0.9118800E+02  0.7816164E-02  0.1184000E+00
        -11   -1    0    0    0    0  0.00000000000E+00  0.00000000000E+00  0.45593999997E+02  0.45594000000E+02  0.51100000000E-03 0. -1.
         11   -1    0    0    0    0 -0.00000000000E+00 -0.00000000000E+00 -0.45593999997E+02  0.45594000000E+02  0.51100000000E-03 0.  1.
         23    2    1    2    0    0  0.00000000000E+00 -0.17763568394E-14 -0.44408920985E-15  0.91188000000E+02  0.91188000000E+02 0.  0.
    9900012    2    3    3    0    0 -0.34319594245E+02  0.13272672360E+02 -0.13388460803E+01  0.54366934161E+02  0.39999658005E+02 0.  0.
        -12    1    3    3    0    0  0.34319594245E+02 -0.13272672360E+02  0.13388460803E+01  0.36821065839E+02  0.00000000000E+00 0.  1.
         11    1    4    4    0    0  0.45350013579E+01 -0.15513286221E+01 -0.10004986114E+02  0.11093809319E+02  0.51100000000E-03 0.  1.
        -11    1    4    4    0    0 -0.37246308394E+02  0.15548326311E+02  0.92636770776E+01  0.41410791508E+02  0.51100000000E-03 0. -1.
         12    1    4    4    0    0 -0.16082872090E+01 -0.72432532875E+00 -0.59753704423E+00  0.18623333342E+01  0.00000000000E+00 0. -1.
</event>
<event>
 8    1  0.1280925E-006  0.9118800E+02  0.7816164E-02  0.1184000E+00
        -11   -1    0    0    0    0  0.00000000000E+00  0.00000000000E+00  0.45593999997E+02  0.45594000000E+02  0.51100000000E-03 0.  1.
         11   -1    0    0    0    0 -0.00000000000E+00 -0.00000000000E+00 -0.45593999997E+02  0.45594000000E+02  0.51100000000E-03 0. -1.
         23    2    1    2    0    0 -0.17763568394E-14 -0.17763568394E-14  0.00000000000E+00  0.91188000000E+02  0.91188000000E+02 0.  0.
    9900012    2    3    3    0    0  0.13565950535E+02  0.12063757982E+02 -0.32034527470E+02  0.54367079034E+02  0.39999988273E+02 0.  0.
        -12    1    3    3    0    0 -0.13565950535E+02 -0.12063757982E+02  0.32034527470E+02  0.36820920966E+02  0.00000000000E+00 0.  1.
         11    1    4    4    0    0 -0.13335381629E+01  0.43442734481E+01 -0.29990214231E+02  0.30332556531E+02  0.51100000000E-03 0. -1.
        -11    1    4    4    0    0 -0.37225555061E+01  0.12351007313E+01 -0.17972004126E+01  0.43142580934E+01  0.51100000000E-03 0.  1.
        -12    1    4    4    0    0  0.18622044204E+02  0.64843838030E+01 -0.24711282704E+00  0.19720264410E+02  0.00000000000E+00 0.  1.
</event>
<event>
 8    1  0.1280925E-006  0.9118800E+02  0.7816164E-02  0.1184000E+00
        -11   -1    0    0    0    0  0.00000000000E+00  0.00000000000E+00  0.45593999997E+02  0.45594000000E+02  0.51100000000E-03 0.  1.
         11   -1    0    0    0    0 -0.00000000000E+00 -0.00000000000E+00 -0.45593999997E+02  0.45594000000E+02  0.51100000000E-03 0. -1.
         23    2    1    2    0    0  0.00000000000E+00  0.00000000000E+00  0.44408920985E-15  0.91188000000E+02  0.91188000000E+02 0.  0.
    9900012    2    3    3    0    0  0.97056182795E+01  0.35460624697E+02  0.20309840668E+01  0.54367084389E+02  0.40000000482E+02 0.  0.
         12    1    3    3    0    0 -0.97056182795E+01 -0.35460624697E+02 -0.20309840668E+01  0.36820915611E+02  0.00000000000E+00 0. -1.
         11    1    4    4    0    0  0.15166933135E+02  0.29350005511E+02  0.56767993253E+01  0.33521407117E+02  0.51100000000E-03 0. -1.
        -11    1    4    4    0    0 -0.12459199943E+02  0.50505069328E+01 -0.25496819985E+01  0.13683572708E+02  0.51100000000E-03 0.  1.
         12    1    4    4    0    0  0.69978850867E+01  0.10601122533E+01 -0.10961332600E+01  0.71621045650E+01  0.00000000000E+00 0. -1.
</event>
<event>
 8    1  0.1280925E-006  0.9118800E+02  0.7816164E-02  0.1184000E+00
        -11   -1    0    0    0    0  0.00000000000E+00  0.00000000000E+00  0.45593999997E+02  0.45594000000E+02  0.51100000000E-03 0. -1.
         11   -1    0    0    0    0 -0.00000000000E+00 -0.00000000000E+00 -0.45593999997E+02  0.45594000000E+02  0.51100000000E-03 0.  1.
         23    2    1    2    0    0 -0.88817841970E-15  0.00000000000E+00  0.00000000000E+00  0.91188000000E+02  0.91188000000E+02 0.  0.
    9900012    2    3    3    0    0 -0.50746352664E+01 -0.31451068238E+02 -0.18462347512E+02  0.54367083498E+02  0.39999998451E+02 0.  0.
        -12    1    3    3    0    0  0.50746352664E+01  0.31451068238E+02  0.18462347512E+02  0.36820916502E+02  0.00000000000E+00 0.  1.
         11    1    4    4    0    0 -0.49130711209E+01 -0.14133732351E+02 -0.20116412249E+02  0.25071312293E+02  0.51100000000E-03 0. -1.
        -11    1    4    4    0    0 -0.75043806523E+01 -0.10040906244E+02 -0.82282062370E+01  0.14994629216E+02  0.51100000000E-03 0.  1.
         12    1    4    4    0    0  0.73428165069E+01 -0.72764296425E+01  0.98822709747E+01  0.14301141990E+02  0.00000000000E+00 0. -1.
</event>
<event>
 8    1  0.1280925E-006  0.9118800E+02  0.7816164E-02  0.1184000E+00
        -11   -1    0    0    0    0  0.00000000000E+00  0.00000000000E+00  0.45593999997E+02  0.45594000000E+02  0.51100000000E-03 0.  1.
         11   -1    0    0    0    0 -0.00000000000E+00 -0.00000000000E+00 -0.45593999997E+02  0.45594000000E+02  0.51100000000E-03 0. -1.
         23    2    1    2    0    0 -0.55749675709E-15  0.35527136788E-14 -0.35527136788E-14  0.91188000000E+02  0.91188000000E+02 0.  0.
    9900012    2    3    3    0    0 -0.16717833505E-02  0.24958364653E+02  0.27071370457E+02  0.54367094696E+02  0.40000023978E+02 0.  0.
         12    1    3    3    0    0  0.16717833505E-02 -0.24958364653E+02 -0.27071370457E+02  0.36820905304E+02  0.00000000000E+00 0. -1.
         11    1    4    4    0    0 -0.89177102929E+01 -0.12115384169E+01  0.17180285764E+02  0.19394731279E+02  0.51100000000E-03 0. -1.
        -11    1    4    4    0    0  0.40424503074E+01  0.11021899594E+02  0.14259987372E+02  0.18470812523E+02  0.51100000000E-03 0.  1.
         12    1    4    4    0    0  0.48735882022E+01  0.15148003476E+02 -0.43689026786E+01  0.16501550894E+02  0.00000000000E+00 0. -1.
</event>
<event>
 8    1  0.1280925E-006  0.9118800E+02  0.7816164E-02  0.1184000E+00
        -11   -1    0    0    0    0  0.00000000000E+00  0.00000000000E+00  0.45593999997E+02  0.45594000000E+02  0.51100000000E-03 0.  1.
         11   -1    0    0    0    0 -0.00000000000E+00 -0.00000000000E+00 -0.45593999997E+02  0.45594000000E+02  0.51100000000E-03 0. -1.
         23    2    1    2    0    0  0.00000000000E+00  0.00000000000E+00 -0.13322676296E-14  0.91188000000E+02  0.91188000000E+02 0.  0.
    9900012    2    3    3    0    0  0.30374566975E+02 -0.20783486574E+02  0.11005726129E+01  0.54367097062E+02  0.40000029372E+02 0.  0.
         12    1    3    3    0    0 -0.30374566975E+02  0.20783486574E+02 -0.11005726129E+01  0.36820902938E+02  0.00000000000E+00 0. -1.
         11    1    4    4    0    0  0.50700160346E+01 -0.29260399041E+01 -0.13478188103E+02  0.14694499886E+02  0.51100000000E-03 0. -1.
        -11    1    4    4    0    0  0.22756011559E+02 -0.16237226602E+02  0.34805850843E+01  0.28170872592E+02  0.51100000000E-03 0.  1.
         12    1    4    4    0    0  0.25485393815E+01 -0.16202200678E+01  0.11098175631E+02  0.11501724584E+02  0.00000000000E+00 0. -1.
</event>
<event>
 8    1  0.1280925E-006  0.9118800E+02  0.7816164E-02  0.1184000E+00
        -11   -1    0    0    0    0  0.00000000000E+00  0.00000000000E+00  0.45593999997E+02  0.45594000000E+02  0.51100000000E-03 0. -1.
         11   -1    0    0    0    0 -0.00000000000E+00 -0.00000000000E+00 -0.45593999997E+02  0.45594000000E+02  0.51100000000E-03 0.  1.
         23    2    1    2    0    0  0.17763568394E-14  0.00000000000E+00  0.17763568394E-14  0.91188000000E+02  0.91188000000E+02 0.  0.
    9900012    2    3    3    0    0  0.15362426655E+02 -0.30705914904E+02  0.13301211130E+02  0.54367087730E+02  0.40000008099E+02 0.  0.
        -12    1    3    3    0    0 -0.15362426655E+02  0.30705914904E+02 -0.13301211130E+02  0.36820912270E+02  0.00000000000E+00 0.  1.
         11    1    4    4    0    0 -0.23856389978E+01 -0.83495661789E+00 -0.10782283634E+00  0.25298324068E+01  0.51100000000E-03 0.  1.
        -11    1    4    4    0    0  0.18998057572E+02 -0.11047858353E+02 -0.79221407360E+01  0.23361114695E+02  0.51100000000E-03 0. -1.
         12    1    4    4    0    0 -0.12499919196E+01 -0.18823099933E+02  0.21331174703E+02  0.28476140628E+02  0.00000000000E+00 0. -1.
</event>
<event>
 8    1  0.1280925E-006  0.9118800E+02  0.7816164E-02  0.1184000E+00
        -11   -1    0    0    0    0  0.00000000000E+00  0.00000000000E+00  0.45593999997E+02  0.45594000000E+02  0.51100000000E-03 0. -1.
         11   -1    0    0    0    0 -0.00000000000E+00 -0.00000000000E+00 -0.45593999997E+02  0.45594000000E+02  0.51100000000E-03 0.  1.
         23    2    1    2    0    0  0.00000000000E+00  0.00000000000E+00 -0.44408920985E-15  0.91188000000E+02  0.91188000000E+02 0.  0.
    9900012    2    3    3    0    0 -0.11871847250E+02 -0.34820703277E+02  0.15354539595E+01  0.54367085391E+02  0.40000002765E+02 0.  0.
         12    1    3    3    0    0  0.11871847250E+02  0.34820703277E+02 -0.15354539595E+01  0.36820914609E+02  0.00000000000E+00 0. -1.
         11    1    4    4    0    0 -0.14972425247E+02 -0.34095100027E+02 -0.53991967033E+01  0.37627127035E+02  0.51100000000E-03 0. -1.
        -11    1    4    4    0    0 -0.23359918028E+01 -0.17390771948E+01 -0.37266953311E+01  0.47296411644E+01  0.51100000000E-03 0.  1.
         12    1    4    4    0    0  0.54365697995E+01  0.10134739455E+01  0.10661345994E+02  0.12010317191E+02  0.00000000000E+00 0. -1.
</event>
<event>
 8    1  0.1280925E-006  0.9118800E+02  0.7816164E-02  0.1184000E+00
        -11   -1    0    0    0    0  0.00000000000E+00  0.00000000000E+00  0.45593999997E+02  0.45594000000E+02  0.51100000000E-03 0.  1.
         11   -1    0    0    0    0 -0.00000000000E+00 -0.00000000000E+00 -0.45593999997E+02  0.45594000000E+02  0.51100000000E-03 0. -1.
         23    2    1    2    0    0  0.00000000000E+00  0.35527136788E-14  0.88817841970E-15  0.91188000000E+02  0.91188000000E+02 0.  0.
    9900012    2    3    3    0    0 -0.25835334238E+02 -0.25809762956E+02  0.47085642916E+01  0.54367096470E+02  0.40000028023E+02 0.  0.
         12    1    3    3    0    0  0.25835334238E+02  0.25809762956E+02 -0.47085642916E+01  0.36820903530E+02  0.00000000000E+00 0. -1.
         11    1    4    4    0    0 -0.13291077955E+02  0.55812223008E+01 -0.85773345028E+01  0.16774190383E+02  0.51100000000E-03 0.  1.
        -11    1    4    4    0    0 -0.13018658677E+02 -0.31813980677E+02  0.12487863537E+02  0.36572688939E+02  0.51100000000E-03 0. -1.
        -12    1    4    4    0    0  0.47440239348E+00  0.42299541982E+00  0.79803525780E+00  0.10202171479E+01  0.00000000000E+00 0.  1.
</event>
<event>
 8    1  0.1280925E-006  0.9118800E+02  0.7816164E-02  0.1184000E+00
        -11   -1    0    0    0    0  0.00000000000E+00  0.00000000000E+00  0.45593999997E+02  0.45594000000E+02  0.51100000000E-03 0.  1.
         11   -1    0    0    0    0 -0.00000000000E+00 -0.00000000000E+00 -0.45593999997E+02  0.45594000000E+02  0.51100000000E-03 0. -1.
         23    2    1    2    0    0  0.00000000000E+00  0.17763568394E-14 -0.17763568394E-14  0.91188000000E+02  0.91188000000E+02 0.  0.
    9900012    2    3    3    0    0 -0.31133817521E+02  0.12586529847E+02 -0.15101220086E+02  0.54367052496E+02  0.39999927774E+02 0.  0.
        -12    1    3    3    0    0  0.31133817521E+02 -0.12586529847E+02  0.15101220086E+02  0.36820947504E+02  0.00000000000E+00 0.  1.
         11    1    4    4    0    0 -0.17900502859E+02  0.12218933067E+02 -0.51838457384E+01  0.22284581773E+02  0.51100000000E-03 0. -1.
        -11    1    4    4    0    0 -0.19149100690E+01  0.13203373196E+02 -0.53141779304E+01  0.14360934220E+02  0.51100000000E-03 0.  1.
         12    1    4    4    0    0 -0.11318404593E+02 -0.12835776417E+02 -0.46031964171E+01  0.17721536502E+02  0.00000000000E+00 0. -1.
</event>
<event>
 8    1  0.1280925E-006  0.9118800E+02  0.7816164E-02  0.1184000E+00
        -11   -1    0    0    0    0  0.00000000000E+00  0.00000000000E+00  0.45593999997E+02  0.45594000000E+02  0.51100000000E-03 0.  1.
         11   -1    0    0    0    0 -0.00000000000E+00 -0.00000000000E+00 -0.45593999997E+02  0.45594000000E+02  0.51100000000E-03 0. -1.
         23    2    1    2    0    0  0.17763568394E-14 -0.35527136788E-14 -0.35527136788E-14  0.91188000000E+02  0.91188000000E+02 0.  0.
    9900012    2    3    3    0    0  0.12283941025E+02 -0.27498105754E+02 -0.21183603740E+02  0.54366999273E+02  0.39999806442E+02 0.  0.
        -12    1    3    3    0    0 -0.12283941025E+02  0.27498105754E+02  0.21183603740E+02  0.36821000727E+02  0.00000000000E+00 0.  1.
         11    1    4    4    0    0 -0.25993935547E+01 -0.27523222462E+02 -0.20951850386E+02  0.34688105402E+02  0.51100000000E-03 0. -1.
        -11    1    4    4    0    0  0.12425324654E+02  0.22060177770E+01 -0.52601163975E+01  0.13672016382E+02  0.51100000000E-03 0.  1.
        -12    1    4    4    0    0  0.24580099260E+01 -0.21809010687E+01  0.50283630435E+01  0.60068774887E+01  0.00000000000E+00 0.  1.
</event>
<event>
 8    1  0.1280925E-006  0.9118800E+02  0.7816164E-02  0.1184000E+00
        -11   -1    0    0    0    0  0.00000000000E+00  0.00000000000E+00  0.45593999997E+02  0.45594000000E+02  0.51100000000E-03 0.  1.
         11   -1    0    0    0    0 -0.00000000000E+00 -0.00000000000E+00 -0.45593999997E+02  0.45594000000E+02  0.51100000000E-03 0. -1.
         23    2    1    2    0    0 -0.35527136788E-14  0.00000000000E+00  0.00000000000E+00  0.91188000000E+02  0.91188000000E+02 0.  0.
    9900012    2    3    3    0    0 -0.24988291300E+02  0.15909202297E+02 -0.21869136290E+02  0.54367128991E+02  0.40000102161E+02 0.  0.
        -12    1    3    3    0    0  0.24988291300E+02 -0.15909202297E+02  0.21869136290E+02  0.36820871009E+02  0.00000000000E+00 0.  1.
         11    1    4    4    0    0 -0.32622926985E+01  0.14788929824E+01 -0.52273667462E+01  0.63368005700E+01  0.51100000000E-03 0. -1.
        -11    1    4    4    0    0 -0.26906510449E+02  0.42412028261E+01  0.71465609923E+00  0.27248097907E+02  0.51100000000E-03 0.  1.
         12    1    4    4    0    0  0.51805118481E+01  0.10189106488E+02 -0.17356425643E+02  0.20782230514E+02  0.00000000000E+00 0. -1.
</event>
<event>
 8    1  0.1280925E-006  0.9118800E+02  0.7816164E-02  0.1184000E+00
        -11   -1    0    0    0    0  0.00000000000E+00  0.00000000000E+00  0.45593999997E+02  0.45594000000E+02  0.51100000000E-03 0.  1.
         11   -1    0    0    0    0 -0.00000000000E+00 -0.00000000000E+00 -0.45593999997E+02  0.45594000000E+02  0.51100000000E-03 0. -1.
         23    2    1    2    0    0  0.00000000000E+00 -0.88817841970E-15  0.00000000000E+00  0.91188000000E+02  0.91188000000E+02 0.  0.
    9900012    2    3    3    0    0  0.25246447520E+02  0.40311209603E+01 -0.26498043122E+02  0.54367091023E+02  0.40000015605E+02 0.  0.
        -12    1    3    3    0    0 -0.25246447520E+02 -0.40311209603E+01  0.26498043122E+02  0.36820908977E+02  0.00000000000E+00 0.  1.
         11    1    4    4    0    0  0.91154642371E+01 -0.81349524146E+01 -0.55337030394E+01  0.13412345382E+02  0.51100000000E-03 0.  1.
        -11    1    4    4    0    0  0.16686841795E+02 -0.38931381558E+01 -0.17548905970E+02  0.24526950785E+02  0.51100000000E-03 0. -1.
         12    1    4    4    0    0 -0.55585851175E+00  0.16059211531E+02 -0.34154341121E+01  0.16427794857E+02  0.00000000000E+00 0. -1.
</event>
<event>
 8    1  0.1280925E-006  0.9118800E+02  0.7816164E-02  0.1184000E+00
        -11   -1    0    0    0    0  0.00000000000E+00  0.00000000000E+00  0.45593999997E+02  0.45594000000E+02  0.51100000000E-03 0.  1.
         11   -1    0    0    0    0 -0.00000000000E+00 -0.00000000000E+00 -0.45593999997E+02  0.45594000000E+02  0.51100000000E-03 0. -1.
         23    2    1    2    0    0  0.00000000000E+00  0.00000000000E+00  0.00000000000E+00  0.91188000000E+02  0.91188000000E+02 0.  0.
    9900012    2    3    3    0    0 -0.20469284221E+02 -0.22796662308E+02 -0.20422727797E+02  0.54367255580E+02  0.40000390745E+02 0.  0.
        -12    1    3    3    0    0  0.20469284221E+02  0.22796662308E+02  0.20422727797E+02  0.36820744420E+02  0.00000000000E+00 0.  1.
         11    1    4    4    0    0 -0.53274592671E+01 -0.48336643629E+01 -0.35446855441E+01  0.80194095345E+01  0.51100000000E-03 0. -1.
        -11    1    4    4    0    0  0.84479595181E+01 -0.81728685893E+01  0.49464687612E+01  0.12752699889E+02  0.51100000000E-03 0.  1.
        -12    1    4    4    0    0 -0.23589784472E+02 -0.97901293560E+01 -0.21824511015E+02  0.33595146157E+02  0.00000000000E+00 0.  1.
</event>
<event>
 8    1  0.1280925E-006  0.9118800E+02  0.7816164E-02  0.1184000E+00
        -11   -1    0    0    0    0  0.00000000000E+00  0.00000000000E+00  0.45593999997E+02  0.45594000000E+02  0.51100000000E-03 0. -1.
         11   -1    0    0    0    0 -0.00000000000E+00 -0.00000000000E+00 -0.45593999997E+02  0.45594000000E+02  0.51100000000E-03 0.  1.
         23    2    1    2    0    0  0.17763568394E-14  0.00000000000E+00  0.00000000000E+00  0.91188000000E+02  0.91188000000E+02 0.  0.
    9900012    2    3    3    0    0  0.21942976286E+01 -0.60923709059E+01  0.36247044663E+02  0.54367079695E+02  0.39999989780E+02 0.  0.
        -12    1    3    3    0    0 -0.21942976286E+01  0.60923709059E+01 -0.36247044663E+02  0.36820920305E+02  0.00000000000E+00 0.  1.
         11    1    4    4    0    0 -0.88040722262E+01 -0.40907885448E+01  0.28902592670E+02  0.30489442467E+02  0.51100000000E-03 0. -1.
        -11    1    4    4    0    0 -0.23048639189E+01  0.40061321245E+01 -0.34126562988E+01  0.57452341605E+01  0.51100000000E-03 0.  1.
         12    1    4    4    0    0  0.13303233774E+02 -0.60077144857E+01  0.10757108292E+02  0.18132403067E+02  0.00000000000E+00 0. -1.
</event>
<event>
 8    1  0.1280925E-006  0.9118800E+02  0.7816164E-02  0.1184000E+00
        -11   -1    0    0    0    0  0.00000000000E+00  0.00000000000E+00  0.45593999997E+02  0.45594000000E+02  0.51100000000E-03 0.  1.
         11   -1    0    0    0    0 -0.00000000000E+00 -0.00000000000E+00 -0.45593999997E+02  0.45594000000E+02  0.51100000000E-03 0. -1.
         23    2    1    2    0    0  0.00000000000E+00  0.00000000000E+00 -0.22204460493E-15  0.91188000000E+02  0.91188000000E+02 0.  0.
    9900012    2    3    3    0    0  0.17105247021E+02 -0.32592823373E+02  0.94742816026E+00  0.54367092472E+02  0.40000018908E+02 0.  0.
        -12    1    3    3    0    0 -0.17105247021E+02  0.32592823373E+02 -0.94742816026E+00  0.36820907528E+02  0.00000000000E+00 0.  1.
         11    1    4    4    0    0 -0.50869996956E+01 -0.15114371747E+02  0.18804513448E+01  0.16057954313E+02  0.51100000000E-03 0.  1.
        -11    1    4    4    0    0  0.82572564089E+01 -0.20474477526E+02  0.53757965796E+01  0.22721921189E+02  0.51100000000E-03 0. -1.
         12    1    4    4    0    0  0.13934990307E+02  0.29960258994E+01 -0.63088197641E+01  0.15587216970E+02  0.00000000000E+00 0. -1.
</event>
<event>
 8    1  0.1280925E-006  0.9118800E+02  0.7816164E-02  0.1184000E+00
        -11   -1    0    0    0    0  0.00000000000E+00  0.00000000000E+00  0.45593999997E+02  0.45594000000E+02  0.51100000000E-03 0. -1.
         11   -1    0    0    0    0 -0.00000000000E+00 -0.00000000000E+00 -0.45593999997E+02  0.45594000000E+02  0.51100000000E-03 0.  1.
         23    2    1    2    0    0  0.00000000000E+00  0.17763568394E-14 -0.71054273576E-14  0.91188000000E+02  0.91188000000E+02 0.  0.
    9900012    2    3    3    0    0  0.11553244712E+02  0.10238945722E+02 -0.33428529848E+02  0.54367080937E+02  0.39999992612E+02 0.  0.
         12    1    3    3    0    0 -0.11553244712E+02 -0.10238945722E+02  0.33428529848E+02  0.36820919063E+02  0.00000000000E+00 0. -1.
         11    1    4    4    0    0  0.11752264432E+01  0.71744307258E+01 -0.98753752515E+00  0.73368142989E+01  0.51100000000E-03 0. -1.
        -11    1    4    4    0    0  0.24676077849E+01  0.15974314928E+02 -0.25915974344E+02  0.30543502616E+02  0.51100000000E-03 0.  1.
         12    1    4    4    0    0  0.79104104836E+01 -0.12909799932E+02 -0.65250179786E+01  0.16486764022E+02  0.00000000000E+00 0. -1.
</event>
<event>
 8    1  0.1280925E-006  0.9118800E+02  0.7816164E-02  0.1184000E+00
        -11   -1    0    0    0    0  0.00000000000E+00  0.00000000000E+00  0.45593999997E+02  0.45594000000E+02  0.51100000000E-03 0.  1.
         11   -1    0    0    0    0 -0.00000000000E+00 -0.00000000000E+00 -0.45593999997E+02  0.45594000000E+02  0.51100000000E-03 0. -1.
         23    2    1    2    0    0 -0.35527136788E-14  0.00000000000E+00  0.00000000000E+00  0.91188000000E+02  0.91188000000E+02 0.  0.
    9900012    2    3    3    0    0 -0.21133561638E+02  0.18851603076E+02  0.23532312433E+02  0.54367080749E+02  0.39999992184E+02 0.  0.
         12    1    3    3    0    0  0.21133561638E+02 -0.18851603076E+02 -0.23532312433E+02  0.36820919251E+02  0.00000000000E+00 0. -1.
         11    1    4    4    0    0 -0.19692178477E+02  0.19292202183E+02  0.84260178730E+01  0.28826528333E+02  0.51100000000E-03 0. -1.
        -11    1    4    4    0    0 -0.44574243472E+01 -0.95972359703E+01  0.10305077782E+02  0.14770585582E+02  0.51100000000E-03 0.  1.
         12    1    4    4    0    0  0.30160411865E+01  0.91566368629E+01  0.48012167781E+01  0.10769966835E+02  0.00000000000E+00 0. -1.
</event>
<event>
 8    1  0.1280925E-006  0.9118800E+02  0.7816164E-02  0.1184000E+00
        -11   -1    0    0    0    0  0.00000000000E+00  0.00000000000E+00  0.45593999997E+02  0.45594000000E+02  0.51100000000E-03 0. -1.
         11   -1    0    0    0    0 -0.00000000000E+00 -0.00000000000E+00 -0.45593999997E+02  0.45594000000E+02  0.51100000000E-03 0.  1.
         23    2    1    2    0    0  0.00000000000E+00 -0.35527136788E-14  0.00000000000E+00  0.91188000000E+02  0.91188000000E+02 0.  0.
    9900012    2    3    3    0    0 -0.16092651118E+02  0.23625918729E+02 -0.23208105556E+02  0.54367168677E+02  0.40000192633E+02 0.  0.
        -12    1    3    3    0    0  0.16092651118E+02 -0.23625918729E+02  0.23208105556E+02  0.36820831323E+02  0.00000000000E+00 0.  1.
         11    1    4    4    0    0 -0.14979631318E+02  0.83422430716E+01 -0.10399725221E+02  0.20053345328E+02  0.51100000000E-03 0. -1.
        -11    1    4    4    0    0 -0.13568915537E+02  0.13575589271E+02 -0.66439699181E+01  0.20311435928E+02  0.51100000000E-03 0.  1.
        -12    1    4    4    0    0  0.12455895737E+02  0.17080863860E+01 -0.61644104170E+01  0.14002387422E+02  0.00000000000E+00 0.  1.
</event>
<event>
 8    1  0.1280925E-006  0.9118800E+02  0.7816164E-02  0.1184000E+00
        -11   -1    0    0    0    0  0.00000000000E+00  0.00000000000E+00  0.45593999997E+02  0.45594000000E+02  0.51100000000E-03 0.  1.
         11   -1    0    0    0    0 -0.00000000000E+00 -0.00000000000E+00 -0.45593999997E+02  0.45594000000E+02  0.51100000000E-03 0. -1.
         23    2    1    2    0    0  0.44408920985E-15  0.00000000000E+00  0.00000000000E+00  0.91188000000E+02  0.91188000000E+02 0.  0.
    9900012    2    3    3    0    0  0.33285815766E+01  0.32336292057E+02  0.17293507090E+02  0.54367073521E+02  0.39999975706E+02 0.  0.
         12    1    3    3    0    0 -0.33285815766E+01 -0.32336292057E+02 -0.17293507090E+02  0.36820926479E+02  0.00000000000E+00 0. -1.
         11    1    4    4    0    0 -0.69370219417E+00  0.10604314312E+02  0.18226893376E+02  0.21098633775E+02  0.51100000000E-03 0. -1.
        -11    1    4    4    0    0  0.82718704187E+01  0.16292167474E+01 -0.79186874950E+01  0.11566494687E+02  0.51100000000E-03 0.  1.
        -12    1    4    4    0    0 -0.42495866479E+01  0.20102760997E+02  0.69853012086E+01  0.21701945059E+02  0.00000000000E+00 0.  1.
</event>
<event>
 8    1  0.1280925E-006  0.9118800E+02  0.7816164E-02  0.1184000E+00
        -11   -1    0    0    0    0  0.00000000000E+00  0.00000000000E+00  0.45593999997E+02  0.45594000000E+02  0.51100000000E-03 0. -1.
         11   -1    0    0    0    0 -0.00000000000E+00 -0.00000000000E+00 -0.45593999997E+02  0.45594000000E+02  0.51100000000E-03 0.  1.
         23    2    1    2    0    0 -0.35527136788E-14  0.00000000000E+00 -0.35527136788E-14  0.91188000000E+02  0.91188000000E+02 0.  0.
    9900012    2    3    3    0    0  0.15760722166E+02  0.14023822523E+02  0.30178015763E+02  0.54367073929E+02  0.39999976635E+02 0.  0.
        -12    1    3    3    0    0 -0.15760722166E+02 -0.14023822523E+02 -0.30178015763E+02  0.36820926071E+02  0.00000000000E+00 0.  1.
         11    1    4    4    0    0  0.12282590748E+02  0.21249571806E+02  0.84711067340E+01  0.25964706565E+02  0.51100000000E-03 0. -1.
        -11    1    4    4    0    0 -0.12650450059E+01 -0.58858620462E+01 -0.12443269249E+00  0.60215608151E+01  0.51100000000E-03 0.  1.
         12    1    4    4    0    0  0.47431764237E+01 -0.13398872371E+01  0.21831341722E+02  0.22380806549E+02  0.00000000000E+00 0. -1.
</event>
<event>
 8    1  0.1280925E-006  0.9118800E+02  0.7816164E-02  0.1184000E+00
        -11   -1    0    0    0    0  0.00000000000E+00  0.00000000000E+00  0.45593999997E+02  0.45594000000E+02  0.51100000000E-03 0.  1.
         11   -1    0    0    0    0 -0.00000000000E+00 -0.00000000000E+00 -0.45593999997E+02  0.45594000000E+02  0.51100000000E-03 0. -1.
         23    2    1    2    0    0  0.22204460493E-15 -0.88817841970E-15  0.00000000000E+00  0.91188000000E+02  0.91188000000E+02 0.  0.
    9900012    2    3    3    0    0 -0.19317082291E+01  0.61321195439E+01  0.36255276247E+02  0.54367089602E+02  0.40000012366E+02 0.  0.
         12    1    3    3    0    0  0.19317082291E+01 -0.61321195439E+01 -0.36255276247E+02  0.36820910398E+02  0.00000000000E+00 0. -1.
         11    1    4    4    0    0  0.42345817828E+01  0.12288137149E+02  0.15645852341E+02  0.20340174365E+02  0.51100000000E-03 0. -1.
        -11    1    4    4    0    0 -0.26030896894E+01  0.48014802735E+01  0.21771545943E+02  0.22446168977E+02  0.51100000000E-03 0.  1.
        -12    1    4    4    0    0 -0.35632003224E+01 -0.10957497879E+02 -0.11621220367E+01  0.11580746260E+02  0.00000000000E+00 0.  1.
</event>
<event>
 8    1  0.1280925E-006  0.9118800E+02  0.7816164E-02  0.1184000E+00
        -11   -1    0    0    0    0  0.00000000000E+00  0.00000000000E+00  0.45593999997E+02  0.45594000000E+02  0.51100000000E-03 0.  1.
         11   -1    0    0    0    0 -0.00000000000E+00 -0.00000000000E+00 -0.45593999997E+02  0.45594000000E+02  0.51100000000E-03 0. -1.
         23    2    1    2    0    0  0.17763568394E-14 -0.35527136788E-14 -0.35527136788E-14  0.91188000000E+02  0.91188000000E+02 0.  0.
    9900012    2    3    3    0    0  0.13195416532E+02 -0.24274076844E+02 -0.24339896082E+02  0.54367077070E+02  0.39999983797E+02 0.  0.
        -12    1    3    3    0    0 -0.13195416532E+02  0.24274076844E+02  0.24339896082E+02  0.36820922930E+02  0.00000000000E+00 0.  1.
         11    1    4    4    0    0  0.13933636141E+02 -0.14143942531E+02 -0.33131799615E+02  0.38625295759E+02  0.51100000000E-03 0. -1.
        -11    1    4    4    0    0  0.45249009584E+00 -0.74649316931E+00  0.57352137573E+01  0.58012650725E+01  0.51100000000E-03 0.  1.
         12    1    4    4    0    0 -0.11907097044E+01 -0.93836411436E+01  0.30566897758E+01  0.99405162390E+01  0.00000000000E+00 0. -1.
</event>
<event>
 8    1  0.1280925E-006  0.9118800E+02  0.7816164E-02  0.1184000E+00
        -11   -1    0    0    0    0  0.00000000000E+00  0.00000000000E+00  0.45593999997E+02  0.45594000000E+02  0.51100000000E-03 0.  1.
         11   -1    0    0    0    0 -0.00000000000E+00 -0.00000000000E+00 -0.45593999997E+02  0.45594000000E+02  0.51100000000E-03 0. -1.
         23    2    1    2    0    0 -0.35527136788E-14  0.35527136788E-14 -0.35527136788E-14  0.91188000000E+02  0.91188000000E+02 0.  0.
    9900012    2    3    3    0    0  0.23653838299E+02 -0.21144362944E+02  0.18686692787E+02  0.54367073370E+02  0.39999975361E+02 0.  0.
        -12    1    3    3    0    0 -0.23653838299E+02  0.21144362944E+02 -0.18686692787E+02  0.36820926630E+02  0.00000000000E+00 0.  1.
         11    1    4    4    0    0  0.23185200858E+02 -0.68696891596E+01 -0.40316426991E+01  0.24515307689E+02  0.51100000000E-03 0. -1.
        -11    1    4    4    0    0 -0.50988868569E+01 -0.99185449261E+01  0.86734762050E+01  0.14128176470E+02  0.51100000000E-03 0.  1.
        -12    1    4    4    0    0  0.55675242978E+01 -0.43561288580E+01  0.14044859281E+02  0.15723589211E+02  0.00000000000E+00 0.  1.
</event>
<event>
 8    1  0.1280925E-006  0.9118800E+02  0.7816164E-02  0.1184000E+00
        -11   -1    0    0    0    0  0.00000000000E+00  0.00000000000E+00  0.45593999997E+02  0.45594000000E+02  0.51100000000E-03 0. -1.
         11   -1    0    0    0    0 -0.00000000000E+00 -0.00000000000E+00 -0.45593999997E+02  0.45594000000E+02  0.51100000000E-03 0.  1.
         23    2    1    2    0    0  0.35527136788E-14  0.00000000000E+00  0.00000000000E+00  0.91188000000E+02  0.91188000000E+02 0.  0.
    9900012    2    3    3    0    0  0.24405365827E+02 -0.21662144267E+02 -0.17056040301E+02  0.54367097157E+02  0.40000029589E+02 0.  0.
         12    1    3    3    0    0 -0.24405365827E+02  0.21662144267E+02  0.17056040301E+02  0.36820902843E+02  0.00000000000E+00 0. -1.
         11    1    4    4    0    0  0.19513220111E+02 -0.16061022583E+02  0.76020175504E+01  0.26391530395E+02  0.51100000000E-03 0. -1.
        -11    1    4    4    0    0 -0.35235931983E+01 -0.13240867738E+01 -0.75215672997E+01  0.84108792475E+01  0.51100000000E-03 0.  1.
         12    1    4    4    0    0  0.84157389145E+01 -0.42770349108E+01 -0.17136490552E+02  0.19564687514E+02  0.00000000000E+00 0. -1.
</event>
<event>
 8    1  0.1280925E-006  0.9118800E+02  0.7816164E-02  0.1184000E+00
        -11   -1    0    0    0    0  0.00000000000E+00  0.00000000000E+00  0.45593999997E+02  0.45594000000E+02  0.51100000000E-03 0.  1.
         11   -1    0    0    0    0 -0.00000000000E+00 -0.00000000000E+00 -0.45593999997E+02  0.45594000000E+02  0.51100000000E-03 0. -1.
         23    2    1    2    0    0  0.00000000000E+00  0.80491169285E-15  0.00000000000E+00  0.91188000000E+02  0.91188000000E+02 0.  0.
    9900012    2    3    3    0    0  0.29575126125E+02 -0.21244805972E+00 -0.21932773759E+02  0.54367084961E+02  0.40000001786E+02 0.  0.
        -12    1    3    3    0    0 -0.29575126125E+02  0.21244805972E+00  0.21932773759E+02  0.36820915039E+02  0.00000000000E+00 0.  1.
         11    1    4    4    0    0  0.23004464406E+01 -0.12604210833E+02  0.25917514943E+01  0.13071930256E+02  0.51100000000E-03 0.  1.
        -11    1    4    4    0    0  0.94205825213E+01  0.13080481438E+01 -0.16008077873E+02  0.18620336260E+02  0.51100000000E-03 0. -1.
        -12    1    4    4    0    0  0.17854097163E+02  0.11083714630E+02 -0.85164473803E+01  0.22674818445E+02  0.00000000000E+00 0.  1.
</event>
<event>
 8    1  0.1280925E-006  0.9118800E+02  0.7816164E-02  0.1184000E+00
        -11   -1    0    0    0    0  0.00000000000E+00  0.00000000000E+00  0.45593999997E+02  0.45594000000E+02  0.51100000000E-03 0.  1.
         11   -1    0    0    0    0 -0.00000000000E+00 -0.00000000000E+00 -0.45593999997E+02  0.45594000000E+02  0.51100000000E-03 0. -1.
         23    2    1    2    0    0 -0.71054273576E-14  0.00000000000E+00  0.22204460493E-15  0.91188000000E+02  0.91188000000E+02 0.  0.
    9900012    2    3    3    0    0 -0.35083964302E+02 -0.11053418431E+02 -0.16482937948E+01  0.54367089058E+02  0.40000011126E+02 0.  0.
        -12    1    3    3    0    0  0.35083964302E+02  0.11053418431E+02  0.16482937948E+01  0.36820910942E+02  0.00000000000E+00 0.  1.
         11    1    4    4    0    0 -0.29963192442E+02  0.23703019399E+01 -0.50880648152E+01  0.30484416289E+02  0.51100000000E-03 0. -1.
        -11    1    4    4    0    0  0.30570807689E+01 -0.70771825334E+01 -0.60806922633E+01  0.98187104093E+01  0.51100000000E-03 0.  1.
        -12    1    4    4    0    0 -0.81778526286E+01 -0.63465378373E+01  0.95204632837E+01  0.14063962360E+02  0.00000000000E+00 0.  1.
</event>
<event>
 8    1  0.1280925E-006  0.9118800E+02  0.7816164E-02  0.1184000E+00
        -11   -1    0    0    0    0  0.00000000000E+00  0.00000000000E+00  0.45593999997E+02  0.45594000000E+02  0.51100000000E-03 0. -1.
         11   -1    0    0    0    0 -0.00000000000E+00 -0.00000000000E+00 -0.45593999997E+02  0.45594000000E+02  0.51100000000E-03 0.  1.
         23    2    1    2    0    0  0.00000000000E+00  0.00000000000E+00 -0.88817841970E-15  0.91188000000E+02  0.91188000000E+02 0.  0.
    9900012    2    3    3    0    0 -0.36613684919E+02  0.13033695463E+01  0.36768883890E+01  0.54367079265E+02  0.39999988800E+02 0.  0.
         12    1    3    3    0    0  0.36613684919E+02 -0.13033695463E+01 -0.36768883890E+01  0.36820920735E+02  0.00000000000E+00 0. -1.
         11    1    4    4    0    0 -0.22296556650E+02  0.56361827507E-01 -0.13060212269E+02  0.25840061143E+02  0.51100000000E-03 0. -1.
        -11    1    4    4    0    0 -0.16087717295E+02  0.39733013193E+01  0.65241194395E+01  0.17809152306E+02  0.51100000000E-03 0.  1.
         12    1    4    4    0    0  0.17705890255E+01 -0.27262936005E+01  0.10212981218E+02  0.10717865816E+02  0.00000000000E+00 0. -1.
</event>
<event>
 8    1  0.1280925E-006  0.9118800E+02  0.7816164E-02  0.1184000E+00
        -11   -1    0    0    0    0  0.00000000000E+00  0.00000000000E+00  0.45593999997E+02  0.45594000000E+02  0.51100000000E-03 0. -1.
         11   -1    0    0    0    0 -0.00000000000E+00 -0.00000000000E+00 -0.45593999997E+02  0.45594000000E+02  0.51100000000E-03 0.  1.
         23    2    1    2    0    0  0.00000000000E+00  0.00000000000E+00  0.17763568394E-14  0.91188000000E+02  0.91188000000E+02 0.  0.
    9900012    2    3    3    0    0 -0.86563972054E+01  0.33647240258E+02  0.12194654533E+02  0.54367087616E+02  0.40000007839E+02 0.  0.
        -12    1    3    3    0    0  0.86563972054E+01 -0.33647240258E+02 -0.12194654533E+02  0.36820912384E+02  0.00000000000E+00 0.  1.
         11    1    4    4    0    0 -0.66227936997E+01  0.20861012279E+02  0.12645587851E+02  0.25277541851E+02  0.51100000000E-03 0. -1.
        -11    1    4    4    0    0 -0.73639036453E+01 -0.11037731821E+01 -0.91955426419E+01  0.11832303109E+02  0.51100000000E-03 0.  1.
        -12    1    4    4    0    0  0.53303001396E+01  0.13890001161E+02  0.87446093244E+01  0.17257242656E+02  0.00000000000E+00 0.  1.
</event>
<event>
 8    1  0.1280925E-006  0.9118800E+02  0.7816164E-02  0.1184000E+00
        -11   -1    0    0    0    0  0.00000000000E+00  0.00000000000E+00  0.45593999997E+02  0.45594000000E+02  0.51100000000E-03 0. -1.
         11   -1    0    0    0    0 -0.00000000000E+00 -0.00000000000E+00 -0.45593999997E+02  0.45594000000E+02  0.51100000000E-03 0.  1.
         23    2    1    2    0    0 -0.22204460493E-15  0.00000000000E+00  0.00000000000E+00  0.91188000000E+02  0.91188000000E+02 0.  0.
    9900012    2    3    3    0    0 -0.13620561769E+01 -0.93491105044E+01  0.35588195284E+02  0.54367072420E+02  0.39999973196E+02 0.  0.
        -12    1    3    3    0    0  0.13620561769E+01  0.93491105044E+01 -0.35588195284E+02  0.36820927580E+02  0.00000000000E+00 0.  1.
         11    1    4    4    0    0 -0.17767671172E+01 -0.19010586298E+02  0.34229170622E+02  0.39194328857E+02  0.51100000000E-03 0. -1.
        -11    1    4    4    0    0 -0.11450281133E+01  0.10188998054E+02 -0.28593867410E+01  0.10644381782E+02  0.51100000000E-03 0.  1.
         12    1    4    4    0    0  0.15597390536E+01 -0.52752226060E+00  0.42184114031E+01  0.45283617807E+01  0.00000000000E+00 0. -1.
</event>
<event>
 8    1  0.1280925E-006  0.9118800E+02  0.7816164E-02  0.1184000E+00
        -11   -1    0    0    0    0  0.00000000000E+00  0.00000000000E+00  0.45593999997E+02  0.45594000000E+02  0.51100000000E-03 0.  1.
         11   -1    0    0    0    0 -0.00000000000E+00 -0.00000000000E+00 -0.45593999997E+02  0.45594000000E+02  0.51100000000E-03 0. -1.
         23    2    1    2    0    0  0.00000000000E+00  0.00000000000E+00  0.35527136788E-14  0.91188000000E+02  0.91188000000E+02 0.  0.
    9900012    2    3    3    0    0 -0.19826488053E+02  0.61536259560E+01 -0.30410809165E+02  0.54367162761E+02  0.40000179145E+02 0.  0.
        -12    1    3    3    0    0  0.19826488053E+02 -0.61536259560E+01  0.30410809165E+02  0.36820837239E+02  0.00000000000E+00 0.  1.
         11    1    4    4    0    0 -0.11411650943E+02  0.10382751931E+02 -0.13240872343E+02  0.20330961993E+02  0.51100000000E-03 0. -1.
        -11    1    4    4    0    0 -0.71381743967E+01  0.72576183199E+00  0.65836338875E+01  0.97377871911E+01  0.51100000000E-03 0.  1.
        -12    1    4    4    0    0 -0.12766627135E+01 -0.49548878072E+01 -0.23753570710E+02  0.24298413576E+02  0.00000000000E+00 0.  1.
</event>
<event>
 8    1  0.1280925E-006  0.9118800E+02  0.7816164E-02  0.1184000E+00
        -11   -1    0    0    0    0  0.00000000000E+00  0.00000000000E+00  0.45593999997E+02  0.45594000000E+02  0.51100000000E-03 0.  1.
         11   -1    0    0    0    0 -0.00000000000E+00 -0.00000000000E+00 -0.45593999997E+02  0.45594000000E+02  0.51100000000E-03 0. -1.
         23    2    1    2    0    0 -0.13322676296E-14  0.00000000000E+00  0.00000000000E+00  0.91188000000E+02  0.91188000000E+02 0.  0.
    9900012    2    3    3    0    0  0.36890026104E+01 -0.33204035782E+02  0.15481038342E+02  0.54367091800E+02  0.40000017377E+02 0.  0.
        -12    1    3    3    0    0 -0.36890026104E+01  0.33204035782E+02 -0.15481038342E+02  0.36820908200E+02  0.00000000000E+00 0.  1.
         11    1    4    4    0    0  0.10082952964E+02  0.30293676051E+00  0.11976824611E+02  0.15658928417E+02  0.51100000000E-03 0. -1.
        -11    1    4    4    0    0 -0.84823128753E+01 -0.50998183756E+01  0.24925021970E+01  0.10206387541E+02  0.51100000000E-03 0.  1.
         12    1    4    4    0    0  0.20883625219E+01 -0.28407154167E+02  0.10117115340E+01  0.28501775842E+02  0.00000000000E+00 0. -1.
</event>
<event>
 8    1  0.1280925E-006  0.9118800E+02  0.7816164E-02  0.1184000E+00
        -11   -1    0    0    0    0  0.00000000000E+00  0.00000000000E+00  0.45593999997E+02  0.45594000000E+02  0.51100000000E-03 0.  1.
         11   -1    0    0    0    0 -0.00000000000E+00 -0.00000000000E+00 -0.45593999997E+02  0.45594000000E+02  0.51100000000E-03 0. -1.
         23    2    1    2    0    0  0.00000000000E+00 -0.88817841970E-15  0.00000000000E+00  0.91188000000E+02  0.91188000000E+02 0.  0.
    9900012    2    3    3    0    0 -0.32573000248E+02 -0.47799328917E+01 -0.16490368866E+02  0.54367077022E+02  0.39999983688E+02 0.  0.
        -12    1    3    3    0    0  0.32573000248E+02  0.47799328917E+01  0.16490368866E+02  0.36820922978E+02  0.00000000000E+00 0.  1.
         11    1    4    4    0    0 -0.10791007959E+02 -0.35173243219E+01 -0.12988823762E+02  0.17248970002E+02  0.51100000000E-03 0. -1.
        -11    1    4    4    0    0 -0.29850001451E+01  0.23956783571E+01 -0.14525979008E+02  0.15021769771E+02  0.51100000000E-03 0.  1.
        -12    1    4    4    0    0 -0.18796992144E+02 -0.36582869269E+01  0.11024433904E+02  0.22096337249E+02  0.00000000000E+00 0.  1.
</event>
<event>
 8    1  0.1280925E-006  0.9118800E+02  0.7816164E-02  0.1184000E+00
        -11   -1    0    0    0    0  0.00000000000E+00  0.00000000000E+00  0.45593999997E+02  0.45594000000E+02  0.51100000000E-03 0. -1.
         11   -1    0    0    0    0 -0.00000000000E+00 -0.00000000000E+00 -0.45593999997E+02  0.45594000000E+02  0.51100000000E-03 0.  1.
         23    2    1    2    0    0  0.71054273576E-14 -0.35527136788E-14  0.35527136788E-14  0.91188000000E+02  0.91188000000E+02 0.  0.
    9900012    2    3    3    0    0  0.22548861064E+02 -0.17658188073E+02  0.23141241101E+02  0.54367085006E+02  0.40000001888E+02 0.  0.
        -12    1    3    3    0    0 -0.22548861064E+02  0.17658188073E+02 -0.23141241101E+02  0.36820914994E+02  0.00000000000E+00 0.  1.
         11    1    4    4    0    0 -0.26963746077E+01 -0.78865503322E+01  0.20545529621E+01  0.85842472181E+01  0.51100000000E-03 0. -1.
        -11    1    4    4    0    0  0.11560156518E+02  0.79075631717E+01 -0.13971261676E+01  0.14075465741E+02  0.51100000000E-03 0.  1.
         12    1    4    4    0    0  0.13685079154E+02 -0.17679200912E+02  0.22483814306E+02  0.31707372047E+02  0.00000000000E+00 0. -1.
</event>
<event>
 8    1  0.1280925E-006  0.9118800E+02  0.7816164E-02  0.1184000E+00
        -11   -1    0    0    0    0  0.00000000000E+00  0.00000000000E+00  0.45593999997E+02  0.45594000000E+02  0.51100000000E-03 0. -1.
         11   -1    0    0    0    0 -0.00000000000E+00 -0.00000000000E+00 -0.45593999997E+02  0.45594000000E+02  0.51100000000E-03 0.  1.
         23    2    1    2    0    0  0.17763568394E-14  0.00000000000E+00  0.00000000000E+00  0.91188000000E+02  0.91188000000E+02 0.  0.
    9900012    2    3    3    0    0  0.40584868976E+01  0.28808979351E+02  0.22568875046E+02  0.54367044988E+02  0.39999910659E+02 0.  0.
        -12    1    3    3    0    0 -0.40584868976E+01 -0.28808979351E+02 -0.22568875046E+02  0.36820955012E+02  0.00000000000E+00 0.  1.
         11    1    4    4    0    0 -0.71554262720E+01  0.69883866476E+01 -0.13106359611E+01  0.10087390146E+02  0.51100000000E-03 0. -1.
        -11    1    4    4    0    0 -0.69744766237E+01  0.83648059525E+00 -0.87451104023E+00  0.70786858796E+01  0.51100000000E-03 0.  1.
        -12    1    4    4    0    0  0.18188389793E+02  0.20984112108E+02  0.24754022047E+02  0.37200968963E+02  0.00000000000E+00 0.  1.
</event>
<event>
 8    1  0.1280925E-006  0.9118800E+02  0.7816164E-02  0.1184000E+00
        -11   -1    0    0    0    0  0.00000000000E+00  0.00000000000E+00  0.45593999997E+02  0.45594000000E+02  0.51100000000E-03 0. -1.
         11   -1    0    0    0    0 -0.00000000000E+00 -0.00000000000E+00 -0.45593999997E+02  0.45594000000E+02  0.51100000000E-03 0.  1.
         23    2    1    2    0    0  0.00000000000E+00  0.00000000000E+00 -0.35527136788E-14  0.91188000000E+02  0.91188000000E+02 0.  0.
    9900012    2    3    3    0    0  0.10134508677E+02 -0.18099669381E+02  0.30421595868E+02  0.54367084843E+02  0.40000001517E+02 0.  0.
        -12    1    3    3    0    0 -0.10134508677E+02  0.18099669381E+02 -0.30421595868E+02  0.36820915157E+02  0.00000000000E+00 0.  1.
         11    1    4    4    0    0 -0.12524993518E+01 -0.16399854404E+02  0.77675111864E+01  0.18189508223E+02  0.51100000000E-03 0. -1.
        -11    1    4    4    0    0  0.18253068914E+01  0.11645631064E+02  0.96496810581E+01  0.15233804938E+02  0.51100000000E-03 0.  1.
        -12    1    4    4    0    0  0.95617011371E+01 -0.13345446040E+02  0.13004403624E+02  0.20943771682E+02  0.00000000000E+00 0.  1.
</event>
<event>
 8    1  0.1280925E-006  0.9118800E+02  0.7816164E-02  0.1184000E+00
        -11   -1    0    0    0    0  0.00000000000E+00  0.00000000000E+00  0.45593999997E+02  0.45594000000E+02  0.51100000000E-03 0.  1.
         11   -1    0    0    0    0 -0.00000000000E+00 -0.00000000000E+00 -0.45593999997E+02  0.45594000000E+02  0.51100000000E-03 0. -1.
         23    2    1    2    0    0  0.00000000000E+00  0.00000000000E+00  0.88817841970E-15  0.91188000000E+02  0.91188000000E+02 0.  0.
    9900012    2    3    3    0    0 -0.14287016703E+02  0.33671771017E+02  0.42277173611E+01  0.54367073833E+02  0.39999976418E+02 0.  0.
        -12    1    3    3    0    0  0.14287016703E+02 -0.33671771017E+02 -0.42277173611E+01  0.36820926167E+02  0.00000000000E+00 0.  1.
         11    1    4    4    0    0 -0.10779221245E+01  0.12985888877E+02 -0.73894643364E+01  0.14979966939E+02  0.51100000000E-03 0. -1.
        -11    1    4    4    0    0 -0.49170328698E+01 -0.72344819294E+00  0.15342856824E+02  0.16127735282E+02  0.51100000000E-03 0.  1.
        -12    1    4    4    0    0 -0.82920617085E+01  0.21409330333E+02 -0.37256751268E+01  0.23259371613E+02  0.00000000000E+00 0.  1.
</event>
<event>
 8    1  0.1280925E-006  0.9118800E+02  0.7816164E-02  0.1184000E+00
        -11   -1    0    0    0    0  0.00000000000E+00  0.00000000000E+00  0.45593999997E+02  0.45594000000E+02  0.51100000000E-03 0. -1.
         11   -1    0    0    0    0 -0.00000000000E+00 -0.00000000000E+00 -0.45593999997E+02  0.45594000000E+02  0.51100000000E-03 0.  1.
         23    2    1    2    0    0 -0.33306690739E-15 -0.35527136788E-14  0.00000000000E+00  0.91188000000E+02  0.91188000000E+02 0.  0.
    9900012    2    3    3    0    0 -0.84686345603E+00  0.23921255510E+02 -0.27979205593E+02  0.54367087620E+02  0.40000007847E+02 0.  0.
         12    1    3    3    0    0  0.84686345603E+00 -0.23921255510E+02  0.27979205593E+02  0.36820912380E+02  0.00000000000E+00 0. -1.
         11    1    4    4    0    0 -0.12530478507E+01 -0.24974417858E+01 -0.30097194248E+01  0.41067938427E+01  0.51100000000E-03 0. -1.
        -11    1    4    4    0    0 -0.84424899781E+01 -0.41561594369E+01  0.60462952996E+00  0.94294684593E+01  0.51100000000E-03 0.  1.
         12    1    4    4    0    0  0.88486743728E+01  0.30574856733E+02 -0.25574115698E+02  0.40830825318E+02  0.00000000000E+00 0. -1.
</event>
<event>
 8    1  0.1280925E-006  0.9118800E+02  0.7816164E-02  0.1184000E+00
        -11   -1    0    0    0    0  0.00000000000E+00  0.00000000000E+00  0.45593999997E+02  0.45594000000E+02  0.51100000000E-03 0.  1.
         11   -1    0    0    0    0 -0.00000000000E+00 -0.00000000000E+00 -0.45593999997E+02  0.45594000000E+02  0.51100000000E-03 0. -1.
         23    2    1    2    0    0  0.00000000000E+00  0.00000000000E+00  0.00000000000E+00  0.91188000000E+02  0.91188000000E+02 0.  0.
    9900012    2    3    3    0    0  0.28166601254E+02  0.93511658359E+01 -0.21793983540E+02  0.54367089538E+02  0.40000012220E+02 0.  0.
        -12    1    3    3    0    0 -0.28166601254E+02 -0.93511658359E+01  0.21793983540E+02  0.36820910462E+02  0.00000000000E+00 0.  1.
         11    1    4    4    0    0  0.19574436959E+02  0.16339165419E+02 -0.11999700904E+02  0.28180130072E+02  0.51100000000E-03 0. -1.
        -11    1    4    4    0    0  0.27079734382E+01  0.25349814174E+01  0.58640357477E+01  0.69387438662E+01  0.51100000000E-03 0.  1.
         12    1    4    4    0    0  0.58841908567E+01 -0.95229810002E+01 -0.15658318384E+02  0.19248215600E+02  0.00000000000E+00 0. -1.
</event>
<event>
 8    1  0.1280925E-006  0.9118800E+02  0.7816164E-02  0.1184000E+00
        -11   -1    0    0    0    0  0.00000000000E+00  0.00000000000E+00  0.45593999997E+02  0.45594000000E+02  0.51100000000E-03 0.  1.
         11   -1    0    0    0    0 -0.00000000000E+00 -0.00000000000E+00 -0.45593999997E+02  0.45594000000E+02  0.51100000000E-03 0. -1.
         23    2    1    2    0    0  0.00000000000E+00  0.00000000000E+00  0.00000000000E+00  0.91188000000E+02  0.91188000000E+02 0.  0.
    9900012    2    3    3    0    0  0.23424313994E+02 -0.47016247859E+01  0.28017454712E+02  0.54367061252E+02  0.39999947737E+02 0.  0.
         12    1    3    3    0    0 -0.23424313994E+02  0.47016247859E+01 -0.28017454712E+02  0.36820938748E+02  0.00000000000E+00 0. -1.
         11    1    4    4    0    0  0.26383068120E+01  0.61062558584E+01  0.32543849703E+01  0.74052714493E+01  0.51100000000E-03 0. -1.
        -11    1    4    4    0    0  0.16515785008E+02  0.49826663670E+01 -0.39153807404E-01  0.17251076831E+02  0.51100000000E-03 0.  1.
         12    1    4    4    0    0  0.42702221739E+01 -0.15790547011E+02  0.24802223549E+02  0.29710712972E+02  0.00000000000E+00 0. -1.
</event>
<event>
 8    1  0.1280925E-006  0.9118800E+02  0.7816164E-02  0.1184000E+00
        -11   -1    0    0    0    0  0.00000000000E+00  0.00000000000E+00  0.45593999997E+02  0.45594000000E+02  0.51100000000E-03 0.  1.
         11   -1    0    0    0    0 -0.00000000000E+00 -0.00000000000E+00 -0.45593999997E+02  0.45594000000E+02  0.51100000000E-03 0. -1.
         23    2    1    2    0    0  0.00000000000E+00  0.17763568394E-14  0.00000000000E+00  0.91188000000E+02  0.91188000000E+02 0.  0.
    9900012    2    3    3    0    0 -0.35301996431E+02 -0.96926306021E+01  0.39498744350E+01  0.54367088169E+02  0.40000009099E+02 0.  0.
         12    1    3    3    0    0  0.35301996431E+02  0.96926306021E+01 -0.39498744350E+01  0.36820911831E+02  0.00000000000E+00 0. -1.
         11    1    4    4    0    0 -0.17894563291E+02 -0.18197391039E+02 -0.46220135721E+01  0.25936912803E+02  0.51100000000E-03 0. -1.
        -11    1    4    4    0    0 -0.14523296703E+02 -0.25600175404E+01  0.11367665875E+01  0.14790945726E+02  0.51100000000E-03 0.  1.
        -12    1    4    4    0    0 -0.28841364368E+01  0.11064777977E+02  0.74351214196E+01  0.13639229641E+02  0.00000000000E+00 0.  1.
</event>
<event>
 8    1  0.1280925E-006  0.9118800E+02  0.7816164E-02  0.1184000E+00
        -11   -1    0    0    0    0  0.00000000000E+00  0.00000000000E+00  0.45593999997E+02  0.45594000000E+02  0.51100000000E-03 0.  1.
         11   -1    0    0    0    0 -0.00000000000E+00 -0.00000000000E+00 -0.45593999997E+02  0.45594000000E+02  0.51100000000E-03 0. -1.
         23    2    1    2    0    0  0.00000000000E+00 -0.35527136788E-14  0.00000000000E+00  0.91188000000E+02  0.91188000000E+02 0.  0.
    9900012    2    3    3    0    0  0.31212612401E+02 -0.19248077441E+02 -0.33263120767E+01  0.54367081895E+02  0.39999994796E+02 0.  0.
        -12    1    3    3    0    0 -0.31212612401E+02  0.19248077441E+02  0.33263120767E+01  0.36820918105E+02  0.00000000000E+00 0.  1.
         11    1    4    4    0    0  0.11274272451E+02 -0.85964103943E+01 -0.10415687504E+02  0.17592442622E+02  0.51100000000E-03 0. -1.
        -11    1    4    4    0    0  0.35951312236E+01 -0.12603174478E+02 -0.72215623816E+01  0.14963821001E+02  0.51100000000E-03 0.  1.
        -12    1    4    4    0    0  0.16343208726E+02  0.19515074315E+01  0.14310937809E+02  0.21810818272E+02  0.00000000000E+00 0.  1.
</event>
<event>
 8    1  0.1280925E-006  0.9118800E+02  0.7816164E-02  0.1184000E+00
        -11   -1    0    0    0    0  0.00000000000E+00  0.00000000000E+00  0.45593999997E+02  0.45594000000E+02  0.51100000000E-03 0.  1.
         11   -1    0    0    0    0 -0.00000000000E+00 -0.00000000000E+00 -0.45593999997E+02  0.45594000000E+02  0.51100000000E-03 0. -1.
         23    2    1    2    0    0 -0.35527136788E-14  0.35527136788E-14  0.00000000000E+00  0.91188000000E+02  0.91188000000E+02 0.  0.
    9900012    2    3    3    0    0  0.17527768085E+02 -0.26279242435E+02  0.18919801441E+02  0.54367080354E+02  0.39999991283E+02 0.  0.
         12    1    3    3    0    0 -0.17527768085E+02  0.26279242435E+02 -0.18919801441E+02  0.36820919646E+02  0.00000000000E+00 0. -1.
         11    1    4    4    0    0 -0.91021321081E+01  0.36650673421E+01  0.61655786423E+01  0.11588610261E+02  0.51100000000E-03 0. -1.
        -11    1    4    4    0    0  0.41102957258E+01 -0.91969581150E+01  0.16539807887E+01  0.10208536733E+02  0.51100000000E-03 0.  1.
         12    1    4    4    0    0  0.22519604467E+02 -0.20747351662E+02  0.11100242010E+02  0.32569933359E+02  0.00000000000E+00 0. -1.
</event>
<event>
 8    1  0.1280925E-006  0.9118800E+02  0.7816164E-02  0.1184000E+00
        -11   -1    0    0    0    0  0.00000000000E+00  0.00000000000E+00  0.45593999997E+02  0.45594000000E+02  0.51100000000E-03 0. -1.
         11   -1    0    0    0    0 -0.00000000000E+00 -0.00000000000E+00 -0.45593999997E+02  0.45594000000E+02  0.51100000000E-03 0.  1.
         23    2    1    2    0    0  0.00000000000E+00  0.35527136788E-14  0.00000000000E+00  0.91188000000E+02  0.91188000000E+02 0.  0.
    9900012    2    3    3    0    0  0.11284373895E+02  0.23397543900E+02  0.26096112013E+02  0.54366956873E+02  0.39999709783E+02 0.  0.
        -12    1    3    3    0    0 -0.11284373895E+02 -0.23397543900E+02 -0.26096112013E+02  0.36821043127E+02  0.00000000000E+00 0.  1.
         11    1    4    4    0    0  0.70907776508E+01 -0.37913515208E+01  0.12576222305E+02  0.14926983679E+02  0.51100000000E-03 0. -1.
        -11    1    4    4    0    0  0.79645600059E+01 -0.10303206201E+01  0.59078011205E+01  0.99698490965E+01  0.51100000000E-03 0.  1.
        -12    1    4    4    0    0 -0.37709637617E+01  0.28219216040E+02  0.76120885883E+01  0.29470124097E+02  0.00000000000E+00 0.  1.
</event>
<event>
 8    1  0.1280925E-006  0.9118800E+02  0.7816164E-02  0.1184000E+00
        -11   -1    0    0    0    0  0.00000000000E+00  0.00000000000E+00  0.45593999997E+02  0.45594000000E+02  0.51100000000E-03 0. -1.
         11   -1    0    0    0    0 -0.00000000000E+00 -0.00000000000E+00 -0.45593999997E+02  0.45594000000E+02  0.51100000000E-03 0.  1.
         23    2    1    2    0    0  0.00000000000E+00  0.17763568394E-14 -0.17763568394E-14  0.91188000000E+02  0.91188000000E+02 0.  0.
    9900012    2    3    3    0    0 -0.32482406430E+02 -0.86935994252E+01  0.15003203921E+02  0.54367061305E+02  0.39999947857E+02 0.  0.
        -12    1    3    3    0    0  0.32482406430E+02  0.86935994252E+01 -0.15003203921E+02  0.36820938695E+02  0.00000000000E+00 0.  1.
         11    1    4    4    0    0 -0.36213403077E+01  0.70971941713E+01  0.13402350165E+02  0.15591897285E+02  0.51100000000E-03 0. -1.
        -11    1    4    4    0    0 -0.11765094491E+02 -0.15683512987E+02  0.70446409985E+01  0.20833074546E+02  0.51100000000E-03 0.  1.
        -12    1    4    4    0    0 -0.17095971632E+02 -0.10728060975E+00 -0.54437872427E+01  0.17942089475E+02  0.00000000000E+00 0.  1.
</event>
<event>
 8    1  0.1280925E-006  0.9118800E+02  0.7816164E-02  0.1184000E+00
        -11   -1    0    0    0    0  0.00000000000E+00  0.00000000000E+00  0.45593999997E+02  0.45594000000E+02  0.51100000000E-03 0.  1.
         11   -1    0    0    0    0 -0.00000000000E+00 -0.00000000000E+00 -0.45593999997E+02  0.45594000000E+02  0.51100000000E-03 0. -1.
         23    2    1    2    0    0  0.00000000000E+00 -0.35527136788E-14  0.17763568394E-14  0.91188000000E+02  0.91188000000E+02 0.  0.
    9900012    2    3    3    0    0 -0.29416620118E+02  0.17408735470E+02 -0.13688607425E+02  0.54367087693E+02  0.40000008015E+02 0.  0.
        -12    1    3    3    0    0  0.29416620118E+02 -0.17408735470E+02  0.13688607425E+02  0.36820912307E+02  0.00000000000E+00 0.  1.
         11    1    4    4    0    0 -0.19260932124E+02  0.70871191655E+01 -0.81278352415E+01  0.22074249032E+02  0.51100000000E-03 0. -1.
        -11    1    4    4    0    0 -0.86716514262E+01 -0.42804515616E+01  0.78160815331E+01  0.12434264547E+02  0.51100000000E-03 0.  1.
        -12    1    4    4    0    0 -0.14840365681E+01  0.14602067866E+02 -0.13376853717E+02  0.19858574115E+02  0.00000000000E+00 0.  1.
</event>
<event>
 8    1  0.1280925E-006  0.9118800E+02  0.7816164E-02  0.1184000E+00
        -11   -1    0    0    0    0  0.00000000000E+00  0.00000000000E+00  0.45593999997E+02  0.45594000000E+02  0.51100000000E-03 0.  1.
         11   -1    0    0    0    0 -0.00000000000E+00 -0.00000000000E+00 -0.45593999997E+02  0.45594000000E+02  0.51100000000E-03 0. -1.
         23    2    1    2    0    0  0.35527136788E-14  0.55511151231E-15  0.71054273576E-14  0.91188000000E+02  0.91188000000E+02 0.  0.
    9900012    2    3    3    0    0 -0.23224767116E+02 -0.78199491006E+00 -0.28561840306E+02  0.54367081417E+02  0.39999993706E+02 0.  0.
        -12    1    3    3    0    0  0.23224767116E+02  0.78199491006E+00  0.28561840306E+02  0.36820918583E+02  0.00000000000E+00 0.  1.
         11    1    4    4    0    0 -0.26418728945E+02 -0.14912444758E+02 -0.22829869719E+02  0.37967528223E+02  0.51100000000E-03 0. -1.
        -11    1    4    4    0    0 -0.12165395117E+01  0.14291989160E+01 -0.31019629317E+00  0.19023143606E+01  0.51100000000E-03 0.  1.
        -12    1    4    4    0    0  0.44105013407E+01  0.12701250932E+02 -0.54217742937E+01  0.14497238833E+02  0.00000000000E+00 0.  1.
</event>
<event>
 8    1  0.1280925E-006  0.9118800E+02  0.7816164E-02  0.1184000E+00
        -11   -1    0    0    0    0  0.00000000000E+00  0.00000000000E+00  0.45593999997E+02  0.45594000000E+02  0.51100000000E-03 0.  1.
         11   -1    0    0    0    0 -0.00000000000E+00 -0.00000000000E+00 -0.45593999997E+02  0.45594000000E+02  0.51100000000E-03 0. -1.
         23    2    1    2    0    0  0.44408920985E-15  0.00000000000E+00  0.17763568394E-14  0.91188000000E+02  0.91188000000E+02 0.  0.
    9900012    2    3    3    0    0 -0.20449860804E+01  0.34863886354E+02  0.11666482582E+02  0.54367090782E+02  0.40000015056E+02 0.  0.
         12    1    3    3    0    0  0.20449860804E+01 -0.34863886354E+02 -0.11666482582E+02  0.36820909218E+02  0.00000000000E+00 0. -1.
         11    1    4    4    0    0 -0.31333465893E+01 -0.30462725929E+01  0.29422774149E+01  0.52682667174E+01  0.51100000000E-03 0. -1.
        -11    1    4    4    0    0  0.77747176428E+01  0.22460347943E+02 -0.82819258050E+01  0.25169500580E+02  0.51100000000E-03 0.  1.
        -12    1    4    4    0    0 -0.66863571339E+01  0.15449811004E+02  0.17006130972E+02  0.23929323484E+02  0.00000000000E+00 0.  1.
</event>
<event>
 8    1  0.1280925E-006  0.9118800E+02  0.7816164E-02  0.1184000E+00
        -11   -1    0    0    0    0  0.00000000000E+00  0.00000000000E+00  0.45593999997E+02  0.45594000000E+02  0.51100000000E-03 0.  1.
         11   -1    0    0    0    0 -0.00000000000E+00 -0.00000000000E+00 -0.45593999997E+02  0.45594000000E+02  0.51100000000E-03 0. -1.
         23    2    1    2    0    0  0.00000000000E+00 -0.17763568394E-14  0.00000000000E+00  0.91188000000E+02  0.91188000000E+02 0.  0.
    9900012    2    3    3    0    0  0.24714314006E+02 -0.15065119905E+02  0.22760157161E+02  0.54367083274E+02  0.39999997940E+02 0.  0.
         12    1    3    3    0    0 -0.24714314006E+02  0.15065119905E+02 -0.22760157161E+02  0.36820916726E+02  0.00000000000E+00 0. -1.
         11    1    4    4    0    0  0.12228519181E+02 -0.16055332064E+02 -0.52247693691E+01  0.20847268029E+02  0.51100000000E-03 0. -1.
        -11    1    4    4    0    0  0.85765132725E+01  0.70719990714E+01  0.18664300895E+02  0.21723855066E+02  0.51100000000E-03 0.  1.
         12    1    4    4    0    0  0.39092815521E+01 -0.60817869123E+01  0.93206256349E+01  0.11795960178E+02  0.00000000000E+00 0. -1.
</event>
<event>
 8    1  0.1280925E-006  0.9118800E+02  0.7816164E-02  0.1184000E+00
        -11   -1    0    0    0    0  0.00000000000E+00  0.00000000000E+00  0.45593999997E+02  0.45594000000E+02  0.51100000000E-03 0.  1.
         11   -1    0    0    0    0 -0.00000000000E+00 -0.00000000000E+00 -0.45593999997E+02  0.45594000000E+02  0.51100000000E-03 0. -1.
         23    2    1    2    0    0  0.17763568394E-14 -0.35527136788E-14 -0.71054273576E-14  0.91188000000E+02  0.91188000000E+02 0.  0.
    9900012    2    3    3    0    0 -0.87824602016E+01  0.17105662896E+02  0.31401363961E+02  0.54367068875E+02  0.39999965114E+02 0.  0.
         12    1    3    3    0    0  0.87824602016E+01 -0.17105662896E+02 -0.31401363961E+02  0.36820931125E+02  0.00000000000E+00 0. -1.
         11    1    4    4    0    0  0.49531241303E+01 -0.12961002146E+00  0.59260697495E+01  0.77245414326E+01  0.51100000000E-03 0.  1.
        -11    1    4    4    0    0  0.24262483848E+01  0.36116614850E+01  0.25127943226E+02  0.25501849167E+02  0.51100000000E-03 0. -1.
         12    1    4    4    0    0 -0.16161832717E+02  0.13623611433E+02  0.34735098515E+00  0.21140678275E+02  0.00000000000E+00 0. -1.
</event>
<event>
 8    1  0.1280925E-006  0.9118800E+02  0.7816164E-02  0.1184000E+00
        -11   -1    0    0    0    0  0.00000000000E+00  0.00000000000E+00  0.45593999997E+02  0.45594000000E+02  0.51100000000E-03 0.  1.
         11   -1    0    0    0    0 -0.00000000000E+00 -0.00000000000E+00 -0.45593999997E+02  0.45594000000E+02  0.51100000000E-03 0. -1.
         23    2    1    2    0    0  0.44408920985E-15  0.00000000000E+00  0.77715611724E-15  0.91188000000E+02  0.91188000000E+02 0.  0.
    9900012    2    3    3    0    0  0.32779556088E+01  0.36672133240E+02 -0.43596982495E+00  0.54367076342E+02  0.39999982137E+02 0.  0.
         12    1    3    3    0    0 -0.32779556088E+01 -0.36672133240E+02  0.43596982495E+00  0.36820923658E+02  0.00000000000E+00 0. -1.
         11    1    4    4    0    0 -0.77019024759E+01  0.11347753287E+02 -0.14955971862E+02  0.20292163537E+02  0.51100000000E-03 0. -1.
        -11    1    4    4    0    0 -0.26226625183E+01  0.70366831970E+01  0.64413863822E+01  0.98936711026E+01  0.51100000000E-03 0.  1.
        -12    1    4    4    0    0  0.13602520603E+02  0.18287696756E+02  0.80786156548E+01  0.24181241703E+02  0.00000000000E+00 0.  1.
</event>
<event>
 8    1  0.1280925E-006  0.9118800E+02  0.7816164E-02  0.1184000E+00
        -11   -1    0    0    0    0  0.00000000000E+00  0.00000000000E+00  0.45593999997E+02  0.45594000000E+02  0.51100000000E-03 0.  1.
         11   -1    0    0    0    0 -0.00000000000E+00 -0.00000000000E+00 -0.45593999997E+02  0.45594000000E+02  0.51100000000E-03 0. -1.
         23    2    1    2    0    0 -0.10658141036E-13  0.00000000000E+00  0.00000000000E+00  0.91188000000E+02  0.91188000000E+02 0.  0.
    9900012    2    3    3    0    0  0.16365507121E+02  0.30899352749E+02 -0.11540386394E+02  0.54367077391E+02  0.39999984528E+02 0.  0.
        -12    1    3    3    0    0 -0.16365507121E+02 -0.30899352749E+02  0.11540386394E+02  0.36820922609E+02  0.00000000000E+00 0.  1.
         11    1    4    4    0    0  0.19369905268E+02  0.11269103670E+02  0.34771583044E+01  0.22677666497E+02  0.51100000000E-03 0. -1.
        -11    1    4    4    0    0 -0.97412790714E+01  0.39952810685E+01 -0.82215640181E+01  0.13358476857E+02  0.51100000000E-03 0.  1.
        -12    1    4    4    0    0  0.67368809254E+01  0.15634968011E+02 -0.67959806798E+01  0.18330934038E+02  0.00000000000E+00 0.  1.
</event>
<event>
 8    1  0.1280925E-006  0.9118800E+02  0.7816164E-02  0.1184000E+00
        -11   -1    0    0    0    0  0.00000000000E+00  0.00000000000E+00  0.45593999997E+02  0.45594000000E+02  0.51100000000E-03 0. -1.
         11   -1    0    0    0    0 -0.00000000000E+00 -0.00000000000E+00 -0.45593999997E+02  0.45594000000E+02  0.51100000000E-03 0.  1.
         23    2    1    2    0    0 -0.44408920985E-15  0.00000000000E+00  0.71054273576E-14  0.91188000000E+02  0.91188000000E+02 0.  0.
    9900012    2    3    3    0    0 -0.26425723653E+01  0.25755458199E+01  0.36635521508E+02  0.54367108361E+02  0.40000055130E+02 0.  0.
        -12    1    3    3    0    0  0.26425723653E+01 -0.25755458199E+01 -0.36635521508E+02  0.36820891639E+02  0.00000000000E+00 0.  1.
         11    1    4    4    0    0  0.23629417766E+01  0.95423322457E+00  0.21353285884E+02  0.21504810466E+02  0.51100000000E-03 0. -1.
        -11    1    4    4    0    0  0.10865410266E+02  0.55631993489E+01  0.96701330632E+01  0.15572983047E+02  0.51100000000E-03 0.  1.
        -12    1    4    4    0    0 -0.15870924408E+02 -0.39418867535E+01  0.56121025607E+01  0.17289314848E+02  0.00000000000E+00 0.  1.
</event>
<event>
 8    1  0.1280925E-006  0.9118800E+02  0.7816164E-02  0.1184000E+00
        -11   -1    0    0    0    0  0.00000000000E+00  0.00000000000E+00  0.45593999997E+02  0.45594000000E+02  0.51100000000E-03 0.  1.
         11   -1    0    0    0    0 -0.00000000000E+00 -0.00000000000E+00 -0.45593999997E+02  0.45594000000E+02  0.51100000000E-03 0. -1.
         23    2    1    2    0    0  0.88817841970E-15  0.00000000000E+00  0.35527136788E-14  0.91188000000E+02  0.91188000000E+02 0.  0.
    9900012    2    3    3    0    0  0.37583357787E+01  0.26103136822E+02  0.25695931469E+02  0.54367085646E+02  0.40000003347E+02 0.  0.
         12    1    3    3    0    0 -0.37583357787E+01 -0.26103136822E+02 -0.25695931469E+02  0.36820914354E+02  0.00000000000E+00 0. -1.
         11    1    4    4    0    0  0.79773300668E+01 -0.45106725832E+01 -0.39842063195E+01  0.99928905930E+01  0.51100000000E-03 0. -1.
        -11    1    4    4    0    0  0.23563055098E+01  0.14659891841E+02  0.18872621527E+02  0.24013338960E+02  0.51100000000E-03 0.  1.
         12    1    4    4    0    0 -0.65752997978E+01  0.15953917564E+02  0.10807516261E+02  0.20360856093E+02  0.00000000000E+00 0. -1.
</event>
<event>
 8    1  0.1280925E-006  0.9118800E+02  0.7816164E-02  0.1184000E+00
        -11   -1    0    0    0    0  0.00000000000E+00  0.00000000000E+00  0.45593999997E+02  0.45594000000E+02  0.51100000000E-03 0. -1.
         11   -1    0    0    0    0 -0.00000000000E+00 -0.00000000000E+00 -0.45593999997E+02  0.45594000000E+02  0.51100000000E-03 0.  1.
         23    2    1    2    0    0  0.00000000000E+00  0.00000000000E+00  0.00000000000E+00  0.91188000000E+02  0.91188000000E+02 0.  0.
    9900012    2    3    3    0    0 -0.16690107398E+02  0.91361050929E+01 -0.31523775905E+02  0.54367128901E+02  0.40000101955E+02 0.  0.
         12    1    3    3    0    0  0.16690107398E+02 -0.91361050929E+01  0.31523775905E+02  0.36820871099E+02  0.00000000000E+00 0. -1.
         11    1    4    4    0    0 -0.18974546051E+01  0.10688985588E+02  0.39372958170E+01  0.11548032104E+02  0.51100000000E-03 0. -1.
        -11    1    4    4    0    0 -0.14857593580E+01 -0.16077055336E+01  0.20613777420E+01  0.30069047888E+01  0.51100000000E-03 0.  1.
        -12    1    4    4    0    0 -0.13306893435E+02  0.54825038884E-01 -0.37522449464E+02  0.39812192007E+02  0.00000000000E+00 0.  1.
</event>
<event>
 8    1  0.1280925E-006  0.9118800E+02  0.7816164E-02  0.1184000E+00
        -11   -1    0    0    0    0  0.00000000000E+00  0.00000000000E+00  0.45593999997E+02  0.45594000000E+02  0.51100000000E-03 0. -1.
         11   -1    0    0    0    0 -0.00000000000E+00 -0.00000000000E+00 -0.45593999997E+02  0.45594000000E+02  0.51100000000E-03 0.  1.
         23    2    1    2    0    0  0.00000000000E+00  0.00000000000E+00  0.00000000000E+00  0.91188000000E+02  0.91188000000E+02 0.  0.
    9900012    2    3    3    0    0 -0.24595069683E+02  0.63535003607E+01  0.26655069012E+02  0.54367121092E+02  0.40000084152E+02 0.  0.
        -12    1    3    3    0    0  0.24595069683E+02 -0.63535003607E+01 -0.26655069012E+02  0.36820878908E+02  0.00000000000E+00 0.  1.
         11    1    4    4    0    0 -0.39707338975E+01  0.16055026388E+02  0.26579550651E+02  0.31305001407E+02  0.51100000000E-03 0. -1.
        -11    1    4    4    0    0 -0.15596435180E+02 -0.81023149102E+01 -0.12570322930E+01  0.17620341304E+02  0.51100000000E-03 0.  1.
         12    1    4    4    0    0 -0.50279006058E+01 -0.15992111174E+01  0.13325506543E+01  0.54417783808E+01  0.00000000000E+00 0. -1.
</event>
<event>
 8    1  0.1280925E-006  0.9118800E+02  0.7816164E-02  0.1184000E+00
        -11   -1    0    0    0    0  0.00000000000E+00  0.00000000000E+00  0.45593999997E+02  0.45594000000E+02  0.51100000000E-03 0.  1.
         11   -1    0    0    0    0 -0.00000000000E+00 -0.00000000000E+00 -0.45593999997E+02  0.45594000000E+02  0.51100000000E-03 0. -1.
         23    2    1    2    0    0  0.00000000000E+00  0.17763568394E-14  0.00000000000E+00  0.91188000000E+02  0.91188000000E+02 0.  0.
    9900012    2    3    3    0    0  0.35531572341E+01  0.15067552126E+02 -0.33408432783E+02  0.54367089712E+02  0.40000012617E+02 0.  0.
        -12    1    3    3    0    0 -0.35531572341E+01 -0.15067552126E+02  0.33408432783E+02  0.36820910288E+02  0.00000000000E+00 0.  1.
         11    1    4    4    0    0  0.47550080992E+01  0.13824352446E+02 -0.13341947583E+02  0.19792179974E+02  0.51100000000E-03 0.  1.
        -11    1    4    4    0    0  0.91061394050E+01 -0.74841698656E+01 -0.19023218886E+01  0.11939572952E+02  0.51100000000E-03 0. -1.
        -12    1    4    4    0    0 -0.10307990270E+02  0.87273695458E+01 -0.18164163312E+02  0.22635336786E+02  0.00000000000E+00 0.  1.
</event>
<event>
 8    1  0.1280925E-006  0.9118800E+02  0.7816164E-02  0.1184000E+00
        -11   -1    0    0    0    0  0.00000000000E+00  0.00000000000E+00  0.45593999997E+02  0.45594000000E+02  0.51100000000E-03 0.  1.
         11   -1    0    0    0    0 -0.00000000000E+00 -0.00000000000E+00 -0.45593999997E+02  0.45594000000E+02  0.51100000000E-03 0. -1.
         23    2    1    2    0    0  0.00000000000E+00  0.00000000000E+00  0.00000000000E+00  0.91188000000E+02  0.91188000000E+02 0.  0.
    9900012    2    3    3    0    0 -0.88715705151E+00 -0.18745415283E+02 -0.31679677147E+02  0.54367087655E+02  0.40000007928E+02 0.  0.
        -12    1    3    3    0    0  0.88715705151E+00  0.18745415283E+02  0.31679677147E+02  0.36820912345E+02  0.00000000000E+00 0.  1.
         11    1    4    4    0    0 -0.11454592285E+01 -0.27296094413E+01 -0.14696271764E+02  0.14991439176E+02  0.51100000000E-03 0. -1.
        -11    1    4    4    0    0  0.26495475997E+01 -0.13153946543E+02 -0.26198336228E+02  0.29434660411E+02  0.51100000000E-03 0.  1.
        -12    1    4    4    0    0 -0.23912454227E+01 -0.28618592981E+01  0.92149308443E+01  0.99409880686E+01  0.00000000000E+00 0.  1.
</event>
<event>
 8    1  0.1280925E-006  0.9118800E+02  0.7816164E-02  0.1184000E+00
        -11   -1    0    0    0    0  0.00000000000E+00  0.00000000000E+00  0.45593999997E+02  0.45594000000E+02  0.51100000000E-03 0.  1.
         11   -1    0    0    0    0 -0.00000000000E+00 -0.00000000000E+00 -0.45593999997E+02  0.45594000000E+02  0.51100000000E-03 0. -1.
         23    2    1    2    0    0  0.00000000000E+00  0.00000000000E+00  0.71054273576E-14  0.91188000000E+02  0.91188000000E+02 0.  0.
    9900012    2    3    3    0    0  0.52098354528E+01 -0.19647602895E+02  0.30701916807E+02  0.54367104023E+02  0.40000045241E+02 0.  0.
         12    1    3    3    0    0 -0.52098354528E+01  0.19647602895E+02 -0.30701916807E+02  0.36820895977E+02  0.00000000000E+00 0. -1.
         11    1    4    4    0    0  0.10916098099E+02 -0.60751392599E+01  0.46803749690E+01  0.13340705561E+02  0.51100000000E-03 0. -1.
        -11    1    4    4    0    0 -0.45727122640E+01 -0.28795240169E+01 -0.55065065589E+01  0.77151131396E+01  0.51100000000E-03 0.  1.
        -12    1    4    4    0    0 -0.11335503826E+01 -0.10692939618E+02  0.31528048396E+02  0.33311285323E+02  0.00000000000E+00 0.  1.
</event>
<event>
 8    1  0.1280925E-006  0.9118800E+02  0.7816164E-02  0.1184000E+00
        -11   -1    0    0    0    0  0.00000000000E+00  0.00000000000E+00  0.45593999997E+02  0.45594000000E+02  0.51100000000E-03 0.  1.
         11   -1    0    0    0    0 -0.00000000000E+00 -0.00000000000E+00 -0.45593999997E+02  0.45594000000E+02  0.51100000000E-03 0. -1.
         23    2    1    2    0    0  0.00000000000E+00  0.17763568394E-14 -0.71054273576E-14  0.91188000000E+02  0.91188000000E+02 0.  0.
    9900012    2    3    3    0    0  0.89745732803E+01  0.14266271925E+02  0.32736980595E+02  0.54367090470E+02  0.40000014343E+02 0.  0.
         12    1    3    3    0    0 -0.89745732803E+01 -0.14266271925E+02 -0.32736980595E+02  0.36820909530E+02  0.00000000000E+00 0. -1.
         11    1    4    4    0    0 -0.46979356098E+01  0.22880807774E+02  0.14904821402E+02  0.27708404225E+02  0.51100000000E-03 0. -1.
        -11    1    4    4    0    0  0.38881160810E+01 -0.77805185354E+01  0.37057086828E+01  0.94544271345E+01  0.51100000000E-03 0.  1.
        -12    1    4    4    0    0  0.97843928091E+01 -0.83401731418E+00  0.14126450510E+02  0.17204259111E+02  0.00000000000E+00 0.  1.
</event>
<event>
 8    1  0.1280925E-006  0.9118800E+02  0.7816164E-02  0.1184000E+00
        -11   -1    0    0    0    0  0.00000000000E+00  0.00000000000E+00  0.45593999997E+02  0.45594000000E+02  0.51100000000E-03 0.  1.
         11   -1    0    0    0    0 -0.00000000000E+00 -0.00000000000E+00 -0.45593999997E+02  0.45594000000E+02  0.51100000000E-03 0. -1.
         23    2    1    2    0    0  0.00000000000E+00  0.35527136788E-14  0.35527136788E-14  0.91188000000E+02  0.91188000000E+02 0.  0.
    9900012    2    3    3    0    0 -0.23601427877E+02  0.22351089245E+02  0.17296820588E+02  0.54367101169E+02  0.40000038735E+02 0.  0.
         12    1    3    3    0    0  0.23601427877E+02 -0.22351089245E+02 -0.17296820588E+02  0.36820898831E+02  0.00000000000E+00 0. -1.
         11    1    4    4    0    0 -0.90673882104E+01  0.12652587296E+02  0.29316722518E+01  0.15839829440E+02  0.51100000000E-03 0.  1.
        -11    1    4    4    0    0 -0.11633005978E+02 -0.74660101484E+01  0.15880256262E+02  0.21053519298E+02  0.51100000000E-03 0. -1.
         12    1    4    4    0    0 -0.29010336887E+01  0.17164512097E+02 -0.15151079260E+01  0.17473752431E+02  0.00000000000E+00 0. -1.
</event>
<event>
 8    1  0.1280925E-006  0.9118800E+02  0.7816164E-02  0.1184000E+00
        -11   -1    0    0    0    0  0.00000000000E+00  0.00000000000E+00  0.45593999997E+02  0.45594000000E+02  0.51100000000E-03 0.  1.
         11   -1    0    0    0    0 -0.00000000000E+00 -0.00000000000E+00 -0.45593999997E+02  0.45594000000E+02  0.51100000000E-03 0. -1.
         23    2    1    2    0    0  0.00000000000E+00  0.00000000000E+00  0.00000000000E+00  0.91188000000E+02  0.91188000000E+02 0.  0.
    9900012    2    3    3    0    0 -0.27778195198E+02 -0.72435199378E+01  0.23058230344E+02  0.54367099738E+02  0.40000035472E+02 0.  0.
         12    1    3    3    0    0  0.27778195198E+02  0.72435199378E+01 -0.23058230344E+02  0.36820900262E+02  0.00000000000E+00 0. -1.
         11    1    4    4    0    0 -0.36231601039E+01 -0.13634959555E+02  0.87227314988E+01  0.16586906170E+02  0.51100000000E-03 0. -1.
        -11    1    4    4    0    0 -0.17304403428E+02 -0.73876195885E+01  0.11732048989E+02  0.22173413696E+02  0.51100000000E-03 0.  1.
         12    1    4    4    0    0 -0.68506316657E+01  0.13779059206E+02  0.26034498562E+01  0.15606779872E+02  0.00000000000E+00 0. -1.
</event>
<event>
 8    1  0.1280925E-006  0.9118800E+02  0.7816164E-02  0.1184000E+00
        -11   -1    0    0    0    0  0.00000000000E+00  0.00000000000E+00  0.45593999997E+02  0.45594000000E+02  0.51100000000E-03 0. -1.
         11   -1    0    0    0    0 -0.00000000000E+00 -0.00000000000E+00 -0.45593999997E+02  0.45594000000E+02  0.51100000000E-03 0.  1.
         23    2    1    2    0    0  0.88817841970E-15  0.35527136788E-14  0.35527136788E-14  0.91188000000E+02  0.91188000000E+02 0.  0.
    9900012    2    3    3    0    0  0.73217151889E+01 -0.25651241538E+02 -0.25380824727E+02  0.54367082445E+02  0.39999996051E+02 0.  0.
         12    1    3    3    0    0 -0.73217151889E+01  0.25651241538E+02  0.25380824727E+02  0.36820917555E+02  0.00000000000E+00 0. -1.
         11    1    4    4    0    0  0.61120539623E+01 -0.22543549352E+02 -0.97699379255E+01  0.25318382814E+02  0.51100000000E-03 0. -1.
        -11    1    4    4    0    0 -0.19103368976E+01 -0.95223209638E+01  0.21165090044E+01  0.99399997096E+01  0.51100000000E-03 0.  1.
        -12    1    4    4    0    0  0.31199981242E+01  0.64146287770E+01 -0.17727395806E+02  0.19108699921E+02  0.00000000000E+00 0.  1.
</event>
<event>
 8    1  0.1280925E-006  0.9118800E+02  0.7816164E-02  0.1184000E+00
        -11   -1    0    0    0    0  0.00000000000E+00  0.00000000000E+00  0.45593999997E+02  0.45594000000E+02  0.51100000000E-03 0.  1.
         11   -1    0    0    0    0 -0.00000000000E+00 -0.00000000000E+00 -0.45593999997E+02  0.45594000000E+02  0.51100000000E-03 0. -1.
         23    2    1    2    0    0  0.00000000000E+00 -0.17763568394E-14  0.00000000000E+00  0.91188000000E+02  0.91188000000E+02 0.  0.
    9900012    2    3    3    0    0  0.91522906049E+01  0.12299863723E+02 -0.33477289292E+02  0.54367082449E+02  0.39999996060E+02 0.  0.
        -12    1    3    3    0    0 -0.91522906049E+01 -0.12299863723E+02  0.33477289292E+02  0.36820917551E+02  0.00000000000E+00 0.  1.
         11    1    4    4    0    0 -0.20753327532E+01 -0.77656304888E+01 -0.29508322328E+02  0.30583543120E+02  0.51100000000E-03 0. -1.
        -11    1    4    4    0    0  0.15791017116E+01  0.13001382486E+01  0.71964853692E+00  0.21683671181E+01  0.51100000000E-03 0.  1.
         12    1    4    4    0    0  0.96485216466E+01  0.18765355963E+02 -0.46886155011E+01  0.21615172211E+02  0.00000000000E+00 0. -1.
</event>
<event>
 8    1  0.1280925E-006  0.9118800E+02  0.7816164E-02  0.1184000E+00
        -11   -1    0    0    0    0  0.00000000000E+00  0.00000000000E+00  0.45593999997E+02  0.45594000000E+02  0.51100000000E-03 0. -1.
         11   -1    0    0    0    0 -0.00000000000E+00 -0.00000000000E+00 -0.45593999997E+02  0.45594000000E+02  0.51100000000E-03 0.  1.
         23    2    1    2    0    0 -0.35527136788E-14  0.00000000000E+00  0.00000000000E+00  0.91188000000E+02  0.91188000000E+02 0.  0.
    9900012    2    3    3    0    0  0.26473457404E+02 -0.17872264153E+02  0.18317119103E+02  0.54367100703E+02  0.40000037672E+02 0.  0.
        -12    1    3    3    0    0 -0.26473457404E+02  0.17872264153E+02 -0.18317119103E+02  0.36820899297E+02  0.00000000000E+00 0.  1.
         11    1    4    4    0    0  0.56815186164E+01 -0.16974246398E+02  0.15359151488E+02  0.23586187256E+02  0.51100000000E-03 0. -1.
        -11    1    4    4    0    0 -0.15735769944E+01 -0.72138436225E+01  0.11232399038E+01  0.74684236964E+01  0.51100000000E-03 0.  1.
         12    1    4    4    0    0  0.22365515782E+02  0.63158258680E+01  0.18347277104E+01  0.23312489750E+02  0.00000000000E+00 0. -1.
</event>
<event>
 8    1  0.1280925E-006  0.9118800E+02  0.7816164E-02  0.1184000E+00
        -11   -1    0    0    0    0  0.00000000000E+00  0.00000000000E+00  0.45593999997E+02  0.45594000000E+02  0.51100000000E-03 0. -1.
         11   -1    0    0    0    0 -0.00000000000E+00 -0.00000000000E+00 -0.45593999997E+02  0.45594000000E+02  0.51100000000E-03 0.  1.
         23    2    1    2    0    0  0.66613381478E-15  0.00000000000E+00  0.88817841970E-15  0.91188000000E+02  0.91188000000E+02 0.  0.
    9900012    2    3    3    0    0  0.17932265241E+01 -0.36104657174E+02  0.70013099040E+01  0.54367078347E+02  0.39999986708E+02 0.  0.
        -12    1    3    3    0    0 -0.17932265241E+01  0.36104657174E+02 -0.70013099040E+01  0.36820921653E+02  0.00000000000E+00 0.  1.
         11    1    4    4    0    0 -0.20342842700E+01 -0.30186832608E+02  0.55387895421E+01  0.30758110560E+02  0.51100000000E-03 0. -1.
        -11    1    4    4    0    0  0.92320204355E+01 -0.20097206997E+01 -0.77607350170E+01  0.12226945116E+02  0.51100000000E-03 0.  1.
         12    1    4    4    0    0 -0.54045096415E+01 -0.39081038661E+01  0.92232553789E+01  0.11382022671E+02  0.00000000000E+00 0. -1.
</event>
<event>
 8    1  0.1280925E-006  0.9118800E+02  0.7816164E-02  0.1184000E+00
        -11   -1    0    0    0    0  0.00000000000E+00  0.00000000000E+00  0.45593999997E+02  0.45594000000E+02  0.51100000000E-03 0. -1.
         11   -1    0    0    0    0 -0.00000000000E+00 -0.00000000000E+00 -0.45593999997E+02  0.45594000000E+02  0.51100000000E-03 0.  1.
         23    2    1    2    0    0  0.88817841970E-15  0.00000000000E+00  0.00000000000E+00  0.91188000000E+02  0.91188000000E+02 0.  0.
    9900012    2    3    3    0    0  0.42146906642E+01  0.23103525870E+02 -0.28359157693E+02  0.54367104437E+02  0.40000046186E+02 0.  0.
         12    1    3    3    0    0 -0.42146906642E+01 -0.23103525870E+02  0.28359157693E+02  0.36820895563E+02  0.00000000000E+00 0. -1.
         11    1    4    4    0    0  0.99661953394E+01 -0.54592628450E+01 -0.13432547698E+02  0.17594372347E+02  0.51100000000E-03 0. -1.
        -11    1    4    4    0    0  0.17489765781E+01  0.23547836477E+02 -0.66555762041E+01  0.24532758033E+02  0.51100000000E-03 0.  1.
         12    1    4    4    0    0 -0.75004812532E+01  0.50149522373E+01 -0.82710337902E+01  0.12239974058E+02  0.00000000000E+00 0. -1.
</event>
<event>
 8    1  0.1280925E-006  0.9118800E+02  0.7816164E-02  0.1184000E+00
        -11   -1    0    0    0    0  0.00000000000E+00  0.00000000000E+00  0.45593999997E+02  0.45594000000E+02  0.51100000000E-03 0. -1.
         11   -1    0    0    0    0 -0.00000000000E+00 -0.00000000000E+00 -0.45593999997E+02  0.45594000000E+02  0.51100000000E-03 0.  1.
         23    2    1    2    0    0  0.00000000000E+00  0.00000000000E+00 -0.17763568394E-14  0.91188000000E+02  0.91188000000E+02 0.  0.
    9900012    2    3    3    0    0 -0.12122269677E+02 -0.31537599830E+02  0.14635910360E+02  0.54367088859E+02  0.40000010672E+02 0.  0.
        -12    1    3    3    0    0  0.12122269677E+02  0.31537599830E+02 -0.14635910360E+02  0.36820911141E+02  0.00000000000E+00 0.  1.
         11    1    4    4    0    0 -0.75792809141E+01  0.37377669355E+01  0.18958131016E+01  0.86608607203E+01  0.51100000000E-03 0. -1.
        -11    1    4    4    0    0  0.51928080241E+01 -0.24677638586E+02 -0.17569971107E+01  0.25279203715E+02  0.51100000000E-03 0.  1.
        -12    1    4    4    0    0 -0.97357967868E+01 -0.10597728179E+02  0.14497094369E+02  0.20427024423E+02  0.00000000000E+00 0.  1.
</event>
<event>
 8    1  0.1280925E-006  0.9118800E+02  0.7816164E-02  0.1184000E+00
        -11   -1    0    0    0    0  0.00000000000E+00  0.00000000000E+00  0.45593999997E+02  0.45594000000E+02  0.51100000000E-03 0. -1.
         11   -1    0    0    0    0 -0.00000000000E+00 -0.00000000000E+00 -0.45593999997E+02  0.45594000000E+02  0.51100000000E-03 0.  1.
         23    2    1    2    0    0  0.00000000000E+00  0.00000000000E+00 -0.17763568394E-14  0.91188000000E+02  0.91188000000E+02 0.  0.
    9900012    2    3    3    0    0  0.84604611054E+01 -0.34842020672E+02 -0.83805648394E+01  0.54367086464E+02  0.40000005212E+02 0.  0.
        -12    1    3    3    0    0 -0.84604611054E+01  0.34842020672E+02  0.83805648394E+01  0.36820913536E+02  0.00000000000E+00 0.  1.
         11    1    4    4    0    0  0.66092257665E+01 -0.11343147163E+02  0.63330489696E+01  0.14575882900E+02  0.51100000000E-03 0. -1.
        -11    1    4    4    0    0  0.13453869343E+01  0.53295482109E+01 -0.87729256141E+01  0.10352698886E+02  0.51100000000E-03 0.  1.
         12    1    4    4    0    0  0.50584840462E+00 -0.28828421720E+02 -0.59406881949E+01  0.29438504678E+02  0.00000000000E+00 0. -1.
</event>
<event>
 8    1  0.1280925E-006  0.9118800E+02  0.7816164E-02  0.1184000E+00
        -11   -1    0    0    0    0  0.00000000000E+00  0.00000000000E+00  0.45593999997E+02  0.45594000000E+02  0.51100000000E-03 0. -1.
         11   -1    0    0    0    0 -0.00000000000E+00 -0.00000000000E+00 -0.45593999997E+02  0.45594000000E+02  0.51100000000E-03 0.  1.
         23    2    1    2    0    0  0.71054273576E-14  0.00000000000E+00  0.00000000000E+00  0.91188000000E+02  0.91188000000E+02 0.  0.
    9900012    2    3    3    0    0 -0.35648765378E+02  0.70377164601E+01 -0.59508504570E+01  0.54367128920E+02  0.40000101999E+02 0.  0.
         12    1    3    3    0    0  0.35648765378E+02 -0.70377164601E+01  0.59508504570E+01  0.36820871080E+02  0.00000000000E+00 0. -1.
         11    1    4    4    0    0 -0.35088731645E+02  0.24117243619E+01  0.84001637631E+01  0.36160728067E+02  0.51100000000E-03 0. -1.
        -11    1    4    4    0    0 -0.19482698856E+01  0.57356695711E+01 -0.30789976568E+01  0.67951370705E+01  0.51100000000E-03 0.  1.
         12    1    4    4    0    0  0.13882361528E+01 -0.11096774729E+01 -0.11272016563E+02  0.11411263782E+02  0.00000000000E+00 0. -1.
</event>
<event>
 8    1  0.1280925E-006  0.9118800E+02  0.7816164E-02  0.1184000E+00
        -11   -1    0    0    0    0  0.00000000000E+00  0.00000000000E+00  0.45593999997E+02  0.45594000000E+02  0.51100000000E-03 0.  1.
         11   -1    0    0    0    0 -0.00000000000E+00 -0.00000000000E+00 -0.45593999997E+02  0.45594000000E+02  0.51100000000E-03 0. -1.
         23    2    1    2    0    0 -0.35527136788E-14  0.00000000000E+00 -0.35527136788E-14  0.91188000000E+02  0.91188000000E+02 0.  0.
    9900012    2    3    3    0    0  0.14439767292E+02  0.22648430473E+02  0.25185737456E+02  0.54367086737E+02  0.40000005834E+02 0.  0.
         12    1    3    3    0    0 -0.14439767292E+02 -0.22648430473E+02 -0.25185737456E+02  0.36820913263E+02  0.00000000000E+00 0. -1.
         11    1    4    4    0    0  0.56133487083E+01  0.41207275912E+01 -0.38765798897E+01  0.79698150233E+01  0.51100000000E-03 0. -1.
        -11    1    4    4    0    0  0.79743783091E+01  0.16896973613E+02  0.14680806128E+01  0.18741763195E+02  0.51100000000E-03 0.  1.
         12    1    4    4    0    0  0.85204027472E+00  0.16307292687E+01  0.27594236733E+02  0.27655508519E+02  0.00000000000E+00 0. -1.
</event>
<event>
 8    1  0.1280925E-006  0.9118800E+02  0.7816164E-02  0.1184000E+00
        -11   -1    0    0    0    0  0.00000000000E+00  0.00000000000E+00  0.45593999997E+02  0.45594000000E+02  0.51100000000E-03 0. -1.
         11   -1    0    0    0    0 -0.00000000000E+00 -0.00000000000E+00 -0.45593999997E+02  0.45594000000E+02  0.51100000000E-03 0.  1.
         23    2    1    2    0    0  0.35527136788E-14  0.00000000000E+00  0.00000000000E+00  0.91188000000E+02  0.91188000000E+02 0.  0.
    9900012    2    3    3    0    0 -0.27391147190E+02  0.82980015437E+01  0.23165701866E+02  0.54367061433E+02  0.39999948149E+02 0.  0.
        -12    1    3    3    0    0  0.27391147190E+02 -0.82980015437E+01 -0.23165701866E+02  0.36820938567E+02  0.00000000000E+00 0.  1.
         11    1    4    4    0    0  0.49166850191E+01 -0.20175113452E+01  0.88053589560E+01  0.10284867049E+02  0.51100000000E-03 0. -1.
        -11    1    4    4    0    0 -0.19863706698E+02  0.16942433365E+02  0.36177228778E+01  0.26357177603E+02  0.51100000000E-03 0.  1.
        -12    1    4    4    0    0 -0.12444125511E+02 -0.66269204764E+01  0.10742620032E+02  0.17725016781E+02  0.00000000000E+00 0.  1.
</event>
<event>
 8    1  0.1280925E-006  0.9118800E+02  0.7816164E-02  0.1184000E+00
        -11   -1    0    0    0    0  0.00000000000E+00  0.00000000000E+00  0.45593999997E+02  0.45594000000E+02  0.51100000000E-03 0. -1.
         11   -1    0    0    0    0 -0.00000000000E+00 -0.00000000000E+00 -0.45593999997E+02  0.45594000000E+02  0.51100000000E-03 0.  1.
         23    2    1    2    0    0  0.71054273576E-14  0.17763568394E-14  0.17763568394E-14  0.91188000000E+02  0.91188000000E+02 0.  0.
    9900012    2    3    3    0    0 -0.33405589941E+02 -0.14014028537E+02 -0.65920437597E+01  0.54367061988E+02  0.39999949413E+02 0.  0.
        -12    1    3    3    0    0  0.33405589941E+02  0.14014028537E+02  0.65920437597E+01  0.36820938012E+02  0.00000000000E+00 0.  1.
         11    1    4    4    0    0 -0.68331466397E+01  0.19587135847E+01  0.57951819865E+01  0.91712914262E+01  0.51100000000E-03 0. -1.
        -11    1    4    4    0    0 -0.30241513675E+01  0.72755394080E+01  0.33399416941E+01  0.85576968836E+01  0.51100000000E-03 0.  1.
        -12    1    4    4    0    0 -0.23548291934E+02 -0.23248281530E+02 -0.15727167440E+02  0.36638073678E+02  0.00000000000E+00 0.  1.
</event>
<event>
 8    1  0.1280925E-006  0.9118800E+02  0.7816164E-02  0.1184000E+00
        -11   -1    0    0    0    0  0.00000000000E+00  0.00000000000E+00  0.45593999997E+02  0.45594000000E+02  0.51100000000E-03 0. -1.
         11   -1    0    0    0    0 -0.00000000000E+00 -0.00000000000E+00 -0.45593999997E+02  0.45594000000E+02  0.51100000000E-03 0.  1.
         23    2    1    2    0    0  0.00000000000E+00  0.00000000000E+00  0.00000000000E+00  0.91188000000E+02  0.91188000000E+02 0.  0.
    9900012    2    3    3    0    0  0.24670999298E+02  0.70968524546E+00 -0.27324314404E+02  0.54367081799E+02  0.39999994578E+02 0.  0.
         12    1    3    3    0    0 -0.24670999298E+02 -0.70968524546E+00  0.27324314404E+02  0.36820918201E+02  0.00000000000E+00 0. -1.
         11    1    4    4    0    0 -0.58317084385E+01  0.40165795114E+01 -0.44388283107E+01  0.83573280010E+01  0.51100000000E-03 0. -1.
        -11    1    4    4    0    0  0.14903315113E+02 -0.37308964555E+01 -0.25902234616E+02  0.30115679439E+02  0.51100000000E-03 0.  1.
         12    1    4    4    0    0  0.15599392624E+02  0.42400218956E+00  0.30167485231E+01  0.15894074359E+02  0.00000000000E+00 0. -1.
</event>
<event>
 8    1  0.1280925E-006  0.9118800E+02  0.7816164E-02  0.1184000E+00
        -11   -1    0    0    0    0  0.00000000000E+00  0.00000000000E+00  0.45593999997E+02  0.45594000000E+02  0.51100000000E-03 0. -1.
         11   -1    0    0    0    0 -0.00000000000E+00 -0.00000000000E+00 -0.45593999997E+02  0.45594000000E+02  0.51100000000E-03 0.  1.
         23    2    1    2    0    0  0.00000000000E+00  0.00000000000E+00  0.00000000000E+00  0.91188000000E+02  0.91188000000E+02 0.  0.
    9900012    2    3    3    0    0 -0.15743365026E+02 -0.24962339480E+02  0.22018350781E+02  0.54367086028E+02  0.40000004217E+02 0.  0.
        -12    1    3    3    0    0  0.15743365026E+02  0.24962339480E+02 -0.22018350781E+02  0.36820913972E+02  0.00000000000E+00 0.  1.
         11    1    4    4    0    0 -0.39186776735E+01 -0.17946168095E+02  0.22001331375E+02  0.28661464836E+02  0.51100000000E-03 0. -1.
        -11    1    4    4    0    0 -0.16376566950E+02  0.74402578406E+00 -0.19116189727E+01  0.16504538975E+02  0.51100000000E-03 0.  1.
        -12    1    4    4    0    0  0.45518795970E+01 -0.77601971688E+01  0.19286383789E+01  0.92010822168E+01  0.00000000000E+00 0.  1.
</event>
<event>
 8    1  0.1280925E-006  0.9118800E+02  0.7816164E-02  0.1184000E+00
        -11   -1    0    0    0    0  0.00000000000E+00  0.00000000000E+00  0.45593999997E+02  0.45594000000E+02  0.51100000000E-03 0.  1.
         11   -1    0    0    0    0 -0.00000000000E+00 -0.00000000000E+00 -0.45593999997E+02  0.45594000000E+02  0.51100000000E-03 0. -1.
         23    2    1    2    0    0  0.00000000000E+00  0.00000000000E+00 -0.35527136788E-14  0.91188000000E+02  0.91188000000E+02 0.  0.
    9900012    2    3    3    0    0 -0.15773630250E+02 -0.23698224442E+02 -0.23353104181E+02  0.54367072148E+02  0.39999972576E+02 0.  0.
        -12    1    3    3    0    0  0.15773630250E+02  0.23698224442E+02  0.23353104181E+02  0.36820927852E+02  0.00000000000E+00 0.  1.
         11    1    4    4    0    0 -0.16183115096E+02 -0.69507113959E+01 -0.89050467530E+01  0.19735892710E+02  0.51100000000E-03 0. -1.
        -11    1    4    4    0    0 -0.51396962576E+01 -0.21274181982E+02 -0.16234925651E+02  0.27250323077E+02  0.51100000000E-03 0.  1.
        -12    1    4    4    0    0  0.55491811034E+01  0.45266689361E+01  0.17868682236E+01  0.73808563612E+01  0.00000000000E+00 0.  1.
</event>
<event>
 8    1  0.1280925E-006  0.9118800E+02  0.7816164E-02  0.1184000E+00
        -11   -1    0    0    0    0  0.00000000000E+00  0.00000000000E+00  0.45593999997E+02  0.45594000000E+02  0.51100000000E-03 0.  1.
         11   -1    0    0    0    0 -0.00000000000E+00 -0.00000000000E+00 -0.45593999997E+02  0.45594000000E+02  0.51100000000E-03 0. -1.
         23    2    1    2    0    0  0.00000000000E+00  0.66613381478E-15 -0.35527136788E-14  0.91188000000E+02  0.91188000000E+02 0.  0.
    9900012    2    3    3    0    0 -0.19685781390E+02 -0.18018735694E+01 -0.31064500521E+02  0.54367082984E+02  0.39999997279E+02 0.  0.
        -12    1    3    3    0    0  0.19685781390E+02  0.18018735694E+01  0.31064500521E+02  0.36820917016E+02  0.00000000000E+00 0.  1.
         11    1    4    4    0    0 -0.19615274360E+02 -0.66464300635E+01 -0.21849256757E+02  0.30105216191E+02  0.51100000000E-03 0. -1.
        -11    1    4    4    0    0 -0.59719604762E+01 -0.68500348946E+01 -0.55932924100E+01  0.10671092270E+02  0.51100000000E-03 0.  1.
         12    1    4    4    0    0  0.59014534467E+01  0.11694591389E+02 -0.36219513536E+01  0.13590774523E+02  0.00000000000E+00 0. -1.
</event>
<event>
 8    1  0.1280925E-006  0.9118800E+02  0.7816164E-02  0.1184000E+00
        -11   -1    0    0    0    0  0.00000000000E+00  0.00000000000E+00  0.45593999997E+02  0.45594000000E+02  0.51100000000E-03 0. -1.
         11   -1    0    0    0    0 -0.00000000000E+00 -0.00000000000E+00 -0.45593999997E+02  0.45594000000E+02  0.51100000000E-03 0.  1.
         23    2    1    2    0    0  0.00000000000E+00  0.00000000000E+00 -0.17763568394E-14  0.91188000000E+02  0.91188000000E+02 0.  0.
    9900012    2    3    3    0    0 -0.29329830450E+02  0.16262965301E+02  0.15200566892E+02  0.54367078930E+02  0.39999988037E+02 0.  0.
        -12    1    3    3    0    0  0.29329830450E+02 -0.16262965301E+02 -0.15200566892E+02  0.36820921070E+02  0.00000000000E+00 0.  1.
         11    1    4    4    0    0 -0.12607912397E+02  0.78899608535E+01  0.16604053041E+02  0.22291377591E+02  0.51100000000E-03 0. -1.
        -11    1    4    4    0    0  0.95341540367E+00  0.10582089485E+02  0.66419866047E+01  0.12530187753E+02  0.51100000000E-03 0.  1.
         12    1    4    4    0    0 -0.17675333457E+02 -0.22090850377E+01 -0.80454727534E+01  0.19545513586E+02  0.00000000000E+00 0. -1.
</event>
<event>
 8    1  0.1280925E-006  0.9118800E+02  0.7816164E-02  0.1184000E+00
        -11   -1    0    0    0    0  0.00000000000E+00  0.00000000000E+00  0.45593999997E+02  0.45594000000E+02  0.51100000000E-03 0.  1.
         11   -1    0    0    0    0 -0.00000000000E+00 -0.00000000000E+00 -0.45593999997E+02  0.45594000000E+02  0.51100000000E-03 0. -1.
         23    2    1    2    0    0  0.00000000000E+00  0.00000000000E+00  0.00000000000E+00  0.91188000000E+02  0.91188000000E+02 0.  0.
    9900012    2    3    3    0    0 -0.59755606837E+01  0.51530301257E+01  0.35965533127E+02  0.54367073639E+02  0.39999975975E+02 0.  0.
         12    1    3    3    0    0  0.59755606837E+01 -0.51530301257E+01 -0.35965533127E+02  0.36820926361E+02  0.00000000000E+00 0. -1.
         11    1    4    4    0    0  0.10037504761E+02  0.51145398067E+01  0.60949557086E+00  0.11281910493E+02  0.51100000000E-03 0. -1.
        -11    1    4    4    0    0 -0.99077193816E+01  0.50482919684E+01  0.33030814425E+02  0.34852300598E+02  0.51100000000E-03 0.  1.
         12    1    4    4    0    0 -0.61053460635E+01 -0.50098016493E+01  0.23252231313E+01  0.82328625478E+01  0.00000000000E+00 0. -1.
</event>
<event>
 8    1  0.1280925E-006  0.9118800E+02  0.7816164E-02  0.1184000E+00
        -11   -1    0    0    0    0  0.00000000000E+00  0.00000000000E+00  0.45593999997E+02  0.45594000000E+02  0.51100000000E-03 0.  1.
         11   -1    0    0    0    0 -0.00000000000E+00 -0.00000000000E+00 -0.45593999997E+02  0.45594000000E+02  0.51100000000E-03 0. -1.
         23    2    1    2    0    0  0.00000000000E+00  0.00000000000E+00  0.00000000000E+00  0.91188000000E+02  0.91188000000E+02 0.  0.
    9900012    2    3    3    0    0 -0.19118043026E+02 -0.30694467902E+01 -0.31318645302E+02  0.54367100822E+02  0.40000037943E+02 0.  0.
        -12    1    3    3    0    0  0.19118043026E+02  0.30694467902E+01  0.31318645302E+02  0.36820899178E+02  0.00000000000E+00 0.  1.
         11    1    4    4    0    0  0.38490014131E+01 -0.83128924942E+01 -0.21546727101E+02  0.23413253566E+02  0.51100000000E-03 0.  1.
        -11    1    4    4    0    0 -0.14449592177E+02 -0.10421760097E+01 -0.13429420978E+02  0.19754143692E+02  0.51100000000E-03 0. -1.
        -12    1    4    4    0    0 -0.85174522614E+01  0.62856217137E+01  0.36575027774E+01  0.11199703564E+02  0.00000000000E+00 0.  1.
</event>
<event>
 8    1  0.1280925E-006  0.9118800E+02  0.7816164E-02  0.1184000E+00
        -11   -1    0    0    0    0  0.00000000000E+00  0.00000000000E+00  0.45593999997E+02  0.45594000000E+02  0.51100000000E-03 0. -1.
         11   -1    0    0    0    0 -0.00000000000E+00 -0.00000000000E+00 -0.45593999997E+02  0.45594000000E+02  0.51100000000E-03 0.  1.
         23    2    1    2    0    0 -0.35527136788E-14  0.44408920985E-15  0.00000000000E+00  0.91188000000E+02  0.91188000000E+02 0.  0.
    9900012    2    3    3    0    0 -0.22484413834E+02 -0.26019817960E+01  0.29042411682E+02  0.54367070476E+02  0.39999968764E+02 0.  0.
        -12    1    3    3    0    0  0.22484413834E+02  0.26019817960E+01 -0.29042411682E+02  0.36820929524E+02  0.00000000000E+00 0.  1.
         11    1    4    4    0    0 -0.59186418165E+01  0.45800290275E+01  0.22224413227E+02  0.23450618977E+02  0.51100000000E-03 0. -1.
        -11    1    4    4    0    0  0.14080010387E+01 -0.10979548082E+02 -0.64407102339E+00  0.11088181580E+02  0.51100000000E-03 0.  1.
        -12    1    4    4    0    0 -0.17973773056E+02  0.37975372582E+01  0.74620694779E+01  0.19828269919E+02  0.00000000000E+00 0.  1.
</event>
<event>
 8    1  0.1280925E-006  0.9118800E+02  0.7816164E-02  0.1184000E+00
        -11   -1    0    0    0    0  0.00000000000E+00  0.00000000000E+00  0.45593999997E+02  0.45594000000E+02  0.51100000000E-03 0. -1.
         11   -1    0    0    0    0 -0.00000000000E+00 -0.00000000000E+00 -0.45593999997E+02  0.45594000000E+02  0.51100000000E-03 0.  1.
         23    2    1    2    0    0 -0.71054273576E-14  0.13322676296E-14  0.00000000000E+00  0.91188000000E+02  0.91188000000E+02 0.  0.
    9900012    2    3    3    0    0  0.32888334396E+02 -0.23564222832E+01 -0.16388562295E+02  0.54367078781E+02  0.39999987696E+02 0.  0.
         12    1    3    3    0    0 -0.32888334396E+02  0.23564222832E+01  0.16388562295E+02  0.36820921219E+02  0.00000000000E+00 0. -1.
         11    1    4    4    0    0  0.84047735551E+01  0.13207904268E+02  0.46939706170E+01  0.16343876960E+02  0.51100000000E-03 0. -1.
        -11    1    4    4    0    0  0.99415196107E+01 -0.39257496076E-01 -0.39030477887E+01  0.10680315333E+02  0.51100000000E-03 0.  1.
        -12    1    4    4    0    0  0.14542041231E+02 -0.15525069055E+02 -0.17179485124E+02  0.27342886487E+02  0.00000000000E+00 0.  1.
</event>
<event>
 8    1  0.1280925E-006  0.9118800E+02  0.7816164E-02  0.1184000E+00
        -11   -1    0    0    0    0  0.00000000000E+00  0.00000000000E+00  0.45593999997E+02  0.45594000000E+02  0.51100000000E-03 0. -1.
         11   -1    0    0    0    0 -0.00000000000E+00 -0.00000000000E+00 -0.45593999997E+02  0.45594000000E+02  0.51100000000E-03 0.  1.
         23    2    1    2    0    0  0.00000000000E+00 -0.17763568394E-14  0.35527136788E-14  0.91188000000E+02  0.91188000000E+02 0.  0.
    9900012    2    3    3    0    0  0.29660361907E+02  0.13084247504E+02 -0.17459896738E+02  0.54367046790E+02  0.39999914766E+02 0.  0.
         12    1    3    3    0    0 -0.29660361907E+02 -0.13084247504E+02  0.17459896738E+02  0.36820953210E+02  0.00000000000E+00 0. -1.
         11    1    4    4    0    0  0.17395913046E+02 -0.67077511332E+01 -0.10897828974E+02  0.21595703105E+02  0.51100000000E-03 0. -1.
        -11    1    4    4    0    0  0.13336493006E+01  0.85694044056E+01 -0.13169639651E+02  0.15768726046E+02  0.51100000000E-03 0.  1.
         12    1    4    4    0    0  0.10930799560E+02  0.11222594232E+02  0.66075718869E+01  0.17002617639E+02  0.00000000000E+00 0. -1.
</event>
<event>
 8    1  0.1280925E-006  0.9118800E+02  0.7816164E-02  0.1184000E+00
        -11   -1    0    0    0    0  0.00000000000E+00  0.00000000000E+00  0.45593999997E+02  0.45594000000E+02  0.51100000000E-03 0. -1.
         11   -1    0    0    0    0 -0.00000000000E+00 -0.00000000000E+00 -0.45593999997E+02  0.45594000000E+02  0.51100000000E-03 0.  1.
         23    2    1    2    0    0 -0.35527136788E-14  0.00000000000E+00 -0.17763568394E-14  0.91188000000E+02  0.91188000000E+02 0.  0.
    9900012    2    3    3    0    0 -0.29033539248E+02 -0.19098280134E+02 -0.12168896871E+02  0.54367180395E+02  0.40000219345E+02 0.  0.
         12    1    3    3    0    0  0.29033539248E+02  0.19098280134E+02  0.12168896871E+02  0.36820819605E+02  0.00000000000E+00 0. -1.
         11    1    4    4    0    0 -0.71334540314E+01 -0.53178467346E+01  0.13853809177E+02  0.16464922997E+02  0.51100000000E-03 0. -1.
        -11    1    4    4    0    0 -0.15803528201E+02 -0.62982969428E+01 -0.11761679735E+02  0.20682290937E+02  0.51100000000E-03 0.  1.
        -12    1    4    4    0    0 -0.60965570160E+01 -0.74821364568E+01 -0.14261026313E+02  0.17219966461E+02  0.00000000000E+00 0.  1.
</event>
<event>
 8    1  0.1280925E-006  0.9118800E+02  0.7816164E-02  0.1184000E+00
        -11   -1    0    0    0    0  0.00000000000E+00  0.00000000000E+00  0.45593999997E+02  0.45594000000E+02  0.51100000000E-03 0.  1.
         11   -1    0    0    0    0 -0.00000000000E+00 -0.00000000000E+00 -0.45593999997E+02  0.45594000000E+02  0.51100000000E-03 0. -1.
         23    2    1    2    0    0  0.00000000000E+00  0.00000000000E+00  0.00000000000E+00  0.91188000000E+02  0.91188000000E+02 0.  0.
    9900012    2    3    3    0    0 -0.20740960739E+01 -0.36103810151E+02  0.69276980593E+01  0.54367082272E+02  0.39999995656E+02 0.  0.
        -12    1    3    3    0    0  0.20740960739E+01  0.36103810151E+02 -0.69276980593E+01  0.36820917728E+02  0.00000000000E+00 0.  1.
         11    1    4    4    0    0  0.21467027222E+01 -0.24007442959E+02  0.22454277552E+01  0.24207593769E+02  0.51100000000E-03 0. -1.
        -11    1    4    4    0    0 -0.22412218068E+00  0.55008390211E+01  0.99408514820E+01  0.11363537703E+02  0.51100000000E-03 0.  1.
         12    1    4    4    0    0 -0.39966766155E+01 -0.17597206213E+02 -0.52585811779E+01  0.18795950800E+02  0.00000000000E+00 0. -1.
</event>
<event>
 8    1  0.1280925E-006  0.9118800E+02  0.7816164E-02  0.1184000E+00
        -11   -1    0    0    0    0  0.00000000000E+00  0.00000000000E+00  0.45593999997E+02  0.45594000000E+02  0.51100000000E-03 0. -1.
         11   -1    0    0    0    0 -0.00000000000E+00 -0.00000000000E+00 -0.45593999997E+02  0.45594000000E+02  0.51100000000E-03 0.  1.
         23    2    1    2    0    0 -0.35527136788E-14 -0.35527136788E-14  0.00000000000E+00  0.91188000000E+02  0.91188000000E+02 0.  0.
    9900012    2    3    3    0    0  0.18429279333E+02  0.27756464245E+02 -0.15675484463E+02  0.54367075823E+02  0.39999980953E+02 0.  0.
         12    1    3    3    0    0 -0.18429279333E+02 -0.27756464245E+02  0.15675484463E+02  0.36820924177E+02  0.00000000000E+00 0. -1.
         11    1    4    4    0    0 -0.48576820720E+01  0.43366928882E+01 -0.93257078011E+01  0.11374216745E+02  0.51100000000E-03 0. -1.
        -11    1    4    4    0    0  0.14107827890E+02  0.50535189215E+01 -0.14546710688E+02  0.20884818729E+02  0.51100000000E-03 0.  1.
        -12    1    4    4    0    0  0.91791335156E+01  0.18366252435E+02  0.81969340262E+01  0.22108040348E+02  0.00000000000E+00 0.  1.
</event>
<event>
 8    1  0.1280925E-006  0.9118800E+02  0.7816164E-02  0.1184000E+00
        -11   -1    0    0    0    0  0.00000000000E+00  0.00000000000E+00  0.45593999997E+02  0.45594000000E+02  0.51100000000E-03 0.  1.
         11   -1    0    0    0    0 -0.00000000000E+00 -0.00000000000E+00 -0.45593999997E+02  0.45594000000E+02  0.51100000000E-03 0. -1.
         23    2    1    2    0    0  0.00000000000E+00  0.00000000000E+00  0.00000000000E+00  0.91188000000E+02  0.91188000000E+02 0.  0.
    9900012    2    3    3    0    0  0.41040741065E+01  0.26733031705E+02 -0.24985641026E+02  0.54367072990E+02  0.39999974495E+02 0.  0.
        -12    1    3    3    0    0 -0.41040741065E+01 -0.26733031705E+02  0.24985641026E+02  0.36820927010E+02  0.00000000000E+00 0.  1.
         11    1    4    4    0    0  0.18770045198E+01  0.22438456794E+02 -0.26309690681E+02  0.34629572814E+02  0.51100000000E-03 0. -1.
        -11    1    4    4    0    0 -0.45474057596E-01  0.10561990863E+02 -0.39090187404E+01  0.11262244299E+02  0.51100000000E-03 0.  1.
        -12    1    4    4    0    0  0.22725436443E+01 -0.62674159529E+01  0.52330683955E+01  0.84752558766E+01  0.00000000000E+00 0.  1.
</event>
<event>
 8    1  0.1280925E-006  0.9118800E+02  0.7816164E-02  0.1184000E+00
        -11   -1    0    0    0    0  0.00000000000E+00  0.00000000000E+00  0.45593999997E+02  0.45594000000E+02  0.51100000000E-03 0. -1.
         11   -1    0    0    0    0 -0.00000000000E+00 -0.00000000000E+00 -0.45593999997E+02  0.45594000000E+02  0.51100000000E-03 0.  1.
         23    2    1    2    0    0  0.00000000000E+00 -0.22204460493E-15  0.00000000000E+00  0.91188000000E+02  0.91188000000E+02 0.  0.
    9900012    2    3    3    0    0  0.17521439815E+02 -0.11841183047E+01 -0.32363172490E+02  0.54367110237E+02  0.40000059406E+02 0.  0.
         12    1    3    3    0    0 -0.17521439815E+02  0.11841183047E+01  0.32363172490E+02  0.36820889763E+02  0.00000000000E+00 0. -1.
         11    1    4    4    0    0 -0.29595136149E+01 -0.23436931934E+01 -0.69333919325E+01  0.78945261145E+01  0.51100000000E-03 0. -1.
        -11    1    4    4    0    0  0.18755410245E+02  0.10605187595E+02 -0.25958570334E+01  0.21701932895E+02  0.51100000000E-03 0.  1.
        -12    1    4    4    0    0  0.17255431845E+01 -0.94456127066E+01 -0.22833923524E+02  0.24770651227E+02  0.00000000000E+00 0.  1.
</event>
<event>
 8    1  0.1280925E-006  0.9118800E+02  0.7816164E-02  0.1184000E+00
        -11   -1    0    0    0    0  0.00000000000E+00  0.00000000000E+00  0.45593999997E+02  0.45594000000E+02  0.51100000000E-03 0. -1.
         11   -1    0    0    0    0 -0.00000000000E+00 -0.00000000000E+00 -0.45593999997E+02  0.45594000000E+02  0.51100000000E-03 0.  1.
         23    2    1    2    0    0  0.00000000000E+00  0.17763568394E-14  0.35527136788E-14  0.91188000000E+02  0.91188000000E+02 0.  0.
    9900012    2    3    3    0    0 -0.31258160036E+02 -0.83216001011E+01 -0.17591438487E+02  0.54367077889E+02  0.39999985663E+02 0.  0.
         12    1    3    3    0    0  0.31258160036E+02  0.83216001011E+01  0.17591438487E+02  0.36820922111E+02  0.00000000000E+00 0. -1.
         11    1    4    4    0    0 -0.11376943398E+02 -0.24302987534E+01  0.88543680515E+01  0.14619884643E+02  0.51100000000E-03 0. -1.
        -11    1    4    4    0    0 -0.15309247937E+02 -0.14577720262E+01 -0.29047838368E+02  0.32867538481E+02  0.51100000000E-03 0.  1.
         12    1    4    4    0    0 -0.45719687014E+01 -0.44335293215E+01  0.26020318298E+01  0.68796547657E+01  0.00000000000E+00 0. -1.
</event>
<event>
 8    1  0.1280925E-006  0.9118800E+02  0.7816164E-02  0.1184000E+00
        -11   -1    0    0    0    0  0.00000000000E+00  0.00000000000E+00  0.45593999997E+02  0.45594000000E+02  0.51100000000E-03 0.  1.
         11   -1    0    0    0    0 -0.00000000000E+00 -0.00000000000E+00 -0.45593999997E+02  0.45594000000E+02  0.51100000000E-03 0. -1.
         23    2    1    2    0    0 -0.71054273576E-14  0.17763568394E-14  0.00000000000E+00  0.91188000000E+02  0.91188000000E+02 0.  0.
    9900012    2    3    3    0    0  0.30937791153E+02  0.35642645171E+01 -0.19645091010E+02  0.54367075192E+02  0.39999979515E+02 0.  0.
        -12    1    3    3    0    0 -0.30937791153E+02 -0.35642645171E+01  0.19645091010E+02  0.36820924808E+02  0.00000000000E+00 0.  1.
         11    1    4    4    0    0 -0.20564533592E+01  0.14576700618E+02 -0.40971114932E+01  0.15280560336E+02  0.51100000000E-03 0. -1.
        -11    1    4    4    0    0  0.26576744208E+02 -0.97685237485E+01 -0.16019431930E+02  0.32532592712E+02  0.51100000000E-03 0.  1.
         12    1    4    4    0    0  0.64175003037E+01 -0.12439123526E+01  0.47145241382E+00  0.65539221439E+01  0.00000000000E+00 0. -1.
</event>
<event>
 8    1  0.1280925E-006  0.9118800E+02  0.7816164E-02  0.1184000E+00
        -11   -1    0    0    0    0  0.00000000000E+00  0.00000000000E+00  0.45593999997E+02  0.45594000000E+02  0.51100000000E-03 0.  1.
         11   -1    0    0    0    0 -0.00000000000E+00 -0.00000000000E+00 -0.45593999997E+02  0.45594000000E+02  0.51100000000E-03 0. -1.
         23    2    1    2    0    0  0.71054273576E-14 -0.88817841970E-15  0.88817841970E-15  0.91188000000E+02  0.91188000000E+02 0.  0.
    9900012    2    3    3    0    0 -0.36039545911E+02  0.61165991825E+01  0.44178840253E+01  0.54367090801E+02  0.40000015098E+02 0.  0.
        -12    1    3    3    0    0  0.36039545911E+02 -0.61165991825E+01 -0.44178840253E+01  0.36820909199E+02  0.00000000000E+00 0.  1.
         11    1    4    4    0    0 -0.29528112484E+02  0.19173428610E+01 -0.92225535412E+01  0.30994211147E+02  0.51100000000E-03 0. -1.
        -11    1    4    4    0    0  0.30786371896E+01 -0.48813601705E+01  0.40116696474E+01  0.70284548573E+01  0.51100000000E-03 0.  1.
        -12    1    4    4    0    0 -0.95900706162E+01  0.90806164921E+01  0.96287679192E+01  0.16344424797E+02  0.00000000000E+00 0.  1.
</event>
<event>
 8    1  0.1280925E-006  0.9118800E+02  0.7816164E-02  0.1184000E+00
        -11   -1    0    0    0    0  0.00000000000E+00  0.00000000000E+00  0.45593999997E+02  0.45594000000E+02  0.51100000000E-03 0.  1.
         11   -1    0    0    0    0 -0.00000000000E+00 -0.00000000000E+00 -0.45593999997E+02  0.45594000000E+02  0.51100000000E-03 0. -1.
         23    2    1    2    0    0 -0.88817841970E-15  0.00000000000E+00  0.00000000000E+00  0.91188000000E+02  0.91188000000E+02 0.  0.
    9900012    2    3    3    0    0  0.64102704778E+01 -0.31523030129E+02  0.17916074027E+02  0.54367099622E+02  0.40000035208E+02 0.  0.
         12    1    3    3    0    0 -0.64102704778E+01  0.31523030129E+02 -0.17916074027E+02  0.36820900378E+02  0.00000000000E+00 0. -1.
         11    1    4    4    0    0  0.24502506731E+01 -0.20731092483E+02  0.11672073865E+02  0.23916923558E+02  0.51100000000E-03 0. -1.
        -11    1    4    4    0    0  0.10430328767E+02 -0.15598795740E+02  0.10322596860E+02  0.21416586864E+02  0.51100000000E-03 0.  1.
         12    1    4    4    0    0 -0.64703089618E+01  0.48068580938E+01 -0.40785966989E+01  0.90335891996E+01  0.00000000000E+00 0. -1.
</event>
<event>
 8    1  0.1280925E-006  0.9118800E+02  0.7816164E-02  0.1184000E+00
        -11   -1    0    0    0    0  0.00000000000E+00  0.00000000000E+00  0.45593999997E+02  0.45594000000E+02  0.51100000000E-03 0.  1.
         11   -1    0    0    0    0 -0.00000000000E+00 -0.00000000000E+00 -0.45593999997E+02  0.45594000000E+02  0.51100000000E-03 0. -1.
         23    2    1    2    0    0  0.00000000000E+00 -0.35527136788E-14 -0.35527136788E-14  0.91188000000E+02  0.91188000000E+02 0.  0.
    9900012    2    3    3    0    0  0.28208424910E+02 -0.16615911952E+02 -0.16851268693E+02  0.54367231099E+02  0.40000334935E+02 0.  0.
         12    1    3    3    0    0 -0.28208424910E+02  0.16615911952E+02  0.16851268693E+02  0.36820768901E+02  0.00000000000E+00 0. -1.
         11    1    4    4    0    0  0.14486347607E+02  0.76683741867E+01 -0.81480425016E+01  0.18304339008E+02  0.51100000000E-03 0. -1.
        -11    1    4    4    0    0 -0.49291377088E+01 -0.67745396600E+01  0.15175563988E+01  0.85143269753E+01  0.51100000000E-03 0.  1.
         12    1    4    4    0    0  0.18651215012E+02 -0.17509746478E+02 -0.10220782590E+02  0.27548565115E+02  0.00000000000E+00 0. -1.
</event>
<event>
 8    1  0.1280925E-006  0.9118800E+02  0.7816164E-02  0.1184000E+00
        -11   -1    0    0    0    0  0.00000000000E+00  0.00000000000E+00  0.45593999997E+02  0.45594000000E+02  0.51100000000E-03 0.  1.
         11   -1    0    0    0    0 -0.00000000000E+00 -0.00000000000E+00 -0.45593999997E+02  0.45594000000E+02  0.51100000000E-03 0. -1.
         23    2    1    2    0    0 -0.35527136788E-14  0.17763568394E-14 -0.17763568394E-14  0.91188000000E+02  0.91188000000E+02 0.  0.
    9900012    2    3    3    0    0  0.30810820176E+02 -0.14765396588E+02  0.13727864126E+02  0.54367111502E+02  0.40000062290E+02 0.  0.
         12    1    3    3    0    0 -0.30810820176E+02  0.14765396588E+02 -0.13727864126E+02  0.36820888498E+02  0.00000000000E+00 0. -1.
         11    1    4    4    0    0  0.33783805511E-01 -0.30527012590E-01 -0.24471143115E+01  0.24475379381E+01  0.51100000000E-03 0. -1.
        -11    1    4    4    0    0  0.26068515869E+01 -0.50303278231E+01 -0.10498305791E+02  0.11929555648E+02  0.51100000000E-03 0.  1.
        -12    1    4    4    0    0  0.28170184784E+02 -0.97045417523E+01  0.26673284229E+02  0.39990017916E+02  0.00000000000E+00 0.  1.
</event>
<event>
 8    1  0.1280925E-006  0.9118800E+02  0.7816164E-02  0.1184000E+00
        -11   -1    0    0    0    0  0.00000000000E+00  0.00000000000E+00  0.45593999997E+02  0.45594000000E+02  0.51100000000E-03 0.  1.
         11   -1    0    0    0    0 -0.00000000000E+00 -0.00000000000E+00 -0.45593999997E+02  0.45594000000E+02  0.51100000000E-03 0. -1.
         23    2    1    2    0    0 -0.35527136788E-14 -0.17763568394E-14  0.35527136788E-14  0.91188000000E+02  0.91188000000E+02 0.  0.
    9900012    2    3    3    0    0 -0.18093019810E+02 -0.14174403161E+02  0.28766117652E+02  0.54367345530E+02  0.40000595801E+02 0.  0.
         12    1    3    3    0    0  0.18093019810E+02  0.14174403161E+02 -0.28766117652E+02  0.36820654470E+02  0.00000000000E+00 0. -1.
         11    1    4    4    0    0  0.97131203510E+00  0.75494811686E+00 -0.59903347833E-01  0.12316583946E+01  0.51100000000E-03 0. -1.
        -11    1    4    4    0    0 -0.26358209521E+02 -0.14476190816E+01  0.86121709934E+01  0.27767252288E+02  0.51100000000E-03 0.  1.
         12    1    4    4    0    0  0.72938776756E+01 -0.13481732196E+02  0.20213850006E+02  0.25368434848E+02  0.00000000000E+00 0. -1.
</event>
<event>
 8    1  0.1280925E-006  0.9118800E+02  0.7816164E-02  0.1184000E+00
        -11   -1    0    0    0    0  0.00000000000E+00  0.00000000000E+00  0.45593999997E+02  0.45594000000E+02  0.51100000000E-03 0.  1.
         11   -1    0    0    0    0 -0.00000000000E+00 -0.00000000000E+00 -0.45593999997E+02  0.45594000000E+02  0.51100000000E-03 0. -1.
         23    2    1    2    0    0 -0.66613381478E-15  0.00000000000E+00  0.00000000000E+00  0.91188000000E+02  0.91188000000E+02 0.  0.
    9900012    2    3    3    0    0  0.15635538664E+01 -0.24481174843E+02 -0.27459186793E+02  0.54367087984E+02  0.40000008676E+02 0.  0.
        -12    1    3    3    0    0 -0.15635538664E+01  0.24481174843E+02  0.27459186793E+02  0.36820912016E+02  0.00000000000E+00 0.  1.
         11    1    4    4    0    0  0.73822744455E+01 -0.18831691013E+02 -0.66504276446E+01  0.21292222770E+02  0.51100000000E-03 0. -1.
        -11    1    4    4    0    0  0.77837233385E+01 -0.84212804527E+01 -0.12183841087E+02  0.16731715314E+02  0.51100000000E-03 0.  1.
        -12    1    4    4    0    0 -0.13602443918E+02  0.27717966225E+01 -0.86249180615E+01  0.16343149899E+02  0.00000000000E+00 0.  1.
</event>
<event>
 8    1  0.1280925E-006  0.9118800E+02  0.7816164E-02  0.1184000E+00
        -11   -1    0    0    0    0  0.00000000000E+00  0.00000000000E+00  0.45593999997E+02  0.45594000000E+02  0.51100000000E-03 0.  1.
         11   -1    0    0    0    0 -0.00000000000E+00 -0.00000000000E+00 -0.45593999997E+02  0.45594000000E+02  0.51100000000E-03 0. -1.
         23    2    1    2    0    0  0.00000000000E+00  0.71054273576E-14  0.00000000000E+00  0.91188000000E+02  0.91188000000E+02 0.  0.
    9900012    2    3    3    0    0 -0.70452349757E+01  0.34863161037E+02  0.95241975826E+01  0.54367004998E+02  0.39999819493E+02 0.  0.
         12    1    3    3    0    0  0.70452349757E+01 -0.34863161037E+02 -0.95241975826E+01  0.36820995002E+02  0.00000000000E+00 0. -1.
         11    1    4    4    0    0 -0.13056356407E+02  0.63531419875E+00  0.17180379207E+01  0.13184222438E+02  0.51100000000E-03 0. -1.
        -11    1    4    4    0    0  0.74460355966E+01  0.18540115446E+02 -0.53222627903E+01  0.20676213588E+02  0.51100000000E-03 0.  1.
        -12    1    4    4    0    0 -0.14349141658E+01  0.15687731392E+02  0.13128422452E+02  0.20506568972E+02  0.00000000000E+00 0.  1.
</event>
<event>
 8    1  0.1280925E-006  0.9118800E+02  0.7816164E-02  0.1184000E+00
        -11   -1    0    0    0    0  0.00000000000E+00  0.00000000000E+00  0.45593999997E+02  0.45594000000E+02  0.51100000000E-03 0.  1.
         11   -1    0    0    0    0 -0.00000000000E+00 -0.00000000000E+00 -0.45593999997E+02  0.45594000000E+02  0.51100000000E-03 0. -1.
         23    2    1    2    0    0  0.44408920985E-15  0.35527136788E-14  0.00000000000E+00  0.91188000000E+02  0.91188000000E+02 0.  0.
    9900012    2    3    3    0    0 -0.25688339905E+01  0.23120443171E+02  0.28541621626E+02  0.54367109658E+02  0.40000058088E+02 0.  0.
         12    1    3    3    0    0  0.25688339905E+01 -0.23120443171E+02 -0.28541621626E+02  0.36820890342E+02  0.00000000000E+00 0. -1.
         11    1    4    4    0    0 -0.47711626011E+01  0.18709220662E+01 -0.46827544510E+00  0.51462242564E+01  0.51100000000E-03 0. -1.
        -11    1    4    4    0    0  0.75385035672E+01  0.63741098924E+01  0.31689636162E+02  0.33191736220E+02  0.51100000000E-03 0.  1.
        -12    1    4    4    0    0 -0.53361749566E+01  0.14875411212E+02 -0.26797390909E+01  0.16029149182E+02  0.00000000000E+00 0.  1.
</event>
<event>
 8    1  0.1280925E-006  0.9118800E+02  0.7816164E-02  0.1184000E+00
        -11   -1    0    0    0    0  0.00000000000E+00  0.00000000000E+00  0.45593999997E+02  0.45594000000E+02  0.51100000000E-03 0.  1.
         11   -1    0    0    0    0 -0.00000000000E+00 -0.00000000000E+00 -0.45593999997E+02  0.45594000000E+02  0.51100000000E-03 0. -1.
         23    2    1    2    0    0  0.00000000000E+00  0.00000000000E+00  0.00000000000E+00  0.91188000000E+02  0.91188000000E+02 0.  0.
    9900012    2    3    3    0    0  0.23831900526E+02  0.77867602130E+01  0.26966412292E+02  0.54367075117E+02  0.39999979345E+02 0.  0.
        -12    1    3    3    0    0 -0.23831900526E+02 -0.77867602130E+01 -0.26966412292E+02  0.36820924883E+02  0.00000000000E+00 0.  1.
         11    1    4    4    0    0  0.27265502764E+02  0.79378757332E+01  0.26158886435E+02  0.38609647135E+02  0.51100000000E-03 0. -1.
        -11    1    4    4    0    0  0.14283689390E+01 -0.46235281188E+01  0.57439252256E+01  0.75106542558E+01  0.51100000000E-03 0.  1.
         12    1    4    4    0    0 -0.48619711764E+01  0.44724125987E+01 -0.49363993682E+01  0.82467737265E+01  0.00000000000E+00 0. -1.
</event>
<event>
 8    1  0.1280925E-006  0.9118800E+02  0.7816164E-02  0.1184000E+00
        -11   -1    0    0    0    0  0.00000000000E+00  0.00000000000E+00  0.45593999997E+02  0.45594000000E+02  0.51100000000E-03 0.  1.
         11   -1    0    0    0    0 -0.00000000000E+00 -0.00000000000E+00 -0.45593999997E+02  0.45594000000E+02  0.51100000000E-03 0. -1.
         23    2    1    2    0    0  0.00000000000E+00  0.35527136788E-14 -0.35527136788E-14  0.91188000000E+02  0.91188000000E+02 0.  0.
    9900012    2    3    3    0    0  0.16839540543E+02 -0.13018359025E+02 -0.30045499591E+02  0.54367084163E+02  0.39999999966E+02 0.  0.
        -12    1    3    3    0    0 -0.16839540543E+02  0.13018359025E+02  0.30045499591E+02  0.36820915837E+02  0.00000000000E+00 0.  1.
         11    1    4    4    0    0 -0.18128957895E+01  0.70730418760E+01 -0.16815852741E+02  0.18332687096E+02  0.51100000000E-03 0.  1.
        -11    1    4    4    0    0  0.12064899250E+01 -0.37682289150E+01 -0.11406635172E+02  0.12073379531E+02  0.51100000000E-03 0. -1.
         12    1    4    4    0    0  0.17445946408E+02 -0.16323171986E+02 -0.18230116787E+01  0.23961017535E+02  0.00000000000E+00 0. -1.
</event>
<event>
 8    1  0.1280925E-006  0.9118800E+02  0.7816164E-02  0.1184000E+00
        -11   -1    0    0    0    0  0.00000000000E+00  0.00000000000E+00  0.45593999997E+02  0.45594000000E+02  0.51100000000E-03 0. -1.
         11   -1    0    0    0    0 -0.00000000000E+00 -0.00000000000E+00 -0.45593999997E+02  0.45594000000E+02  0.51100000000E-03 0.  1.
         23    2    1    2    0    0  0.35527136788E-14  0.00000000000E+00  0.00000000000E+00  0.91188000000E+02  0.91188000000E+02 0.  0.
    9900012    2    3    3    0    0  0.27044322964E+02 -0.22878689374E+02 -0.10047393318E+02  0.54367082785E+02  0.39999996825E+02 0.  0.
         12    1    3    3    0    0 -0.27044322964E+02  0.22878689374E+02  0.10047393318E+02  0.36820917215E+02  0.00000000000E+00 0. -1.
         11    1    4    4    0    0 -0.53130602780E+01 -0.59094124112E+01 -0.56840299982E+01  0.97702590469E+01  0.51100000000E-03 0. -1.
        -11    1    4    4    0    0  0.35855041177E+01 -0.12587831565E+02  0.50196813071E+01  0.14018079182E+02  0.51100000000E-03 0.  1.
         12    1    4    4    0    0  0.28771879124E+02 -0.43814453985E+01 -0.93830446264E+01  0.30578744556E+02  0.00000000000E+00 0. -1.
</event>
<event>
 8    1  0.1280925E-006  0.9118800E+02  0.7816164E-02  0.1184000E+00
        -11   -1    0    0    0    0  0.00000000000E+00  0.00000000000E+00  0.45593999997E+02  0.45594000000E+02  0.51100000000E-03 0. -1.
         11   -1    0    0    0    0 -0.00000000000E+00 -0.00000000000E+00 -0.45593999997E+02  0.45594000000E+02  0.51100000000E-03 0.  1.
         23    2    1    2    0    0  0.00000000000E+00  0.00000000000E+00 -0.22204460493E-14  0.91188000000E+02  0.91188000000E+02 0.  0.
    9900012    2    3    3    0    0  0.31853617417E+02  0.18352559287E+02 -0.20766734843E+01  0.54367055584E+02  0.39999934815E+02 0.  0.
         12    1    3    3    0    0 -0.31853617417E+02 -0.18352559287E+02  0.20766734843E+01  0.36820944416E+02  0.00000000000E+00 0. -1.
         11    1    4    4    0    0  0.60769118591E+01  0.43717033986E+01  0.10418892921E+02  0.12829418471E+02  0.51100000000E-03 0. -1.
        -11    1    4    4    0    0  0.16536429435E+02  0.11661075242E+02  0.56799693260E+01  0.21016570274E+02  0.51100000000E-03 0.  1.
        -12    1    4    4    0    0  0.92402761228E+01  0.23197806462E+01 -0.18175535732E+02  0.20521066839E+02  0.00000000000E+00 0.  1.
</event>
<event>
 8    1  0.1280925E-006  0.9118800E+02  0.7816164E-02  0.1184000E+00
        -11   -1    0    0    0    0  0.00000000000E+00  0.00000000000E+00  0.45593999997E+02  0.45594000000E+02  0.51100000000E-03 0. -1.
         11   -1    0    0    0    0 -0.00000000000E+00 -0.00000000000E+00 -0.45593999997E+02  0.45594000000E+02  0.51100000000E-03 0.  1.
         23    2    1    2    0    0 -0.35527136788E-14  0.44408920985E-15  0.00000000000E+00  0.91188000000E+02  0.91188000000E+02 0.  0.
    9900012    2    3    3    0    0 -0.23659835004E+02  0.19708877329E+01  0.28144393496E+02  0.54367094578E+02  0.40000023709E+02 0.  0.
        -12    1    3    3    0    0  0.23659835004E+02 -0.19708877329E+01 -0.28144393496E+02  0.36820905422E+02  0.00000000000E+00 0.  1.
         11    1    4    4    0    0 -0.21318373550E+02 -0.14255991963E+02  0.14656483022E+02  0.29538430096E+02  0.51100000000E-03 0. -1.
        -11    1    4    4    0    0 -0.42633305918E+01  0.17683132437E+02  0.13027680211E+02  0.22373860026E+02  0.51100000000E-03 0.  1.
        -12    1    4    4    0    0  0.19218691375E+01 -0.14562527403E+01  0.46023026246E+00  0.24548044565E+01  0.00000000000E+00 0.  1.
</event>
<event>
 8    1  0.1280925E-006  0.9118800E+02  0.7816164E-02  0.1184000E+00
        -11   -1    0    0    0    0  0.00000000000E+00  0.00000000000E+00  0.45593999997E+02  0.45594000000E+02  0.51100000000E-03 0.  1.
         11   -1    0    0    0    0 -0.00000000000E+00 -0.00000000000E+00 -0.45593999997E+02  0.45594000000E+02  0.51100000000E-03 0. -1.
         23    2    1    2    0    0  0.00000000000E+00 -0.88817841970E-15  0.33306690739E-15  0.91188000000E+02  0.91188000000E+02 0.  0.
    9900012    2    3    3    0    0 -0.36005413988E+02 -0.76882465481E+01 -0.52960819285E+00  0.54367089416E+02  0.40000011941E+02 0.  0.
         12    1    3    3    0    0  0.36005413988E+02  0.76882465481E+01  0.52960819285E+00  0.36820910584E+02  0.00000000000E+00 0. -1.
         11    1    4    4    0    0 -0.22938257686E+02  0.58460433395E+01 -0.63002600363E+01  0.24495574400E+02  0.51100000000E-03 0. -1.
        -11    1    4    4    0    0 -0.14652807363E+02 -0.13736345959E+02  0.12029646551E+02  0.23411628741E+02  0.51100000000E-03 0.  1.
        -12    1    4    4    0    0  0.15856510612E+01  0.20205607101E+00 -0.62589947070E+01  0.64598862750E+01  0.00000000000E+00 0.  1.
</event>
<event>
 8    1  0.1280925E-006  0.9118800E+02  0.7816164E-02  0.1184000E+00
        -11   -1    0    0    0    0  0.00000000000E+00  0.00000000000E+00  0.45593999997E+02  0.45594000000E+02  0.51100000000E-03 0.  1.
         11   -1    0    0    0    0 -0.00000000000E+00 -0.00000000000E+00 -0.45593999997E+02  0.45594000000E+02  0.51100000000E-03 0. -1.
         23    2    1    2    0    0 -0.11102230246E-15  0.00000000000E+00 -0.35527136788E-14  0.91188000000E+02  0.91188000000E+02 0.  0.
    9900012    2    3    3    0    0 -0.44415937500E+00 -0.26357924308E+02  0.25706862682E+02  0.54367078768E+02  0.39999987667E+02 0.  0.
        -12    1    3    3    0    0  0.44415937500E+00  0.26357924308E+02 -0.25706862682E+02  0.36820921232E+02  0.00000000000E+00 0.  1.
         11    1    4    4    0    0 -0.11410254730E+02 -0.30744660159E+01  0.15414894629E+02  0.19423316683E+02  0.51100000000E-03 0. -1.
        -11    1    4    4    0    0 -0.92727174465E+00 -0.30180587980E+01 -0.57031190686E+01  0.65187482824E+01  0.51100000000E-03 0.  1.
        -12    1    4    4    0    0  0.11893367099E+02 -0.20265399495E+02  0.15995087122E+02  0.28425013802E+02  0.00000000000E+00 0.  1.
</event>
<event>
 8    1  0.1280925E-006  0.9118800E+02  0.7816164E-02  0.1184000E+00
        -11   -1    0    0    0    0  0.00000000000E+00  0.00000000000E+00  0.45593999997E+02  0.45594000000E+02  0.51100000000E-03 0.  1.
         11   -1    0    0    0    0 -0.00000000000E+00 -0.00000000000E+00 -0.45593999997E+02  0.45594000000E+02  0.51100000000E-03 0. -1.
         23    2    1    2    0    0 -0.22204460493E-15 -0.35527136788E-14  0.00000000000E+00  0.91188000000E+02  0.91188000000E+02 0.  0.
    9900012    2    3    3    0    0 -0.12344507986E+01  0.23881065947E+02  0.27999102167E+02  0.54367096947E+02  0.40000029109E+02 0.  0.
         12    1    3    3    0    0  0.12344507986E+01 -0.23881065947E+02 -0.27999102167E+02  0.36820903053E+02  0.00000000000E+00 0. -1.
         11    1    4    4    0    0 -0.46732437671E+00  0.13168543590E+01  0.17566126431E+02  0.17621614441E+02  0.51100000000E-03 0. -1.
        -11    1    4    4    0    0 -0.29410906834E+01  0.28391167178E+02  0.61613359874E+01  0.29200521392E+02  0.51100000000E-03 0.  1.
         12    1    4    4    0    0  0.21739642616E+01 -0.58269555902E+01  0.42716397484E+01  0.75449611132E+01  0.00000000000E+00 0. -1.
</event>
<event>
 8    1  0.1280925E-006  0.9118800E+02  0.7816164E-02  0.1184000E+00
        -11   -1    0    0    0    0  0.00000000000E+00  0.00000000000E+00  0.45593999997E+02  0.45594000000E+02  0.51100000000E-03 0.  1.
         11   -1    0    0    0    0 -0.00000000000E+00 -0.00000000000E+00 -0.45593999997E+02  0.45594000000E+02  0.51100000000E-03 0. -1.
         23    2    1    2    0    0  0.00000000000E+00  0.00000000000E+00  0.12767564783E-14  0.91188000000E+02  0.91188000000E+02 0.  0.
    9900012    2    3    3    0    0  0.15676174416E+02  0.33316904103E+02 -0.14306154332E+00  0.54367095476E+02  0.40000025757E+02 0.  0.
         12    1    3    3    0    0 -0.15676174416E+02 -0.33316904103E+02  0.14306154332E+00  0.36820904524E+02  0.00000000000E+00 0. -1.
         11    1    4    4    0    0  0.30679711734E+01 -0.58851650266E+01 -0.57997039903E+01  0.88138630093E+01  0.51100000000E-03 0. -1.
        -11    1    4    4    0    0  0.12937910294E+02  0.30753476274E+02 -0.29425525645E+01  0.33493647779E+02  0.51100000000E-03 0.  1.
         12    1    4    4    0    0 -0.32970705122E+00  0.84485928561E+01  0.85991950114E+01  0.12059584687E+02  0.00000000000E+00 0. -1.
</event>
<event>
 8    1  0.1280925E-006  0.9118800E+02  0.7816164E-02  0.1184000E+00
        -11   -1    0    0    0    0  0.00000000000E+00  0.00000000000E+00  0.45593999997E+02  0.45594000000E+02  0.51100000000E-03 0.  1.
         11   -1    0    0    0    0 -0.00000000000E+00 -0.00000000000E+00 -0.45593999997E+02  0.45594000000E+02  0.51100000000E-03 0. -1.
         23    2    1    2    0    0 -0.71054273576E-14  0.00000000000E+00  0.00000000000E+00  0.91188000000E+02  0.91188000000E+02 0.  0.
    9900012    2    3    3    0    0  0.32320220234E+02 -0.17195473655E+02  0.39368130064E+01  0.54367089544E+02  0.40000012232E+02 0.  0.
        -12    1    3    3    0    0 -0.32320220234E+02  0.17195473655E+02 -0.39368130064E+01  0.36820910456E+02  0.00000000000E+00 0.  1.
         11    1    4    4    0    0  0.22086865746E+02 -0.54740371111E+01  0.78751156617E+01  0.24079289186E+02  0.51100000000E-03 0. -1.
        -11    1    4    4    0    0  0.13638418416E+02  0.36155882572E+01 -0.76857946893E-01  0.14109742830E+02  0.51100000000E-03 0.  1.
        -12    1    4    4    0    0 -0.34050639280E+01 -0.15337024801E+02 -0.38614447084E+01  0.16178057527E+02  0.00000000000E+00 0.  1.
</event>
<event>
 8    1  0.1280925E-006  0.9118800E+02  0.7816164E-02  0.1184000E+00
        -11   -1    0    0    0    0  0.00000000000E+00  0.00000000000E+00  0.45593999997E+02  0.45594000000E+02  0.51100000000E-03 0. -1.
         11   -1    0    0    0    0 -0.00000000000E+00 -0.00000000000E+00 -0.45593999997E+02  0.45594000000E+02  0.51100000000E-03 0.  1.
         23    2    1    2    0    0  0.11102230246E-14  0.00000000000E+00  0.00000000000E+00  0.91188000000E+02  0.91188000000E+02 0.  0.
    9900012    2    3    3    0    0  0.14003431488E+01  0.22509773957E+02 -0.29105495462E+02  0.54367071840E+02  0.39999971873E+02 0.  0.
         12    1    3    3    0    0 -0.14003431488E+01 -0.22509773957E+02  0.29105495462E+02  0.36820928160E+02  0.00000000000E+00 0. -1.
         11    1    4    4    0    0  0.40181478108E+01 -0.52887863719E+01 -0.10574703920E+02  0.12487639343E+02  0.51100000000E-03 0. -1.
        -11    1    4    4    0    0  0.70350906607E+01  0.19464000396E+02 -0.20316654931E+02  0.29001832354E+02  0.51100000000E-03 0.  1.
        -12    1    4    4    0    0 -0.96528953226E+01  0.83345599324E+01  0.17858633893E+01  0.12877600142E+02  0.00000000000E+00 0.  1.
</event>
<event>
 8    1  0.1280925E-006  0.9118800E+02  0.7816164E-02  0.1184000E+00
        -11   -1    0    0    0    0  0.00000000000E+00  0.00000000000E+00  0.45593999997E+02  0.45594000000E+02  0.51100000000E-03 0.  1.
         11   -1    0    0    0    0 -0.00000000000E+00 -0.00000000000E+00 -0.45593999997E+02  0.45594000000E+02  0.51100000000E-03 0. -1.
         23    2    1    2    0    0  0.00000000000E+00  0.00000000000E+00 -0.88817841970E-15  0.91188000000E+02  0.91188000000E+02 0.  0.
    9900012    2    3    3    0    0  0.56557884214E+01 -0.36132933754E+02  0.42673353810E+01  0.54366987038E+02  0.39999778549E+02 0.  0.
        -12    1    3    3    0    0 -0.56557884214E+01  0.36132933754E+02 -0.42673353810E+01  0.36821012962E+02  0.00000000000E+00 0.  1.
         11    1    4    4    0    0  0.62207166935E+01 -0.17156422992E+02  0.72986438883E+01  0.19654779799E+02  0.51100000000E-03 0. -1.
        -11    1    4    4    0    0  0.60925845244E+01 -0.73112165323E+01  0.11498037419E+02  0.14925760889E+02  0.51100000000E-03 0.  1.
         12    1    4    4    0    0 -0.66575127966E+01 -0.11665294229E+02 -0.14529345926E+02  0.19786446349E+02  0.00000000000E+00 0. -1.
</event>
<event>
 8    1  0.1280925E-006  0.9118800E+02  0.7816164E-02  0.1184000E+00
        -11   -1    0    0    0    0  0.00000000000E+00  0.00000000000E+00  0.45593999997E+02  0.45594000000E+02  0.51100000000E-03 0.  1.
         11   -1    0    0    0    0 -0.00000000000E+00 -0.00000000000E+00 -0.45593999997E+02  0.45594000000E+02  0.51100000000E-03 0. -1.
         23    2    1    2    0    0 -0.33306690739E-15  0.00000000000E+00  0.35527136788E-14  0.91188000000E+02  0.91188000000E+02 0.  0.
    9900012    2    3    3    0    0 -0.34974732190E+00  0.29138179835E+02  0.22508300805E+02  0.54367089468E+02  0.40000012060E+02 0.  0.
         12    1    3    3    0    0  0.34974732190E+00 -0.29138179835E+02 -0.22508300805E+02  0.36820910532E+02  0.00000000000E+00 0. -1.
         11    1    4    4    0    0  0.17545293546E+01  0.12191268341E+02  0.20172703000E+02  0.23635637153E+02  0.51100000000E-03 0. -1.
        -11    1    4    4    0    0  0.82622586403E+01  0.11582183117E+02  0.94333419024E+01  0.17070437115E+02  0.51100000000E-03 0.  1.
         12    1    4    4    0    0 -0.10366535317E+02  0.53647283764E+01 -0.70977440972E+01  0.13661015200E+02  0.00000000000E+00 0. -1.
</event>
<event>
 8    1  0.1280925E-006  0.9118800E+02  0.7816164E-02  0.1184000E+00
        -11   -1    0    0    0    0  0.00000000000E+00  0.00000000000E+00  0.45593999997E+02  0.45594000000E+02  0.51100000000E-03 0. -1.
         11   -1    0    0    0    0 -0.00000000000E+00 -0.00000000000E+00 -0.45593999997E+02  0.45594000000E+02  0.51100000000E-03 0.  1.
         23    2    1    2    0    0  0.44408920985E-15 -0.17763568394E-14  0.00000000000E+00  0.91188000000E+02  0.91188000000E+02 0.  0.
    9900012    2    3    3    0    0 -0.29314545810E+01  0.84450319037E+01  0.35719296129E+02  0.54367080596E+02  0.39999991834E+02 0.  0.
        -12    1    3    3    0    0  0.29314545810E+01 -0.84450319037E+01 -0.35719296129E+02  0.36820919404E+02  0.00000000000E+00 0.  1.
         11    1    4    4    0    0  0.14365490872E+02  0.10482001395E+02  0.27309808387E+02  0.32589343590E+02  0.51100000000E-03 0. -1.
        -11    1    4    4    0    0 -0.13574772663E+00  0.26769764873E+00  0.38642036723E+01  0.38758431030E+01  0.51100000000E-03 0.  1.
        -12    1    4    4    0    0 -0.17161197726E+02 -0.23046671404E+01  0.45452840698E+01  0.17901893902E+02  0.00000000000E+00 0.  1.
</event>
<event>
 8    1  0.1280925E-006  0.9118800E+02  0.7816164E-02  0.1184000E+00
        -11   -1    0    0    0    0  0.00000000000E+00  0.00000000000E+00  0.45593999997E+02  0.45594000000E+02  0.51100000000E-03 0.  1.
         11   -1    0    0    0    0 -0.00000000000E+00 -0.00000000000E+00 -0.45593999997E+02  0.45594000000E+02  0.51100000000E-03 0. -1.
         23    2    1    2    0    0  0.35527136788E-14 -0.17763568394E-14  0.00000000000E+00  0.91188000000E+02  0.91188000000E+02 0.  0.
    9900012    2    3    3    0    0  0.18042745355E+02 -0.12520908896E+02 -0.29554456983E+02  0.54367085467E+02  0.40000002938E+02 0.  0.
        -12    1    3    3    0    0 -0.18042745355E+02  0.12520908896E+02  0.29554456983E+02  0.36820914533E+02  0.00000000000E+00 0.  1.
         11    1    4    4    0    0  0.59443057957E+01  0.91570227134E+00  0.92559907467E+00  0.60852293261E+01  0.51100000000E-03 0. -1.
        -11    1    4    4    0    0  0.64776215749E+01 -0.18761852705E+02 -0.34266251556E+01  0.20142205897E+02  0.51100000000E-03 0.  1.
        -12    1    4    4    0    0  0.56208179844E+01  0.53252415378E+01 -0.27053430902E+02  0.28139650243E+02  0.00000000000E+00 0.  1.
</event>
<event>
 8    1  0.1280925E-006  0.9118800E+02  0.7816164E-02  0.1184000E+00
        -11   -1    0    0    0    0  0.00000000000E+00  0.00000000000E+00  0.45593999997E+02  0.45594000000E+02  0.51100000000E-03 0.  1.
         11   -1    0    0    0    0 -0.00000000000E+00 -0.00000000000E+00 -0.45593999997E+02  0.45594000000E+02  0.51100000000E-03 0. -1.
         23    2    1    2    0    0  0.35527136788E-14 -0.35527136788E-14  0.88817841970E-15  0.91188000000E+02  0.91188000000E+02 0.  0.
    9900012    2    3    3    0    0 -0.26561732349E+02 -0.25182838983E+02  0.40098498165E+01  0.54367083388E+02  0.39999998200E+02 0.  0.
         12    1    3    3    0    0  0.26561732349E+02  0.25182838983E+02 -0.40098498165E+01  0.36820916612E+02  0.00000000000E+00 0. -1.
         11    1    4    4    0    0 -0.12417700869E+02 -0.26630983153E+02 -0.67545760837E+01  0.30150171756E+02  0.51100000000E-03 0. -1.
        -11    1    4    4    0    0 -0.12486587999E+02  0.67276646197E+01  0.27028414037E+01  0.14438895491E+02  0.51100000000E-03 0.  1.
        -12    1    4    4    0    0 -0.16574434804E+01 -0.52795204497E+01  0.80615844965E+01  0.97780161415E+01  0.00000000000E+00 0.  1.
</event>
<event>
 8    1  0.1280925E-006  0.9118800E+02  0.7816164E-02  0.1184000E+00
        -11   -1    0    0    0    0  0.00000000000E+00  0.00000000000E+00  0.45593999997E+02  0.45594000000E+02  0.51100000000E-03 0.  1.
         11   -1    0    0    0    0 -0.00000000000E+00 -0.00000000000E+00 -0.45593999997E+02  0.45594000000E+02  0.51100000000E-03 0. -1.
         23    2    1    2    0    0 -0.17763568394E-14  0.71054273576E-14  0.00000000000E+00  0.91188000000E+02  0.91188000000E+02 0.  0.
    9900012    2    3    3    0    0 -0.10274524956E+02 -0.33314826424E+02 -0.11846502317E+02  0.54367039395E+02  0.39999897908E+02 0.  0.
         12    1    3    3    0    0  0.10274524956E+02  0.33314826424E+02  0.11846502317E+02  0.36820960605E+02  0.00000000000E+00 0. -1.
         11    1    4    4    0    0  0.47197292810E+01 -0.51106092331E+00  0.76248653361E+00  0.48081611587E+01  0.51100000000E-03 0. -1.
        -11    1    4    4    0    0  0.17732916210E+01 -0.73476058921E+01 -0.17148564612E+02  0.18740468085E+02  0.51100000000E-03 0.  1.
        -12    1    4    4    0    0 -0.16767545858E+02 -0.25456159609E+02  0.45395757618E+01  0.30818410151E+02  0.00000000000E+00 0.  1.
</event>
<event>
 8    1  0.1280925E-006  0.9118800E+02  0.7816164E-02  0.1184000E+00
        -11   -1    0    0    0    0  0.00000000000E+00  0.00000000000E+00  0.45593999997E+02  0.45594000000E+02  0.51100000000E-03 0.  1.
         11   -1    0    0    0    0 -0.00000000000E+00 -0.00000000000E+00 -0.45593999997E+02  0.45594000000E+02  0.51100000000E-03 0. -1.
         23    2    1    2    0    0  0.00000000000E+00  0.35527136788E-14 -0.17763568394E-14  0.91188000000E+02  0.91188000000E+02 0.  0.
    9900012    2    3    3    0    0  0.18653256504E+02  0.27481898288E+02 -0.15892772797E+02  0.54367096441E+02  0.40000027957E+02 0.  0.
        -12    1    3    3    0    0 -0.18653256504E+02 -0.27481898288E+02  0.15892772797E+02  0.36820903559E+02  0.00000000000E+00 0.  1.
         11    1    4    4    0    0  0.40943352120E+01  0.13360211011E+02  0.46674020797E+01  0.14732394969E+02  0.51100000000E-03 0. -1.
        -11    1    4    4    0    0 -0.72317863005E+01  0.35782008932E+00 -0.10652155806E+01  0.73185690409E+01  0.51100000000E-03 0.  1.
        -12    1    4    4    0    0  0.21790707592E+02  0.13763867188E+02 -0.19494959296E+02  0.32316132431E+02  0.00000000000E+00 0.  1.
</event>
<event>
 8    1  0.1280925E-006  0.9118800E+02  0.7816164E-02  0.1184000E+00
        -11   -1    0    0    0    0  0.00000000000E+00  0.00000000000E+00  0.45593999997E+02  0.45594000000E+02  0.51100000000E-03 0.  1.
         11   -1    0    0    0    0 -0.00000000000E+00 -0.00000000000E+00 -0.45593999997E+02  0.45594000000E+02  0.51100000000E-03 0. -1.
         23    2    1    2    0    0  0.17763568394E-14 -0.71054273576E-14  0.00000000000E+00  0.91188000000E+02  0.91188000000E+02 0.  0.
    9900012    2    3    3    0    0  0.14023925515E+02  0.33978718942E+02  0.21344220711E+01  0.54367087663E+02  0.40000007945E+02 0.  0.
        -12    1    3    3    0    0 -0.14023925515E+02 -0.33978718942E+02 -0.21344220711E+01  0.36820912337E+02  0.00000000000E+00 0.  1.
         11    1    4    4    0    0  0.24082451142E+01 -0.55756913091E+01 -0.56851112220E+00  0.61000969879E+01  0.51100000000E-03 0. -1.
        -11    1    4    4    0    0  0.97349492718E+01  0.12562015639E+01 -0.14812917030E+00  0.98167826810E+01  0.51100000000E-03 0.  1.
        -12    1    4    4    0    0  0.18807311285E+01  0.38298208687E+02  0.28510623636E+01  0.38450207994E+02  0.00000000000E+00 0.  1.
</event>
<event>
 8    1  0.1280925E-006  0.9118800E+02  0.7816164E-02  0.1184000E+00
        -11   -1    0    0    0    0  0.00000000000E+00  0.00000000000E+00  0.45593999997E+02  0.45594000000E+02  0.51100000000E-03 0. -1.
         11   -1    0    0    0    0 -0.00000000000E+00 -0.00000000000E+00 -0.45593999997E+02  0.45594000000E+02  0.51100000000E-03 0.  1.
         23    2    1    2    0    0  0.00000000000E+00  0.00000000000E+00 -0.35527136788E-14  0.91188000000E+02  0.91188000000E+02 0.  0.
    9900012    2    3    3    0    0  0.16555592988E+02 -0.21735547890E+02  0.24682969616E+02  0.54367208451E+02  0.40000283304E+02 0.  0.
        -12    1    3    3    0    0 -0.16555592988E+02  0.21735547890E+02 -0.24682969616E+02  0.36820791549E+02  0.00000000000E+00 0.  1.
         11    1    4    4    0    0  0.12780969301E+02  0.50087917132E+01 -0.93640573349E+00  0.13759288741E+02  0.51100000000E-03 0. -1.
        -11    1    4    4    0    0 -0.20842288173E+01 -0.25022452633E+02  0.22658970882E+02  0.33821533189E+02  0.51100000000E-03 0.  1.
        -12    1    4    4    0    0  0.58588525042E+01 -0.17218869700E+01  0.29604044678E+01  0.67863865213E+01  0.00000000000E+00 0.  1.
</event>
<event>
 8    1  0.1280925E-006  0.9118800E+02  0.7816164E-02  0.1184000E+00
        -11   -1    0    0    0    0  0.00000000000E+00  0.00000000000E+00  0.45593999997E+02  0.45594000000E+02  0.51100000000E-03 0.  1.
         11   -1    0    0    0    0 -0.00000000000E+00 -0.00000000000E+00 -0.45593999997E+02  0.45594000000E+02  0.51100000000E-03 0. -1.
         23    2    1    2    0    0  0.00000000000E+00  0.44408920985E-15  0.00000000000E+00  0.91188000000E+02  0.91188000000E+02 0.  0.
    9900012    2    3    3    0    0 -0.88143417617E+01 -0.29815082940E+01 -0.35625920588E+02  0.54366970273E+02  0.39999740331E+02 0.  0.
        -12    1    3    3    0    0  0.88143417617E+01  0.29815082940E+01  0.35625920588E+02  0.36821029727E+02  0.00000000000E+00 0.  1.
         11    1    4    4    0    0  0.12236867873E+01  0.26218146818E+01 -0.20811381304E+02  0.21011542391E+02  0.51100000000E-03 0. -1.
        -11    1    4    4    0    0 -0.12322137552E+02  0.78276056290E+01 -0.13118399646E+02  0.19626484485E+02  0.51100000000E-03 0.  1.
        -12    1    4    4    0    0  0.22841090029E+01 -0.13430928605E+02 -0.16961396380E+01  0.13728943397E+02  0.00000000000E+00 0.  1.
</event>
<event>
 8    1  0.1280925E-006  0.9118800E+02  0.7816164E-02  0.1184000E+00
        -11   -1    0    0    0    0  0.00000000000E+00  0.00000000000E+00  0.45593999997E+02  0.45594000000E+02  0.51100000000E-03 0. -1.
         11   -1    0    0    0    0 -0.00000000000E+00 -0.00000000000E+00 -0.45593999997E+02  0.45594000000E+02  0.51100000000E-03 0.  1.
         23    2    1    2    0    0  0.00000000000E+00  0.00000000000E+00  0.35527136788E-14  0.91188000000E+02  0.91188000000E+02 0.  0.
    9900012    2    3    3    0    0  0.83964222056E+01 -0.17707677638E+02 -0.31172343617E+02  0.54367126032E+02  0.40000095415E+02 0.  0.
         12    1    3    3    0    0 -0.83964222056E+01  0.17707677638E+02  0.31172343617E+02  0.36820873968E+02  0.00000000000E+00 0. -1.
         11    1    4    4    0    0  0.97479339792E+01 -0.24423818014E+01 -0.10008196498E+02  0.14182786860E+02  0.51100000000E-03 0. -1.
        -11    1    4    4    0    0 -0.83137069009E+01 -0.22053645397E+02 -0.10650565165E+02  0.25863401484E+02  0.51100000000E-03 0.  1.
        -12    1    4    4    0    0  0.69621951273E+01  0.67883495605E+01 -0.10513581954E+02  0.14320937688E+02  0.00000000000E+00 0.  1.
</event>
<event>
 8    1  0.1280925E-006  0.9118800E+02  0.7816164E-02  0.1184000E+00
        -11   -1    0    0    0    0  0.00000000000E+00  0.00000000000E+00  0.45593999997E+02  0.45594000000E+02  0.51100000000E-03 0. -1.
         11   -1    0    0    0    0 -0.00000000000E+00 -0.00000000000E+00 -0.45593999997E+02  0.45594000000E+02  0.51100000000E-03 0.  1.
         23    2    1    2    0    0  0.17763568394E-14 -0.71054273576E-14  0.00000000000E+00  0.91188000000E+02  0.91188000000E+02 0.  0.
    9900012    2    3    3    0    0 -0.10589774680E+02  0.32286330207E+02  0.14185536094E+02  0.54367083658E+02  0.39999998815E+02 0.  0.
        -12    1    3    3    0    0  0.10589774680E+02 -0.32286330207E+02 -0.14185536094E+02  0.36820916342E+02  0.00000000000E+00 0.  1.
         11    1    4    4    0    0 -0.10609714153E+02  0.30120064385E+02  0.67280067105E+01  0.32635109737E+02  0.51100000000E-03 0. -1.
        -11    1    4    4    0    0  0.53844729211E+01 -0.59142006395E+01  0.88554179079E+01  0.11932675493E+02  0.51100000000E-03 0.  1.
         12    1    4    4    0    0 -0.53645334483E+01  0.80804664614E+01 -0.13978885249E+01  0.97992984279E+01  0.00000000000E+00 0. -1.
</event>
<event>
 8    1  0.1280925E-006  0.9118800E+02  0.7816164E-02  0.1184000E+00
        -11   -1    0    0    0    0  0.00000000000E+00  0.00000000000E+00  0.45593999997E+02  0.45594000000E+02  0.51100000000E-03 0.  1.
         11   -1    0    0    0    0 -0.00000000000E+00 -0.00000000000E+00 -0.45593999997E+02  0.45594000000E+02  0.51100000000E-03 0. -1.
         23    2    1    2    0    0 -0.17763568394E-14  0.35527136788E-14  0.35527136788E-14  0.91188000000E+02  0.91188000000E+02 0.  0.
    9900012    2    3    3    0    0 -0.14636766268E+02  0.19243272925E+02 -0.27771201556E+02  0.54367107622E+02  0.40000053447E+02 0.  0.
        -12    1    3    3    0    0  0.14636766268E+02 -0.19243272925E+02  0.27771201556E+02  0.36820892378E+02  0.00000000000E+00 0.  1.
         11    1    4    4    0    0 -0.62246181407E+01 -0.21691394116E+00  0.65971781438E+01  0.90727990376E+01  0.51100000000E-03 0. -1.
        -11    1    4    4    0    0  0.21191530441E+01  0.44899913989E+01  0.13622159974E+01  0.51484429754E+01  0.51100000000E-03 0.  1.
         12    1    4    4    0    0 -0.10531301171E+02  0.14970195467E+02 -0.35730595697E+02  0.40145865609E+02  0.00000000000E+00 0. -1.
</event>
<event>
 8    1  0.1280925E-006  0.9118800E+02  0.7816164E-02  0.1184000E+00
        -11   -1    0    0    0    0  0.00000000000E+00  0.00000000000E+00  0.45593999997E+02  0.45594000000E+02  0.51100000000E-03 0. -1.
         11   -1    0    0    0    0 -0.00000000000E+00 -0.00000000000E+00 -0.45593999997E+02  0.45594000000E+02  0.51100000000E-03 0.  1.
         23    2    1    2    0    0  0.00000000000E+00 -0.35527136788E-14  0.17763568394E-14  0.91188000000E+02  0.91188000000E+02 0.  0.
    9900012    2    3    3    0    0  0.22499302413E+02  0.28041563637E+02 -0.79517380479E+01  0.54367108671E+02  0.40000055837E+02 0.  0.
        -12    1    3    3    0    0 -0.22499302413E+02 -0.28041563637E+02  0.79517380479E+01  0.36820891329E+02  0.00000000000E+00 0.  1.
         11    1    4    4    0    0 -0.31833765780E+00  0.11484030929E+02  0.66353827407E+01  0.13266974396E+02  0.51100000000E-03 0. -1.
        -11    1    4    4    0    0  0.60896361960E+01 -0.59347774509E+00  0.66842988972E+01  0.90617733828E+01  0.51100000000E-03 0.  1.
        -12    1    4    4    0    0  0.16728003875E+02  0.17151010453E+02 -0.21271419686E+02  0.32038360892E+02  0.00000000000E+00 0.  1.
</event>
<event>
 8    1  0.1280925E-006  0.9118800E+02  0.7816164E-02  0.1184000E+00
        -11   -1    0    0    0    0  0.00000000000E+00  0.00000000000E+00  0.45593999997E+02  0.45594000000E+02  0.51100000000E-03 0.  1.
         11   -1    0    0    0    0 -0.00000000000E+00 -0.00000000000E+00 -0.45593999997E+02  0.45594000000E+02  0.51100000000E-03 0. -1.
         23    2    1    2    0    0  0.35527136788E-14  0.17763568394E-14  0.35527136788E-14  0.91188000000E+02  0.91188000000E+02 0.  0.
    9900012    2    3    3    0    0  0.23198953447E+02  0.13206810896E+02  0.25360778984E+02  0.54367076522E+02  0.39999982548E+02 0.  0.
         12    1    3    3    0    0 -0.23198953447E+02 -0.13206810896E+02 -0.25360778984E+02  0.36820923478E+02  0.00000000000E+00 0. -1.
         11    1    4    4    0    0  0.45432035309E+01 -0.93494039834E+01 -0.16246837864E+01  0.10521009972E+02  0.51100000000E-03 0. -1.
        -11    1    4    4    0    0  0.13916461317E+02  0.27415751740E+01  0.10945899479E+02  0.17916384839E+02  0.51100000000E-03 0.  1.
        -12    1    4    4    0    0  0.47392885993E+01  0.19814639705E+02  0.16039563292E+02  0.25929681711E+02  0.00000000000E+00 0.  1.
</event>
<event>
 8    1  0.1280925E-006  0.9118800E+02  0.7816164E-02  0.1184000E+00
        -11   -1    0    0    0    0  0.00000000000E+00  0.00000000000E+00  0.45593999997E+02  0.45594000000E+02  0.51100000000E-03 0.  1.
         11   -1    0    0    0    0 -0.00000000000E+00 -0.00000000000E+00 -0.45593999997E+02  0.45594000000E+02  0.51100000000E-03 0. -1.
         23    2    1    2    0    0  0.00000000000E+00  0.17763568394E-14  0.00000000000E+00  0.91188000000E+02  0.91188000000E+02 0.  0.
    9900012    2    3    3    0    0 -0.31611516271E+02 -0.12947211942E+02  0.13742696733E+02  0.54367082419E+02  0.39999995990E+02 0.  0.
         12    1    3    3    0    0  0.31611516271E+02  0.12947211942E+02 -0.13742696733E+02  0.36820917581E+02  0.00000000000E+00 0. -1.
         11    1    4    4    0    0 -0.28036317205E+02  0.28762030249E+01  0.15002240123E+02  0.31927650011E+02  0.51100000000E-03 0. -1.
        -11    1    4    4    0    0 -0.39480936232E+01 -0.18443068435E+02 -0.32362561387E+01  0.19136550646E+02  0.51100000000E-03 0.  1.
         12    1    4    4    0    0  0.37289455701E+00  0.26196534683E+01  0.19767127491E+01  0.33028817625E+01  0.00000000000E+00 0. -1.
</event>
<event>
 8    1  0.1280925E-006  0.9118800E+02  0.7816164E-02  0.1184000E+00
        -11   -1    0    0    0    0  0.00000000000E+00  0.00000000000E+00  0.45593999997E+02  0.45594000000E+02  0.51100000000E-03 0.  1.
         11   -1    0    0    0    0 -0.00000000000E+00 -0.00000000000E+00 -0.45593999997E+02  0.45594000000E+02  0.51100000000E-03 0. -1.
         23    2    1    2    0    0 -0.35527136788E-14  0.00000000000E+00  0.00000000000E+00  0.91188000000E+02  0.91188000000E+02 0.  0.
    9900012    2    3    3    0    0  0.20766369711E+02  0.40143087185E+01 -0.30140076440E+02  0.54367068544E+02  0.39999964360E+02 0.  0.
        -12    1    3    3    0    0 -0.20766369711E+02 -0.40143087185E+01  0.30140076440E+02  0.36820931456E+02  0.00000000000E+00 0.  1.
         11    1    4    4    0    0  0.18357171068E+02 -0.13279752466E+02 -0.12665264334E+02  0.25956626824E+02  0.51100000000E-03 0. -1.
        -11    1    4    4    0    0 -0.36181851181E+01  0.66419199893E+00 -0.68527484216E+01  0.77776973296E+01  0.51100000000E-03 0.  1.
        -12    1    4    4    0    0  0.60273837616E+01  0.16629869186E+02 -0.10622063684E+02  0.20632744390E+02  0.00000000000E+00 0.  1.
</event>
<event>
 8    1  0.1280925E-006  0.9118800E+02  0.7816164E-02  0.1184000E+00
        -11   -1    0    0    0    0  0.00000000000E+00  0.00000000000E+00  0.45593999997E+02  0.45594000000E+02  0.51100000000E-03 0. -1.
         11   -1    0    0    0    0 -0.00000000000E+00 -0.00000000000E+00 -0.45593999997E+02  0.45594000000E+02  0.51100000000E-03 0.  1.
         23    2    1    2    0    0  0.62450045135E-15 -0.35527136788E-14  0.00000000000E+00  0.91188000000E+02  0.91188000000E+02 0.  0.
    9900012    2    3    3    0    0 -0.11421889766E+00  0.30780703470E+02 -0.20206807178E+02  0.54367084634E+02  0.40000001041E+02 0.  0.
         12    1    3    3    0    0  0.11421889766E+00 -0.30780703470E+02  0.20206807178E+02  0.36820915366E+02  0.00000000000E+00 0. -1.
         11    1    4    4    0    0  0.36103724651E+01 -0.13876705205E+01  0.63495748702E+01  0.74348853457E+01  0.51100000000E-03 0. -1.
        -11    1    4    4    0    0 -0.85642649906E+01  0.29337444881E+02 -0.14906862807E+02  0.34003630188E+02  0.51100000000E-03 0.  1.
         12    1    4    4    0    0  0.48396736278E+01  0.28309291097E+01 -0.11649519240E+02  0.12928569100E+02  0.00000000000E+00 0. -1.
</event>
<event>
 8    1  0.1280925E-006  0.9118800E+02  0.7816164E-02  0.1184000E+00
        -11   -1    0    0    0    0  0.00000000000E+00  0.00000000000E+00  0.45593999997E+02  0.45594000000E+02  0.51100000000E-03 0.  1.
         11   -1    0    0    0    0 -0.00000000000E+00 -0.00000000000E+00 -0.45593999997E+02  0.45594000000E+02  0.51100000000E-03 0. -1.
         23    2    1    2    0    0  0.00000000000E+00  0.00000000000E+00  0.00000000000E+00  0.91188000000E+02  0.91188000000E+02 0.  0.
    9900012    2    3    3    0    0 -0.59558325897E+01  0.13574360324E+02 -0.33705236770E+02  0.54367106668E+02  0.40000051271E+02 0.  0.
        -12    1    3    3    0    0  0.59558325897E+01 -0.13574360324E+02  0.33705236770E+02  0.36820893332E+02  0.00000000000E+00 0.  1.
         11    1    4    4    0    0 -0.11235735023E+02  0.72637697377E+01 -0.26808684246E+02  0.29961803076E+02  0.51100000000E-03 0. -1.
        -11    1    4    4    0    0  0.91560680999E+01 -0.38282014806E+01 -0.89435595530E+01  0.13359489787E+02  0.51100000000E-03 0.  1.
        -12    1    4    4    0    0 -0.38761656668E+01  0.10138792067E+02  0.20470070287E+01  0.11045813805E+02  0.00000000000E+00 0.  1.
</event>
<event>
 8    1  0.1280925E-006  0.9118800E+02  0.7816164E-02  0.1184000E+00
        -11   -1    0    0    0    0  0.00000000000E+00  0.00000000000E+00  0.45593999997E+02  0.45594000000E+02  0.51100000000E-03 0. -1.
         11   -1    0    0    0    0 -0.00000000000E+00 -0.00000000000E+00 -0.45593999997E+02  0.45594000000E+02  0.51100000000E-03 0.  1.
         23    2    1    2    0    0  0.00000000000E+00 -0.35527136788E-14  0.00000000000E+00  0.91188000000E+02  0.91188000000E+02 0.  0.
    9900012    2    3    3    0    0 -0.23187917244E+02  0.24422357489E+02  0.14887910220E+02  0.54367069510E+02  0.39999966561E+02 0.  0.
        -12    1    3    3    0    0  0.23187917244E+02 -0.24422357489E+02 -0.14887910220E+02  0.36820930490E+02  0.00000000000E+00 0.  1.
         11    1    4    4    0    0 -0.18284596819E+01 -0.10587021412E+01  0.13288260964E+02  0.13455184679E+02  0.51100000000E-03 0. -1.
        -11    1    4    4    0    0 -0.20485803368E+02  0.63762744221E+01 -0.16272605209E+01  0.21516807203E+02  0.51100000000E-03 0.  1.
        -12    1    4    4    0    0 -0.87365419440E+00  0.19104785208E+02  0.32269097768E+01  0.19395077628E+02  0.00000000000E+00 0.  1.
</event>
<event>
 8    1  0.1280925E-006  0.9118800E+02  0.7816164E-02  0.1184000E+00
        -11   -1    0    0    0    0  0.00000000000E+00  0.00000000000E+00  0.45593999997E+02  0.45594000000E+02  0.51100000000E-03 0.  1.
         11   -1    0    0    0    0 -0.00000000000E+00 -0.00000000000E+00 -0.45593999997E+02  0.45594000000E+02  0.51100000000E-03 0. -1.
         23    2    1    2    0    0  0.88817841970E-15 -0.17763568394E-14  0.00000000000E+00  0.91188000000E+02  0.91188000000E+02 0.  0.
    9900012    2    3    3    0    0 -0.45334004934E+01 -0.55377562920E+01  0.36118733728E+02  0.54367063144E+02  0.39999952050E+02 0.  0.
         12    1    3    3    0    0  0.45334004934E+01  0.55377562920E+01 -0.36118733728E+02  0.36820936856E+02  0.00000000000E+00 0. -1.
         11    1    4    4    0    0  0.92888525378E+01  0.61460942037E+01  0.54967891354E+00  0.11151654702E+02  0.51100000000E-03 0. -1.
        -11    1    4    4    0    0 -0.14054436514E+02 -0.13612301716E+01  0.22435724418E+02  0.26509278823E+02  0.51100000000E-03 0.  1.
        -12    1    4    4    0    0  0.23218348311E+00 -0.10322620324E+02  0.13133330397E+02  0.16706129619E+02  0.00000000000E+00 0.  1.
</event>
<event>
 8    1  0.1280925E-006  0.9118800E+02  0.7816164E-02  0.1184000E+00
        -11   -1    0    0    0    0  0.00000000000E+00  0.00000000000E+00  0.45593999997E+02  0.45594000000E+02  0.51100000000E-03 0.  1.
         11   -1    0    0    0    0 -0.00000000000E+00 -0.00000000000E+00 -0.45593999997E+02  0.45594000000E+02  0.51100000000E-03 0. -1.
         23    2    1    2    0    0 -0.35527136788E-14  0.17763568394E-14  0.00000000000E+00  0.91188000000E+02  0.91188000000E+02 0.  0.
    9900012    2    3    3    0    0  0.16768044693E+02  0.89718517043E+01 -0.31529657421E+02  0.54367071944E+02  0.39999972111E+02 0.  0.
        -12    1    3    3    0    0 -0.16768044693E+02 -0.89718517043E+01  0.31529657421E+02  0.36820928056E+02  0.00000000000E+00 0.  1.
         11    1    4    4    0    0  0.31407695002E+01  0.12006938971E+02 -0.25515353723E+02  0.28373654900E+02  0.51100000000E-03 0. -1.
        -11    1    4    4    0    0 -0.18097063335E+01 -0.23569839178E+01 -0.96689073323E+01  0.10115244904E+02  0.51100000000E-03 0.  1.
         12    1    4    4    0    0  0.15436981526E+02 -0.67810334901E+00  0.36546036347E+01  0.15878172140E+02  0.00000000000E+00 0. -1.
</event>
<event>
 8    1  0.1280925E-006  0.9118800E+02  0.7816164E-02  0.1184000E+00
        -11   -1    0    0    0    0  0.00000000000E+00  0.00000000000E+00  0.45593999997E+02  0.45594000000E+02  0.51100000000E-03 0.  1.
         11   -1    0    0    0    0 -0.00000000000E+00 -0.00000000000E+00 -0.45593999997E+02  0.45594000000E+02  0.51100000000E-03 0. -1.
         23    2    1    2    0    0  0.00000000000E+00 -0.35527136788E-14  0.00000000000E+00  0.91188000000E+02  0.91188000000E+02 0.  0.
    9900012    2    3    3    0    0 -0.19088519845E+02 -0.10982265464E+02 -0.29509281500E+02  0.54367089647E+02  0.40000012467E+02 0.  0.
        -12    1    3    3    0    0  0.19088519845E+02  0.10982265464E+02  0.29509281500E+02  0.36820910353E+02  0.00000000000E+00 0.  1.
         11    1    4    4    0    0 -0.22075488730E+02 -0.19915534898E+02 -0.25327221239E+02  0.39056675087E+02  0.51100000000E-03 0. -1.
        -11    1    4    4    0    0  0.25327749052E+01 -0.83966676291E+00  0.23426752208E+01  0.35507909603E+01  0.51100000000E-03 0.  1.
         12    1    4    4    0    0  0.45419397943E+00  0.97729361969E+01 -0.65247354822E+01  0.11759623599E+02  0.00000000000E+00 0. -1.
</event>
<event>
 8    1  0.1280925E-006  0.9118800E+02  0.7816164E-02  0.1184000E+00
        -11   -1    0    0    0    0  0.00000000000E+00  0.00000000000E+00  0.45593999997E+02  0.45594000000E+02  0.51100000000E-03 0.  1.
         11   -1    0    0    0    0 -0.00000000000E+00 -0.00000000000E+00 -0.45593999997E+02  0.45594000000E+02  0.51100000000E-03 0. -1.
         23    2    1    2    0    0 -0.13322676296E-14  0.00000000000E+00  0.00000000000E+00  0.91188000000E+02  0.91188000000E+02 0.  0.
    9900012    2    3    3    0    0  0.48874765273E+00  0.33020506295E+02  0.16284606591E+02  0.54367066796E+02  0.39999960374E+02 0.  0.
         12    1    3    3    0    0 -0.48874765273E+00 -0.33020506295E+02 -0.16284606591E+02  0.36820933204E+02  0.00000000000E+00 0. -1.
         11    1    4    4    0    0 -0.47588537897E+01  0.11820944301E+02 -0.18673778750E+01  0.12878995067E+02  0.51100000000E-03 0. -1.
        -11    1    4    4    0    0 -0.73737347432E+01  0.20173322702E+02  0.19163197445E+02  0.28784771138E+02  0.51100000000E-03 0.  1.
         12    1    4    4    0    0  0.12621336186E+02  0.10262392920E+01 -0.10112129794E+01  0.12703300590E+02  0.00000000000E+00 0. -1.
</event>
<event>
 8    1  0.1280925E-006  0.9118800E+02  0.7816164E-02  0.1184000E+00
        -11   -1    0    0    0    0  0.00000000000E+00  0.00000000000E+00  0.45593999997E+02  0.45594000000E+02  0.51100000000E-03 0.  1.
         11   -1    0    0    0    0 -0.00000000000E+00 -0.00000000000E+00 -0.45593999997E+02  0.45594000000E+02  0.51100000000E-03 0. -1.
         23    2    1    2    0    0  0.00000000000E+00  0.22204460493E-15 -0.17763568394E-14  0.91188000000E+02  0.91188000000E+02 0.  0.
    9900012    2    3    3    0    0  0.34696709356E+02  0.15715668101E+01  0.12224908086E+02  0.54367084204E+02  0.40000000060E+02 0.  0.
         12    1    3    3    0    0 -0.34696709356E+02 -0.15715668101E+01 -0.12224908086E+02  0.36820915796E+02  0.00000000000E+00 0. -1.
         11    1    4    4    0    0  0.97943141861E+01 -0.95027702420E+01 -0.76141910573E+01  0.15627128283E+02  0.51100000000E-03 0. -1.
        -11    1    4    4    0    0  0.12489514321E+02  0.15552979262E+02  0.10240226179E+02  0.22421983952E+02  0.51100000000E-03 0.  1.
        -12    1    4    4    0    0  0.12412880849E+02 -0.44786422094E+01  0.95988729643E+01  0.16317971969E+02  0.00000000000E+00 0.  1.
</event>
