<event>
 8    1  0.1290800E-006  0.9118800E+02  0.7816164E-02  0.1184000E+00
        -11   -1    0    0    0    0  0.00000000000E+00  0.00000000000E+00  0.45593999997E+02  0.45594000000E+02  0.51100000000E-03 0. -1.
         11   -1    0    0    0    0 -0.00000000000E+00 -0.00000000000E+00 -0.45593999997E+02  0.45594000000E+02  0.51100000000E-03 0.  1.
         23    2    1    2    0    0  0.17763568394E-14  0.35527136788E-14  0.00000000000E+00  0.91188000000E+02  0.91188000000E+02 0.  0.
    9900012    2    3    3    0    0  0.69093612114E+01  0.27850924570E+02 -0.23073054078E+02  0.54367094304E+02  0.40000023086E+02 0.  0.
         12    1    3    3    0    0 -0.69093612114E+01 -0.27850924570E+02  0.23073054078E+02  0.36820905696E+02  0.00000000000E+00 0. -1.
         11    1    4    4    0    0  0.16752580248E+02  0.31080523349E+01 -0.53575967983E+01  0.17860928811E+02  0.51100000000E-03 0. -1.
        -11    1    4    4    0    0 -0.29180233219E+01  0.19884431941E+02 -0.19340585744E+02  0.27892001558E+02  0.51100000000E-03 0.  1.
        -12    1    4    4    0    0 -0.69251957147E+01  0.48584402942E+01  0.16251284645E+01  0.86141639354E+01  0.00000000000E+00 0.  1.
</event>
<event>
 8    1  0.1290800E-006  0.9118800E+02  0.7816164E-02  0.1184000E+00
        -11   -1    0    0    0    0  0.00000000000E+00  0.00000000000E+00  0.45593999997E+02  0.45594000000E+02  0.51100000000E-03 0.  1.
         11   -1    0    0    0    0 -0.00000000000E+00 -0.00000000000E+00 -0.45593999997E+02  0.45594000000E+02  0.51100000000E-03 0. -1.
         23    2    1    2    0    0  0.00000000000E+00 -0.17763568394E-14  0.66613381478E-15  0.91188000000E+02  0.91188000000E+02 0.  0.
    9900012    2    3    3    0    0  0.34783187023E+02  0.12069325579E+02  0.49109171648E+00  0.54367083519E+02  0.39999998499E+02 0.  0.
         12    1    3    3    0    0 -0.34783187023E+02 -0.12069325579E+02 -0.49109171648E+00  0.36820916481E+02  0.00000000000E+00 0. -1.
         11    1    4    4    0    0  0.88943237867E+01  0.12504825671E+01 -0.62831840386E+01  0.10961345912E+02  0.51100000000E-03 0. -1.
        -11    1    4    4    0    0  0.32833989933E+02  0.10549081480E+02  0.12198286881E+01  0.34508578604E+02  0.51100000000E-03 0.  1.
        -12    1    4    4    0    0 -0.69451266967E+01  0.26976153234E+00  0.55544470669E+01  0.88971590037E+01  0.00000000000E+00 0.  1.
</event>
<event>
 8    1  0.1290800E-006  0.9118800E+02  0.7816164E-02  0.1184000E+00
        -11   -1    0    0    0    0  0.00000000000E+00  0.00000000000E+00  0.45593999997E+02  0.45594000000E+02  0.51100000000E-03 0.  1.
         11   -1    0    0    0    0 -0.00000000000E+00 -0.00000000000E+00 -0.45593999997E+02  0.45594000000E+02  0.51100000000E-03 0. -1.
         23    2    1    2    0    0 -0.17763568394E-14  0.00000000000E+00 -0.17763568394E-14  0.91188000000E+02  0.91188000000E+02 0.  0.
    9900012    2    3    3    0    0 -0.10184629702E+02 -0.34996531432E+02 -0.52245151067E+01  0.54367089466E+02  0.40000012057E+02 0.  0.
         12    1    3    3    0    0  0.10184629702E+02  0.34996531432E+02  0.52245151067E+01  0.36820910534E+02  0.00000000000E+00 0. -1.
         11    1    4    4    0    0 -0.12101562496E+02 -0.21174974399E+02 -0.15435391433E+01  0.24437877751E+02  0.51100000000E-03 0.  1.
        -11    1    4    4    0    0  0.60725449021E+01 -0.75012225182E+00 -0.12294400573E+02  0.13732835493E+02  0.51100000000E-03 0. -1.
         12    1    4    4    0    0 -0.41556121079E+01 -0.13071434781E+02  0.86134246092E+01  0.16196376222E+02  0.00000000000E+00 0. -1.
</event>
<event>
 8    1  0.1290800E-006  0.9118800E+02  0.7816164E-02  0.1184000E+00
        -11   -1    0    0    0    0  0.00000000000E+00  0.00000000000E+00  0.45593999997E+02  0.45594000000E+02  0.51100000000E-03 0.  1.
         11   -1    0    0    0    0 -0.00000000000E+00 -0.00000000000E+00 -0.45593999997E+02  0.45594000000E+02  0.51100000000E-03 0. -1.
         23    2    1    2    0    0 -0.88817841970E-15  0.00000000000E+00 -0.35527136788E-14  0.91188000000E+02  0.91188000000E+02 0.  0.
    9900012    2    3    3    0    0  0.59016827249E+01 -0.22104620793E+02  0.28850246550E+02  0.54367070553E+02  0.39999968939E+02 0.  0.
         12    1    3    3    0    0 -0.59016827249E+01  0.22104620793E+02 -0.28850246550E+02  0.36820929447E+02  0.00000000000E+00 0. -1.
         11    1    4    4    0    0  0.79695053175E+01 -0.13513680099E+02  0.73158628727E+01  0.17310529012E+02  0.51100000000E-03 0. -1.
        -11    1    4    4    0    0  0.12272835724E+02  0.17977344433E+01  0.78774221772E+01  0.14693812516E+02  0.51100000000E-03 0.  1.
         12    1    4    4    0    0 -0.14340658316E+02 -0.10388675137E+02  0.13656961500E+02  0.22362729025E+02  0.00000000000E+00 0. -1.
</event>
<event>
 8    1  0.1290800E-006  0.9118800E+02  0.7816164E-02  0.1184000E+00
        -11   -1    0    0    0    0  0.00000000000E+00  0.00000000000E+00  0.45593999997E+02  0.45594000000E+02  0.51100000000E-03 0.  1.
         11   -1    0    0    0    0 -0.00000000000E+00 -0.00000000000E+00 -0.45593999997E+02  0.45594000000E+02  0.51100000000E-03 0. -1.
         23    2    1    2    0    0  0.35527136788E-14  0.17763568394E-14  0.17763568394E-14  0.91188000000E+02  0.91188000000E+02 0.  0.
    9900012    2    3    3    0    0 -0.30877642021E+02  0.12940193658E+02 -0.15326553522E+02  0.54367073456E+02  0.39999975557E+02 0.  0.
        -12    1    3    3    0    0  0.30877642021E+02 -0.12940193658E+02  0.15326553522E+02  0.36820926544E+02  0.00000000000E+00 0.  1.
         11    1    4    4    0    0  0.10040383948E+01 -0.47175138509E+01 -0.46691895573E+01  0.67129994350E+01  0.51100000000E-03 0. -1.
        -11    1    4    4    0    0 -0.23328355783E+02  0.20151927097E+02  0.33968468024E+01  0.31013721443E+02  0.51100000000E-03 0.  1.
        -12    1    4    4    0    0 -0.85533246333E+01 -0.24942195879E+01 -0.14054210767E+02  0.16640352578E+02  0.00000000000E+00 0.  1.
</event>
<event>
 8    1  0.1290800E-006  0.9118800E+02  0.7816164E-02  0.1184000E+00
        -11   -1    0    0    0    0  0.00000000000E+00  0.00000000000E+00  0.45593999997E+02  0.45594000000E+02  0.51100000000E-03 0.  1.
         11   -1    0    0    0    0 -0.00000000000E+00 -0.00000000000E+00 -0.45593999997E+02  0.45594000000E+02  0.51100000000E-03 0. -1.
         23    2    1    2    0    0  0.00000000000E+00  0.88817841970E-15 -0.88817841970E-15  0.91188000000E+02  0.91188000000E+02 0.  0.
    9900012    2    3    3    0    0 -0.35916030388E+02  0.58833578741E+01 -0.55861363679E+01  0.54367081241E+02  0.39999993305E+02 0.  0.
         12    1    3    3    0    0  0.35916030388E+02 -0.58833578741E+01  0.55861363679E+01  0.36820918759E+02  0.00000000000E+00 0. -1.
         11    1    4    4    0    0 -0.12029315011E+01 -0.12016513065E+02  0.91806463403E+00  0.12111419131E+02  0.51100000000E-03 0. -1.
        -11    1    4    4    0    0 -0.18187320809E+02  0.16390553506E+02 -0.75702643385E+01  0.25626895733E+02  0.51100000000E-03 0.  1.
        -12    1    4    4    0    0 -0.16525778078E+02  0.15093174327E+01  0.10660633367E+01  0.16628766377E+02  0.00000000000E+00 0.  1.
</event>
<event>
 8    1  0.1290800E-006  0.9118800E+02  0.7816164E-02  0.1184000E+00
        -11   -1    0    0    0    0  0.00000000000E+00  0.00000000000E+00  0.45593999997E+02  0.45594000000E+02  0.51100000000E-03 0.  1.
         11   -1    0    0    0    0 -0.00000000000E+00 -0.00000000000E+00 -0.45593999997E+02  0.45594000000E+02  0.51100000000E-03 0. -1.
         23    2    1    2    0    0  0.00000000000E+00  0.00000000000E+00 -0.88817841970E-15  0.91188000000E+02  0.91188000000E+02 0.  0.
    9900012    2    3    3    0    0  0.31295793676E+02 -0.19274502047E+02  0.22013808086E+01  0.54367092781E+02  0.40000019613E+02 0.  0.
        -12    1    3    3    0    0 -0.31295793676E+02  0.19274502047E+02 -0.22013808086E+01  0.36820907219E+02  0.00000000000E+00 0.  1.
         11    1    4    4    0    0  0.22194093017E+01 -0.10577405647E+02 -0.10431793368E+02  0.15020972039E+02  0.51100000000E-03 0. -1.
        -11    1    4    4    0    0  0.74073652106E+01 -0.12755991487E+02  0.20531580727E+01  0.14892945864E+02  0.51100000000E-03 0.  1.
        -12    1    4    4    0    0  0.21669019163E+02  0.40588950875E+01  0.10580016104E+02  0.24453174878E+02  0.00000000000E+00 0.  1.
</event>
<event>
 8    1  0.1290800E-006  0.9118800E+02  0.7816164E-02  0.1184000E+00
        -11   -1    0    0    0    0  0.00000000000E+00  0.00000000000E+00  0.45593999997E+02  0.45594000000E+02  0.51100000000E-03 0. -1.
         11   -1    0    0    0    0 -0.00000000000E+00 -0.00000000000E+00 -0.45593999997E+02  0.45594000000E+02  0.51100000000E-03 0.  1.
         23    2    1    2    0    0  0.00000000000E+00  0.35527136788E-14  0.00000000000E+00  0.91188000000E+02  0.91188000000E+02 0.  0.
    9900012    2    3    3    0    0 -0.17622200657E+02 -0.30902523599E+02 -0.95011254050E+01  0.54367091473E+02  0.40000016630E+02 0.  0.
        -12    1    3    3    0    0  0.17622200657E+02  0.30902523599E+02  0.95011254050E+01  0.36820908527E+02  0.00000000000E+00 0.  1.
         11    1    4    4    0    0 -0.37130211885E+01 -0.36097373037E+01 -0.14700693373E+02  0.15586119327E+02  0.51100000000E-03 0.  1.
        -11    1    4    4    0    0 -0.26948343564E+01 -0.13335774230E+02 -0.86701094216E+01  0.16133065554E+02  0.51100000000E-03 0. -1.
         12    1    4    4    0    0 -0.11214345112E+02 -0.13957012065E+02  0.13869677390E+02  0.22647906592E+02  0.00000000000E+00 0. -1.
</event>
<event>
 8    1  0.1290800E-006  0.9118800E+02  0.7816164E-02  0.1184000E+00
        -11   -1    0    0    0    0  0.00000000000E+00  0.00000000000E+00  0.45593999997E+02  0.45594000000E+02  0.51100000000E-03 0. -1.
         11   -1    0    0    0    0 -0.00000000000E+00 -0.00000000000E+00 -0.45593999997E+02  0.45594000000E+02  0.51100000000E-03 0.  1.
         23    2    1    2    0    0 -0.71054273576E-14  0.00000000000E+00 -0.88817841970E-15  0.91188000000E+02  0.91188000000E+02 0.  0.
    9900012    2    3    3    0    0  0.29125351732E+02 -0.22435102200E+02  0.20392208432E+01  0.54367104494E+02  0.40000046314E+02 0.  0.
         12    1    3    3    0    0 -0.29125351732E+02  0.22435102200E+02 -0.20392208432E+01  0.36820895506E+02  0.00000000000E+00 0. -1.
         11    1    4    4    0    0  0.10467181297E+02 -0.56228453568E+01  0.10461980141E+02  0.15831339266E+02  0.51100000000E-03 0. -1.
        -11    1    4    4    0    0 -0.62274952763E+01 -0.46058822512E+01 -0.75310304186E+01  0.10803345230E+02  0.51100000000E-03 0.  1.
         12    1    4    4    0    0  0.24885665711E+02 -0.12206374592E+02 -0.89172887933E+00  0.27732419998E+02  0.00000000000E+00 0. -1.
</event>
<event>
 8    1  0.1290800E-006  0.9118800E+02  0.7816164E-02  0.1184000E+00
        -11   -1    0    0    0    0  0.00000000000E+00  0.00000000000E+00  0.45593999997E+02  0.45594000000E+02  0.51100000000E-03 0.  1.
         11   -1    0    0    0    0 -0.00000000000E+00 -0.00000000000E+00 -0.45593999997E+02  0.45594000000E+02  0.51100000000E-03 0. -1.
         23    2    1    2    0    0 -0.35527136788E-14  0.35527136788E-14 -0.17763568394E-14  0.91188000000E+02  0.91188000000E+02 0.  0.
    9900012    2    3    3    0    0 -0.25986613680E+02  0.21134892119E+02  0.15290278773E+02  0.54367076867E+02  0.39999983333E+02 0.  0.
         12    1    3    3    0    0  0.25986613680E+02 -0.21134892119E+02 -0.15290278773E+02  0.36820923133E+02  0.00000000000E+00 0. -1.
         11    1    4    4    0    0 -0.10258354197E+02 -0.70637867002E+01  0.54207187092E+01  0.13583633717E+02  0.51100000000E-03 0. -1.
        -11    1    4    4    0    0 -0.93740923383E+01  0.92290119359E+01  0.15178219484E+02  0.20085482704E+02  0.51100000000E-03 0.  1.
         12    1    4    4    0    0 -0.63541671444E+01  0.18969666883E+02 -0.53086594204E+01  0.20697960445E+02  0.00000000000E+00 0. -1.
</event>
<event>
 8    1  0.1290800E-006  0.9118800E+02  0.7816164E-02  0.1184000E+00
        -11   -1    0    0    0    0  0.00000000000E+00  0.00000000000E+00  0.45593999997E+02  0.45594000000E+02  0.51100000000E-03 0.  1.
         11   -1    0    0    0    0 -0.00000000000E+00 -0.00000000000E+00 -0.45593999997E+02  0.45594000000E+02  0.51100000000E-03 0. -1.
         23    2    1    2    0    0  0.44408920985E-15  0.35527136788E-14  0.00000000000E+00  0.91188000000E+02  0.91188000000E+02 0.  0.
    9900012    2    3    3    0    0 -0.29453889736E+01 -0.29243939951E+02  0.22178765524E+02  0.54367068721E+02  0.39999964763E+02 0.  0.
         12    1    3    3    0    0  0.29453889736E+01  0.29243939951E+02 -0.22178765524E+02  0.36820931279E+02  0.00000000000E+00 0. -1.
         11    1    4    4    0    0  0.41534529175E+01  0.81797169175E+00 -0.75826367374E+01  0.86842748102E+01  0.51100000000E-03 0. -1.
        -11    1    4    4    0    0 -0.15538800200E+01 -0.31396290285E+01 -0.17094754286E+01  0.38979635780E+01  0.51100000000E-03 0.  1.
        -12    1    4    4    0    0 -0.55449618711E+01 -0.26922282614E+02  0.31470877690E+02  0.41784830333E+02  0.00000000000E+00 0.  1.
</event>
<event>
 8    1  0.1290800E-006  0.9118800E+02  0.7816164E-02  0.1184000E+00
        -11   -1    0    0    0    0  0.00000000000E+00  0.00000000000E+00  0.45593999997E+02  0.45594000000E+02  0.51100000000E-03 0. -1.
         11   -1    0    0    0    0 -0.00000000000E+00 -0.00000000000E+00 -0.45593999997E+02  0.45594000000E+02  0.51100000000E-03 0.  1.
         23    2    1    2    0    0  0.00000000000E+00  0.00000000000E+00  0.17763568394E-14  0.91188000000E+02  0.91188000000E+02 0.  0.
    9900012    2    3    3    0    0 -0.30207841712E+02 -0.13990424805E+02  0.15733280005E+02  0.54367057768E+02  0.39999939794E+02 0.  0.
        -12    1    3    3    0    0  0.30207841712E+02  0.13990424805E+02 -0.15733280005E+02  0.36820942232E+02  0.00000000000E+00 0.  1.
         11    1    4    4    0    0 -0.14845415840E+02 -0.23363594602E+01 -0.19317441168E+01  0.15151784799E+02  0.51100000000E-03 0. -1.
        -11    1    4    4    0    0 -0.43868382083E+01  0.74079096552E+01 -0.29183624890E+01  0.90905618531E+01  0.51100000000E-03 0.  1.
         12    1    4    4    0    0 -0.10975587663E+02 -0.19061975000E+02  0.20583386611E+02  0.30124711116E+02  0.00000000000E+00 0. -1.
</event>
<event>
 8    1  0.1290800E-006  0.9118800E+02  0.7816164E-02  0.1184000E+00
        -11   -1    0    0    0    0  0.00000000000E+00  0.00000000000E+00  0.45593999997E+02  0.45594000000E+02  0.51100000000E-03 0. -1.
         11   -1    0    0    0    0 -0.00000000000E+00 -0.00000000000E+00 -0.45593999997E+02  0.45594000000E+02  0.51100000000E-03 0.  1.
         23    2    1    2    0    0  0.17763568394E-14 -0.44408920985E-15  0.00000000000E+00  0.91188000000E+02  0.91188000000E+02 0.  0.
    9900012    2    3    3    0    0  0.12088469814E+02 -0.31834166505E+01  0.34633978867E+02  0.54367112773E+02  0.40000065188E+02 0.  0.
        -12    1    3    3    0    0 -0.12088469814E+02  0.31834166505E+01 -0.34633978867E+02  0.36820887227E+02  0.00000000000E+00 0.  1.
         11    1    4    4    0    0 -0.79142447621E+01 -0.30660940567E+01  0.75751005865E+01  0.11376218707E+02  0.51100000000E-03 0. -1.
        -11    1    4    4    0    0 -0.32448594623E+01  0.69744556743E+01  0.12445322386E+02  0.14630727748E+02  0.51100000000E-03 0.  1.
        -12    1    4    4    0    0  0.23247574038E+02 -0.70917782681E+01  0.14613555895E+02  0.28360166318E+02  0.00000000000E+00 0.  1.
</event>
<event>
 8    1  0.1290800E-006  0.9118800E+02  0.7816164E-02  0.1184000E+00
        -11   -1    0    0    0    0  0.00000000000E+00  0.00000000000E+00  0.45593999997E+02  0.45594000000E+02  0.51100000000E-03 0.  1.
         11   -1    0    0    0    0 -0.00000000000E+00 -0.00000000000E+00 -0.45593999997E+02  0.45594000000E+02  0.51100000000E-03 0. -1.
         23    2    1    2    0    0  0.55511151231E-15  0.00000000000E+00  0.00000000000E+00  0.91188000000E+02  0.91188000000E+02 0.  0.
    9900012    2    3    3    0    0 -0.58085450215E+00 -0.28990008569E+02  0.22694075471E+02  0.54367094929E+02  0.40000024509E+02 0.  0.
         12    1    3    3    0    0  0.58085450215E+00  0.28990008569E+02 -0.22694075471E+02  0.36820905071E+02  0.00000000000E+00 0. -1.
         11    1    4    4    0    0  0.96341141177E+01 -0.72809658084E+01  0.14093733667E+02  0.18559686066E+02  0.51100000000E-03 0. -1.
        -11    1    4    4    0    0 -0.18390590308E+02 -0.13620493635E+02  0.81662631819E+01  0.24298549615E+02  0.51100000000E-03 0.  1.
        -12    1    4    4    0    0  0.81756216884E+01 -0.80885491247E+01  0.43407862234E+00  0.11508859248E+02  0.00000000000E+00 0.  1.
</event>
<event>
 8    1  0.1290800E-006  0.9118800E+02  0.7816164E-02  0.1184000E+00
        -11   -1    0    0    0    0  0.00000000000E+00  0.00000000000E+00  0.45593999997E+02  0.45594000000E+02  0.51100000000E-03 0. -1.
         11   -1    0    0    0    0 -0.00000000000E+00 -0.00000000000E+00 -0.45593999997E+02  0.45594000000E+02  0.51100000000E-03 0.  1.
         23    2    1    2    0    0  0.17763568394E-14  0.00000000000E+00  0.00000000000E+00  0.91188000000E+02  0.91188000000E+02 0.  0.
    9900012    2    3    3    0    0 -0.15739377373E+02 -0.90253374579E+01  0.32040517493E+02  0.54367089127E+02  0.40000011282E+02 0.  0.
        -12    1    3    3    0    0  0.15739377373E+02  0.90253374579E+01 -0.32040517493E+02  0.36820910873E+02  0.00000000000E+00 0.  1.
         11    1    4    4    0    0 -0.76511035841E+01 -0.43239934493E+01  0.11076859703E+02  0.14139771092E+02  0.51100000000E-03 0. -1.
        -11    1    4    4    0    0  0.86913351580E+01 -0.51903997265E+01  0.21140897359E+02  0.23439647983E+02  0.51100000000E-03 0.  1.
         12    1    4    4    0    0 -0.16779608947E+02  0.48905571797E+00 -0.17723956825E+00  0.16787670052E+02  0.00000000000E+00 0. -1.
</event>
<event>
 8    1  0.1290800E-006  0.9118800E+02  0.7816164E-02  0.1184000E+00
        -11   -1    0    0    0    0  0.00000000000E+00  0.00000000000E+00  0.45593999997E+02  0.45594000000E+02  0.51100000000E-03 0.  1.
         11   -1    0    0    0    0 -0.00000000000E+00 -0.00000000000E+00 -0.45593999997E+02  0.45594000000E+02  0.51100000000E-03 0. -1.
         23    2    1    2    0    0  0.88817841970E-15  0.00000000000E+00  0.35527136788E-14  0.91188000000E+02  0.91188000000E+02 0.  0.
    9900012    2    3    3    0    0  0.72426963179E+01 -0.24219904343E+02 -0.26771589735E+02  0.54367103307E+02  0.40000043608E+02 0.  0.
        -12    1    3    3    0    0 -0.72426963179E+01  0.24219904343E+02  0.26771589735E+02  0.36820896693E+02  0.00000000000E+00 0.  1.
         11    1    4    4    0    0 -0.43296157789E+00 -0.90347243221E+01 -0.18222055519E+02  0.20343475782E+02  0.51100000000E-03 0. -1.
        -11    1    4    4    0    0 -0.48601416430E+01 -0.10648364114E+02 -0.15152132075E+02  0.19146690100E+02  0.51100000000E-03 0.  1.
        -12    1    4    4    0    0  0.12535799539E+02 -0.45368159071E+01  0.66025978587E+01  0.14876937425E+02  0.00000000000E+00 0.  1.
</event>
<event>
 8    1  0.1290800E-006  0.9118800E+02  0.7816164E-02  0.1184000E+00
        -11   -1    0    0    0    0  0.00000000000E+00  0.00000000000E+00  0.45593999997E+02  0.45594000000E+02  0.51100000000E-03 0. -1.
         11   -1    0    0    0    0 -0.00000000000E+00 -0.00000000000E+00 -0.45593999997E+02  0.45594000000E+02  0.51100000000E-03 0.  1.
         23    2    1    2    0    0  0.35527136788E-14  0.44408920985E-15  0.00000000000E+00  0.91188000000E+02  0.91188000000E+02 0.  0.
    9900012    2    3    3    0    0 -0.22811105637E+02  0.28301483930E+01  0.28764898226E+02  0.54367141098E+02  0.40000129762E+02 0.  0.
        -12    1    3    3    0    0  0.22811105637E+02 -0.28301483930E+01 -0.28764898226E+02  0.36820858902E+02  0.00000000000E+00 0.  1.
         11    1    4    4    0    0 -0.69401896612E+01 -0.10531137202E+02  0.15573237538E+02  0.20039880513E+02  0.51100000000E-03 0. -1.
        -11    1    4    4    0    0  0.26811608563E+01 -0.45477324011E-01 -0.46080966039E+01  0.53315332031E+01  0.51100000000E-03 0.  1.
        -12    1    4    4    0    0 -0.18552076832E+02  0.13406762919E+02  0.17799757292E+02  0.28995727382E+02  0.00000000000E+00 0.  1.
</event>
<event>
 8    1  0.1290800E-006  0.9118800E+02  0.7816164E-02  0.1184000E+00
        -11   -1    0    0    0    0  0.00000000000E+00  0.00000000000E+00  0.45593999997E+02  0.45594000000E+02  0.51100000000E-03 0.  1.
         11   -1    0    0    0    0 -0.00000000000E+00 -0.00000000000E+00 -0.45593999997E+02  0.45594000000E+02  0.51100000000E-03 0. -1.
         23    2    1    2    0    0  0.35527136788E-14  0.44408920985E-15  0.00000000000E+00  0.91188000000E+02  0.91188000000E+02 0.  0.
    9900012    2    3    3    0    0 -0.28593185585E+02  0.26675168394E+01  0.23045465480E+02  0.54367090354E+02  0.40000014079E+02 0.  0.
         12    1    3    3    0    0  0.28593185585E+02 -0.26675168394E+01 -0.23045465480E+02  0.36820909646E+02  0.00000000000E+00 0. -1.
         11    1    4    4    0    0 -0.51877037374E+01 -0.18288646521E+01 -0.72527226550E+01  0.91026920278E+01  0.51100000000E-03 0. -1.
        -11    1    4    4    0    0 -0.16100426317E+02  0.93361235145E+01  0.61912783780E+01  0.19614251403E+02  0.51100000000E-03 0.  1.
        -12    1    4    4    0    0 -0.73050555305E+01 -0.48397420230E+01  0.24106909757E+02  0.25650146923E+02  0.00000000000E+00 0.  1.
</event>
<event>
 8    1  0.1290800E-006  0.9118800E+02  0.7816164E-02  0.1184000E+00
        -11   -1    0    0    0    0  0.00000000000E+00  0.00000000000E+00  0.45593999997E+02  0.45594000000E+02  0.51100000000E-03 0. -1.
         11   -1    0    0    0    0 -0.00000000000E+00 -0.00000000000E+00 -0.45593999997E+02  0.45594000000E+02  0.51100000000E-03 0.  1.
         23    2    1    2    0    0  0.35527136788E-14  0.35527136788E-14  0.00000000000E+00  0.91188000000E+02  0.91188000000E+02 0.  0.
    9900012    2    3    3    0    0  0.22672402462E+02  0.23573623390E+02 -0.16912283187E+02  0.54367097299E+02  0.40000029912E+02 0.  0.
         12    1    3    3    0    0 -0.22672402462E+02 -0.23573623390E+02  0.16912283187E+02  0.36820902701E+02  0.00000000000E+00 0. -1.
         11    1    4    4    0    0  0.15162683269E+02  0.20122637336E+02  0.29489838946E+01  0.25367774903E+02  0.51100000000E-03 0.  1.
        -11    1    4    4    0    0  0.12772295288E+02 -0.16193238388E+01 -0.16572283557E+02  0.20985574072E+02  0.51100000000E-03 0. -1.
        -12    1    4    4    0    0 -0.52625760946E+01  0.50703098930E+01 -0.32889835246E+01  0.80137483232E+01  0.00000000000E+00 0.  1.
</event>
<event>
 8    1  0.1290800E-006  0.9118800E+02  0.7816164E-02  0.1184000E+00
        -11   -1    0    0    0    0  0.00000000000E+00  0.00000000000E+00  0.45593999997E+02  0.45594000000E+02  0.51100000000E-03 0. -1.
         11   -1    0    0    0    0 -0.00000000000E+00 -0.00000000000E+00 -0.45593999997E+02  0.45594000000E+02  0.51100000000E-03 0.  1.
         23    2    1    2    0    0  0.88817841970E-15  0.00000000000E+00  0.00000000000E+00  0.91188000000E+02  0.91188000000E+02 0.  0.
    9900012    2    3    3    0    0 -0.37798179554E+01  0.13597777361E+01  0.36601152600E+02  0.54367076724E+02  0.39999983007E+02 0.  0.
        -12    1    3    3    0    0  0.37798179554E+01 -0.13597777361E+01 -0.36601152600E+02  0.36820923276E+02  0.00000000000E+00 0.  1.
         11    1    4    4    0    0  0.84645052470E+01  0.43286711828E+01  0.10335321881E+02  0.14042938507E+02  0.51100000000E-03 0. -1.
        -11    1    4    4    0    0 -0.13644761104E+02 -0.38032298552E+01  0.15830829407E+00  0.14165773000E+02  0.51100000000E-03 0.  1.
        -12    1    4    4    0    0  0.14004379018E+01  0.83433640852E+00  0.26107522425E+02  0.26158365216E+02  0.00000000000E+00 0.  1.
</event>
<event>
 8    1  0.1290800E-006  0.9118800E+02  0.7816164E-02  0.1184000E+00
        -11   -1    0    0    0    0  0.00000000000E+00  0.00000000000E+00  0.45593999997E+02  0.45594000000E+02  0.51100000000E-03 0.  1.
         11   -1    0    0    0    0 -0.00000000000E+00 -0.00000000000E+00 -0.45593999997E+02  0.45594000000E+02  0.51100000000E-03 0. -1.
         23    2    1    2    0    0 -0.88817841970E-15  0.00000000000E+00  0.17763568394E-14  0.91188000000E+02  0.91188000000E+02 0.  0.
    9900012    2    3    3    0    0  0.30654609790E+01 -0.35074220086E+02 -0.10778774683E+02  0.54367082720E+02  0.39999996676E+02 0.  0.
        -12    1    3    3    0    0 -0.30654609790E+01  0.35074220086E+02  0.10778774683E+02  0.36820917280E+02  0.00000000000E+00 0.  1.
         11    1    4    4    0    0  0.61227932919E+01 -0.15535659421E+02  0.11466734305E+02  0.20256636129E+02  0.51100000000E-03 0.  1.
        -11    1    4    4    0    0 -0.80980691985E+01 -0.73524193270E+01 -0.16335365763E+02  0.19659119247E+02  0.51100000000E-03 0. -1.
        -12    1    4    4    0    0  0.50407368856E+01 -0.12186141338E+02 -0.59101432255E+01  0.14451327344E+02  0.00000000000E+00 0.  1.
</event>
<event>
 8    1  0.1290800E-006  0.9118800E+02  0.7816164E-02  0.1184000E+00
        -11   -1    0    0    0    0  0.00000000000E+00  0.00000000000E+00  0.45593999997E+02  0.45594000000E+02  0.51100000000E-03 0.  1.
         11   -1    0    0    0    0 -0.00000000000E+00 -0.00000000000E+00 -0.45593999997E+02  0.45594000000E+02  0.51100000000E-03 0. -1.
         23    2    1    2    0    0 -0.44408920985E-15  0.00000000000E+00  0.00000000000E+00  0.91188000000E+02  0.91188000000E+02 0.  0.
    9900012    2    3    3    0    0  0.15755656561E+01  0.16424667729E+02 -0.32916964383E+02  0.54367100210E+02  0.40000036548E+02 0.  0.
        -12    1    3    3    0    0 -0.15755656561E+01 -0.16424667729E+02  0.32916964383E+02  0.36820899790E+02  0.00000000000E+00 0.  1.
         11    1    4    4    0    0  0.53892398610E+01  0.12241915656E+02 -0.58887671571E+01  0.14614581215E+02  0.51100000000E-03 0. -1.
        -11    1    4    4    0    0  0.28145639628E-01 -0.12261132742E+02 -0.11117273520E+02  0.16550828954E+02  0.51100000000E-03 0.  1.
        -12    1    4    4    0    0 -0.38418198445E+01  0.16443884816E+02 -0.15910923706E+02  0.23201690040E+02  0.00000000000E+00 0.  1.
</event>
<event>
 8    1  0.1290800E-006  0.9118800E+02  0.7816164E-02  0.1184000E+00
        -11   -1    0    0    0    0  0.00000000000E+00  0.00000000000E+00  0.45593999997E+02  0.45594000000E+02  0.51100000000E-03 0.  1.
         11   -1    0    0    0    0 -0.00000000000E+00 -0.00000000000E+00 -0.45593999997E+02  0.45594000000E+02  0.51100000000E-03 0. -1.
         23    2    1    2    0    0  0.00000000000E+00  0.35527136788E-14  0.00000000000E+00  0.91188000000E+02  0.91188000000E+02 0.  0.
    9900012    2    3    3    0    0 -0.74713073701E+01  0.26402873249E+02 -0.24552949071E+02  0.54367089396E+02  0.40000011896E+02 0.  0.
        -12    1    3    3    0    0  0.74713073701E+01 -0.26402873249E+02  0.24552949071E+02  0.36820910604E+02  0.00000000000E+00 0.  1.
         11    1    4    4    0    0 -0.99111414781E+01  0.54476302087E+01 -0.41021093997E+01  0.12030573639E+02  0.51100000000E-03 0. -1.
        -11    1    4    4    0    0  0.81195267416E+01  0.10070681067E+02 -0.25864074377E+02  0.28918777209E+02  0.51100000000E-03 0.  1.
        -12    1    4    4    0    0 -0.56796926336E+01  0.10884561974E+02  0.54132347050E+01  0.13417738548E+02  0.00000000000E+00 0.  1.
</event>
<event>
 8    1  0.1290800E-006  0.9118800E+02  0.7816164E-02  0.1184000E+00
        -11   -1    0    0    0    0  0.00000000000E+00  0.00000000000E+00  0.45593999997E+02  0.45594000000E+02  0.51100000000E-03 0.  1.
         11   -1    0    0    0    0 -0.00000000000E+00 -0.00000000000E+00 -0.45593999997E+02  0.45594000000E+02  0.51100000000E-03 0. -1.
         23    2    1    2    0    0  0.00000000000E+00  0.00000000000E+00  0.00000000000E+00  0.91188000000E+02  0.91188000000E+02 0.  0.
    9900012    2    3    3    0    0  0.16192101909E+02 -0.10415654787E+02 -0.31386460200E+02  0.54367083217E+02  0.39999997809E+02 0.  0.
        -12    1    3    3    0    0 -0.16192101909E+02  0.10415654787E+02  0.31386460200E+02  0.36820916783E+02  0.00000000000E+00 0.  1.
         11    1    4    4    0    0 -0.92655435746E+01  0.34664212358E+01 -0.20010942289E+01  0.10093104195E+02  0.51100000000E-03 0. -1.
        -11    1    4    4    0    0  0.18822685976E+02 -0.61247215901E+01 -0.95749688232E+01  0.21988309397E+02  0.51100000000E-03 0.  1.
         12    1    4    4    0    0  0.66349595072E+01 -0.77573544332E+01 -0.19810397148E+02  0.22285669625E+02  0.00000000000E+00 0. -1.
</event>
<event>
 8    1  0.1290800E-006  0.9118800E+02  0.7816164E-02  0.1184000E+00
        -11   -1    0    0    0    0  0.00000000000E+00  0.00000000000E+00  0.45593999997E+02  0.45594000000E+02  0.51100000000E-03 0.  1.
         11   -1    0    0    0    0 -0.00000000000E+00 -0.00000000000E+00 -0.45593999997E+02  0.45594000000E+02  0.51100000000E-03 0. -1.
         23    2    1    2    0    0 -0.17763568394E-14  0.00000000000E+00 -0.17763568394E-14  0.91188000000E+02  0.91188000000E+02 0.  0.
    9900012    2    3    3    0    0 -0.38694025646E+01  0.36006152780E+02 -0.66605931129E+01  0.54367098126E+02  0.40000031797E+02 0.  0.
         12    1    3    3    0    0  0.38694025646E+01 -0.36006152780E+02  0.66605931129E+01  0.36820901874E+02  0.00000000000E+00 0. -1.
         11    1    4    4    0    0 -0.99725204909E+01  0.11179325402E+02 -0.12809169451E+02  0.19710487150E+02  0.51100000000E-03 0. -1.
        -11    1    4    4    0    0  0.12639477312E+02  0.13857705176E+02 -0.29376889691E+01  0.18984793815E+02  0.51100000000E-03 0.  1.
        -12    1    4    4    0    0 -0.65363593858E+01  0.10969122202E+02  0.90862653071E+01  0.15671817161E+02  0.00000000000E+00 0.  1.
</event>
<event>
 8    1  0.1290800E-006  0.9118800E+02  0.7816164E-02  0.1184000E+00
        -11   -1    0    0    0    0  0.00000000000E+00  0.00000000000E+00  0.45593999997E+02  0.45594000000E+02  0.51100000000E-03 0.  1.
         11   -1    0    0    0    0 -0.00000000000E+00 -0.00000000000E+00 -0.45593999997E+02  0.45594000000E+02  0.51100000000E-03 0. -1.
         23    2    1    2    0    0  0.35527136788E-14  0.00000000000E+00  0.17763568394E-14  0.91188000000E+02  0.91188000000E+02 0.  0.
    9900012    2    3    3    0    0 -0.18601460817E+02 -0.30064785604E+02 -0.10289057034E+02  0.54367212765E+02  0.40000293138E+02 0.  0.
        -12    1    3    3    0    0  0.18601460817E+02  0.30064785604E+02  0.10289057034E+02  0.36820787235E+02  0.00000000000E+00 0.  1.
         11    1    4    4    0    0 -0.72501190264E+01 -0.21753918949E+02 -0.31620584834E+01  0.23147263978E+02  0.51100000000E-03 0. -1.
        -11    1    4    4    0    0 -0.72036624821E+01  0.76423506422E+01  0.41021043580E+01  0.11274996094E+02  0.51100000000E-03 0.  1.
         12    1    4    4    0    0 -0.41476793090E+01 -0.15953217297E+02 -0.11229102908E+02  0.19944952693E+02  0.00000000000E+00 0. -1.
</event>
<event>
 8    1  0.1290800E-006  0.9118800E+02  0.7816164E-02  0.1184000E+00
        -11   -1    0    0    0    0  0.00000000000E+00  0.00000000000E+00  0.45593999997E+02  0.45594000000E+02  0.51100000000E-03 0. -1.
         11   -1    0    0    0    0 -0.00000000000E+00 -0.00000000000E+00 -0.45593999997E+02  0.45594000000E+02  0.51100000000E-03 0.  1.
         23    2    1    2    0    0  0.00000000000E+00  0.00000000000E+00  0.00000000000E+00  0.91188000000E+02  0.91188000000E+02 0.  0.
    9900012    2    3    3    0    0 -0.89523796589E+01  0.20334720003E+02 -0.29362025296E+02  0.54367157144E+02  0.40000166341E+02 0.  0.
         12    1    3    3    0    0  0.89523796589E+01 -0.20334720003E+02  0.29362025296E+02  0.36820842856E+02  0.00000000000E+00 0. -1.
         11    1    4    4    0    0 -0.17237627313E+01  0.10468452114E+02 -0.31724601605E+01  0.11073588007E+02  0.51100000000E-03 0. -1.
        -11    1    4    4    0    0 -0.85811519213E+01  0.21115838905E+02 -0.14501518060E+02  0.27014974500E+02  0.51100000000E-03 0.  1.
         12    1    4    4    0    0  0.13525349936E+01 -0.11249571016E+02 -0.11688047075E+02  0.16278594637E+02  0.00000000000E+00 0. -1.
</event>
<event>
 8    1  0.1290800E-006  0.9118800E+02  0.7816164E-02  0.1184000E+00
        -11   -1    0    0    0    0  0.00000000000E+00  0.00000000000E+00  0.45593999997E+02  0.45594000000E+02  0.51100000000E-03 0. -1.
         11   -1    0    0    0    0 -0.00000000000E+00 -0.00000000000E+00 -0.45593999997E+02  0.45594000000E+02  0.51100000000E-03 0.  1.
         23    2    1    2    0    0  0.88817841970E-15 -0.71054273576E-14 -0.17763568394E-14  0.91188000000E+02  0.91188000000E+02 0.  0.
    9900012    2    3    3    0    0 -0.47455993758E+01 -0.35257931307E+02 -0.94940030369E+01  0.54367102033E+02  0.40000040704E+02 0.  0.
         12    1    3    3    0    0  0.47455993758E+01  0.35257931307E+02  0.94940030369E+01  0.36820897967E+02  0.00000000000E+00 0. -1.
         11    1    4    4    0    0  0.11392265524E+02 -0.10025639714E+02 -0.94520908820E+01  0.17878455967E+02  0.51100000000E-03 0. -1.
        -11    1    4    4    0    0 -0.12020936299E+01 -0.16787388378E+02 -0.66578484085E+01  0.18099402845E+02  0.51100000000E-03 0.  1.
        -12    1    4    4    0    0 -0.14935771270E+02 -0.84449032148E+01  0.66159362535E+01  0.18389243221E+02  0.00000000000E+00 0.  1.
</event>
<event>
 8    1  0.1290800E-006  0.9118800E+02  0.7816164E-02  0.1184000E+00
        -11   -1    0    0    0    0  0.00000000000E+00  0.00000000000E+00  0.45593999997E+02  0.45594000000E+02  0.51100000000E-03 0.  1.
         11   -1    0    0    0    0 -0.00000000000E+00 -0.00000000000E+00 -0.45593999997E+02  0.45594000000E+02  0.51100000000E-03 0. -1.
         23    2    1    2    0    0 -0.17763568394E-14 -0.35527136788E-14  0.00000000000E+00  0.91188000000E+02  0.91188000000E+02 0.  0.
    9900012    2    3    3    0    0  0.87871650131E+01  0.16554158699E+02  0.31694254342E+02  0.54367079351E+02  0.39999988996E+02 0.  0.
         12    1    3    3    0    0 -0.87871650131E+01 -0.16554158699E+02 -0.31694254342E+02  0.36820920649E+02  0.00000000000E+00 0. -1.
         11    1    4    4    0    0  0.34629761011E+01  0.14756399165E+02  0.38441282094E+01  0.15637162202E+02  0.51100000000E-03 0. -1.
        -11    1    4    4    0    0 -0.92348982864E+01 -0.39340652646E+01  0.54964935193E+01  0.11444284912E+02  0.51100000000E-03 0.  1.
        -12    1    4    4    0    0  0.14559087198E+02  0.57318247988E+01  0.22353632613E+02  0.27285632237E+02  0.00000000000E+00 0.  1.
</event>
<event>
 8    1  0.1290800E-006  0.9118800E+02  0.7816164E-02  0.1184000E+00
        -11   -1    0    0    0    0  0.00000000000E+00  0.00000000000E+00  0.45593999997E+02  0.45594000000E+02  0.51100000000E-03 0. -1.
         11   -1    0    0    0    0 -0.00000000000E+00 -0.00000000000E+00 -0.45593999997E+02  0.45594000000E+02  0.51100000000E-03 0.  1.
         23    2    1    2    0    0 -0.71054273576E-14 -0.35527136788E-14 -0.17763568394E-14  0.91188000000E+02  0.91188000000E+02 0.  0.
    9900012    2    3    3    0    0 -0.32387423980E+02 -0.15911599499E+02 -0.73254136303E+01  0.54367001704E+02  0.39999811984E+02 0.  0.
         12    1    3    3    0    0  0.32387423980E+02  0.15911599499E+02  0.73254136303E+01  0.36820998296E+02  0.00000000000E+00 0. -1.
         11    1    4    4    0    0  0.10007469000E+01 -0.28232157336E+01  0.85175962465E+01  0.90289250477E+01  0.51100000000E-03 0. -1.
        -11    1    4    4    0    0 -0.17554418331E+02 -0.16073251349E+02 -0.16899630085E+02  0.29190829196E+02  0.51100000000E-03 0.  1.
         12    1    4    4    0    0 -0.15833752549E+02  0.29848675838E+01  0.10566202082E+01  0.16147247460E+02  0.00000000000E+00 0. -1.
</event>
<event>
 8    1  0.1290800E-006  0.9118800E+02  0.7816164E-02  0.1184000E+00
        -11   -1    0    0    0    0  0.00000000000E+00  0.00000000000E+00  0.45593999997E+02  0.45594000000E+02  0.51100000000E-03 0.  1.
         11   -1    0    0    0    0 -0.00000000000E+00 -0.00000000000E+00 -0.45593999997E+02  0.45594000000E+02  0.51100000000E-03 0. -1.
         23    2    1    2    0    0  0.17763568394E-14 -0.71054273576E-14  0.00000000000E+00  0.91188000000E+02  0.91188000000E+02 0.  0.
    9900012    2    3    3    0    0  0.97562915497E+01 -0.34484917629E+02 -0.84490252952E+01  0.54367071208E+02  0.39999970432E+02 0.  0.
         12    1    3    3    0    0 -0.97562915497E+01  0.34484917629E+02  0.84490252952E+01  0.36820928792E+02  0.00000000000E+00 0. -1.
         11    1    4    4    0    0 -0.44948946174E+01  0.13777455792E+01 -0.95707964184E+01  0.10663132975E+02  0.51100000000E-03 0. -1.
        -11    1    4    4    0    0  0.33410310153E+01 -0.26653584994E+02  0.77576756593E+01  0.27959928705E+02  0.51100000000E-03 0.  1.
         12    1    4    4    0    0  0.10910155152E+02 -0.92090782142E+01 -0.66359045362E+01  0.15744009528E+02  0.00000000000E+00 0. -1.
</event>
<event>
 8    1  0.1290800E-006  0.9118800E+02  0.7816164E-02  0.1184000E+00
        -11   -1    0    0    0    0  0.00000000000E+00  0.00000000000E+00  0.45593999997E+02  0.45594000000E+02  0.51100000000E-03 0.  1.
         11   -1    0    0    0    0 -0.00000000000E+00 -0.00000000000E+00 -0.45593999997E+02  0.45594000000E+02  0.51100000000E-03 0. -1.
         23    2    1    2    0    0 -0.21094237468E-14  0.00000000000E+00  0.00000000000E+00  0.91188000000E+02  0.91188000000E+02 0.  0.
    9900012    2    3    3    0    0 -0.49121423580E+00  0.90138512961E+01  0.35697182493E+02  0.54367086859E+02  0.40000006111E+02 0.  0.
         12    1    3    3    0    0  0.49121423580E+00 -0.90138512961E+01 -0.35697182493E+02  0.36820913141E+02  0.00000000000E+00 0. -1.
         11    1    4    4    0    0 -0.26059986793E+01  0.10109058570E+02  0.16134441606E+02  0.19217296909E+02  0.51100000000E-03 0. -1.
        -11    1    4    4    0    0  0.12164810195E+02 -0.77888302656E+01  0.17836581867E+02  0.22951952792E+02  0.51100000000E-03 0.  1.
         12    1    4    4    0    0 -0.10050025752E+02  0.66936229917E+01  0.17261590200E+01  0.12197837158E+02  0.00000000000E+00 0. -1.
</event>
<event>
 8    1  0.1290800E-006  0.9118800E+02  0.7816164E-02  0.1184000E+00
        -11   -1    0    0    0    0  0.00000000000E+00  0.00000000000E+00  0.45593999997E+02  0.45594000000E+02  0.51100000000E-03 0.  1.
         11   -1    0    0    0    0 -0.00000000000E+00 -0.00000000000E+00 -0.45593999997E+02  0.45594000000E+02  0.51100000000E-03 0. -1.
         23    2    1    2    0    0  0.00000000000E+00  0.44408920985E-14 -0.71054273576E-14  0.91188000000E+02  0.91188000000E+02 0.  0.
    9900012    2    3    3    0    0 -0.16008633110E+02  0.55326918856E+01 -0.32693923084E+02  0.54367087190E+02  0.40000006867E+02 0.  0.
        -12    1    3    3    0    0  0.16008633110E+02 -0.55326918856E+01  0.32693923084E+02  0.36820912810E+02  0.00000000000E+00 0.  1.
         11    1    4    4    0    0 -0.41285002156E+01 -0.14668175135E+02 -0.13448125865E+02  0.20323679917E+02  0.51100000000E-03 0. -1.
        -11    1    4    4    0    0 -0.10268867048E+02  0.94909298526E+01 -0.26588253883E+01  0.14233647903E+02  0.51100000000E-03 0.  1.
         12    1    4    4    0    0 -0.16112658457E+01  0.10709937168E+02 -0.16586971831E+02  0.19809759370E+02  0.00000000000E+00 0. -1.
</event>
<event>
 8    1  0.1290800E-006  0.9118800E+02  0.7816164E-02  0.1184000E+00
        -11   -1    0    0    0    0  0.00000000000E+00  0.00000000000E+00  0.45593999997E+02  0.45594000000E+02  0.51100000000E-03 0.  1.
         11   -1    0    0    0    0 -0.00000000000E+00 -0.00000000000E+00 -0.45593999997E+02  0.45594000000E+02  0.51100000000E-03 0. -1.
         23    2    1    2    0    0  0.17763568394E-14  0.00000000000E+00  0.35527136788E-14  0.91188000000E+02  0.91188000000E+02 0.  0.
    9900012    2    3    3    0    0 -0.67390612999E+01  0.17486801340E+02 -0.31694859631E+02  0.54367254553E+02  0.40000388401E+02 0.  0.
        -12    1    3    3    0    0  0.67390612999E+01 -0.17486801340E+02  0.31694859631E+02  0.36820745447E+02  0.00000000000E+00 0.  1.
         11    1    4    4    0    0 -0.19843579011E+01 -0.59940839560E-01 -0.22067504842E+02  0.22156625181E+02  0.51100000000E-03 0. -1.
        -11    1    4    4    0    0 -0.13571760138E+02  0.58798787251E+01 -0.16346080452E+00  0.14791631647E+02  0.51100000000E-03 0.  1.
        -12    1    4    4    0    0  0.88170567394E+01  0.11666863454E+02 -0.94638939839E+01  0.17418997725E+02  0.00000000000E+00 0.  1.
</event>
<event>
 8    1  0.1290800E-006  0.9118800E+02  0.7816164E-02  0.1184000E+00
        -11   -1    0    0    0    0  0.00000000000E+00  0.00000000000E+00  0.45593999997E+02  0.45594000000E+02  0.51100000000E-03 0. -1.
         11   -1    0    0    0    0 -0.00000000000E+00 -0.00000000000E+00 -0.45593999997E+02  0.45594000000E+02  0.51100000000E-03 0.  1.
         23    2    1    2    0    0  0.35527136788E-14  0.88817841970E-15  0.35527136788E-14  0.91188000000E+02  0.91188000000E+02 0.  0.
    9900012    2    3    3    0    0 -0.17909340293E+02 -0.35669450498E+01 -0.31973648043E+02  0.54367058460E+02  0.39999941371E+02 0.  0.
         12    1    3    3    0    0  0.17909340293E+02  0.35669450498E+01  0.31973648043E+02  0.36820941540E+02  0.00000000000E+00 0. -1.
         11    1    4    4    0    0 -0.23180328223E+02  0.33914679574E+01 -0.17733844777E+02  0.29382289262E+02  0.51100000000E-03 0. -1.
        -11    1    4    4    0    0 -0.35926025249E+01  0.44429994399E+01 -0.62980046779E+01  0.85036404033E+01  0.51100000000E-03 0.  1.
        -12    1    4    4    0    0  0.88635904548E+01 -0.11401412447E+02 -0.79417985880E+01  0.16481128795E+02  0.00000000000E+00 0.  1.
</event>
<event>
 8    1  0.1290800E-006  0.9118800E+02  0.7816164E-02  0.1184000E+00
        -11   -1    0    0    0    0  0.00000000000E+00  0.00000000000E+00  0.45593999997E+02  0.45594000000E+02  0.51100000000E-03 0. -1.
         11   -1    0    0    0    0 -0.00000000000E+00 -0.00000000000E+00 -0.45593999997E+02  0.45594000000E+02  0.51100000000E-03 0.  1.
         23    2    1    2    0    0 -0.71054273576E-14  0.00000000000E+00 -0.88817841970E-15  0.91188000000E+02  0.91188000000E+02 0.  0.
    9900012    2    3    3    0    0 -0.35132924506E+02 -0.10876883215E+02 -0.17749080661E+01  0.54367091925E+02  0.40000017662E+02 0.  0.
         12    1    3    3    0    0  0.35132924506E+02  0.10876883215E+02  0.17749080661E+01  0.36820908075E+02  0.00000000000E+00 0. -1.
         11    1    4    4    0    0 -0.57142161597E+01 -0.15546136841E+02  0.71540312020E+01  0.18042028703E+02  0.51100000000E-03 0. -1.
        -11    1    4    4    0    0 -0.12550587032E+02 -0.73055491891E+01 -0.38792323301E+01  0.15031191820E+02  0.51100000000E-03 0.  1.
         12    1    4    4    0    0 -0.16868121314E+02  0.11974802816E+02 -0.50497069381E+01  0.21293871403E+02  0.00000000000E+00 0. -1.
</event>
<event>
 8    1  0.1290800E-006  0.9118800E+02  0.7816164E-02  0.1184000E+00
        -11   -1    0    0    0    0  0.00000000000E+00  0.00000000000E+00  0.45593999997E+02  0.45594000000E+02  0.51100000000E-03 0. -1.
         11   -1    0    0    0    0 -0.00000000000E+00 -0.00000000000E+00 -0.45593999997E+02  0.45594000000E+02  0.51100000000E-03 0.  1.
         23    2    1    2    0    0  0.00000000000E+00  0.00000000000E+00  0.35527136788E-14  0.91188000000E+02  0.91188000000E+02 0.  0.
    9900012    2    3    3    0    0 -0.26740412149E+02 -0.31383329026E+01 -0.25117513846E+02  0.54366969636E+02  0.39999738877E+02 0.  0.
         12    1    3    3    0    0  0.26740412149E+02  0.31383329026E+01  0.25117513846E+02  0.36821030364E+02  0.00000000000E+00 0. -1.
         11    1    4    4    0    0 -0.15007077200E+01  0.35270949835E+01  0.20974185896E+01  0.43694035846E+01  0.51100000000E-03 0. -1.
        -11    1    4    4    0    0 -0.31930611212E+02 -0.11310792229E+01 -0.26074530284E+02  0.41239839989E+02  0.51100000000E-03 0.  1.
        -12    1    4    4    0    0  0.66909067828E+01 -0.55343486633E+01 -0.11404021513E+01  0.87577260616E+01  0.00000000000E+00 0.  1.
</event>
<event>
 8    1  0.1290800E-006  0.9118800E+02  0.7816164E-02  0.1184000E+00
        -11   -1    0    0    0    0  0.00000000000E+00  0.00000000000E+00  0.45593999997E+02  0.45594000000E+02  0.51100000000E-03 0.  1.
         11   -1    0    0    0    0 -0.00000000000E+00 -0.00000000000E+00 -0.45593999997E+02  0.45594000000E+02  0.51100000000E-03 0. -1.
         23    2    1    2    0    0  0.00000000000E+00  0.35527136788E-14  0.00000000000E+00  0.91188000000E+02  0.91188000000E+02 0.  0.
    9900012    2    3    3    0    0  0.21857171049E+02  0.27852705233E+02  0.10112737247E+02  0.54367128613E+02  0.40000101298E+02 0.  0.
        -12    1    3    3    0    0 -0.21857171049E+02 -0.27852705233E+02 -0.10112737247E+02  0.36820871387E+02  0.00000000000E+00 0.  1.
         11    1    4    4    0    0  0.32131685372E+01  0.30671519772E+00 -0.46204624708E+01  0.56362398783E+01  0.51100000000E-03 0. -1.
        -11    1    4    4    0    0 -0.54116287595E+01 -0.40328243207E+01  0.19234865878E+01  0.70177773367E+01  0.51100000000E-03 0.  1.
         12    1    4    4    0    0  0.24055631271E+02  0.31578814356E+02  0.12809713130E+02  0.41713111398E+02  0.00000000000E+00 0. -1.
</event>
<event>
 8    1  0.1290800E-006  0.9118800E+02  0.7816164E-02  0.1184000E+00
        -11   -1    0    0    0    0  0.00000000000E+00  0.00000000000E+00  0.45593999997E+02  0.45594000000E+02  0.51100000000E-03 0.  1.
         11   -1    0    0    0    0 -0.00000000000E+00 -0.00000000000E+00 -0.45593999997E+02  0.45594000000E+02  0.51100000000E-03 0. -1.
         23    2    1    2    0    0  0.00000000000E+00  0.00000000000E+00  0.00000000000E+00  0.91188000000E+02  0.91188000000E+02 0.  0.
    9900012    2    3    3    0    0 -0.17359244823E+02  0.15124620889E+02 -0.28734679321E+02  0.54367091082E+02  0.40000015740E+02 0.  0.
        -12    1    3    3    0    0  0.17359244823E+02 -0.15124620889E+02  0.28734679321E+02  0.36820908918E+02  0.00000000000E+00 0.  1.
         11    1    4    4    0    0 -0.19158694930E+02  0.89808168462E+01 -0.73511144784E+01  0.22399766673E+02  0.51100000000E-03 0. -1.
        -11    1    4    4    0    0  0.56046834347E+01  0.13244241315E+02 -0.18452609978E+02  0.23394897300E+02  0.51100000000E-03 0.  1.
         12    1    4    4    0    0 -0.38052333272E+01 -0.71004372718E+01 -0.29309548646E+01  0.85724271093E+01  0.00000000000E+00 0. -1.
</event>
<event>
 8    1  0.1290800E-006  0.9118800E+02  0.7816164E-02  0.1184000E+00
        -11   -1    0    0    0    0  0.00000000000E+00  0.00000000000E+00  0.45593999997E+02  0.45594000000E+02  0.51100000000E-03 0.  1.
         11   -1    0    0    0    0 -0.00000000000E+00 -0.00000000000E+00 -0.45593999997E+02  0.45594000000E+02  0.51100000000E-03 0. -1.
         23    2    1    2    0    0  0.00000000000E+00  0.71054273576E-14  0.00000000000E+00  0.91188000000E+02  0.91188000000E+02 0.  0.
    9900012    2    3    3    0    0  0.14292916521E+02  0.33710887138E+02 -0.38817218724E+01  0.54367093724E+02  0.40000021762E+02 0.  0.
         12    1    3    3    0    0 -0.14292916521E+02 -0.33710887138E+02  0.38817218724E+01  0.36820906276E+02  0.00000000000E+00 0. -1.
         11    1    4    4    0    0  0.64041814807E+00  0.11412251706E+01 -0.11137850839E+02  0.11214466187E+02  0.51100000000E-03 0. -1.
        -11    1    4    4    0    0  0.66659600010E+01  0.15311272534E+02 -0.85213220223E+01  0.18747880377E+02  0.51100000000E-03 0.  1.
        -12    1    4    4    0    0  0.69865383715E+01  0.17258389433E+02  0.15777450989E+02  0.24404747160E+02  0.00000000000E+00 0.  1.
</event>
<event>
 8    1  0.1290800E-006  0.9118800E+02  0.7816164E-02  0.1184000E+00
        -11   -1    0    0    0    0  0.00000000000E+00  0.00000000000E+00  0.45593999997E+02  0.45594000000E+02  0.51100000000E-03 0.  1.
         11   -1    0    0    0    0 -0.00000000000E+00 -0.00000000000E+00 -0.45593999997E+02  0.45594000000E+02  0.51100000000E-03 0. -1.
         23    2    1    2    0    0  0.00000000000E+00  0.00000000000E+00 -0.35527136788E-14  0.91188000000E+02  0.91188000000E+02 0.  0.
    9900012    2    3    3    0    0 -0.22758478809E+02 -0.12644451559E+02  0.26037451550E+02  0.54367090232E+02  0.40000013801E+02 0.  0.
         12    1    3    3    0    0  0.22758478809E+02  0.12644451559E+02 -0.26037451550E+02  0.36820909768E+02  0.00000000000E+00 0. -1.
         11    1    4    4    0    0 -0.11156998293E+02 -0.16584746924E+02  0.59467364599E+01  0.20854163043E+02  0.51100000000E-03 0. -1.
        -11    1    4    4    0    0 -0.18646715869E+02  0.30700281524E+01  0.18034897296E+02  0.26122454064E+02  0.51100000000E-03 0.  1.
         12    1    4    4    0    0  0.70452353529E+01  0.87026721309E+00  0.20558177944E+01  0.73904731245E+01  0.00000000000E+00 0. -1.
</event>
<event>
 8    1  0.1290800E-006  0.9118800E+02  0.7816164E-02  0.1184000E+00
        -11   -1    0    0    0    0  0.00000000000E+00  0.00000000000E+00  0.45593999997E+02  0.45594000000E+02  0.51100000000E-03 0.  1.
         11   -1    0    0    0    0 -0.00000000000E+00 -0.00000000000E+00 -0.45593999997E+02  0.45594000000E+02  0.51100000000E-03 0. -1.
         23    2    1    2    0    0 -0.17763568394E-14  0.88817841970E-15  0.00000000000E+00  0.91188000000E+02  0.91188000000E+02 0.  0.
    9900012    2    3    3    0    0 -0.11574083096E+02 -0.43339077509E+01 -0.34684838606E+02  0.54367079520E+02  0.39999989381E+02 0.  0.
        -12    1    3    3    0    0  0.11574083096E+02  0.43339077509E+01  0.34684838606E+02  0.36820920480E+02  0.00000000000E+00 0.  1.
         11    1    4    4    0    0 -0.83940726089E+01 -0.12742711335E+01 -0.23760277585E+01  0.88164465663E+01  0.51100000000E-03 0. -1.
        -11    1    4    4    0    0  0.42592341414E+01  0.48073757835E+01  0.40639718822E+01  0.76005134771E+01  0.51100000000E-03 0.  1.
        -12    1    4    4    0    0 -0.74392446287E+01 -0.78670124008E+01 -0.36372782730E+02  0.37950119476E+02  0.00000000000E+00 0.  1.
</event>
<event>
 8    1  0.1290800E-006  0.9118800E+02  0.7816164E-02  0.1184000E+00
        -11   -1    0    0    0    0  0.00000000000E+00  0.00000000000E+00  0.45593999997E+02  0.45594000000E+02  0.51100000000E-03 0. -1.
         11   -1    0    0    0    0 -0.00000000000E+00 -0.00000000000E+00 -0.45593999997E+02  0.45594000000E+02  0.51100000000E-03 0.  1.
         23    2    1    2    0    0  0.00000000000E+00  0.44408920985E-15  0.17763568394E-14  0.91188000000E+02  0.91188000000E+02 0.  0.
    9900012    2    3    3    0    0 -0.34926230757E+02 -0.30710739035E+01  0.11247395021E+02  0.54367122979E+02  0.40000088456E+02 0.  0.
        -12    1    3    3    0    0  0.34926230757E+02  0.30710739035E+01 -0.11247395021E+02  0.36820877021E+02  0.00000000000E+00 0.  1.
         11    1    4    4    0    0 -0.26908699498E+02  0.72465556997E+01 -0.77178236147E+01  0.28916353155E+02  0.51100000000E-03 0.  1.
        -11    1    4    4    0    0 -0.68348331121E+01 -0.10495118281E+02  0.90213909678E+01  0.15435282526E+02  0.51100000000E-03 0. -1.
        -12    1    4    4    0    0 -0.11826981472E+01  0.17748867733E+00  0.99438276682E+01  0.10015487299E+02  0.00000000000E+00 0.  1.
</event>
<event>
 8    1  0.1290800E-006  0.9118800E+02  0.7816164E-02  0.1184000E+00
        -11   -1    0    0    0    0  0.00000000000E+00  0.00000000000E+00  0.45593999997E+02  0.45594000000E+02  0.51100000000E-03 0.  1.
         11   -1    0    0    0    0 -0.00000000000E+00 -0.00000000000E+00 -0.45593999997E+02  0.45594000000E+02  0.51100000000E-03 0. -1.
         23    2    1    2    0    0  0.00000000000E+00  0.00000000000E+00 -0.17763568394E-14  0.91188000000E+02  0.91188000000E+02 0.  0.
    9900012    2    3    3    0    0  0.32644815790E+02  0.10510571179E+02  0.13402395827E+02  0.54367077709E+02  0.39999985252E+02 0.  0.
        -12    1    3    3    0    0 -0.32644815790E+02 -0.10510571179E+02 -0.13402395827E+02  0.36820922291E+02  0.00000000000E+00 0.  1.
         11    1    4    4    0    0  0.89002835122E+01  0.38069453650E+01 -0.12908564832E+02  0.16135021719E+02  0.51100000000E-03 0. -1.
        -11    1    4    4    0    0  0.83651872503E+01  0.71649798813E+01  0.16974047812E+02  0.20234416073E+02  0.51100000000E-03 0.  1.
         12    1    4    4    0    0  0.15379345028E+02 -0.46135406716E+00  0.93369128465E+01  0.17997639916E+02  0.00000000000E+00 0. -1.
</event>
<event>
 8    1  0.1290800E-006  0.9118800E+02  0.7816164E-02  0.1184000E+00
        -11   -1    0    0    0    0  0.00000000000E+00  0.00000000000E+00  0.45593999997E+02  0.45594000000E+02  0.51100000000E-03 0. -1.
         11   -1    0    0    0    0 -0.00000000000E+00 -0.00000000000E+00 -0.45593999997E+02  0.45594000000E+02  0.51100000000E-03 0.  1.
         23    2    1    2    0    0  0.26645352591E-14  0.00000000000E+00  0.00000000000E+00  0.91188000000E+02  0.91188000000E+02 0.  0.
    9900012    2    3    3    0    0 -0.48882015825E+01  0.90773415648E+01 -0.35348090042E+02  0.54367080481E+02  0.39999991573E+02 0.  0.
         12    1    3    3    0    0  0.48882015825E+01 -0.90773415648E+01  0.35348090042E+02  0.36820919519E+02  0.00000000000E+00 0. -1.
         11    1    4    4    0    0  0.31645737221E+01  0.47990476553E+00  0.19647713349E+01  0.37556839705E+01  0.51100000000E-03 0. -1.
        -11    1    4    4    0    0  0.81841052861E+01  0.59320356200E+01 -0.31626284413E+02  0.33202266368E+02  0.51100000000E-03 0.  1.
        -12    1    4    4    0    0 -0.16236880591E+02  0.26654011793E+01 -0.56865769633E+01  0.17409130143E+02  0.00000000000E+00 0.  1.
</event>
<event>
 8    1  0.1290800E-006  0.9118800E+02  0.7816164E-02  0.1184000E+00
        -11   -1    0    0    0    0  0.00000000000E+00  0.00000000000E+00  0.45593999997E+02  0.45594000000E+02  0.51100000000E-03 0.  1.
         11   -1    0    0    0    0 -0.00000000000E+00 -0.00000000000E+00 -0.45593999997E+02  0.45594000000E+02  0.51100000000E-03 0. -1.
         23    2    1    2    0    0  0.00000000000E+00  0.00000000000E+00  0.00000000000E+00  0.91188000000E+02  0.91188000000E+02 0.  0.
    9900012    2    3    3    0    0  0.18514781916E+02  0.25962385400E+02  0.18410259655E+02  0.54367078425E+02  0.39999986885E+02 0.  0.
         12    1    3    3    0    0 -0.18514781916E+02 -0.25962385400E+02 -0.18410259655E+02  0.36820921575E+02  0.00000000000E+00 0. -1.
         11    1    4    4    0    0  0.79770510840E+01 -0.47413494308E+01  0.87957324500E+01  0.12785876897E+02  0.51100000000E-03 0. -1.
        -11    1    4    4    0    0  0.29921540670E+01  0.16484256729E+02  0.17002032746E+02  0.23869495672E+02  0.51100000000E-03 0.  1.
        -12    1    4    4    0    0  0.75455767654E+01  0.14219478102E+02 -0.73875055409E+01  0.17711705856E+02  0.00000000000E+00 0.  1.
</event>
<event>
 8    1  0.1290800E-006  0.9118800E+02  0.7816164E-02  0.1184000E+00
        -11   -1    0    0    0    0  0.00000000000E+00  0.00000000000E+00  0.45593999997E+02  0.45594000000E+02  0.51100000000E-03 0.  1.
         11   -1    0    0    0    0 -0.00000000000E+00 -0.00000000000E+00 -0.45593999997E+02  0.45594000000E+02  0.51100000000E-03 0. -1.
         23    2    1    2    0    0  0.44408920985E-15  0.00000000000E+00  0.00000000000E+00  0.91188000000E+02  0.91188000000E+02 0.  0.
    9900012    2    3    3    0    0  0.39073266434E+01 -0.36704425028E+01  0.36428576961E+02  0.54367074304E+02  0.39999977491E+02 0.  0.
         12    1    3    3    0    0 -0.39073266434E+01  0.36704425028E+01 -0.36428576961E+02  0.36820925696E+02  0.00000000000E+00 0. -1.
         11    1    4    4    0    0  0.48608967912E+01  0.97669369194E+01 -0.14520841595E+01  0.11005904010E+02  0.51100000000E-03 0. -1.
        -11    1    4    4    0    0  0.14769112769E+01 -0.63035576248E+00  0.24944797966E+02  0.24996430968E+02  0.51100000000E-03 0.  1.
        -12    1    4    4    0    0 -0.24304814247E+01 -0.12807023660E+02  0.12935863155E+02  0.18364739327E+02  0.00000000000E+00 0.  1.
</event>
<event>
 8    1  0.1290800E-006  0.9118800E+02  0.7816164E-02  0.1184000E+00
        -11   -1    0    0    0    0  0.00000000000E+00  0.00000000000E+00  0.45593999997E+02  0.45594000000E+02  0.51100000000E-03 0.  1.
         11   -1    0    0    0    0 -0.00000000000E+00 -0.00000000000E+00 -0.45593999997E+02  0.45594000000E+02  0.51100000000E-03 0. -1.
         23    2    1    2    0    0  0.00000000000E+00  0.88817841970E-15 -0.71054273576E-14  0.91188000000E+02  0.91188000000E+02 0.  0.
    9900012    2    3    3    0    0  0.61046930495E+01 -0.39195590038E+01  0.36099170420E+02  0.54367077618E+02  0.39999985046E+02 0.  0.
         12    1    3    3    0    0 -0.61046930495E+01  0.39195590038E+01 -0.36099170420E+02  0.36820922382E+02  0.00000000000E+00 0. -1.
         11    1    4    4    0    0  0.17575540287E+01 -0.72534478796E+01 -0.54175914526E+01  0.92223532634E+01  0.51100000000E-03 0. -1.
        -11    1    4    4    0    0  0.73319223848E-01 -0.54445921415E+01  0.27677351784E+02  0.28207884737E+02  0.51100000000E-03 0.  1.
         12    1    4    4    0    0  0.42738197969E+01  0.87784810172E+01  0.13839410089E+02  0.16936839618E+02  0.00000000000E+00 0. -1.
</event>
<event>
 8    1  0.1290800E-006  0.9118800E+02  0.7816164E-02  0.1184000E+00
        -11   -1    0    0    0    0  0.00000000000E+00  0.00000000000E+00  0.45593999997E+02  0.45594000000E+02  0.51100000000E-03 0.  1.
         11   -1    0    0    0    0 -0.00000000000E+00 -0.00000000000E+00 -0.45593999997E+02  0.45594000000E+02  0.51100000000E-03 0. -1.
         23    2    1    2    0    0  0.00000000000E+00  0.17763568394E-14 -0.88817841970E-15  0.91188000000E+02  0.91188000000E+02 0.  0.
    9900012    2    3    3    0    0 -0.33163184605E+02  0.15361839931E+02 -0.44717660978E+01  0.54367087039E+02  0.40000006524E+02 0.  0.
        -12    1    3    3    0    0  0.33163184605E+02 -0.15361839931E+02  0.44717660978E+01  0.36820912961E+02  0.00000000000E+00 0.  1.
         11    1    4    4    0    0 -0.24295899603E+02  0.22978023535E+02 -0.11014165281E+02  0.35207842027E+02  0.51100000000E-03 0. -1.
        -11    1    4    4    0    0 -0.83807126005E+01 -0.76730081554E+01  0.10320178064E+02  0.15349836265E+02  0.51100000000E-03 0.  1.
         12    1    4    4    0    0 -0.48657240159E+00  0.56824551307E-01 -0.37777788807E+01  0.38094087472E+01  0.00000000000E+00 0. -1.
</event>
<event>
 8    1  0.1290800E-006  0.9118800E+02  0.7816164E-02  0.1184000E+00
        -11   -1    0    0    0    0  0.00000000000E+00  0.00000000000E+00  0.45593999997E+02  0.45594000000E+02  0.51100000000E-03 0.  1.
         11   -1    0    0    0    0 -0.00000000000E+00 -0.00000000000E+00 -0.45593999997E+02  0.45594000000E+02  0.51100000000E-03 0. -1.
         23    2    1    2    0    0 -0.35527136788E-14 -0.35527136788E-14 -0.88817841970E-15  0.91188000000E+02  0.91188000000E+02 0.  0.
    9900012    2    3    3    0    0  0.27343566616E+02  0.24481888165E+02  0.29572516856E+01  0.54367098043E+02  0.40000031609E+02 0.  0.
         12    1    3    3    0    0 -0.27343566616E+02 -0.24481888165E+02 -0.29572516856E+01  0.36820901957E+02  0.00000000000E+00 0. -1.
         11    1    4    4    0    0  0.32373099818E+01  0.94491675913E+01  0.42016345369E+01  0.10836082185E+02  0.51100000000E-03 0. -1.
        -11    1    4    4    0    0  0.24845411911E+02  0.23946281863E+02 -0.45174312989E-01  0.34506824674E+02  0.51100000000E-03 0.  1.
         12    1    4    4    0    0 -0.73915527713E+00 -0.89135612899E+01 -0.11992085383E+01  0.90241911832E+01  0.00000000000E+00 0. -1.
</event>
<event>
 8    1  0.1290800E-006  0.9118800E+02  0.7816164E-02  0.1184000E+00
        -11   -1    0    0    0    0  0.00000000000E+00  0.00000000000E+00  0.45593999997E+02  0.45594000000E+02  0.51100000000E-03 0.  1.
         11   -1    0    0    0    0 -0.00000000000E+00 -0.00000000000E+00 -0.45593999997E+02  0.45594000000E+02  0.51100000000E-03 0. -1.
         23    2    1    2    0    0  0.00000000000E+00  0.71054273576E-14  0.00000000000E+00  0.91188000000E+02  0.91188000000E+02 0.  0.
    9900012    2    3    3    0    0  0.68148835911E+01 -0.33222932838E+02  0.14337864400E+02  0.54367078498E+02  0.39999987051E+02 0.  0.
         12    1    3    3    0    0 -0.68148835911E+01  0.33222932838E+02 -0.14337864400E+02  0.36820921502E+02  0.00000000000E+00 0. -1.
         11    1    4    4    0    0  0.10303558569E+02  0.17765832403E+01 -0.60359350535E+01  0.12072782588E+02  0.51100000000E-03 0. -1.
        -11    1    4    4    0    0 -0.39798934748E+01 -0.32889928871E+02  0.14744681950E+02  0.36262826962E+02  0.51100000000E-03 0.  1.
         12    1    4    4    0    0  0.49121849685E+00 -0.21095872071E+01  0.56291175031E+01  0.60314689471E+01  0.00000000000E+00 0. -1.
</event>
<event>
 8    1  0.1290800E-006  0.9118800E+02  0.7816164E-02  0.1184000E+00
        -11   -1    0    0    0    0  0.00000000000E+00  0.00000000000E+00  0.45593999997E+02  0.45594000000E+02  0.51100000000E-03 0.  1.
         11   -1    0    0    0    0 -0.00000000000E+00 -0.00000000000E+00 -0.45593999997E+02  0.45594000000E+02  0.51100000000E-03 0. -1.
         23    2    1    2    0    0  0.35527136788E-14 -0.88817841970E-15  0.00000000000E+00  0.91188000000E+02  0.91188000000E+02 0.  0.
    9900012    2    3    3    0    0  0.20493088797E+02 -0.37639302432E+01  0.30358575669E+02  0.54367123096E+02  0.40000088722E+02 0.  0.
         12    1    3    3    0    0 -0.20493088797E+02  0.37639302432E+01 -0.30358575669E+02  0.36820876904E+02  0.00000000000E+00 0. -1.
         11    1    4    4    0    0  0.25916124481E+02 -0.11286067129E+02  0.12981214501E+02  0.31105188466E+02  0.51100000000E-03 0.  1.
        -11    1    4    4    0    0  0.21220760455E+01  0.56309298255E+01  0.25853551406E+01  0.65493998891E+01  0.51100000000E-03 0. -1.
         12    1    4    4    0    0 -0.75451117294E+01  0.18912070599E+01  0.14792006027E+02  0.16712534741E+02  0.00000000000E+00 0. -1.
</event>
<event>
 8    1  0.1290800E-006  0.9118800E+02  0.7816164E-02  0.1184000E+00
        -11   -1    0    0    0    0  0.00000000000E+00  0.00000000000E+00  0.45593999997E+02  0.45594000000E+02  0.51100000000E-03 0.  1.
         11   -1    0    0    0    0 -0.00000000000E+00 -0.00000000000E+00 -0.45593999997E+02  0.45594000000E+02  0.51100000000E-03 0. -1.
         23    2    1    2    0    0  0.00000000000E+00  0.88817841970E-15  0.00000000000E+00  0.91188000000E+02  0.91188000000E+02 0.  0.
    9900012    2    3    3    0    0  0.73096079262E+01 -0.27163652708E+01  0.35985706582E+02  0.54367080857E+02  0.39999992431E+02 0.  0.
         12    1    3    3    0    0 -0.73096079262E+01  0.27163652708E+01 -0.35985706582E+02  0.36820919143E+02  0.00000000000E+00 0. -1.
         11    1    4    4    0    0  0.15033066181E+01  0.43415867167E+00 -0.63268843488E+01  0.65175064530E+01  0.51100000000E-03 0. -1.
        -11    1    4    4    0    0  0.13560245867E+00 -0.10596040143E+02  0.11459278829E+02  0.15607995588E+02  0.51100000000E-03 0.  1.
        -12    1    4    4    0    0  0.56706988494E+01  0.74455162006E+01  0.30853312101E+02  0.32241578816E+02  0.00000000000E+00 0.  1.
</event>
<event>
 8    1  0.1290800E-006  0.9118800E+02  0.7816164E-02  0.1184000E+00
        -11   -1    0    0    0    0  0.00000000000E+00  0.00000000000E+00  0.45593999997E+02  0.45594000000E+02  0.51100000000E-03 0.  1.
         11   -1    0    0    0    0 -0.00000000000E+00 -0.00000000000E+00 -0.45593999997E+02  0.45594000000E+02  0.51100000000E-03 0. -1.
         23    2    1    2    0    0  0.00000000000E+00  0.00000000000E+00  0.00000000000E+00  0.91188000000E+02  0.91188000000E+02 0.  0.
    9900012    2    3    3    0    0 -0.26118600537E+02  0.16635680463E+02 -0.19921174905E+02  0.54367077035E+02  0.39999983716E+02 0.  0.
        -12    1    3    3    0    0  0.26118600537E+02 -0.16635680463E+02  0.19921174905E+02  0.36820922965E+02  0.00000000000E+00 0.  1.
         11    1    4    4    0    0 -0.70803479823E+01  0.12032432634E+01  0.61706498237E+01  0.94686874174E+01  0.51100000000E-03 0. -1.
        -11    1    4    4    0    0 -0.49109007348E+01  0.18259002665E+02 -0.53616957009E+01  0.19653394247E+02  0.51100000000E-03 0.  1.
        -12    1    4    4    0    0 -0.14127351820E+02 -0.28265654660E+01 -0.20730129027E+02  0.25244995371E+02  0.00000000000E+00 0.  1.
</event>
<event>
 8    1  0.1290800E-006  0.9118800E+02  0.7816164E-02  0.1184000E+00
        -11   -1    0    0    0    0  0.00000000000E+00  0.00000000000E+00  0.45593999997E+02  0.45594000000E+02  0.51100000000E-03 0. -1.
         11   -1    0    0    0    0 -0.00000000000E+00 -0.00000000000E+00 -0.45593999997E+02  0.45594000000E+02  0.51100000000E-03 0.  1.
         23    2    1    2    0    0  0.00000000000E+00  0.17763568394E-14  0.35527136788E-14  0.91188000000E+02  0.91188000000E+02 0.  0.
    9900012    2    3    3    0    0 -0.30755978247E+02 -0.10300287261E+02 -0.17428542517E+02  0.54367079182E+02  0.39999988611E+02 0.  0.
         12    1    3    3    0    0  0.30755978247E+02  0.10300287261E+02  0.17428542517E+02  0.36820920818E+02  0.00000000000E+00 0. -1.
         11    1    4    4    0    0 -0.24497564166E+02 -0.71516947934E+01  0.59914743848E+01  0.26214025903E+02  0.51100000000E-03 0. -1.
        -11    1    4    4    0    0 -0.12188796639E+01  0.46668910225E+01 -0.14445088593E+02  0.15229120926E+02  0.51100000000E-03 0.  1.
         12    1    4    4    0    0 -0.50395344180E+01 -0.78154834900E+01 -0.89749283085E+01  0.12923932353E+02  0.00000000000E+00 0. -1.
</event>
<event>
 8    1  0.1290800E-006  0.9118800E+02  0.7816164E-02  0.1184000E+00
        -11   -1    0    0    0    0  0.00000000000E+00  0.00000000000E+00  0.45593999997E+02  0.45594000000E+02  0.51100000000E-03 0. -1.
         11   -1    0    0    0    0 -0.00000000000E+00 -0.00000000000E+00 -0.45593999997E+02  0.45594000000E+02  0.51100000000E-03 0.  1.
         23    2    1    2    0    0  0.35527136788E-14 -0.17763568394E-14  0.00000000000E+00  0.91188000000E+02  0.91188000000E+02 0.  0.
    9900012    2    3    3    0    0  0.25603013284E+02 -0.67139856593E+01 -0.25596670910E+02  0.54367062284E+02  0.39999950088E+02 0.  0.
         12    1    3    3    0    0 -0.25603013284E+02  0.67139856593E+01  0.25596670910E+02  0.36820937716E+02  0.00000000000E+00 0. -1.
         11    1    4    4    0    0  0.17010383643E+02 -0.12821718721E+00 -0.17448074089E+02  0.24368111971E+02  0.51100000000E-03 0.  1.
        -11    1    4    4    0    0 -0.38872085910E+00 -0.14876269373E+02  0.71827193752E+00  0.14898671390E+02  0.51100000000E-03 0. -1.
        -12    1    4    4    0    0  0.89813504992E+01  0.82905009005E+01 -0.88668687583E+01  0.15100278923E+02  0.00000000000E+00 0.  1.
</event>
<event>
 8    1  0.1290800E-006  0.9118800E+02  0.7816164E-02  0.1184000E+00
        -11   -1    0    0    0    0  0.00000000000E+00  0.00000000000E+00  0.45593999997E+02  0.45594000000E+02  0.51100000000E-03 0.  1.
         11   -1    0    0    0    0 -0.00000000000E+00 -0.00000000000E+00 -0.45593999997E+02  0.45594000000E+02  0.51100000000E-03 0. -1.
         23    2    1    2    0    0  0.17763568394E-14 -0.71054273576E-14 -0.88817841970E-15  0.91188000000E+02  0.91188000000E+02 0.  0.
    9900012    2    3    3    0    0  0.11788760595E+02 -0.34179433008E+02 -0.69692993485E+01  0.54367086777E+02  0.40000005926E+02 0.  0.
         12    1    3    3    0    0 -0.11788760595E+02  0.34179433008E+02  0.69692993485E+01  0.36820913223E+02  0.00000000000E+00 0. -1.
         11    1    4    4    0    0 -0.73051984129E+01  0.22064921802E+00 -0.48259153956E+01  0.87580859550E+01  0.51100000000E-03 0. -1.
        -11    1    4    4    0    0  0.90073861081E+01 -0.32224412300E+01  0.66864219141E+01  0.11671562460E+02  0.51100000000E-03 0.  1.
        -12    1    4    4    0    0  0.10086572900E+02 -0.31177640996E+02 -0.88298058670E+01  0.33937438362E+02  0.00000000000E+00 0.  1.
</event>
<event>
 8    1  0.1290800E-006  0.9118800E+02  0.7816164E-02  0.1184000E+00
        -11   -1    0    0    0    0  0.00000000000E+00  0.00000000000E+00  0.45593999997E+02  0.45594000000E+02  0.51100000000E-03 0. -1.
         11   -1    0    0    0    0 -0.00000000000E+00 -0.00000000000E+00 -0.45593999997E+02  0.45594000000E+02  0.51100000000E-03 0.  1.
         23    2    1    2    0    0  0.00000000000E+00 -0.17763568394E-14  0.17763568394E-14  0.91188000000E+02  0.91188000000E+02 0.  0.
    9900012    2    3    3    0    0 -0.32876871076E+02  0.78455253243E+01 -0.14606093564E+02  0.54367097124E+02  0.40000029515E+02 0.  0.
         12    1    3    3    0    0  0.32876871076E+02 -0.78455253243E+01  0.14606093564E+02  0.36820902876E+02  0.00000000000E+00 0. -1.
         11    1    4    4    0    0 -0.21423793051E+02  0.11630687693E+02  0.22571769535E+01  0.24481557405E+02  0.51100000000E-03 0. -1.
        -11    1    4    4    0    0  0.13008074719E+01 -0.44400829918E+01 -0.16471366136E+02  0.17108838058E+02  0.51100000000E-03 0.  1.
        -12    1    4    4    0    0 -0.12753885497E+02  0.65492062313E+00 -0.39190438115E+00  0.12776701661E+02  0.00000000000E+00 0.  1.
</event>
<event>
 8    1  0.1290800E-006  0.9118800E+02  0.7816164E-02  0.1184000E+00
        -11   -1    0    0    0    0  0.00000000000E+00  0.00000000000E+00  0.45593999997E+02  0.45594000000E+02  0.51100000000E-03 0.  1.
         11   -1    0    0    0    0 -0.00000000000E+00 -0.00000000000E+00 -0.45593999997E+02  0.45594000000E+02  0.51100000000E-03 0. -1.
         23    2    1    2    0    0 -0.17763568394E-14  0.00000000000E+00  0.71054273576E-14  0.91188000000E+02  0.91188000000E+02 0.  0.
    9900012    2    3    3    0    0  0.89141072480E+01  0.10916348257E+02 -0.34016942026E+02  0.54367077794E+02  0.39999985446E+02 0.  0.
        -12    1    3    3    0    0 -0.89141072480E+01 -0.10916348257E+02  0.34016942026E+02  0.36820922206E+02  0.00000000000E+00 0.  1.
         11    1    4    4    0    0 -0.76681136088E+00  0.10872647364E+00 -0.13751365879E+02  0.13773158131E+02  0.51100000000E-03 0. -1.
        -11    1    4    4    0    0 -0.27877727195E+01 -0.77691846134E+01  0.25498862256E+01  0.86390871229E+01  0.51100000000E-03 0.  1.
        -12    1    4    4    0    0  0.12468691328E+02  0.18576806396E+02 -0.22815462373E+02  0.31954832539E+02  0.00000000000E+00 0.  1.
</event>
<event>
 8    1  0.1290800E-006  0.9118800E+02  0.7816164E-02  0.1184000E+00
        -11   -1    0    0    0    0  0.00000000000E+00  0.00000000000E+00  0.45593999997E+02  0.45594000000E+02  0.51100000000E-03 0.  1.
         11   -1    0    0    0    0 -0.00000000000E+00 -0.00000000000E+00 -0.45593999997E+02  0.45594000000E+02  0.51100000000E-03 0. -1.
         23    2    1    2    0    0  0.17763568394E-14  0.35527136788E-14  0.71054273576E-14  0.91188000000E+02  0.91188000000E+02 0.  0.
    9900012    2    3    3    0    0 -0.98802783607E+01 -0.11366895265E+02 -0.33599869597E+02  0.54367116722E+02  0.40000074192E+02 0.  0.
        -12    1    3    3    0    0  0.98802783607E+01  0.11366895265E+02  0.33599869597E+02  0.36820883278E+02  0.00000000000E+00 0.  1.
         11    1    4    4    0    0 -0.70472112623E+01 -0.18559562616E+02 -0.26255139396E+02  0.32915845668E+02  0.51100000000E-03 0. -1.
        -11    1    4    4    0    0  0.14290315886E+01 -0.58584608397E+01 -0.42498749125E+01  0.73773390680E+01  0.51100000000E-03 0.  1.
        -12    1    4    4    0    0 -0.42620986871E+01  0.13051128191E+02 -0.30948552880E+01  0.14073931986E+02  0.00000000000E+00 0.  1.
</event>
<event>
 8    1  0.1290800E-006  0.9118800E+02  0.7816164E-02  0.1184000E+00
        -11   -1    0    0    0    0  0.00000000000E+00  0.00000000000E+00  0.45593999997E+02  0.45594000000E+02  0.51100000000E-03 0. -1.
         11   -1    0    0    0    0 -0.00000000000E+00 -0.00000000000E+00 -0.45593999997E+02  0.45594000000E+02  0.51100000000E-03 0.  1.
         23    2    1    2    0    0  0.00000000000E+00  0.17763568394E-14  0.00000000000E+00  0.91188000000E+02  0.91188000000E+02 0.  0.
    9900012    2    3    3    0    0  0.88779210137E+01 -0.12651661292E+02 -0.33420051534E+02  0.54367056782E+02  0.39999937545E+02 0.  0.
         12    1    3    3    0    0 -0.88779210137E+01  0.12651661292E+02  0.33420051534E+02  0.36820943218E+02  0.00000000000E+00 0. -1.
         11    1    4    4    0    0  0.12680991391E+02 -0.56364406965E+01 -0.42165232473E+01  0.14503657296E+02  0.51100000000E-03 0. -1.
        -11    1    4    4    0    0 -0.23431931401E+01 -0.13514806621E+02 -0.47450720795E+01  0.14514002253E+02  0.51100000000E-03 0.  1.
         12    1    4    4    0    0 -0.14598772376E+01  0.64995860257E+01 -0.24458456207E+02  0.25349397233E+02  0.00000000000E+00 0. -1.
</event>
<event>
 8    1  0.1290800E-006  0.9118800E+02  0.7816164E-02  0.1184000E+00
        -11   -1    0    0    0    0  0.00000000000E+00  0.00000000000E+00  0.45593999997E+02  0.45594000000E+02  0.51100000000E-03 0. -1.
         11   -1    0    0    0    0 -0.00000000000E+00 -0.00000000000E+00 -0.45593999997E+02  0.45594000000E+02  0.51100000000E-03 0.  1.
         23    2    1    2    0    0  0.71054273576E-14 -0.77715611724E-15  0.00000000000E+00  0.91188000000E+02  0.91188000000E+02 0.  0.
    9900012    2    3    3    0    0 -0.36783554948E+02 -0.80206889683E+00  0.14512386000E+01  0.54367091231E+02  0.40000016079E+02 0.  0.
        -12    1    3    3    0    0  0.36783554948E+02  0.80206889683E+00 -0.14512386000E+01  0.36820908769E+02  0.00000000000E+00 0.  1.
         11    1    4    4    0    0 -0.39954186775E+01  0.64551301848E+01  0.51254485835E+01  0.91598198429E+01  0.51100000000E-03 0. -1.
        -11    1    4    4    0    0  0.42441989701E+01  0.12469378769E+01 -0.56309230892E+01  0.71606825138E+01  0.51100000000E-03 0.  1.
         12    1    4    4    0    0 -0.37032335240E+02 -0.85041369585E+01  0.19567131057E+01  0.38046588874E+02  0.00000000000E+00 0. -1.
</event>
<event>
 8    1  0.1290800E-006  0.9118800E+02  0.7816164E-02  0.1184000E+00
        -11   -1    0    0    0    0  0.00000000000E+00  0.00000000000E+00  0.45593999997E+02  0.45594000000E+02  0.51100000000E-03 0.  1.
         11   -1    0    0    0    0 -0.00000000000E+00 -0.00000000000E+00 -0.45593999997E+02  0.45594000000E+02  0.51100000000E-03 0. -1.
         23    2    1    2    0    0  0.17763568394E-14 -0.33306690739E-15  0.00000000000E+00  0.91188000000E+02  0.91188000000E+02 0.  0.
    9900012    2    3    3    0    0  0.15933542536E+02 -0.90751701846E+00 -0.33182499672E+02  0.54367086793E+02  0.40000005963E+02 0.  0.
        -12    1    3    3    0    0 -0.15933542536E+02  0.90751701846E+00  0.33182499672E+02  0.36820913207E+02  0.00000000000E+00 0.  1.
         11    1    4    4    0    0 -0.59011910607E+01 -0.71049381172E+01 -0.14784193166E+02  0.17432055800E+02  0.51100000000E-03 0. -1.
        -11    1    4    4    0    0  0.27971185740E+01  0.10127102909E+02 -0.13089024397E+02  0.16784059270E+02  0.51100000000E-03 0.  1.
         12    1    4    4    0    0  0.19037615023E+02 -0.39296818102E+01 -0.53092821089E+01  0.20150971724E+02  0.00000000000E+00 0. -1.
</event>
<event>
 8    1  0.1290800E-006  0.9118800E+02  0.7816164E-02  0.1184000E+00
        -11   -1    0    0    0    0  0.00000000000E+00  0.00000000000E+00  0.45593999997E+02  0.45594000000E+02  0.51100000000E-03 0. -1.
         11   -1    0    0    0    0 -0.00000000000E+00 -0.00000000000E+00 -0.45593999997E+02  0.45594000000E+02  0.51100000000E-03 0.  1.
         23    2    1    2    0    0  0.44408920985E-15  0.71054273576E-14  0.00000000000E+00  0.91188000000E+02  0.91188000000E+02 0.  0.
    9900012    2    3    3    0    0 -0.22449631880E+01  0.34293656289E+02  0.13216900611E+02  0.54367065966E+02  0.39999958483E+02 0.  0.
         12    1    3    3    0    0  0.22449631880E+01 -0.34293656289E+02 -0.13216900611E+02  0.36820934034E+02  0.00000000000E+00 0. -1.
         11    1    4    4    0    0  0.78502771823E+01  0.56187338257E+01 -0.51145908948E+01  0.10925019997E+02  0.51100000000E-03 0. -1.
        -11    1    4    4    0    0  0.64853721668E+01  0.16820516018E+02  0.38367813526E+01  0.18431242570E+02  0.51100000000E-03 0.  1.
        -12    1    4    4    0    0 -0.16580612537E+02  0.11854406444E+02  0.14494710154E+02  0.25010803399E+02  0.00000000000E+00 0.  1.
</event>
<event>
 8    1  0.1290800E-006  0.9118800E+02  0.7816164E-02  0.1184000E+00
        -11   -1    0    0    0    0  0.00000000000E+00  0.00000000000E+00  0.45593999997E+02  0.45594000000E+02  0.51100000000E-03 0.  1.
         11   -1    0    0    0    0 -0.00000000000E+00 -0.00000000000E+00 -0.45593999997E+02  0.45594000000E+02  0.51100000000E-03 0. -1.
         23    2    1    2    0    0 -0.44408920985E-15  0.00000000000E+00  0.00000000000E+00  0.91188000000E+02  0.91188000000E+02 0.  0.
    9900012    2    3    3    0    0 -0.22146212534E+01  0.34467666562E+02 -0.12761526510E+02  0.54367066492E+02  0.39999959682E+02 0.  0.
         12    1    3    3    0    0  0.22146212534E+01 -0.34467666562E+02  0.12761526510E+02  0.36820933508E+02  0.00000000000E+00 0. -1.
         11    1    4    4    0    0  0.85301433404E+01 -0.11348190151E+01  0.17805323091E+01  0.87875739069E+01  0.51100000000E-03 0. -1.
        -11    1    4    4    0    0 -0.10738231683E+02  0.16514885615E+02  0.26679902361E+01  0.19878864120E+02  0.51100000000E-03 0.  1.
         12    1    4    4    0    0 -0.65329105900E-02  0.19087599963E+02 -0.17210049055E+02  0.25700628465E+02  0.00000000000E+00 0. -1.
</event>
<event>
 8    1  0.1290800E-006  0.9118800E+02  0.7816164E-02  0.1184000E+00
        -11   -1    0    0    0    0  0.00000000000E+00  0.00000000000E+00  0.45593999997E+02  0.45594000000E+02  0.51100000000E-03 0.  1.
         11   -1    0    0    0    0 -0.00000000000E+00 -0.00000000000E+00 -0.45593999997E+02  0.45594000000E+02  0.51100000000E-03 0. -1.
         23    2    1    2    0    0  0.17763568394E-14  0.88817841970E-15  0.00000000000E+00  0.91188000000E+02  0.91188000000E+02 0.  0.
    9900012    2    3    3    0    0  0.95709971822E+01 -0.45949974221E+01 -0.35257040523E+02  0.54367124198E+02  0.40000091234E+02 0.  0.
        -12    1    3    3    0    0 -0.95709971822E+01  0.45949974221E+01  0.35257040523E+02  0.36820875802E+02  0.00000000000E+00 0.  1.
         11    1    4    4    0    0  0.15307558490E+02  0.54162347909E+01 -0.11549176906E+02  0.19925873474E+02  0.51100000000E-03 0. -1.
        -11    1    4    4    0    0 -0.33062498378E+01 -0.16148344557E+02 -0.10138905469E+02  0.19351943683E+02  0.51100000000E-03 0.  1.
        -12    1    4    4    0    0 -0.24303114697E+01  0.61371123445E+01 -0.13568958148E+02  0.15089307041E+02  0.00000000000E+00 0.  1.
</event>
<event>
 8    1  0.1290800E-006  0.9118800E+02  0.7816164E-02  0.1184000E+00
        -11   -1    0    0    0    0  0.00000000000E+00  0.00000000000E+00  0.45593999997E+02  0.45594000000E+02  0.51100000000E-03 0.  1.
         11   -1    0    0    0    0 -0.00000000000E+00 -0.00000000000E+00 -0.45593999997E+02  0.45594000000E+02  0.51100000000E-03 0. -1.
         23    2    1    2    0    0  0.00000000000E+00 -0.71054273576E-14  0.00000000000E+00  0.91188000000E+02  0.91188000000E+02 0.  0.
    9900012    2    3    3    0    0 -0.85638432505E+01 -0.34138374741E+02 -0.10817210258E+02  0.54367080960E+02  0.39999992665E+02 0.  0.
         12    1    3    3    0    0  0.85638432505E+01  0.34138374741E+02  0.10817210258E+02  0.36820919040E+02  0.00000000000E+00 0. -1.
         11    1    4    4    0    0 -0.34498388546E+01 -0.13275225722E+00  0.15368316549E+01  0.37790029216E+01  0.51100000000E-03 0. -1.
        -11    1    4    4    0    0 -0.10811254616E+02 -0.59896544528E+01  0.86728104787E+01  0.15098901572E+02  0.51100000000E-03 0.  1.
         12    1    4    4    0    0  0.56972502199E+01 -0.28015968031E+02 -0.21026852391E+02  0.35489176466E+02  0.00000000000E+00 0. -1.
</event>
<event>
 8    1  0.1290800E-006  0.9118800E+02  0.7816164E-02  0.1184000E+00
        -11   -1    0    0    0    0  0.00000000000E+00  0.00000000000E+00  0.45593999997E+02  0.45594000000E+02  0.51100000000E-03 0.  1.
         11   -1    0    0    0    0 -0.00000000000E+00 -0.00000000000E+00 -0.45593999997E+02  0.45594000000E+02  0.51100000000E-03 0. -1.
         23    2    1    2    0    0 -0.17763568394E-14 -0.14432899320E-14  0.00000000000E+00  0.91188000000E+02  0.91188000000E+02 0.  0.
    9900012    2    3    3    0    0  0.11990172584E+02  0.80515679719E+00 -0.34804696755E+02  0.54367089742E+02  0.40000012684E+02 0.  0.
        -12    1    3    3    0    0 -0.11990172584E+02 -0.80515679719E+00  0.34804696755E+02  0.36820910258E+02  0.00000000000E+00 0.  1.
         11    1    4    4    0    0  0.98059917551E+01  0.16547934082E+01 -0.21564341477E+02  0.23746929046E+02  0.51100000000E-03 0. -1.
        -11    1    4    4    0    0  0.53663769297E+01 -0.13518551192E+02 -0.71755042478E+01  0.16218418207E+02  0.51100000000E-03 0.  1.
        -12    1    4    4    0    0 -0.31821961012E+01  0.12668914581E+02 -0.60648510298E+01  0.14401742488E+02  0.00000000000E+00 0.  1.
</event>
<event>
 8    1  0.1290800E-006  0.9118800E+02  0.7816164E-02  0.1184000E+00
        -11   -1    0    0    0    0  0.00000000000E+00  0.00000000000E+00  0.45593999997E+02  0.45594000000E+02  0.51100000000E-03 0.  1.
         11   -1    0    0    0    0 -0.00000000000E+00 -0.00000000000E+00 -0.45593999997E+02  0.45594000000E+02  0.51100000000E-03 0. -1.
         23    2    1    2    0    0 -0.35527136788E-14 -0.35527136788E-14  0.00000000000E+00  0.91188000000E+02  0.91188000000E+02 0.  0.
    9900012    2    3    3    0    0 -0.28538769907E+02 -0.22710246605E+02  0.50560481033E+01  0.54367077808E+02  0.39999985479E+02 0.  0.
         12    1    3    3    0    0  0.28538769907E+02  0.22710246605E+02 -0.50560481033E+01  0.36820922192E+02  0.00000000000E+00 0. -1.
         11    1    4    4    0    0 -0.12626148931E+02 -0.15331357722E+02 -0.59725091561E+00  0.19870251014E+02  0.51100000000E-03 0. -1.
        -11    1    4    4    0    0 -0.23178801265E+02 -0.11117612724E+02  0.56707322402E+01  0.26325184617E+02  0.51100000000E-03 0.  1.
         12    1    4    4    0    0  0.72661802890E+01  0.37387238410E+01 -0.17433221285E-01  0.81716421769E+01  0.00000000000E+00 0. -1.
</event>
<event>
 8    1  0.1290800E-006  0.9118800E+02  0.7816164E-02  0.1184000E+00
        -11   -1    0    0    0    0  0.00000000000E+00  0.00000000000E+00  0.45593999997E+02  0.45594000000E+02  0.51100000000E-03 0.  1.
         11   -1    0    0    0    0 -0.00000000000E+00 -0.00000000000E+00 -0.45593999997E+02  0.45594000000E+02  0.51100000000E-03 0. -1.
         23    2    1    2    0    0  0.00000000000E+00 -0.44408920985E-15  0.00000000000E+00  0.91188000000E+02  0.91188000000E+02 0.  0.
    9900012    2    3    3    0    0 -0.32715247110E+02 -0.22379418290E+01  0.16747661539E+02  0.54367082791E+02  0.39999996838E+02 0.  0.
         12    1    3    3    0    0  0.32715247110E+02  0.22379418290E+01 -0.16747661539E+02  0.36820917209E+02  0.00000000000E+00 0. -1.
         11    1    4    4    0    0 -0.36547291702E+01 -0.28059422738E+01 -0.89551376217E+01  0.10070990390E+02  0.51100000000E-03 0. -1.
        -11    1    4    4    0    0 -0.15073594964E+02 -0.10013322304E+02  0.95935193633E+01  0.20482077598E+02  0.51100000000E-03 0.  1.
         12    1    4    4    0    0 -0.13986922976E+02  0.10581322748E+02  0.16109279798E+02  0.23814014803E+02  0.00000000000E+00 0. -1.
</event>
<event>
 8    1  0.1290800E-006  0.9118800E+02  0.7816164E-02  0.1184000E+00
        -11   -1    0    0    0    0  0.00000000000E+00  0.00000000000E+00  0.45593999997E+02  0.45594000000E+02  0.51100000000E-03 0. -1.
         11   -1    0    0    0    0 -0.00000000000E+00 -0.00000000000E+00 -0.45593999997E+02  0.45594000000E+02  0.51100000000E-03 0.  1.
         23    2    1    2    0    0  0.00000000000E+00  0.00000000000E+00  0.22204460493E-15  0.91188000000E+02  0.91188000000E+02 0.  0.
    9900012    2    3    3    0    0 -0.48030512793E+01  0.36461416363E+02  0.18101409861E+01  0.54367071234E+02  0.39999970492E+02 0.  0.
        -12    1    3    3    0    0  0.48030512793E+01 -0.36461416363E+02 -0.18101409861E+01  0.36820928766E+02  0.00000000000E+00 0.  1.
         11    1    4    4    0    0 -0.20128479715E+01  0.12815502522E+02  0.86504016324E+01  0.15592245204E+02  0.51100000000E-03 0. -1.
        -11    1    4    4    0    0 -0.13230447729E+01  0.30618733873E+02 -0.33182789797E+01  0.30826421899E+02  0.51100000000E-03 0.  1.
        -12    1    4    4    0    0 -0.14671585348E+01 -0.69728200316E+01 -0.35219816665E+01  0.79484041303E+01  0.00000000000E+00 0.  1.
</event>
<event>
 8    1  0.1290800E-006  0.9118800E+02  0.7816164E-02  0.1184000E+00
        -11   -1    0    0    0    0  0.00000000000E+00  0.00000000000E+00  0.45593999997E+02  0.45594000000E+02  0.51100000000E-03 0. -1.
         11   -1    0    0    0    0 -0.00000000000E+00 -0.00000000000E+00 -0.45593999997E+02  0.45594000000E+02  0.51100000000E-03 0.  1.
         23    2    1    2    0    0  0.00000000000E+00  0.35527136788E-14 -0.35527136788E-14  0.91188000000E+02  0.91188000000E+02 0.  0.
    9900012    2    3    3    0    0 -0.28890180207E+01 -0.27419797099E+02  0.24404687295E+02  0.54367075785E+02  0.39999980868E+02 0.  0.
        -12    1    3    3    0    0  0.28890180207E+01  0.27419797099E+02 -0.24404687295E+02  0.36820924215E+02  0.00000000000E+00 0.  1.
         11    1    4    4    0    0 -0.14496147411E+02 -0.78981660011E+01  0.12386759725E+02  0.20638583592E+02  0.51100000000E-03 0. -1.
        -11    1    4    4    0    0 -0.64716454645E+01 -0.57398388240E+01  0.47126773049E+01  0.98507498387E+01  0.51100000000E-03 0.  1.
         12    1    4    4    0    0  0.18078774855E+02 -0.13781792274E+02  0.73052502642E+01  0.23877742354E+02  0.00000000000E+00 0. -1.
</event>
<event>
 8    1  0.1290800E-006  0.9118800E+02  0.7816164E-02  0.1184000E+00
        -11   -1    0    0    0    0  0.00000000000E+00  0.00000000000E+00  0.45593999997E+02  0.45594000000E+02  0.51100000000E-03 0. -1.
         11   -1    0    0    0    0 -0.00000000000E+00 -0.00000000000E+00 -0.45593999997E+02  0.45594000000E+02  0.51100000000E-03 0.  1.
         23    2    1    2    0    0  0.00000000000E+00 -0.88817841970E-15  0.00000000000E+00  0.91188000000E+02  0.91188000000E+02 0.  0.
    9900012    2    3    3    0    0  0.35412622778E+02  0.48337779423E+01 -0.88521380393E+01  0.54367087341E+02  0.40000007211E+02 0.  0.
        -12    1    3    3    0    0 -0.35412622778E+02 -0.48337779423E+01  0.88521380393E+01  0.36820912659E+02  0.00000000000E+00 0.  1.
         11    1    4    4    0    0  0.23955643887E+01 -0.14684058466E+01  0.68387954355E+00  0.28918222563E+01  0.51100000000E-03 0. -1.
        -11    1    4    4    0    0  0.76898340021E+01  0.20076672640E+02 -0.66324803699E+01  0.22498802799E+02  0.51100000000E-03 0.  1.
        -12    1    4    4    0    0  0.25327224387E+02 -0.13774488851E+02 -0.29035372130E+01  0.28976462286E+02  0.00000000000E+00 0.  1.
</event>
<event>
 8    1  0.1290800E-006  0.9118800E+02  0.7816164E-02  0.1184000E+00
        -11   -1    0    0    0    0  0.00000000000E+00  0.00000000000E+00  0.45593999997E+02  0.45594000000E+02  0.51100000000E-03 0. -1.
         11   -1    0    0    0    0 -0.00000000000E+00 -0.00000000000E+00 -0.45593999997E+02  0.45594000000E+02  0.51100000000E-03 0.  1.
         23    2    1    2    0    0  0.88817841970E-15  0.00000000000E+00  0.71054273576E-14  0.91188000000E+02  0.91188000000E+02 0.  0.
    9900012    2    3    3    0    0 -0.40198037878E+01 -0.17413321399E+02  0.32193090970E+02  0.54367113389E+02  0.40000066592E+02 0.  0.
        -12    1    3    3    0    0  0.40198037878E+01  0.17413321399E+02 -0.32193090970E+02  0.36820886611E+02  0.00000000000E+00 0.  1.
         11    1    4    4    0    0 -0.56041608065E+01 -0.10408427037E+02  0.13833675930E+02  0.18196498612E+02  0.51100000000E-03 0. -1.
        -11    1    4    4    0    0 -0.11303084414E+02  0.45285874844E+01  0.13554878660E+02  0.18220937342E+02  0.51100000000E-03 0.  1.
        -12    1    4    4    0    0  0.12887441433E+02 -0.11533481846E+02  0.48045363803E+01  0.17949677435E+02  0.00000000000E+00 0.  1.
</event>
<event>
 8    1  0.1290800E-006  0.9118800E+02  0.7816164E-02  0.1184000E+00
        -11   -1    0    0    0    0  0.00000000000E+00  0.00000000000E+00  0.45593999997E+02  0.45594000000E+02  0.51100000000E-03 0. -1.
         11   -1    0    0    0    0 -0.00000000000E+00 -0.00000000000E+00 -0.45593999997E+02  0.45594000000E+02  0.51100000000E-03 0.  1.
         23    2    1    2    0    0  0.00000000000E+00  0.00000000000E+00 -0.35527136788E-14  0.91188000000E+02  0.91188000000E+02 0.  0.
    9900012    2    3    3    0    0  0.33586026449E+02  0.97413185428E+01  0.11526724355E+02  0.54367084287E+02  0.40000000250E+02 0.  0.
         12    1    3    3    0    0 -0.33586026449E+02 -0.97413185428E+01 -0.11526724355E+02  0.36820915713E+02  0.00000000000E+00 0. -1.
         11    1    4    4    0    0  0.13341159108E+02  0.50106007439E+01  0.21005758032E+02  0.25383745132E+02  0.51100000000E-03 0. -1.
        -11    1    4    4    0    0  0.10623180353E+02  0.77316022399E+01  0.24512875566E+01  0.13365569384E+02  0.51100000000E-03 0.  1.
        -12    1    4    4    0    0  0.96216869872E+01 -0.30008844410E+01 -0.11930321233E+02  0.15617769772E+02  0.00000000000E+00 0.  1.
</event>
<event>
 8    1  0.1290800E-006  0.9118800E+02  0.7816164E-02  0.1184000E+00
        -11   -1    0    0    0    0  0.00000000000E+00  0.00000000000E+00  0.45593999997E+02  0.45594000000E+02  0.51100000000E-03 0.  1.
         11   -1    0    0    0    0 -0.00000000000E+00 -0.00000000000E+00 -0.45593999997E+02  0.45594000000E+02  0.51100000000E-03 0. -1.
         23    2    1    2    0    0 -0.35527136788E-14  0.00000000000E+00 -0.17763568394E-14  0.91188000000E+02  0.91188000000E+02 0.  0.
    9900012    2    3    3    0    0 -0.27290745697E+02 -0.21528724643E+02 -0.12145470235E+02  0.54367038135E+02  0.39999895036E+02 0.  0.
         12    1    3    3    0    0  0.27290745697E+02  0.21528724643E+02  0.12145470235E+02  0.36820961865E+02  0.00000000000E+00 0. -1.
         11    1    4    4    0    0  0.60102397748E+01 -0.18757431403E+01  0.22316831650E+01  0.66799554257E+01  0.51100000000E-03 0. -1.
        -11    1    4    4    0    0 -0.25758476812E+02 -0.14059818238E+02  0.13423880850E+01  0.29376514813E+02  0.51100000000E-03 0.  1.
        -12    1    4    4    0    0 -0.75425086599E+01 -0.55931632644E+01 -0.15719541484E+02  0.18310567896E+02  0.00000000000E+00 0.  1.
</event>
<event>
 8    1  0.1290800E-006  0.9118800E+02  0.7816164E-02  0.1184000E+00
        -11   -1    0    0    0    0  0.00000000000E+00  0.00000000000E+00  0.45593999997E+02  0.45594000000E+02  0.51100000000E-03 0.  1.
         11   -1    0    0    0    0 -0.00000000000E+00 -0.00000000000E+00 -0.45593999997E+02  0.45594000000E+02  0.51100000000E-03 0. -1.
         23    2    1    2    0    0  0.35527136788E-14 -0.17763568394E-14  0.35527136788E-14  0.91188000000E+02  0.91188000000E+02 0.  0.
    9900012    2    3    3    0    0 -0.23957096664E+02 -0.59933010513E+01 -0.27311536510E+02  0.54367052639E+02  0.39999928100E+02 0.  0.
        -12    1    3    3    0    0  0.23957096664E+02  0.59933010513E+01  0.27311536510E+02  0.36820947361E+02  0.00000000000E+00 0.  1.
         11    1    4    4    0    0 -0.41845688418E+01  0.11126744709E+02 -0.19503223956E+02  0.22840551858E+02  0.51100000000E-03 0. -1.
        -11    1    4    4    0    0 -0.83019617941E+01  0.10529537986E+01  0.73421313978E+00  0.84006160802E+01  0.51100000000E-03 0.  1.
        -12    1    4    4    0    0 -0.11470566028E+02 -0.18172999559E+02 -0.85425256936E+01  0.23125884701E+02  0.00000000000E+00 0.  1.
</event>
<event>
 8    1  0.1290800E-006  0.9118800E+02  0.7816164E-02  0.1184000E+00
        -11   -1    0    0    0    0  0.00000000000E+00  0.00000000000E+00  0.45593999997E+02  0.45594000000E+02  0.51100000000E-03 0.  1.
         11   -1    0    0    0    0 -0.00000000000E+00 -0.00000000000E+00 -0.45593999997E+02  0.45594000000E+02  0.51100000000E-03 0. -1.
         23    2    1    2    0    0  0.00000000000E+00  0.00000000000E+00  0.00000000000E+00  0.91188000000E+02  0.91188000000E+02 0.  0.
    9900012    2    3    3    0    0  0.14894221819E+02 -0.29618921266E+02  0.16020715854E+02  0.54367059259E+02  0.39999943193E+02 0.  0.
         12    1    3    3    0    0 -0.14894221819E+02  0.29618921266E+02 -0.16020715854E+02  0.36820940741E+02  0.00000000000E+00 0. -1.
         11    1    4    4    0    0  0.17871603006E+02 -0.13842820782E+02  0.61270623663E+01  0.23421331617E+02  0.51100000000E-03 0. -1.
        -11    1    4    4    0    0  0.79144947916E+01 -0.15617117893E+02  0.22806221534E+01  0.17656014181E+02  0.51100000000E-03 0.  1.
        -12    1    4    4    0    0 -0.10891875979E+02 -0.15898259177E+00  0.76130313343E+01  0.13289713462E+02  0.00000000000E+00 0.  1.
</event>
<event>
 8    1  0.1290800E-006  0.9118800E+02  0.7816164E-02  0.1184000E+00
        -11   -1    0    0    0    0  0.00000000000E+00  0.00000000000E+00  0.45593999997E+02  0.45594000000E+02  0.51100000000E-03 0.  1.
         11   -1    0    0    0    0 -0.00000000000E+00 -0.00000000000E+00 -0.45593999997E+02  0.45594000000E+02  0.51100000000E-03 0. -1.
         23    2    1    2    0    0  0.00000000000E+00  0.00000000000E+00  0.00000000000E+00  0.91188000000E+02  0.91188000000E+02 0.  0.
    9900012    2    3    3    0    0  0.88112327955E+01 -0.13769906704E+02  0.32992927287E+02  0.54367062953E+02  0.39999951614E+02 0.  0.
         12    1    3    3    0    0 -0.88112327955E+01  0.13769906704E+02 -0.32992927287E+02  0.36820937047E+02  0.00000000000E+00 0. -1.
         11    1    4    4    0    0 -0.32051679186E+01 -0.99876237589E+01  0.13936454383E+02  0.17442777610E+02  0.51100000000E-03 0. -1.
        -11    1    4    4    0    0  0.11884239205E+02 -0.13998352217E+02  0.19385836797E+02  0.26702053757E+02  0.51100000000E-03 0.  1.
         12    1    4    4    0    0  0.13216150878E+00  0.10216069271E+02 -0.32936389210E+00  0.10222231586E+02  0.00000000000E+00 0. -1.
</event>
<event>
 8    1  0.1290800E-006  0.9118800E+02  0.7816164E-02  0.1184000E+00
        -11   -1    0    0    0    0  0.00000000000E+00  0.00000000000E+00  0.45593999997E+02  0.45594000000E+02  0.51100000000E-03 0.  1.
         11   -1    0    0    0    0 -0.00000000000E+00 -0.00000000000E+00 -0.45593999997E+02  0.45594000000E+02  0.51100000000E-03 0. -1.
         23    2    1    2    0    0  0.35527136788E-14 -0.35527136788E-14 -0.17763568394E-14  0.91188000000E+02  0.91188000000E+02 0.  0.
    9900012    2    3    3    0    0 -0.30896594580E+02 -0.19734501200E+02  0.34246498185E+01  0.54367104836E+02  0.40000047095E+02 0.  0.
        -12    1    3    3    0    0  0.30896594580E+02  0.19734501200E+02 -0.34246498185E+01  0.36820895164E+02  0.00000000000E+00 0.  1.
         11    1    4    4    0    0 -0.26597660132E+02 -0.17004447964E+02  0.12406862981E+02  0.33919272167E+02  0.51100000000E-03 0. -1.
        -11    1    4    4    0    0 -0.74601159837E+01  0.91612092009E+00 -0.12423900580E+02  0.14520534216E+02  0.51100000000E-03 0.  1.
        -12    1    4    4    0    0  0.31611815351E+01 -0.36461741564E+01  0.34416874175E+01  0.59272984535E+01  0.00000000000E+00 0.  1.
</event>
<event>
 8    1  0.1290800E-006  0.9118800E+02  0.7816164E-02  0.1184000E+00
        -11   -1    0    0    0    0  0.00000000000E+00  0.00000000000E+00  0.45593999997E+02  0.45594000000E+02  0.51100000000E-03 0.  1.
         11   -1    0    0    0    0 -0.00000000000E+00 -0.00000000000E+00 -0.45593999997E+02  0.45594000000E+02  0.51100000000E-03 0. -1.
         23    2    1    2    0    0  0.00000000000E+00  0.00000000000E+00  0.17763568394E-14  0.91188000000E+02  0.91188000000E+02 0.  0.
    9900012    2    3    3    0    0 -0.17266683187E+02 -0.28325005205E+02  0.15979255568E+02  0.54367070128E+02  0.39999967970E+02 0.  0.
         12    1    3    3    0    0  0.17266683187E+02  0.28325005205E+02 -0.15979255568E+02  0.36820929872E+02  0.00000000000E+00 0. -1.
         11    1    4    4    0    0  0.75303019226E+01  0.34187538643E+01  0.10006583019E+02  0.12981719031E+02  0.51100000000E-03 0. -1.
        -11    1    4    4    0    0 -0.12395645908E+02 -0.13515218251E+02 -0.69527424974E+00  0.18352018101E+02  0.51100000000E-03 0.  1.
         12    1    4    4    0    0 -0.12401339202E+02 -0.18228540818E+02  0.66679467994E+01  0.23033332995E+02  0.00000000000E+00 0. -1.
</event>
<event>
 8    1  0.1290800E-006  0.9118800E+02  0.7816164E-02  0.1184000E+00
        -11   -1    0    0    0    0  0.00000000000E+00  0.00000000000E+00  0.45593999997E+02  0.45594000000E+02  0.51100000000E-03 0. -1.
         11   -1    0    0    0    0 -0.00000000000E+00 -0.00000000000E+00 -0.45593999997E+02  0.45594000000E+02  0.51100000000E-03 0.  1.
         23    2    1    2    0    0  0.00000000000E+00  0.00000000000E+00  0.00000000000E+00  0.91188000000E+02  0.91188000000E+02 0.  0.
    9900012    2    3    3    0    0 -0.23258217380E+02  0.83199917313E+01 -0.27305843842E+02  0.54367135724E+02  0.40000117511E+02 0.  0.
         12    1    3    3    0    0  0.23258217380E+02 -0.83199917313E+01  0.27305843842E+02  0.36820864276E+02  0.00000000000E+00 0. -1.
         11    1    4    4    0    0 -0.22527857231E+01  0.78223114272E+01 -0.19982318066E+02  0.21576761460E+02  0.51100000000E-03 0. -1.
        -11    1    4    4    0    0 -0.14689714611E+02  0.85574057528E+01 -0.12704451644E+02  0.21223100631E+02  0.51100000000E-03 0.  1.
         12    1    4    4    0    0 -0.63157170458E+01 -0.80597254487E+01  0.53809258675E+01  0.11567273633E+02  0.00000000000E+00 0. -1.
</event>
<event>
 8    1  0.1290800E-006  0.9118800E+02  0.7816164E-02  0.1184000E+00
        -11   -1    0    0    0    0  0.00000000000E+00  0.00000000000E+00  0.45593999997E+02  0.45594000000E+02  0.51100000000E-03 0. -1.
         11   -1    0    0    0    0 -0.00000000000E+00 -0.00000000000E+00 -0.45593999997E+02  0.45594000000E+02  0.51100000000E-03 0.  1.
         23    2    1    2    0    0  0.71054273576E-14  0.00000000000E+00  0.00000000000E+00  0.91188000000E+02  0.91188000000E+02 0.  0.
    9900012    2    3    3    0    0 -0.22018699940E+02  0.19429784578E+02 -0.22213539035E+02  0.54367068558E+02  0.39999964392E+02 0.  0.
         12    1    3    3    0    0  0.22018699940E+02 -0.19429784578E+02  0.22213539035E+02  0.36820931442E+02  0.00000000000E+00 0. -1.
         11    1    4    4    0    0 -0.84943682905E+01  0.74234628333E+00  0.39591336881E+00  0.85359310164E+01  0.51100000000E-03 0. -1.
        -11    1    4    4    0    0  0.29448592162E+01 -0.46423225982E+01 -0.15437441070E+02  0.16387127325E+02  0.51100000000E-03 0.  1.
        -12    1    4    4    0    0 -0.16469190865E+02  0.23329760893E+02 -0.71720113342E+01  0.29444010217E+02  0.00000000000E+00 0.  1.
</event>
<event>
 8    1  0.1290800E-006  0.9118800E+02  0.7816164E-02  0.1184000E+00
        -11   -1    0    0    0    0  0.00000000000E+00  0.00000000000E+00  0.45593999997E+02  0.45594000000E+02  0.51100000000E-03 0.  1.
         11   -1    0    0    0    0 -0.00000000000E+00 -0.00000000000E+00 -0.45593999997E+02  0.45594000000E+02  0.51100000000E-03 0. -1.
         23    2    1    2    0    0  0.71054273576E-14  0.00000000000E+00  0.26645352591E-14  0.91188000000E+02  0.91188000000E+02 0.  0.
    9900012    2    3    3    0    0  0.31226713187E+02 -0.18089528015E+02  0.73103322899E+01  0.54367087485E+02  0.40000007539E+02 0.  0.
         12    1    3    3    0    0 -0.31226713187E+02  0.18089528015E+02 -0.73103322899E+01  0.36820912515E+02  0.00000000000E+00 0. -1.
         11    1    4    4    0    0  0.12431808086E+02 -0.14164664910E+02 -0.14505640711E+02  0.23782371560E+02  0.51100000000E-03 0. -1.
        -11    1    4    4    0    0  0.18348504803E+02 -0.26552128156E+01  0.15614919958E+02  0.24239296796E+02  0.51100000000E-03 0.  1.
         12    1    4    4    0    0  0.44640029813E+00 -0.12696502895E+01  0.62010530428E+01  0.63454191291E+01  0.00000000000E+00 0. -1.
</event>
<event>
 8    1  0.1290800E-006  0.9118800E+02  0.7816164E-02  0.1184000E+00
        -11   -1    0    0    0    0  0.00000000000E+00  0.00000000000E+00  0.45593999997E+02  0.45594000000E+02  0.51100000000E-03 0. -1.
         11   -1    0    0    0    0 -0.00000000000E+00 -0.00000000000E+00 -0.45593999997E+02  0.45594000000E+02  0.51100000000E-03 0.  1.
         23    2    1    2    0    0  0.44408920985E-15  0.00000000000E+00  0.35527136788E-14  0.91188000000E+02  0.91188000000E+02 0.  0.
    9900012    2    3    3    0    0  0.26858605794E+01 -0.25650019702E+02 -0.26280079090E+02  0.54367083190E+02  0.39999997747E+02 0.  0.
         12    1    3    3    0    0 -0.26858605794E+01  0.25650019702E+02  0.26280079090E+02  0.36820916810E+02  0.00000000000E+00 0. -1.
         11    1    4    4    0    0  0.44520058678E+01 -0.31997636458E+02 -0.12957054113E+02  0.34807389255E+02  0.51100000000E-03 0. -1.
        -11    1    4    4    0    0 -0.20975890846E+01 -0.29898426295E+01 -0.48898625327E+00  0.36848536924E+01  0.51100000000E-03 0.  1.
         12    1    4    4    0    0  0.33144379631E+00  0.93374593856E+01 -0.12834038724E+02  0.15874840243E+02  0.00000000000E+00 0. -1.
</event>
<event>
 8    1  0.1290800E-006  0.9118800E+02  0.7816164E-02  0.1184000E+00
        -11   -1    0    0    0    0  0.00000000000E+00  0.00000000000E+00  0.45593999997E+02  0.45594000000E+02  0.51100000000E-03 0.  1.
         11   -1    0    0    0    0 -0.00000000000E+00 -0.00000000000E+00 -0.45593999997E+02  0.45594000000E+02  0.51100000000E-03 0. -1.
         23    2    1    2    0    0  0.22204460493E-15 -0.88817841970E-15  0.00000000000E+00  0.91188000000E+02  0.91188000000E+02 0.  0.
    9900012    2    3    3    0    0 -0.14656346813E+01 -0.40274960806E+01 -0.36570630317E+02  0.54367084592E+02  0.40000000943E+02 0.  0.
        -12    1    3    3    0    0  0.14656346813E+01  0.40274960806E+01  0.36570630317E+02  0.36820915408E+02  0.00000000000E+00 0.  1.
         11    1    4    4    0    0  0.22875302250E+01  0.50758438426E+01  0.31927466840E+01  0.64179916558E+01  0.51100000000E-03 0. -1.
        -11    1    4    4    0    0 -0.29025374557E+01  0.22297162354E+01  0.23364298605E+01  0.43422647232E+01  0.51100000000E-03 0.  1.
         12    1    4    4    0    0 -0.85062745057E+00 -0.11333056159E+02 -0.42099806862E+02  0.43606828213E+02  0.00000000000E+00 0. -1.
</event>
<event>
 8    1  0.1290800E-006  0.9118800E+02  0.7816164E-02  0.1184000E+00
        -11   -1    0    0    0    0  0.00000000000E+00  0.00000000000E+00  0.45593999997E+02  0.45594000000E+02  0.51100000000E-03 0. -1.
         11   -1    0    0    0    0 -0.00000000000E+00 -0.00000000000E+00 -0.45593999997E+02  0.45594000000E+02  0.51100000000E-03 0.  1.
         23    2    1    2    0    0  0.35527136788E-14  0.00000000000E+00 -0.88817841970E-15  0.91188000000E+02  0.91188000000E+02 0.  0.
    9900012    2    3    3    0    0 -0.18517708836E+02  0.31137269581E+02  0.65836383097E+01  0.54367090303E+02  0.40000013964E+02 0.  0.
        -12    1    3    3    0    0  0.18517708836E+02 -0.31137269581E+02 -0.65836383097E+01  0.36820909697E+02  0.00000000000E+00 0.  1.
         11    1    4    4    0    0 -0.20625052346E+02  0.10965409491E+02  0.17098083602E+02  0.28947840207E+02  0.51100000000E-03 0. -1.
        -11    1    4    4    0    0 -0.28042459719E+01  0.19255806720E+01  0.66207993089E+00  0.34655456267E+01  0.51100000000E-03 0.  1.
        -12    1    4    4    0    0  0.49115894811E+01  0.18246279418E+02 -0.11176525223E+02  0.21953704469E+02  0.00000000000E+00 0.  1.
</event>
<event>
 8    1  0.1290800E-006  0.9118800E+02  0.7816164E-02  0.1184000E+00
        -11   -1    0    0    0    0  0.00000000000E+00  0.00000000000E+00  0.45593999997E+02  0.45594000000E+02  0.51100000000E-03 0.  1.
         11   -1    0    0    0    0 -0.00000000000E+00 -0.00000000000E+00 -0.45593999997E+02  0.45594000000E+02  0.51100000000E-03 0. -1.
         23    2    1    2    0    0 -0.35527136788E-14  0.00000000000E+00 -0.17763568394E-14  0.91188000000E+02  0.91188000000E+02 0.  0.
    9900012    2    3    3    0    0 -0.30376891677E+02 -0.16807957379E+02  0.12268967820E+02  0.54366938763E+02  0.39999668497E+02 0.  0.
         12    1    3    3    0    0  0.30376891677E+02  0.16807957379E+02 -0.12268967820E+02  0.36821061237E+02  0.00000000000E+00 0. -1.
         11    1    4    4    0    0 -0.53690338497E+01  0.27280588284E+01  0.15001079169E+02  0.16164813823E+02  0.51100000000E-03 0. -1.
        -11    1    4    4    0    0 -0.22403187791E+02 -0.57036224455E+01 -0.57156122745E+01  0.23813910980E+02  0.51100000000E-03 0.  1.
         12    1    4    4    0    0 -0.26046700360E+01 -0.13832393762E+02  0.29835009253E+01  0.14388213960E+02  0.00000000000E+00 0. -1.
</event>
<event>
 8    1  0.1290800E-006  0.9118800E+02  0.7816164E-02  0.1184000E+00
        -11   -1    0    0    0    0  0.00000000000E+00  0.00000000000E+00  0.45593999997E+02  0.45594000000E+02  0.51100000000E-03 0. -1.
         11   -1    0    0    0    0 -0.00000000000E+00 -0.00000000000E+00 -0.45593999997E+02  0.45594000000E+02  0.51100000000E-03 0.  1.
         23    2    1    2    0    0  0.22204460493E-14 -0.35527136788E-14  0.00000000000E+00  0.91188000000E+02  0.91188000000E+02 0.  0.
    9900012    2    3    3    0    0 -0.18838251135E+01  0.27907296333E+02 -0.23946030527E+02  0.54367104252E+02  0.40000045764E+02 0.  0.
        -12    1    3    3    0    0  0.18838251135E+01 -0.27907296333E+02  0.23946030527E+02  0.36820895748E+02  0.00000000000E+00 0.  1.
         11    1    4    4    0    0  0.11256968470E+02  0.24749424887E+02 -0.15007197388E+02  0.31055906766E+02  0.51100000000E-03 0. -1.
        -11    1    4    4    0    0 -0.33428789792E+01  0.47144387345E+01  0.39839678439E+01  0.70194567092E+01  0.51100000000E-03 0.  1.
         12    1    4    4    0    0 -0.97979146039E+01 -0.15565672886E+01 -0.12922800983E+02  0.16291740777E+02  0.00000000000E+00 0. -1.
</event>
<event>
 8    1  0.1290800E-006  0.9118800E+02  0.7816164E-02  0.1184000E+00
        -11   -1    0    0    0    0  0.00000000000E+00  0.00000000000E+00  0.45593999997E+02  0.45594000000E+02  0.51100000000E-03 0.  1.
         11   -1    0    0    0    0 -0.00000000000E+00 -0.00000000000E+00 -0.45593999997E+02  0.45594000000E+02  0.51100000000E-03 0. -1.
         23    2    1    2    0    0  0.00000000000E+00  0.00000000000E+00  0.35527136788E-14  0.91188000000E+02  0.91188000000E+02 0.  0.
    9900012    2    3    3    0    0 -0.24978332835E+01 -0.23880178970E+02 -0.27915551083E+02  0.54367080525E+02  0.39999991673E+02 0.  0.
        -12    1    3    3    0    0  0.24978332835E+01  0.23880178970E+02  0.27915551083E+02  0.36820919475E+02  0.00000000000E+00 0.  1.
         11    1    4    4    0    0 -0.98545216090E+01 -0.19237242181E+02 -0.28976114120E+02  0.36149664904E+02  0.51100000000E-03 0. -1.
        -11    1    4    4    0    0  0.12043976417E+02 -0.56858201740E+01  0.14626683267E+01  0.13398705828E+02  0.51100000000E-03 0.  1.
        -12    1    4    4    0    0 -0.46872880912E+01  0.10428833854E+01 -0.40210528893E+00  0.48187097929E+01  0.00000000000E+00 0.  1.
</event>
<event>
 8    1  0.1290800E-006  0.9118800E+02  0.7816164E-02  0.1184000E+00
        -11   -1    0    0    0    0  0.00000000000E+00  0.00000000000E+00  0.45593999997E+02  0.45594000000E+02  0.51100000000E-03 0.  1.
         11   -1    0    0    0    0 -0.00000000000E+00 -0.00000000000E+00 -0.45593999997E+02  0.45594000000E+02  0.51100000000E-03 0. -1.
         23    2    1    2    0    0  0.00000000000E+00  0.00000000000E+00  0.00000000000E+00  0.91188000000E+02  0.91188000000E+02 0.  0.
    9900012    2    3    3    0    0  0.29718872181E+02  0.16297077874E+02 -0.14386309583E+02  0.54367190471E+02  0.40000242317E+02 0.  0.
         12    1    3    3    0    0 -0.29718872181E+02 -0.16297077874E+02  0.14386309583E+02  0.36820809529E+02  0.00000000000E+00 0. -1.
         11    1    4    4    0    0  0.28461058686E+02  0.13076147424E+00 -0.15130558621E+02  0.32233255568E+02  0.51100000000E-03 0. -1.
        -11    1    4    4    0    0 -0.47162134857E+01  0.28071935329E+01  0.44181357006E+01  0.70457738045E+01  0.51100000000E-03 0.  1.
         12    1    4    4    0    0  0.59740269807E+01  0.13359122867E+02 -0.36738866628E+01  0.15088161099E+02  0.00000000000E+00 0. -1.
</event>
<event>
 8    1  0.1290800E-006  0.9118800E+02  0.7816164E-02  0.1184000E+00
        -11   -1    0    0    0    0  0.00000000000E+00  0.00000000000E+00  0.45593999997E+02  0.45594000000E+02  0.51100000000E-03 0.  1.
         11   -1    0    0    0    0 -0.00000000000E+00 -0.00000000000E+00 -0.45593999997E+02  0.45594000000E+02  0.51100000000E-03 0. -1.
         23    2    1    2    0    0 -0.35527136788E-14  0.00000000000E+00 -0.66613381478E-15  0.91188000000E+02  0.91188000000E+02 0.  0.
    9900012    2    3    3    0    0  0.29462793892E+02 -0.22052077829E+02 -0.11958963012E+01  0.54367074856E+02  0.39999978749E+02 0.  0.
         12    1    3    3    0    0 -0.29462793892E+02  0.22052077829E+02  0.11958963012E+01  0.36820925144E+02  0.00000000000E+00 0. -1.
         11    1    4    4    0    0 -0.47260649195E+01 -0.16703924452E+01  0.10457477387E+02  0.11596755326E+02  0.51100000000E-03 0. -1.
        -11    1    4    4    0    0  0.18633978667E+02 -0.14145105631E+02 -0.21214747851E+01  0.23490632809E+02  0.51100000000E-03 0.  1.
         12    1    4    4    0    0  0.15554880144E+02 -0.62365797534E+01 -0.95318989030E+01  0.19279686720E+02  0.00000000000E+00 0. -1.
</event>
<event>
 8    1  0.1290800E-006  0.9118800E+02  0.7816164E-02  0.1184000E+00
        -11   -1    0    0    0    0  0.00000000000E+00  0.00000000000E+00  0.45593999997E+02  0.45594000000E+02  0.51100000000E-03 0.  1.
         11   -1    0    0    0    0 -0.00000000000E+00 -0.00000000000E+00 -0.45593999997E+02  0.45594000000E+02  0.51100000000E-03 0. -1.
         23    2    1    2    0    0 -0.71054273576E-14  0.44408920985E-15  0.00000000000E+00  0.91188000000E+02  0.91188000000E+02 0.  0.
    9900012    2    3    3    0    0 -0.34456135242E+02  0.31461825090E+01 -0.12595852054E+02  0.54367092770E+02  0.40000019589E+02 0.  0.
        -12    1    3    3    0    0  0.34456135242E+02 -0.31461825090E+01  0.12595852054E+02  0.36820907230E+02  0.00000000000E+00 0.  1.
         11    1    4    4    0    0  0.28700220672E+01 -0.14786985387E+01 -0.11757407159E+02  0.12192628896E+02  0.51100000000E-03 0. -1.
        -11    1    4    4    0    0 -0.73449614131E+01  0.13867694715E+01  0.78026981588E+01  0.10805261984E+02  0.51100000000E-03 0.  1.
        -12    1    4    4    0    0 -0.29981195897E+02  0.32381115762E+01 -0.86411430545E+01  0.31369201891E+02  0.00000000000E+00 0.  1.
</event>
<event>
 8    1  0.1290800E-006  0.9118800E+02  0.7816164E-02  0.1184000E+00
        -11   -1    0    0    0    0  0.00000000000E+00  0.00000000000E+00  0.45593999997E+02  0.45594000000E+02  0.51100000000E-03 0. -1.
         11   -1    0    0    0    0 -0.00000000000E+00 -0.00000000000E+00 -0.45593999997E+02  0.45594000000E+02  0.51100000000E-03 0.  1.
         23    2    1    2    0    0  0.00000000000E+00 -0.88817841970E-15  0.00000000000E+00  0.91188000000E+02  0.91188000000E+02 0.  0.
    9900012    2    3    3    0    0  0.27465756857E+02  0.21248909993E+01  0.24431418339E+02  0.54367120549E+02  0.40000082915E+02 0.  0.
        -12    1    3    3    0    0 -0.27465756857E+02 -0.21248909993E+01 -0.24431418339E+02  0.36820879451E+02  0.00000000000E+00 0.  1.
         11    1    4    4    0    0  0.21102589259E+02  0.55309517094E+00  0.90643231174E+01  0.22973618382E+02  0.51100000000E-03 0. -1.
        -11    1    4    4    0    0  0.12373099034E+02 -0.80948150042E+01  0.13170247712E+02  0.19800884695E+02  0.51100000000E-03 0.  1.
         12    1    4    4    0    0 -0.60099314365E+01  0.96666108327E+01  0.21968475097E+01  0.11592617472E+02  0.00000000000E+00 0. -1.
</event>
<event>
 8    1  0.1290800E-006  0.9118800E+02  0.7816164E-02  0.1184000E+00
        -11   -1    0    0    0    0  0.00000000000E+00  0.00000000000E+00  0.45593999997E+02  0.45594000000E+02  0.51100000000E-03 0.  1.
         11   -1    0    0    0    0 -0.00000000000E+00 -0.00000000000E+00 -0.45593999997E+02  0.45594000000E+02  0.51100000000E-03 0. -1.
         23    2    1    2    0    0 -0.35527136788E-14  0.00000000000E+00  0.35527136788E-14  0.91188000000E+02  0.91188000000E+02 0.  0.
    9900012    2    3    3    0    0  0.20282000012E+02  0.50279395687E+01 -0.30317278114E+02  0.54367122049E+02  0.40000086336E+02 0.  0.
        -12    1    3    3    0    0 -0.20282000012E+02 -0.50279395687E+01  0.30317278114E+02  0.36820877951E+02  0.00000000000E+00 0.  1.
         11    1    4    4    0    0  0.69953085124E+01  0.14940084015E+00 -0.36905401162E+02  0.37562818012E+02  0.51100000000E-03 0. -1.
        -11    1    4    4    0    0  0.11001892946E+02  0.59907420196E+01  0.39352830698E+01  0.13130768882E+02  0.51100000000E-03 0.  1.
         12    1    4    4    0    0  0.22847985535E+01 -0.11122032910E+01  0.26528399778E+01  0.36735351555E+01  0.00000000000E+00 0. -1.
</event>
<event>
 8    1  0.1290800E-006  0.9118800E+02  0.7816164E-02  0.1184000E+00
        -11   -1    0    0    0    0  0.00000000000E+00  0.00000000000E+00  0.45593999997E+02  0.45594000000E+02  0.51100000000E-03 0. -1.
         11   -1    0    0    0    0 -0.00000000000E+00 -0.00000000000E+00 -0.45593999997E+02  0.45594000000E+02  0.51100000000E-03 0.  1.
         23    2    1    2    0    0 -0.22204460493E-15  0.00000000000E+00  0.00000000000E+00  0.91188000000E+02  0.91188000000E+02 0.  0.
    9900012    2    3    3    0    0 -0.19498196467E+01 -0.14952375275E+02 -0.33591722237E+02  0.54367093902E+02  0.40000022168E+02 0.  0.
         12    1    3    3    0    0  0.19498196467E+01  0.14952375275E+02  0.33591722237E+02  0.36820906098E+02  0.00000000000E+00 0. -1.
         11    1    4    4    0    0  0.57218639129E+01 -0.15233865740E+02 -0.28082036312E+01  0.16513521730E+02  0.51100000000E-03 0. -1.
        -11    1    4    4    0    0 -0.70517065289E+01  0.94376752618E+01 -0.11335383874E+02  0.16348920672E+02  0.51100000000E-03 0.  1.
         12    1    4    4    0    0 -0.61997703068E+00 -0.91561847964E+01 -0.19448134732E+02  0.21504651499E+02  0.00000000000E+00 0. -1.
</event>
<event>
 8    1  0.1290800E-006  0.9118800E+02  0.7816164E-02  0.1184000E+00
        -11   -1    0    0    0    0  0.00000000000E+00  0.00000000000E+00  0.45593999997E+02  0.45594000000E+02  0.51100000000E-03 0. -1.
         11   -1    0    0    0    0 -0.00000000000E+00 -0.00000000000E+00 -0.45593999997E+02  0.45594000000E+02  0.51100000000E-03 0.  1.
         23    2    1    2    0    0  0.00000000000E+00  0.00000000000E+00 -0.35527136788E-14  0.91188000000E+02  0.91188000000E+02 0.  0.
    9900012    2    3    3    0    0  0.20540165304E+02 -0.11659235373E+02 -0.28247916128E+02  0.54367069460E+02  0.39999966449E+02 0.  0.
         12    1    3    3    0    0 -0.20540165304E+02  0.11659235373E+02  0.28247916128E+02  0.36820930540E+02  0.00000000000E+00 0. -1.
         11    1    4    4    0    0  0.62135627044E+01  0.10900584041E+02 -0.67438732120E+01  0.14244680413E+02  0.51100000000E-03 0. -1.
        -11    1    4    4    0    0  0.52965046702E+01 -0.33891409141E+01 -0.17448331210E+02  0.18546792179E+02  0.51100000000E-03 0.  1.
        -12    1    4    4    0    0  0.90300979298E+01 -0.19170678500E+02 -0.40557117065E+01  0.21575596868E+02  0.00000000000E+00 0.  1.
</event>
<event>
 8    1  0.1290800E-006  0.9118800E+02  0.7816164E-02  0.1184000E+00
        -11   -1    0    0    0    0  0.00000000000E+00  0.00000000000E+00  0.45593999997E+02  0.45594000000E+02  0.51100000000E-03 0.  1.
         11   -1    0    0    0    0 -0.00000000000E+00 -0.00000000000E+00 -0.45593999997E+02  0.45594000000E+02  0.51100000000E-03 0. -1.
         23    2    1    2    0    0  0.00000000000E+00 -0.17763568394E-14  0.71054273576E-14  0.91188000000E+02  0.91188000000E+02 0.  0.
    9900012    2    3    3    0    0  0.10842577747E+02 -0.53516728059E+01 -0.34779018157E+02  0.54367054901E+02  0.39999933258E+02 0.  0.
        -12    1    3    3    0    0 -0.10842577747E+02  0.53516728059E+01  0.34779018157E+02  0.36820945099E+02  0.00000000000E+00 0.  1.
         11    1    4    4    0    0  0.50466020271E+01 -0.13357256919E+02 -0.90272000580E+01  0.16893041336E+02  0.51100000000E-03 0. -1.
        -11    1    4    4    0    0 -0.52790545245E+01  0.10361841030E+02 -0.29221192423E+01  0.11990619139E+02  0.51100000000E-03 0.  1.
        -12    1    4    4    0    0  0.11075030244E+02 -0.23562569169E+01 -0.22829698857E+02  0.25483394426E+02  0.00000000000E+00 0.  1.
</event>
<event>
 8    1  0.1290800E-006  0.9118800E+02  0.7816164E-02  0.1184000E+00
        -11   -1    0    0    0    0  0.00000000000E+00  0.00000000000E+00  0.45593999997E+02  0.45594000000E+02  0.51100000000E-03 0. -1.
         11   -1    0    0    0    0 -0.00000000000E+00 -0.00000000000E+00 -0.45593999997E+02  0.45594000000E+02  0.51100000000E-03 0.  1.
         23    2    1    2    0    0  0.22204460493E-15  0.00000000000E+00 -0.13322676296E-14  0.91188000000E+02  0.91188000000E+02 0.  0.
    9900012    2    3    3    0    0 -0.11864117745E+01  0.36635801492E+02  0.34914973926E+01  0.54367080974E+02  0.39999992697E+02 0.  0.
        -12    1    3    3    0    0  0.11864117745E+01 -0.36635801492E+02 -0.34914973926E+01  0.36820919026E+02  0.00000000000E+00 0.  1.
         11    1    4    4    0    0  0.21153404431E+01  0.23059720488E+02  0.80358112789E+01  0.24511214522E+02  0.51100000000E-03 0. -1.
        -11    1    4    4    0    0 -0.51940490244E+01  0.20957405041E+02 -0.51965034902E+01  0.22207985503E+02  0.51100000000E-03 0.  1.
        -12    1    4    4    0    0  0.18922968068E+01 -0.73813240367E+01  0.65218960396E+00  0.76478809496E+01  0.00000000000E+00 0.  1.
</event>
<event>
 8    1  0.1290800E-006  0.9118800E+02  0.7816164E-02  0.1184000E+00
        -11   -1    0    0    0    0  0.00000000000E+00  0.00000000000E+00  0.45593999997E+02  0.45594000000E+02  0.51100000000E-03 0.  1.
         11   -1    0    0    0    0 -0.00000000000E+00 -0.00000000000E+00 -0.45593999997E+02  0.45594000000E+02  0.51100000000E-03 0. -1.
         23    2    1    2    0    0  0.88817841970E-15  0.00000000000E+00  0.88817841970E-15  0.91188000000E+02  0.91188000000E+02 0.  0.
    9900012    2    3    3    0    0  0.67452867812E+01 -0.36136137554E+02 -0.21099543386E+01  0.54367201008E+02  0.40000266338E+02 0.  0.
        -12    1    3    3    0    0 -0.67452867812E+01  0.36136137554E+02  0.21099543386E+01  0.36820798992E+02  0.00000000000E+00 0.  1.
         11    1    4    4    0    0  0.60063005248E+01 -0.22254782072E+02  0.89672797206E+01  0.24733844766E+02  0.51100000000E-03 0. -1.
        -11    1    4    4    0    0 -0.78416624166E+01 -0.20487824050E+01 -0.12553621739E+02  0.14942643603E+02  0.51100000000E-03 0.  1.
        -12    1    4    4    0    0  0.85806486729E+01 -0.11832573077E+02  0.14763876803E+01  0.14690712639E+02  0.00000000000E+00 0.  1.
</event>
<event>
 8    1  0.1290800E-006  0.9118800E+02  0.7816164E-02  0.1184000E+00
        -11   -1    0    0    0    0  0.00000000000E+00  0.00000000000E+00  0.45593999997E+02  0.45594000000E+02  0.51100000000E-03 0. -1.
         11   -1    0    0    0    0 -0.00000000000E+00 -0.00000000000E+00 -0.45593999997E+02  0.45594000000E+02  0.51100000000E-03 0.  1.
         23    2    1    2    0    0 -0.71054273576E-14 -0.17763568394E-14  0.71470607210E-15  0.91188000000E+02  0.91188000000E+02 0.  0.
    9900012    2    3    3    0    0  0.34146271197E+02  0.13777211040E+02  0.33013707544E-01  0.54367075642E+02  0.39999980541E+02 0.  0.
        -12    1    3    3    0    0 -0.34146271197E+02 -0.13777211040E+02 -0.33013707544E-01  0.36820924358E+02  0.00000000000E+00 0.  1.
         11    1    4    4    0    0  0.22590089703E+02  0.33070218548E+01  0.16142777051E+02  0.27961362584E+02  0.51100000000E-03 0. -1.
        -11    1    4    4    0    0  0.61205606931E+01  0.63933980592E+01  0.76553988755E-01  0.88511390632E+01  0.51100000000E-03 0.  1.
         12    1    4    4    0    0  0.54356208004E+01  0.40767911256E+01 -0.16186317333E+02  0.17554573995E+02  0.00000000000E+00 0. -1.
</event>
<event>
 8    1  0.1290800E-006  0.9118800E+02  0.7816164E-02  0.1184000E+00
        -11   -1    0    0    0    0  0.00000000000E+00  0.00000000000E+00  0.45593999997E+02  0.45594000000E+02  0.51100000000E-03 0.  1.
         11   -1    0    0    0    0 -0.00000000000E+00 -0.00000000000E+00 -0.45593999997E+02  0.45594000000E+02  0.51100000000E-03 0. -1.
         23    2    1    2    0    0  0.00000000000E+00  0.00000000000E+00 -0.35527136788E-14  0.91188000000E+02  0.91188000000E+02 0.  0.
    9900012    2    3    3    0    0  0.30444621101E+02  0.10418968614E+01 -0.20683813929E+02  0.54367073046E+02  0.39999974624E+02 0.  0.
        -12    1    3    3    0    0 -0.30444621101E+02 -0.10418968614E+01  0.20683813929E+02  0.36820926954E+02  0.00000000000E+00 0.  1.
         11    1    4    4    0    0  0.17093652088E+02  0.44535188813E+01 -0.13479601664E+01  0.17715636286E+02  0.51100000000E-03 0.  1.
        -11    1    4    4    0    0  0.18275432386E+02  0.78371440936E+00 -0.23094478734E+01  0.18437439814E+02  0.51100000000E-03 0. -1.
         12    1    4    4    0    0 -0.49244633726E+01 -0.41953364292E+01 -0.17026405889E+02  0.18213996946E+02  0.00000000000E+00 0. -1.
</event>
<event>
 8    1  0.1290800E-006  0.9118800E+02  0.7816164E-02  0.1184000E+00
        -11   -1    0    0    0    0  0.00000000000E+00  0.00000000000E+00  0.45593999997E+02  0.45594000000E+02  0.51100000000E-03 0.  1.
         11   -1    0    0    0    0 -0.00000000000E+00 -0.00000000000E+00 -0.45593999997E+02  0.45594000000E+02  0.51100000000E-03 0. -1.
         23    2    1    2    0    0  0.35527136788E-14  0.17763568394E-14  0.35527136788E-14  0.91188000000E+02  0.91188000000E+02 0.  0.
    9900012    2    3    3    0    0  0.23569645594E+02  0.91039060538E+01  0.26783779097E+02  0.54367080381E+02  0.39999991345E+02 0.  0.
         12    1    3    3    0    0 -0.23569645594E+02 -0.91039060538E+01 -0.26783779097E+02  0.36820919619E+02  0.00000000000E+00 0. -1.
         11    1    4    4    0    0  0.15610779729E+02  0.20591890927E+01 -0.18777382385E+01  0.15857572470E+02  0.51100000000E-03 0. -1.
        -11    1    4    4    0    0  0.26651460424E+01 -0.83000145450E+01  0.14741142377E+02  0.17125843737E+02  0.51100000000E-03 0.  1.
        -12    1    4    4    0    0  0.52937198224E+01  0.15344731506E+02  0.13920374958E+02  0.21383664175E+02  0.00000000000E+00 0.  1.
</event>
<event>
 8    1  0.1290800E-006  0.9118800E+02  0.7816164E-02  0.1184000E+00
        -11   -1    0    0    0    0  0.00000000000E+00  0.00000000000E+00  0.45593999997E+02  0.45594000000E+02  0.51100000000E-03 0.  1.
         11   -1    0    0    0    0 -0.00000000000E+00 -0.00000000000E+00 -0.45593999997E+02  0.45594000000E+02  0.51100000000E-03 0. -1.
         23    2    1    2    0    0 -0.35527136788E-14  0.17763568394E-14 -0.35527136788E-14  0.91188000000E+02  0.91188000000E+02 0.  0.
    9900012    2    3    3    0    0  0.21566003291E+02 -0.85328652409E+01  0.28598570558E+02  0.54367074901E+02  0.39999978853E+02 0.  0.
         12    1    3    3    0    0 -0.21566003291E+02  0.85328652409E+01 -0.28598570558E+02  0.36820925099E+02  0.00000000000E+00 0. -1.
         11    1    4    4    0    0  0.18741438518E+02 -0.14431681909E+02 -0.12155154945E+00  0.23654380894E+02  0.51100000000E-03 0. -1.
        -11    1    4    4    0    0  0.36236973122E+01  0.19995445273E+01  0.42920558469E+01  0.59624746693E+01  0.51100000000E-03 0.  1.
         12    1    4    4    0    0 -0.79913253973E+00  0.38992721406E+01  0.24428066260E+02  0.24750219338E+02  0.00000000000E+00 0. -1.
</event>
<event>
 8    1  0.1290800E-006  0.9118800E+02  0.7816164E-02  0.1184000E+00
        -11   -1    0    0    0    0  0.00000000000E+00  0.00000000000E+00  0.45593999997E+02  0.45594000000E+02  0.51100000000E-03 0.  1.
         11   -1    0    0    0    0 -0.00000000000E+00 -0.00000000000E+00 -0.45593999997E+02  0.45594000000E+02  0.51100000000E-03 0. -1.
         23    2    1    2    0    0  0.35527136788E-14  0.00000000000E+00 -0.71054273576E-14  0.91188000000E+02  0.91188000000E+02 0.  0.
    9900012    2    3    3    0    0  0.19310687503E+02 -0.12307769565E+02 -0.28833900760E+02  0.54367113583E+02  0.40000067035E+02 0.  0.
        -12    1    3    3    0    0 -0.19310687503E+02  0.12307769565E+02  0.28833900760E+02  0.36820886417E+02  0.00000000000E+00 0.  1.
         11    1    4    4    0    0  0.19098746213E+01  0.20731761409E+01 -0.35880761794E-01  0.28190367274E+01  0.51100000000E-03 0. -1.
        -11    1    4    4    0    0  0.31378543737E+01  0.98859971399E+01 -0.19175066117E+02  0.21800509865E+02  0.51100000000E-03 0.  1.
         12    1    4    4    0    0  0.14262958508E+02 -0.24266942845E+02 -0.96229538820E+01  0.29747566991E+02  0.00000000000E+00 0. -1.
</event>
<event>
 8    1  0.1290800E-006  0.9118800E+02  0.7816164E-02  0.1184000E+00
        -11   -1    0    0    0    0  0.00000000000E+00  0.00000000000E+00  0.45593999997E+02  0.45594000000E+02  0.51100000000E-03 0. -1.
         11   -1    0    0    0    0 -0.00000000000E+00 -0.00000000000E+00 -0.45593999997E+02  0.45594000000E+02  0.51100000000E-03 0.  1.
         23    2    1    2    0    0  0.00000000000E+00  0.88817841970E-15  0.17763568394E-14  0.91188000000E+02  0.91188000000E+02 0.  0.
    9900012    2    3    3    0    0 -0.33136302020E+02 -0.37993692157E+01  0.15599045566E+02  0.54367082839E+02  0.39999996949E+02 0.  0.
        -12    1    3    3    0    0  0.33136302020E+02  0.37993692157E+01 -0.15599045566E+02  0.36820917161E+02  0.00000000000E+00 0.  1.
         11    1    4    4    0    0  0.15865414673E+01  0.90561821328E+01  0.91091796089E+01  0.12942515291E+02  0.51100000000E-03 0. -1.
        -11    1    4    4    0    0 -0.30349900444E+02 -0.67131874657E+01 -0.57943136625E+00  0.31088890039E+02  0.51100000000E-03 0.  1.
        -12    1    4    4    0    0 -0.43729430435E+01 -0.61423638828E+01  0.70692973231E+01  0.10335677509E+02  0.00000000000E+00 0.  1.
</event>
<event>
 8    1  0.1290800E-006  0.9118800E+02  0.7816164E-02  0.1184000E+00
        -11   -1    0    0    0    0  0.00000000000E+00  0.00000000000E+00  0.45593999997E+02  0.45594000000E+02  0.51100000000E-03 0.  1.
         11   -1    0    0    0    0 -0.00000000000E+00 -0.00000000000E+00 -0.45593999997E+02  0.45594000000E+02  0.51100000000E-03 0. -1.
         23    2    1    2    0    0  0.00000000000E+00  0.00000000000E+00  0.00000000000E+00  0.91188000000E+02  0.91188000000E+02 0.  0.
    9900012    2    3    3    0    0  0.11898559372E+02 -0.22991522629E+02  0.26183849466E+02  0.54367084737E+02  0.40000001276E+02 0.  0.
         12    1    3    3    0    0 -0.11898559372E+02  0.22991522629E+02 -0.26183849466E+02  0.36820915263E+02  0.00000000000E+00 0. -1.
         11    1    4    4    0    0  0.33036584099E+01 -0.77412724161E+01  0.21281118846E+02  0.22885092901E+02  0.51100000000E-03 0. -1.
        -11    1    4    4    0    0 -0.41854029021E+01 -0.12772089546E+02  0.10750111032E+02  0.17210716321E+02  0.51100000000E-03 0.  1.
         12    1    4    4    0    0  0.12780303865E+02 -0.24781606667E+01 -0.58473804112E+01  0.14271275515E+02  0.00000000000E+00 0. -1.
</event>
<event>
 8    1  0.1290800E-006  0.9118800E+02  0.7816164E-02  0.1184000E+00
        -11   -1    0    0    0    0  0.00000000000E+00  0.00000000000E+00  0.45593999997E+02  0.45594000000E+02  0.51100000000E-03 0. -1.
         11   -1    0    0    0    0 -0.00000000000E+00 -0.00000000000E+00 -0.45593999997E+02  0.45594000000E+02  0.51100000000E-03 0.  1.
         23    2    1    2    0    0  0.00000000000E+00  0.00000000000E+00  0.17763568394E-14  0.91188000000E+02  0.91188000000E+02 0.  0.
    9900012    2    3    3    0    0 -0.20490095643E+02 -0.29216551015E+02  0.90731244961E+01  0.54367184409E+02  0.40000228497E+02 0.  0.
        -12    1    3    3    0    0  0.20490095643E+02  0.29216551015E+02 -0.90731244961E+01  0.36820815591E+02  0.00000000000E+00 0.  1.
         11    1    4    4    0    0  0.68873473489E+01 -0.15166673435E+01  0.66270672732E+01  0.96774921462E+01  0.51100000000E-03 0. -1.
        -11    1    4    4    0    0 -0.10413558558E+02 -0.12007342602E+02 -0.96623882843E+01  0.18600543697E+02  0.51100000000E-03 0.  1.
         12    1    4    4    0    0 -0.16963884434E+02 -0.15692541069E+02  0.12108445507E+02  0.26089148566E+02  0.00000000000E+00 0. -1.
</event>
<event>
 8    1  0.1290800E-006  0.9118800E+02  0.7816164E-02  0.1184000E+00
        -11   -1    0    0    0    0  0.00000000000E+00  0.00000000000E+00  0.45593999997E+02  0.45594000000E+02  0.51100000000E-03 0. -1.
         11   -1    0    0    0    0 -0.00000000000E+00 -0.00000000000E+00 -0.45593999997E+02  0.45594000000E+02  0.51100000000E-03 0.  1.
         23    2    1    2    0    0  0.35527136788E-14  0.17763568394E-14  0.00000000000E+00  0.91188000000E+02  0.91188000000E+02 0.  0.
    9900012    2    3    3    0    0 -0.22167506707E+02 -0.14795517425E+02 -0.25406162402E+02  0.54367098634E+02  0.40000032955E+02 0.  0.
         12    1    3    3    0    0  0.22167506707E+02  0.14795517425E+02  0.25406162402E+02  0.36820901366E+02  0.00000000000E+00 0. -1.
         11    1    4    4    0    0  0.41172170045E+01 -0.24101782109E+01  0.36184305053E+01  0.59877770878E+01  0.51100000000E-03 0. -1.
        -11    1    4    4    0    0 -0.25517274777E+01 -0.30377731509E+01  0.46642687446E+01  0.61232982958E+01  0.51100000000E-03 0.  1.
        -12    1    4    4    0    0 -0.23732996233E+02 -0.93475660633E+01 -0.33688861652E+02  0.42256023250E+02  0.00000000000E+00 0.  1.
</event>
<event>
 8    1  0.1290800E-006  0.9118800E+02  0.7816164E-02  0.1184000E+00
        -11   -1    0    0    0    0  0.00000000000E+00  0.00000000000E+00  0.45593999997E+02  0.45594000000E+02  0.51100000000E-03 0.  1.
         11   -1    0    0    0    0 -0.00000000000E+00 -0.00000000000E+00 -0.45593999997E+02  0.45594000000E+02  0.51100000000E-03 0. -1.
         23    2    1    2    0    0 -0.35527136788E-14 -0.71054273576E-14  0.00000000000E+00  0.91188000000E+02  0.91188000000E+02 0.  0.
    9900012    2    3    3    0    0  0.20752854499E+02  0.28983433236E+02  0.92227322869E+01  0.54367093400E+02  0.40000021025E+02 0.  0.
         12    1    3    3    0    0 -0.20752854499E+02 -0.28983433236E+02 -0.92227322869E+01  0.36820906600E+02  0.00000000000E+00 0. -1.
         11    1    4    4    0    0  0.72997993600E+01  0.15495194680E+02 -0.11124022941E+02  0.20423810015E+02  0.51100000000E-03 0.  1.
        -11    1    4    4    0    0 -0.61502501124E+00 -0.39467969074E+01  0.52236250904E+00  0.40284394552E+01  0.51100000000E-03 0. -1.
        -12    1    4    4    0    0  0.14068080150E+02  0.17435035463E+02  0.19824392719E+02  0.29914843930E+02  0.00000000000E+00 0.  1.
</event>
<event>
 8    1  0.1290800E-006  0.9118800E+02  0.7816164E-02  0.1184000E+00
        -11   -1    0    0    0    0  0.00000000000E+00  0.00000000000E+00  0.45593999997E+02  0.45594000000E+02  0.51100000000E-03 0.  1.
         11   -1    0    0    0    0 -0.00000000000E+00 -0.00000000000E+00 -0.45593999997E+02  0.45594000000E+02  0.51100000000E-03 0. -1.
         23    2    1    2    0    0  0.88817841970E-15  0.00000000000E+00  0.35527136788E-14  0.91188000000E+02  0.91188000000E+02 0.  0.
    9900012    2    3    3    0    0 -0.61957041068E+01 -0.20597225321E+02 -0.29885553474E+02  0.54367099050E+02  0.40000033904E+02 0.  0.
        -12    1    3    3    0    0  0.61957041068E+01  0.20597225321E+02  0.29885553474E+02  0.36820900950E+02  0.00000000000E+00 0.  1.
         11    1    4    4    0    0 -0.26999767595E+00 -0.10215468065E+02 -0.23391945698E+02  0.25526688198E+02  0.51100000000E-03 0. -1.
        -11    1    4    4    0    0 -0.11560101393E+02 -0.14549886184E+02  0.96167672158E+00  0.18608061547E+02  0.51100000000E-03 0.  1.
         12    1    4    4    0    0  0.56343949624E+01  0.41681289281E+01 -0.74552844978E+01  0.10232349305E+02  0.00000000000E+00 0. -1.
</event>
<event>
 8    1  0.1290800E-006  0.9118800E+02  0.7816164E-02  0.1184000E+00
        -11   -1    0    0    0    0  0.00000000000E+00  0.00000000000E+00  0.45593999997E+02  0.45594000000E+02  0.51100000000E-03 0.  1.
         11   -1    0    0    0    0 -0.00000000000E+00 -0.00000000000E+00 -0.45593999997E+02  0.45594000000E+02  0.51100000000E-03 0. -1.
         23    2    1    2    0    0  0.00000000000E+00 -0.35527136788E-14 -0.35527136788E-14  0.91188000000E+02  0.91188000000E+02 0.  0.
    9900012    2    3    3    0    0 -0.21842009491E+02 -0.19373440408E+02 -0.22436040067E+02  0.54367089287E+02  0.40000011647E+02 0.  0.
        -12    1    3    3    0    0  0.21842009491E+02  0.19373440408E+02  0.22436040067E+02  0.36820910713E+02  0.00000000000E+00 0.  1.
         11    1    4    4    0    0  0.29306913660E+01 -0.16808125361E-01 -0.97233407293E+01  0.10155421685E+02  0.51100000000E-03 0. -1.
        -11    1    4    4    0    0  0.18811465180E+01  0.16889335538E+01  0.52250818875E+01  0.58045404438E+01  0.51100000000E-03 0.  1.
        -12    1    4    4    0    0 -0.26653847375E+02 -0.21045565836E+02 -0.17937781225E+02  0.38407127158E+02  0.00000000000E+00 0.  1.
</event>
<event>
 8    1  0.1290800E-006  0.9118800E+02  0.7816164E-02  0.1184000E+00
        -11   -1    0    0    0    0  0.00000000000E+00  0.00000000000E+00  0.45593999997E+02  0.45594000000E+02  0.51100000000E-03 0.  1.
         11   -1    0    0    0    0 -0.00000000000E+00 -0.00000000000E+00 -0.45593999997E+02  0.45594000000E+02  0.51100000000E-03 0. -1.
         23    2    1    2    0    0  0.17763568394E-14  0.71054273576E-14 -0.17763568394E-14  0.91188000000E+02  0.91188000000E+02 0.  0.
    9900012    2    3    3    0    0 -0.13124414319E+02 -0.33939854558E+02  0.56227296121E+01  0.54367094703E+02  0.40000023994E+02 0.  0.
         12    1    3    3    0    0  0.13124414319E+02  0.33939854558E+02 -0.56227296121E+01  0.36820905297E+02  0.00000000000E+00 0. -1.
         11    1    4    4    0    0 -0.16763517793E+02 -0.16226515659E+02 -0.68458851647E+01  0.24314223886E+02  0.51100000000E-03 0. -1.
        -11    1    4    4    0    0  0.64667830975E+01 -0.17505935029E+02  0.14984592295E+01  0.18722244128E+02  0.51100000000E-03 0.  1.
         12    1    4    4    0    0 -0.28276796238E+01 -0.20740386906E+00  0.10970155547E+02  0.11330626688E+02  0.00000000000E+00 0. -1.
</event>
<event>
 8    1  0.1290800E-006  0.9118800E+02  0.7816164E-02  0.1184000E+00
        -11   -1    0    0    0    0  0.00000000000E+00  0.00000000000E+00  0.45593999997E+02  0.45594000000E+02  0.51100000000E-03 0. -1.
         11   -1    0    0    0    0 -0.00000000000E+00 -0.00000000000E+00 -0.45593999997E+02  0.45594000000E+02  0.51100000000E-03 0.  1.
         23    2    1    2    0    0  0.00000000000E+00  0.00000000000E+00  0.35527136788E-14  0.91188000000E+02  0.91188000000E+02 0.  0.
    9900012    2    3    3    0    0  0.25314970405E+02  0.10642581639E+02  0.24528914595E+02  0.54367083094E+02  0.39999997530E+02 0.  0.
         12    1    3    3    0    0 -0.25314970405E+02 -0.10642581639E+02 -0.24528914595E+02  0.36820916906E+02  0.00000000000E+00 0. -1.
         11    1    4    4    0    0  0.26182667698E+01 -0.76713100675E+01  0.13157909090E+02  0.15454283901E+02  0.51100000000E-03 0. -1.
        -11    1    4    4    0    0  0.11969053698E+02 -0.38459911230E+01  0.44869446356E+01  0.13348504282E+02  0.51100000000E-03 0.  1.
         12    1    4    4    0    0  0.10727649937E+02  0.22159882830E+02  0.68840608701E+01  0.25564294910E+02  0.00000000000E+00 0. -1.
</event>
<event>
 8    1  0.1290800E-006  0.9118800E+02  0.7816164E-02  0.1184000E+00
        -11   -1    0    0    0    0  0.00000000000E+00  0.00000000000E+00  0.45593999997E+02  0.45594000000E+02  0.51100000000E-03 0.  1.
         11   -1    0    0    0    0 -0.00000000000E+00 -0.00000000000E+00 -0.45593999997E+02  0.45594000000E+02  0.51100000000E-03 0. -1.
         23    2    1    2    0    0  0.35527136788E-14 -0.13322676296E-14  0.00000000000E+00  0.91188000000E+02  0.91188000000E+02 0.  0.
    9900012    2    3    3    0    0 -0.28921238146E+02  0.29307222455E+01 -0.22599746050E+02  0.54367140826E+02  0.40000129140E+02 0.  0.
        -12    1    3    3    0    0  0.28921238146E+02 -0.29307222455E+01  0.22599746050E+02  0.36820859174E+02  0.00000000000E+00 0.  1.
         11    1    4    4    0    0 -0.16547960087E+02 -0.64668145190E+01 -0.16230886053E+02  0.24064420529E+02  0.51100000000E-03 0. -1.
        -11    1    4    4    0    0 -0.56135236268E+01 -0.83017880758E+01  0.78178144202E+00  0.10051990611E+02  0.51100000000E-03 0.  1.
         12    1    4    4    0    0 -0.67597544321E+01  0.17699324840E+02 -0.71506414393E+01  0.20250729685E+02  0.00000000000E+00 0. -1.
</event>
<event>
 8    1  0.1290800E-006  0.9118800E+02  0.7816164E-02  0.1184000E+00
        -11   -1    0    0    0    0  0.00000000000E+00  0.00000000000E+00  0.45593999997E+02  0.45594000000E+02  0.51100000000E-03 0.  1.
         11   -1    0    0    0    0 -0.00000000000E+00 -0.00000000000E+00 -0.45593999997E+02  0.45594000000E+02  0.51100000000E-03 0. -1.
         23    2    1    2    0    0 -0.88817841970E-15  0.00000000000E+00 -0.35527136788E-14  0.91188000000E+02  0.91188000000E+02 0.  0.
    9900012    2    3    3    0    0  0.23871862239E+01 -0.21062489432E+02 -0.30107632957E+02  0.54366855512E+02  0.39999478706E+02 0.  0.
        -12    1    3    3    0    0 -0.23871862239E+01  0.21062489432E+02  0.30107632957E+02  0.36821144488E+02  0.00000000000E+00 0.  1.
         11    1    4    4    0    0 -0.14155459219E+02 -0.25260733017E+01 -0.83724335478E+01  0.16638981813E+02  0.51100000000E-03 0. -1.
        -11    1    4    4    0    0  0.89728105205E+01 -0.17837706088E+02 -0.70207155180E+01  0.21165668753E+02  0.51100000000E-03 0.  1.
        -12    1    4    4    0    0  0.75698349220E+01 -0.69871004323E+00 -0.14714483891E+02  0.16562204945E+02  0.00000000000E+00 0.  1.
</event>
<event>
 8    1  0.1290800E-006  0.9118800E+02  0.7816164E-02  0.1184000E+00
        -11   -1    0    0    0    0  0.00000000000E+00  0.00000000000E+00  0.45593999997E+02  0.45594000000E+02  0.51100000000E-03 0. -1.
         11   -1    0    0    0    0 -0.00000000000E+00 -0.00000000000E+00 -0.45593999997E+02  0.45594000000E+02  0.51100000000E-03 0.  1.
         23    2    1    2    0    0  0.00000000000E+00 -0.49960036108E-15  0.17763568394E-14  0.91188000000E+02  0.91188000000E+02 0.  0.
    9900012    2    3    3    0    0 -0.36640316947E+02 -0.48897605389E+00  0.36097507008E+01  0.54367051836E+02  0.39999926271E+02 0.  0.
         12    1    3    3    0    0  0.36640316947E+02  0.48897605389E+00 -0.36097507008E+01  0.36820948164E+02  0.00000000000E+00 0. -1.
         11    1    4    4    0    0 -0.10202767386E+02 -0.51902080133E+01  0.54131797561E+01  0.12662434082E+02  0.51100000000E-03 0. -1.
        -11    1    4    4    0    0 -0.12081842930E+02  0.13991210239E+02  0.99132553768E+01  0.20976117967E+02  0.51100000000E-03 0.  1.
        -12    1    4    4    0    0 -0.14355706631E+02 -0.92899782801E+01 -0.11716684432E+02  0.20728499787E+02  0.00000000000E+00 0.  1.
</event>
<event>
 8    1  0.1290800E-006  0.9118800E+02  0.7816164E-02  0.1184000E+00
        -11   -1    0    0    0    0  0.00000000000E+00  0.00000000000E+00  0.45593999997E+02  0.45594000000E+02  0.51100000000E-03 0.  1.
         11   -1    0    0    0    0 -0.00000000000E+00 -0.00000000000E+00 -0.45593999997E+02  0.45594000000E+02  0.51100000000E-03 0. -1.
         23    2    1    2    0    0  0.17763568394E-14  0.35527136788E-14  0.17763568394E-14  0.91188000000E+02  0.91188000000E+02 0.  0.
    9900012    2    3    3    0    0 -0.13436193617E+02 -0.31942860067E+02 -0.12446012629E+02  0.54367070646E+02  0.39999969151E+02 0.  0.
        -12    1    3    3    0    0  0.13436193617E+02  0.31942860067E+02  0.12446012629E+02  0.36820929354E+02  0.00000000000E+00 0.  1.
         11    1    4    4    0    0 -0.12503687838E+02 -0.11014653923E+02 -0.10319172548E+02  0.19599748287E+02  0.51100000000E-03 0. -1.
        -11    1    4    4    0    0  0.13944187921E+00 -0.21074520987E+02  0.94808409829E+01  0.23109331987E+02  0.51100000000E-03 0.  1.
        -12    1    4    4    0    0 -0.10719476581E+01  0.14631484293E+00 -0.11607681064E+02  0.11657990372E+02  0.00000000000E+00 0.  1.
</event>
<event>
 8    1  0.1290800E-006  0.9118800E+02  0.7816164E-02  0.1184000E+00
        -11   -1    0    0    0    0  0.00000000000E+00  0.00000000000E+00  0.45593999997E+02  0.45594000000E+02  0.51100000000E-03 0.  1.
         11   -1    0    0    0    0 -0.00000000000E+00 -0.00000000000E+00 -0.45593999997E+02  0.45594000000E+02  0.51100000000E-03 0. -1.
         23    2    1    2    0    0  0.00000000000E+00 -0.71054273576E-14 -0.17763568394E-14  0.91188000000E+02  0.91188000000E+02 0.  0.
    9900012    2    3    3    0    0 -0.51401751645E+01  0.33264150932E+02  0.14928322847E+02  0.54367082562E+02  0.39999996316E+02 0.  0.
         12    1    3    3    0    0  0.51401751645E+01 -0.33264150932E+02 -0.14928322847E+02  0.36820917438E+02  0.00000000000E+00 0. -1.
         11    1    4    4    0    0  0.59182991407E+01  0.24838195261E+02 -0.35690587347E+00  0.25536044929E+02  0.51100000000E-03 0. -1.
        -11    1    4    4    0    0 -0.24874603744E+01  0.11683340851E+02  0.15610145737E+02  0.19656158392E+02  0.51100000000E-03 0.  1.
         12    1    4    4    0    0 -0.85710139308E+01 -0.32573851793E+01 -0.32491701694E+00  0.91748792404E+01  0.00000000000E+00 0. -1.
</event>
<event>
 8    1  0.1290800E-006  0.9118800E+02  0.7816164E-02  0.1184000E+00
        -11   -1    0    0    0    0  0.00000000000E+00  0.00000000000E+00  0.45593999997E+02  0.45594000000E+02  0.51100000000E-03 0.  1.
         11   -1    0    0    0    0 -0.00000000000E+00 -0.00000000000E+00 -0.45593999997E+02  0.45594000000E+02  0.51100000000E-03 0. -1.
         23    2    1    2    0    0  0.35527136788E-14 -0.44408920985E-15  0.00000000000E+00  0.91188000000E+02  0.91188000000E+02 0.  0.
    9900012    2    3    3    0    0 -0.26810950283E+02  0.20973325178E+01 -0.25150610282E+02  0.54367094847E+02  0.40000024322E+02 0.  0.
        -12    1    3    3    0    0  0.26810950283E+02 -0.20973325178E+01  0.25150610282E+02  0.36820905153E+02  0.00000000000E+00 0.  1.
         11    1    4    4    0    0 -0.34547994528E+01  0.55917476364E+01 -0.36064751160E+01  0.74973291186E+01  0.51100000000E-03 0. -1.
        -11    1    4    4    0    0 -0.95840474016E+01  0.66753294981E+01  0.69770386656E+01  0.13604890933E+02  0.51100000000E-03 0.  1.
         12    1    4    4    0    0 -0.13772103428E+02 -0.10169744617E+02 -0.28521173831E+02  0.33264874795E+02  0.00000000000E+00 0. -1.
</event>
<event>
 8    1  0.1290800E-006  0.9118800E+02  0.7816164E-02  0.1184000E+00
        -11   -1    0    0    0    0  0.00000000000E+00  0.00000000000E+00  0.45593999997E+02  0.45594000000E+02  0.51100000000E-03 0.  1.
         11   -1    0    0    0    0 -0.00000000000E+00 -0.00000000000E+00 -0.45593999997E+02  0.45594000000E+02  0.51100000000E-03 0. -1.
         23    2    1    2    0    0 -0.17763568394E-14 -0.17763568394E-14  0.00000000000E+00  0.91188000000E+02  0.91188000000E+02 0.  0.
    9900012    2    3    3    0    0  0.10835347559E+02 -0.11532632622E+02 -0.33247145403E+02  0.54367094941E+02  0.40000024537E+02 0.  0.
        -12    1    3    3    0    0 -0.10835347559E+02  0.11532632622E+02  0.33247145403E+02  0.36820905059E+02  0.00000000000E+00 0.  1.
         11    1    4    4    0    0  0.18553980594E+01  0.33540054411E+01 -0.14735431279E+02  0.15225793566E+02  0.51100000000E-03 0. -1.
        -11    1    4    4    0    0 -0.65684857086E+01  0.55140830541E+01 -0.26218641915E+01  0.89679589947E+01  0.51100000000E-03 0.  1.
         12    1    4    4    0    0  0.15548435208E+02 -0.20400721118E+02 -0.15889849932E+02  0.30173342380E+02  0.00000000000E+00 0. -1.
</event>
<event>
 8    1  0.1290800E-006  0.9118800E+02  0.7816164E-02  0.1184000E+00
        -11   -1    0    0    0    0  0.00000000000E+00  0.00000000000E+00  0.45593999997E+02  0.45594000000E+02  0.51100000000E-03 0.  1.
         11   -1    0    0    0    0 -0.00000000000E+00 -0.00000000000E+00 -0.45593999997E+02  0.45594000000E+02  0.51100000000E-03 0. -1.
         23    2    1    2    0    0 -0.35527136788E-14 -0.88817841970E-15 -0.35527136788E-14  0.91188000000E+02  0.91188000000E+02 0.  0.
    9900012    2    3    3    0    0 -0.29115327855E+02 -0.49383277414E+01 -0.21992954632E+02  0.54367089495E+02  0.40000012121E+02 0.  0.
        -12    1    3    3    0    0  0.29115327855E+02  0.49383277414E+01  0.21992954632E+02  0.36820910505E+02  0.00000000000E+00 0.  1.
         11    1    4    4    0    0 -0.69457868918E+01  0.56986471789E+01 -0.14848409643E+02  0.17354936024E+02  0.51100000000E-03 0. -1.
        -11    1    4    4    0    0 -0.93471851445E+01 -0.15445441074E+02 -0.12867722464E+02  0.22170020338E+02  0.51100000000E-03 0.  1.
        -12    1    4    4    0    0 -0.12822355819E+02  0.48084661541E+01  0.57231774755E+01  0.14842133132E+02  0.00000000000E+00 0.  1.
</event>
<event>
 8    1  0.1290800E-006  0.9118800E+02  0.7816164E-02  0.1184000E+00
        -11   -1    0    0    0    0  0.00000000000E+00  0.00000000000E+00  0.45593999997E+02  0.45594000000E+02  0.51100000000E-03 0.  1.
         11   -1    0    0    0    0 -0.00000000000E+00 -0.00000000000E+00 -0.45593999997E+02  0.45594000000E+02  0.51100000000E-03 0. -1.
         23    2    1    2    0    0  0.00000000000E+00  0.00000000000E+00  0.00000000000E+00  0.91188000000E+02  0.91188000000E+02 0.  0.
    9900012    2    3    3    0    0  0.35021038674E+02  0.91870010041E+01 -0.67010818506E+01  0.54367100565E+02  0.40000037358E+02 0.  0.
        -12    1    3    3    0    0 -0.35021038674E+02 -0.91870010041E+01  0.67010818506E+01  0.36820899435E+02  0.00000000000E+00 0.  1.
         11    1    4    4    0    0  0.19248361989E+02  0.25757928191E+01 -0.13196806474E+02  0.23479562374E+02  0.51100000000E-03 0. -1.
        -11    1    4    4    0    0  0.55562996691E+01 -0.14303314211E+01  0.14517716816E+02  0.15610330419E+02  0.51100000000E-03 0.  1.
        -12    1    4    4    0    0  0.10216377016E+02  0.80415396061E+01 -0.80219921923E+01  0.15277207772E+02  0.00000000000E+00 0.  1.
</event>
<event>
 8    1  0.1290800E-006  0.9118800E+02  0.7816164E-02  0.1184000E+00
        -11   -1    0    0    0    0  0.00000000000E+00  0.00000000000E+00  0.45593999997E+02  0.45594000000E+02  0.51100000000E-03 0. -1.
         11   -1    0    0    0    0 -0.00000000000E+00 -0.00000000000E+00 -0.45593999997E+02  0.45594000000E+02  0.51100000000E-03 0.  1.
         23    2    1    2    0    0  0.13322676296E-14  0.00000000000E+00  0.00000000000E+00  0.91188000000E+02  0.91188000000E+02 0.  0.
    9900012    2    3    3    0    0  0.20423979994E+01  0.35851496912E+02  0.81411799079E+01  0.54367081615E+02  0.39999994157E+02 0.  0.
        -12    1    3    3    0    0 -0.20423979994E+01 -0.35851496912E+02 -0.81411799079E+01  0.36820918385E+02  0.00000000000E+00 0.  1.
         11    1    4    4    0    0  0.89966657373E+01  0.13561452486E+02 -0.33353642741E+01  0.16612574846E+02  0.51100000000E-03 0. -1.
        -11    1    4    4    0    0  0.51064782342E+01 -0.21545769556E+00  0.11097838762E+02  0.12218206391E+02  0.51100000000E-03 0.  1.
        -12    1    4    4    0    0 -0.12060745972E+02  0.22505502122E+02  0.37870542047E+00  0.25536300378E+02  0.00000000000E+00 0.  1.
</event>
<event>
 8    1  0.1290800E-006  0.9118800E+02  0.7816164E-02  0.1184000E+00
        -11   -1    0    0    0    0  0.00000000000E+00  0.00000000000E+00  0.45593999997E+02  0.45594000000E+02  0.51100000000E-03 0.  1.
         11   -1    0    0    0    0 -0.00000000000E+00 -0.00000000000E+00 -0.45593999997E+02  0.45594000000E+02  0.51100000000E-03 0. -1.
         23    2    1    2    0    0  0.00000000000E+00 -0.88817841970E-15  0.35527136788E-14  0.91188000000E+02  0.91188000000E+02 0.  0.
    9900012    2    3    3    0    0 -0.34361117339E+02  0.62613565243E+01 -0.11657125812E+02  0.54367088108E+02  0.40000008961E+02 0.  0.
        -12    1    3    3    0    0  0.34361117339E+02 -0.62613565243E+01  0.11657125812E+02  0.36820911892E+02  0.00000000000E+00 0.  1.
         11    1    4    4    0    0 -0.22053367144E+02  0.16894656375E+02 -0.17449469716E+02  0.32806469027E+02  0.51100000000E-03 0. -1.
        -11    1    4    4    0    0 -0.13203424172E+01  0.18643920585E+01  0.42796198697E+01  0.48512275083E+01  0.51100000000E-03 0.  1.
        -12    1    4    4    0    0 -0.10987407778E+02 -0.12497691909E+02  0.15127240338E+01  0.16709391573E+02  0.00000000000E+00 0.  1.
</event>
<event>
 8    1  0.1290800E-006  0.9118800E+02  0.7816164E-02  0.1184000E+00
        -11   -1    0    0    0    0  0.00000000000E+00  0.00000000000E+00  0.45593999997E+02  0.45594000000E+02  0.51100000000E-03 0. -1.
         11   -1    0    0    0    0 -0.00000000000E+00 -0.00000000000E+00 -0.45593999997E+02  0.45594000000E+02  0.51100000000E-03 0.  1.
         23    2    1    2    0    0  0.00000000000E+00  0.35527136788E-14  0.00000000000E+00  0.91188000000E+02  0.91188000000E+02 0.  0.
    9900012    2    3    3    0    0  0.26268037615E+02  0.25545586895E+02 -0.36322242921E+01  0.54367083889E+02  0.39999999342E+02 0.  0.
         12    1    3    3    0    0 -0.26268037615E+02 -0.25545586895E+02  0.36322242921E+01  0.36820916111E+02  0.00000000000E+00 0. -1.
         11    1    4    4    0    0  0.27429302940E+01 -0.41291213827E+00 -0.70375607877E+01  0.75644844592E+01  0.51100000000E-03 0. -1.
        -11    1    4    4    0    0  0.63884797200E+01  0.27123234416E+02 -0.39007523446E+01  0.28137135381E+02  0.51100000000E-03 0.  1.
        -12    1    4    4    0    0  0.17136627601E+02 -0.11647353829E+01  0.73060888402E+01  0.18665464049E+02  0.00000000000E+00 0.  1.
</event>
<event>
 8    1  0.1290800E-006  0.9118800E+02  0.7816164E-02  0.1184000E+00
        -11   -1    0    0    0    0  0.00000000000E+00  0.00000000000E+00  0.45593999997E+02  0.45594000000E+02  0.51100000000E-03 0. -1.
         11   -1    0    0    0    0 -0.00000000000E+00 -0.00000000000E+00 -0.45593999997E+02  0.45594000000E+02  0.51100000000E-03 0.  1.
         23    2    1    2    0    0  0.00000000000E+00  0.00000000000E+00  0.00000000000E+00  0.91188000000E+02  0.91188000000E+02 0.  0.
    9900012    2    3    3    0    0  0.27994741055E+02  0.86553420549E+01 -0.22297068980E+02  0.54367085319E+02  0.40000002602E+02 0.  0.
         12    1    3    3    0    0 -0.27994741055E+02 -0.86553420549E+01  0.22297068980E+02  0.36820914681E+02  0.00000000000E+00 0. -1.
         11    1    4    4    0    0 -0.63692175173E+01  0.67271418289E+01 -0.10266413447E+02  0.13828254203E+02  0.51100000000E-03 0.  1.
        -11    1    4    4    0    0  0.27090213463E+02  0.63542618937E+01 -0.27765873053E+01  0.27963650459E+02  0.51100000000E-03 0. -1.
         12    1    4    4    0    0  0.72737451098E+01 -0.44260616677E+01 -0.92540682268E+01  0.12575180657E+02  0.00000000000E+00 0. -1.
</event>
<event>
 8    1  0.1290800E-006  0.9118800E+02  0.7816164E-02  0.1184000E+00
        -11   -1    0    0    0    0  0.00000000000E+00  0.00000000000E+00  0.45593999997E+02  0.45594000000E+02  0.51100000000E-03 0. -1.
         11   -1    0    0    0    0 -0.00000000000E+00 -0.00000000000E+00 -0.45593999997E+02  0.45594000000E+02  0.51100000000E-03 0.  1.
         23    2    1    2    0    0  0.00000000000E+00  0.11102230246E-15  0.30531133177E-15  0.91188000000E+02  0.91188000000E+02 0.  0.
    9900012    2    3    3    0    0 -0.36809818484E+02  0.88568804449E+00  0.18392679856E+00  0.54367068328E+02  0.39999963867E+02 0.  0.
        -12    1    3    3    0    0  0.36809818484E+02 -0.88568804449E+00 -0.18392679856E+00  0.36820931672E+02  0.00000000000E+00 0.  1.
         11    1    4    4    0    0 -0.22580848803E+01 -0.24834641138E+01  0.29473874884E+01  0.44669491377E+01  0.51100000000E-03 0. -1.
        -11    1    4    4    0    0  0.20691884484E+01 -0.40030982398E+01 -0.10788878665E+02  0.11692144348E+02  0.51100000000E-03 0.  1.
         12    1    4    4    0    0 -0.36620922052E+02  0.73722503981E+01  0.80254179749E+01  0.38207974842E+02  0.00000000000E+00 0. -1.
</event>
<event>
 8    1  0.1290800E-006  0.9118800E+02  0.7816164E-02  0.1184000E+00
        -11   -1    0    0    0    0  0.00000000000E+00  0.00000000000E+00  0.45593999997E+02  0.45594000000E+02  0.51100000000E-03 0.  1.
         11   -1    0    0    0    0 -0.00000000000E+00 -0.00000000000E+00 -0.45593999997E+02  0.45594000000E+02  0.51100000000E-03 0. -1.
         23    2    1    2    0    0  0.88817841970E-15  0.00000000000E+00 -0.35527136788E-14  0.91188000000E+02  0.91188000000E+02 0.  0.
    9900012    2    3    3    0    0 -0.60120665529E+01 -0.31984596893E+02  0.17222717829E+02  0.54367063129E+02  0.39999952014E+02 0.  0.
         12    1    3    3    0    0  0.60120665529E+01  0.31984596893E+02 -0.17222717829E+02  0.36820936871E+02  0.00000000000E+00 0. -1.
         11    1    4    4    0    0 -0.67657469429E+01 -0.14042280775E+02  0.11918284717E+02  0.19621582298E+02  0.51100000000E-03 0. -1.
        -11    1    4    4    0    0  0.21799978421E+01 -0.10979833619E+02  0.17415635155E+02  0.20702982515E+02  0.51100000000E-03 0.  1.
         12    1    4    4    0    0 -0.14263174520E+01 -0.69624824991E+01 -0.12111202042E+02  0.14042498315E+02  0.00000000000E+00 0. -1.
</event>
<event>
 8    1  0.1290800E-006  0.9118800E+02  0.7816164E-02  0.1184000E+00
        -11   -1    0    0    0    0  0.00000000000E+00  0.00000000000E+00  0.45593999997E+02  0.45594000000E+02  0.51100000000E-03 0.  1.
         11   -1    0    0    0    0 -0.00000000000E+00 -0.00000000000E+00 -0.45593999997E+02  0.45594000000E+02  0.51100000000E-03 0. -1.
         23    2    1    2    0    0  0.00000000000E+00  0.00000000000E+00 -0.88817841970E-15  0.91188000000E+02  0.91188000000E+02 0.  0.
    9900012    2    3    3    0    0  0.55185330013E+01 -0.36144979576E+02  0.43436502308E+01  0.54367067742E+02  0.39999962531E+02 0.  0.
         12    1    3    3    0    0 -0.55185330013E+01  0.36144979576E+02 -0.43436502308E+01  0.36820932258E+02  0.00000000000E+00 0. -1.
         11    1    4    4    0    0 -0.25087091989E+01 -0.10869928891E+02 -0.15027468438E+02  0.18715602684E+02  0.51100000000E-03 0. -1.
        -11    1    4    4    0    0 -0.10412833707E+01 -0.18284902345E+02  0.13715566223E+02  0.22880967678E+02  0.51100000000E-03 0.  1.
         12    1    4    4    0    0  0.90685255709E+01 -0.69901483405E+01  0.56555524451E+01  0.12770497379E+02  0.00000000000E+00 0. -1.
</event>
<event>
 8    1  0.1290800E-006  0.9118800E+02  0.7816164E-02  0.1184000E+00
        -11   -1    0    0    0    0  0.00000000000E+00  0.00000000000E+00  0.45593999997E+02  0.45594000000E+02  0.51100000000E-03 0. -1.
         11   -1    0    0    0    0 -0.00000000000E+00 -0.00000000000E+00 -0.45593999997E+02  0.45594000000E+02  0.51100000000E-03 0.  1.
         23    2    1    2    0    0  0.00000000000E+00  0.00000000000E+00  0.00000000000E+00  0.91188000000E+02  0.91188000000E+02 0.  0.
    9900012    2    3    3    0    0 -0.36082907382E+02 -0.73164986500E+01  0.52220758816E+00  0.54367081239E+02  0.39999993301E+02 0.  0.
        -12    1    3    3    0    0  0.36082907382E+02  0.73164986500E+01 -0.52220758816E+00  0.36820918761E+02  0.00000000000E+00 0.  1.
         11    1    4    4    0    0 -0.55278710693E+00  0.96529906800E+01  0.71537816972E+01  0.12027568145E+02  0.51100000000E-03 0.  1.
        -11    1    4    4    0    0 -0.31129224426E+02 -0.84968484842E+01 -0.52671750151E+01  0.32695078841E+02  0.51100000000E-03 0. -1.
        -12    1    4    4    0    0 -0.44008958489E+01 -0.84726408459E+01 -0.13643990940E+01  0.96444342532E+01  0.00000000000E+00 0.  1.
</event>
<event>
 8    1  0.1290800E-006  0.9118800E+02  0.7816164E-02  0.1184000E+00
        -11   -1    0    0    0    0  0.00000000000E+00  0.00000000000E+00  0.45593999997E+02  0.45594000000E+02  0.51100000000E-03 0.  1.
         11   -1    0    0    0    0 -0.00000000000E+00 -0.00000000000E+00 -0.45593999997E+02  0.45594000000E+02  0.51100000000E-03 0. -1.
         23    2    1    2    0    0  0.00000000000E+00  0.00000000000E+00 -0.35527136788E-14  0.91188000000E+02  0.91188000000E+02 0.  0.
    9900012    2    3    3    0    0 -0.23535341406E+02  0.14196210633E+02 -0.24501745278E+02  0.54367079138E+02  0.39999988512E+02 0.  0.
        -12    1    3    3    0    0  0.23535341406E+02 -0.14196210633E+02  0.24501745278E+02  0.36820920862E+02  0.00000000000E+00 0.  1.
         11    1    4    4    0    0 -0.85260033529E+01  0.19119101781E+00 -0.22633893837E+02  0.24187237082E+02  0.51100000000E-03 0. -1.
        -11    1    4    4    0    0 -0.11099723225E+02  0.15057096755E+02  0.73607004731E+01  0.20102236942E+02  0.51100000000E-03 0.  1.
        -12    1    4    4    0    0 -0.39096148288E+01 -0.10520771400E+01 -0.92285519140E+01  0.10077605115E+02  0.00000000000E+00 0.  1.
</event>
<event>
 8    1  0.1290800E-006  0.9118800E+02  0.7816164E-02  0.1184000E+00
        -11   -1    0    0    0    0  0.00000000000E+00  0.00000000000E+00  0.45593999997E+02  0.45594000000E+02  0.51100000000E-03 0.  1.
         11   -1    0    0    0    0 -0.00000000000E+00 -0.00000000000E+00 -0.45593999997E+02  0.45594000000E+02  0.51100000000E-03 0. -1.
         23    2    1    2    0    0 -0.88817841970E-15  0.00000000000E+00 -0.35527136788E-14  0.91188000000E+02  0.91188000000E+02 0.  0.
    9900012    2    3    3    0    0  0.55682274437E+01 -0.29713282921E+02  0.21021316660E+02  0.54367080770E+02  0.39999992231E+02 0.  0.
         12    1    3    3    0    0 -0.55682274437E+01  0.29713282921E+02 -0.21021316660E+02  0.36820919230E+02  0.00000000000E+00 0. -1.
         11    1    4    4    0    0  0.42137175853E+01 -0.79830905131E+00  0.39659882345E+01  0.58413847816E+01  0.51100000000E-03 0. -1.
        -11    1    4    4    0    0  0.20080787336E+00 -0.36198884908E+02  0.19022373264E+02  0.40893156851E+02  0.51100000000E-03 0.  1.
         12    1    4    4    0    0  0.11537019850E+01  0.72839110385E+01 -0.19670448379E+01  0.76325391372E+01  0.00000000000E+00 0. -1.
</event>
<event>
 8    1  0.1290800E-006  0.9118800E+02  0.7816164E-02  0.1184000E+00
        -11   -1    0    0    0    0  0.00000000000E+00  0.00000000000E+00  0.45593999997E+02  0.45594000000E+02  0.51100000000E-03 0.  1.
         11   -1    0    0    0    0 -0.00000000000E+00 -0.00000000000E+00 -0.45593999997E+02  0.45594000000E+02  0.51100000000E-03 0. -1.
         23    2    1    2    0    0  0.00000000000E+00  0.00000000000E+00  0.00000000000E+00  0.91188000000E+02  0.91188000000E+02 0.  0.
    9900012    2    3    3    0    0 -0.22443441784E+02 -0.13412087118E+02  0.25926637030E+02  0.54367045807E+02  0.39999912527E+02 0.  0.
         12    1    3    3    0    0  0.22443441784E+02  0.13412087118E+02 -0.25926637030E+02  0.36820954193E+02  0.00000000000E+00 0. -1.
         11    1    4    4    0    0  0.88869193828E+01 -0.42543106500E+01  0.50263591173E+01  0.11060776711E+02  0.51100000000E-03 0. -1.
        -11    1    4    4    0    0 -0.19741835386E+02 -0.14706727945E+02  0.10447167928E+02  0.26742685527E+02  0.51100000000E-03 0.  1.
        -12    1    4    4    0    0 -0.11588525781E+02  0.55489514772E+01  0.10453109985E+02  0.16563583569E+02  0.00000000000E+00 0.  1.
</event>
<event>
 8    1  0.1290800E-006  0.9118800E+02  0.7816164E-02  0.1184000E+00
        -11   -1    0    0    0    0  0.00000000000E+00  0.00000000000E+00  0.45593999997E+02  0.45594000000E+02  0.51100000000E-03 0.  1.
         11   -1    0    0    0    0 -0.00000000000E+00 -0.00000000000E+00 -0.45593999997E+02  0.45594000000E+02  0.51100000000E-03 0. -1.
         23    2    1    2    0    0  0.17763568394E-14  0.00000000000E+00  0.00000000000E+00  0.91188000000E+02  0.91188000000E+02 0.  0.
    9900012    2    3    3    0    0  0.13603110919E+02  0.25503061877E+02  0.22810563810E+02  0.54367182341E+02  0.40000223781E+02 0.  0.
         12    1    3    3    0    0 -0.13603110919E+02 -0.25503061877E+02 -0.22810563810E+02  0.36820817659E+02  0.00000000000E+00 0. -1.
         11    1    4    4    0    0  0.71432709105E+01 -0.23407799105E+01 -0.53280327059E+01  0.92137670183E+01  0.51100000000E-03 0. -1.
        -11    1    4    4    0    0  0.28220905763E-01  0.24548203150E+02  0.11694731066E+02  0.27191576072E+02  0.51100000000E-03 0.  1.
        -12    1    4    4    0    0  0.64316191030E+01  0.32956386374E+01  0.16443865450E+02  0.17961839250E+02  0.00000000000E+00 0.  1.
</event>
<event>
 8    1  0.1290800E-006  0.9118800E+02  0.7816164E-02  0.1184000E+00
        -11   -1    0    0    0    0  0.00000000000E+00  0.00000000000E+00  0.45593999997E+02  0.45594000000E+02  0.51100000000E-03 0. -1.
         11   -1    0    0    0    0 -0.00000000000E+00 -0.00000000000E+00 -0.45593999997E+02  0.45594000000E+02  0.51100000000E-03 0.  1.
         23    2    1    2    0    0  0.00000000000E+00 -0.35527136788E-14  0.17763568394E-14  0.91188000000E+02  0.91188000000E+02 0.  0.
    9900012    2    3    3    0    0 -0.21581024021E+02  0.27589091560E+02 -0.11352579270E+02  0.54367087097E+02  0.40000006655E+02 0.  0.
        -12    1    3    3    0    0  0.21581024021E+02 -0.27589091560E+02  0.11352579270E+02  0.36820912903E+02  0.00000000000E+00 0.  1.
         11    1    4    4    0    0 -0.25113278233E+02  0.53903224344E+01 -0.10568537476E+02  0.27774562178E+02  0.51100000000E-03 0.  1.
        -11    1    4    4    0    0 -0.30648423156E+01  0.37504569085E+01  0.41613662909E+01  0.63856209651E+01  0.51100000000E-03 0. -1.
        -12    1    4    4    0    0  0.65970965274E+01  0.18448312218E+02 -0.49454080850E+01  0.20206903954E+02  0.00000000000E+00 0.  1.
</event>
<event>
 8    1  0.1290800E-006  0.9118800E+02  0.7816164E-02  0.1184000E+00
        -11   -1    0    0    0    0  0.00000000000E+00  0.00000000000E+00  0.45593999997E+02  0.45594000000E+02  0.51100000000E-03 0.  1.
         11   -1    0    0    0    0 -0.00000000000E+00 -0.00000000000E+00 -0.45593999997E+02  0.45594000000E+02  0.51100000000E-03 0. -1.
         23    2    1    2    0    0  0.88817841970E-15  0.00000000000E+00 -0.35527136788E-14  0.91188000000E+02  0.91188000000E+02 0.  0.
    9900012    2    3    3    0    0  0.45128322458E+01  0.24754634571E+02 -0.26881613204E+02  0.54367099467E+02  0.40000034855E+02 0.  0.
        -12    1    3    3    0    0 -0.45128322458E+01 -0.24754634571E+02  0.26881613204E+02  0.36820900533E+02  0.00000000000E+00 0.  1.
         11    1    4    4    0    0  0.63497241305E+01  0.76509430712E+01 -0.11573496133E+02  0.15257841899E+02  0.51100000000E-03 0. -1.
        -11    1    4    4    0    0  0.97522883789E+00 -0.17382214386E+01  0.84354946403E+01  0.86677595227E+01  0.51100000000E-03 0.  1.
         12    1    4    4    0    0 -0.28121207226E+01  0.18841912938E+02 -0.23743611711E+02  0.30441498045E+02  0.00000000000E+00 0. -1.
</event>
<event>
 8    1  0.1290800E-006  0.9118800E+02  0.7816164E-02  0.1184000E+00
        -11   -1    0    0    0    0  0.00000000000E+00  0.00000000000E+00  0.45593999997E+02  0.45594000000E+02  0.51100000000E-03 0. -1.
         11   -1    0    0    0    0 -0.00000000000E+00 -0.00000000000E+00 -0.45593999997E+02  0.45594000000E+02  0.51100000000E-03 0.  1.
         23    2    1    2    0    0  0.00000000000E+00  0.71054273576E-14  0.35527136788E-14  0.91188000000E+02  0.91188000000E+02 0.  0.
    9900012    2    3    3    0    0 -0.28493149821E+01  0.27342886697E+02  0.24495463263E+02  0.54367085165E+02  0.40000002250E+02 0.  0.
        -12    1    3    3    0    0  0.28493149821E+01 -0.27342886697E+02 -0.24495463263E+02  0.36820914835E+02  0.00000000000E+00 0.  1.
         11    1    4    4    0    0 -0.48978099364E+01  0.59975474090E+00 -0.24983343724E+01  0.55308157463E+01  0.51100000000E-03 0. -1.
        -11    1    4    4    0    0  0.53413313050E+01  0.22263552213E+02  0.17218073474E+01  0.22959969470E+02  0.51100000000E-03 0.  1.
         12    1    4    4    0    0 -0.32928363506E+01  0.44795797435E+01  0.25271990288E+02  0.25876299949E+02  0.00000000000E+00 0. -1.
</event>
<event>
 8    1  0.1290800E-006  0.9118800E+02  0.7816164E-02  0.1184000E+00
        -11   -1    0    0    0    0  0.00000000000E+00  0.00000000000E+00  0.45593999997E+02  0.45594000000E+02  0.51100000000E-03 0.  1.
         11   -1    0    0    0    0 -0.00000000000E+00 -0.00000000000E+00 -0.45593999997E+02  0.45594000000E+02  0.51100000000E-03 0. -1.
         23    2    1    2    0    0 -0.35527136788E-14  0.00000000000E+00  0.35527136788E-14  0.91188000000E+02  0.91188000000E+02 0.  0.
    9900012    2    3    3    0    0  0.18412459450E+02  0.20580036793E+02 -0.24356176571E+02  0.54367083193E+02  0.39999997755E+02 0.  0.
        -12    1    3    3    0    0 -0.18412459450E+02 -0.20580036793E+02  0.24356176571E+02  0.36820916807E+02  0.00000000000E+00 0.  1.
         11    1    4    4    0    0  0.10547291658E+02  0.45016155154E+01  0.29631100281E+01  0.11844404791E+02  0.51100000000E-03 0. -1.
        -11    1    4    4    0    0 -0.95146372094E+01  0.75861855420E+01 -0.54717290257E+01  0.13342351783E+02  0.51100000000E-03 0.  1.
        -12    1    4    4    0    0  0.17379805002E+02  0.84922357353E+01 -0.21847557573E+02  0.29180326619E+02  0.00000000000E+00 0.  1.
</event>
<event>
 8    1  0.1290800E-006  0.9118800E+02  0.7816164E-02  0.1184000E+00
        -11   -1    0    0    0    0  0.00000000000E+00  0.00000000000E+00  0.45593999997E+02  0.45594000000E+02  0.51100000000E-03 0. -1.
         11   -1    0    0    0    0 -0.00000000000E+00 -0.00000000000E+00 -0.45593999997E+02  0.45594000000E+02  0.51100000000E-03 0.  1.
         23    2    1    2    0    0  0.00000000000E+00  0.00000000000E+00  0.00000000000E+00  0.91188000000E+02  0.91188000000E+02 0.  0.
    9900012    2    3    3    0    0 -0.27449529205E+02 -0.11456649569E+02 -0.21703635793E+02  0.54367091815E+02  0.40000017411E+02 0.  0.
         12    1    3    3    0    0  0.27449529205E+02  0.11456649569E+02  0.21703635793E+02  0.36820908185E+02  0.00000000000E+00 0. -1.
         11    1    4    4    0    0 -0.77828259163E+01 -0.79948601831E+00 -0.29598906949E+01  0.83649572817E+01  0.51100000000E-03 0. -1.
        -11    1    4    4    0    0 -0.64694094855E+01  0.10354624022E+02  0.34761251214E+01  0.12694681715E+02  0.51100000000E-03 0.  1.
        -12    1    4    4    0    0 -0.13197293803E+02 -0.21011787572E+02 -0.22219870219E+02  0.33307452819E+02  0.00000000000E+00 0.  1.
</event>
<event>
 8    1  0.1290800E-006  0.9118800E+02  0.7816164E-02  0.1184000E+00
        -11   -1    0    0    0    0  0.00000000000E+00  0.00000000000E+00  0.45593999997E+02  0.45594000000E+02  0.51100000000E-03 0. -1.
         11   -1    0    0    0    0 -0.00000000000E+00 -0.00000000000E+00 -0.45593999997E+02  0.45594000000E+02  0.51100000000E-03 0.  1.
         23    2    1    2    0    0 -0.17763568394E-14  0.00000000000E+00  0.00000000000E+00  0.91188000000E+02  0.91188000000E+02 0.  0.
    9900012    2    3    3    0    0  0.11955057318E+02  0.30736948424E+02 -0.16373645986E+02  0.54367086421E+02  0.40000005115E+02 0.  0.
        -12    1    3    3    0    0 -0.11955057318E+02 -0.30736948424E+02  0.16373645986E+02  0.36820913579E+02  0.00000000000E+00 0.  1.
         11    1    4    4    0    0 -0.29068460913E+01  0.13241598067E+02  0.34789322771E+01  0.13996165318E+02  0.51100000000E-03 0. -1.
        -11    1    4    4    0    0  0.25722556592E+01  0.20410349922E+02 -0.18502373564E+02  0.27668334082E+02  0.51100000000E-03 0.  1.
        -12    1    4    4    0    0  0.12289647750E+02 -0.29149995653E+01 -0.13502046991E+01  0.12702587021E+02  0.00000000000E+00 0.  1.
</event>
<event>
 8    1  0.1290800E-006  0.9118800E+02  0.7816164E-02  0.1184000E+00
        -11   -1    0    0    0    0  0.00000000000E+00  0.00000000000E+00  0.45593999997E+02  0.45594000000E+02  0.51100000000E-03 0. -1.
         11   -1    0    0    0    0 -0.00000000000E+00 -0.00000000000E+00 -0.45593999997E+02  0.45594000000E+02  0.51100000000E-03 0.  1.
         23    2    1    2    0    0  0.00000000000E+00 -0.35527136788E-14  0.00000000000E+00  0.91188000000E+02  0.91188000000E+02 0.  0.
    9900012    2    3    3    0    0 -0.13775268298E+02  0.28886928295E+02  0.18208992801E+02  0.54367081192E+02  0.39999993194E+02 0.  0.
        -12    1    3    3    0    0  0.13775268298E+02 -0.28886928295E+02 -0.18208992801E+02  0.36820918808E+02  0.00000000000E+00 0.  1.
         11    1    4    4    0    0 -0.51251482957E+00  0.16416217005E+02  0.84474521660E+01  0.18469279915E+02  0.51100000000E-03 0. -1.
        -11    1    4    4    0    0 -0.13715811150E+02 -0.46109192600E+01 -0.27374662920E+01  0.14726770654E+02  0.51100000000E-03 0.  1.
        -12    1    4    4    0    0  0.45305768204E+00  0.17081630550E+02  0.12499006927E+02  0.21171030623E+02  0.00000000000E+00 0.  1.
</event>
<event>
 8    1  0.1290800E-006  0.9118800E+02  0.7816164E-02  0.1184000E+00
        -11   -1    0    0    0    0  0.00000000000E+00  0.00000000000E+00  0.45593999997E+02  0.45594000000E+02  0.51100000000E-03 0. -1.
         11   -1    0    0    0    0 -0.00000000000E+00 -0.00000000000E+00 -0.45593999997E+02  0.45594000000E+02  0.51100000000E-03 0.  1.
         23    2    1    2    0    0 -0.26645352591E-14  0.00000000000E+00  0.00000000000E+00  0.91188000000E+02  0.91188000000E+02 0.  0.
    9900012    2    3    3    0    0 -0.64914486126E+01 -0.17408073065E+02  0.31789960964E+02  0.54367061242E+02  0.39999947714E+02 0.  0.
        -12    1    3    3    0    0  0.64914486126E+01  0.17408073065E+02 -0.31789960964E+02  0.36820938758E+02  0.00000000000E+00 0.  1.
         11    1    4    4    0    0  0.32309493126E+01  0.17944190651E+00  0.70841768021E+01  0.77882471766E+01  0.51100000000E-03 0. -1.
        -11    1    4    4    0    0  0.79027430827E+01 -0.12506332120E+02  0.24035620603E+02  0.28223620416E+02  0.51100000000E-03 0.  1.
        -12    1    4    4    0    0 -0.17625141008E+02 -0.50811828515E+01  0.67016355805E+00  0.18355193650E+02  0.00000000000E+00 0.  1.
</event>
<event>
 8    1  0.1290800E-006  0.9118800E+02  0.7816164E-02  0.1184000E+00
        -11   -1    0    0    0    0  0.00000000000E+00  0.00000000000E+00  0.45593999997E+02  0.45594000000E+02  0.51100000000E-03 0.  1.
         11   -1    0    0    0    0 -0.00000000000E+00 -0.00000000000E+00 -0.45593999997E+02  0.45594000000E+02  0.51100000000E-03 0. -1.
         23    2    1    2    0    0  0.71054273576E-14  0.88817841970E-15 -0.71054273576E-14  0.91188000000E+02  0.91188000000E+02 0.  0.
    9900012    2    3    3    0    0  0.22900694672E+02 -0.19616190746E+01 -0.28766125073E+02  0.54367085868E+02  0.40000003852E+02 0.  0.
         12    1    3    3    0    0 -0.22900694672E+02  0.19616190746E+01  0.28766125073E+02  0.36820914132E+02  0.00000000000E+00 0. -1.
         11    1    4    4    0    0 -0.38195622150E+01 -0.83812394401E+00  0.17319810626E+00  0.39142694216E+01  0.51100000000E-03 0.  1.
        -11    1    4    4    0    0  0.17196326745E+02 -0.15883560524E+02 -0.19753039387E+02  0.30629784748E+02  0.51100000000E-03 0. -1.
         12    1    4    4    0    0  0.95239301424E+01  0.14760065394E+02 -0.91862837920E+01  0.19823031698E+02  0.00000000000E+00 0. -1.
</event>
<event>
 8    1  0.1290800E-006  0.9118800E+02  0.7816164E-02  0.1184000E+00
        -11   -1    0    0    0    0  0.00000000000E+00  0.00000000000E+00  0.45593999997E+02  0.45594000000E+02  0.51100000000E-03 0.  1.
         11   -1    0    0    0    0 -0.00000000000E+00 -0.00000000000E+00 -0.45593999997E+02  0.45594000000E+02  0.51100000000E-03 0. -1.
         23    2    1    2    0    0 -0.88817841970E-15  0.71054273576E-14 -0.88817841970E-15  0.91188000000E+02  0.91188000000E+02 0.  0.
    9900012    2    3    3    0    0 -0.40795618566E+01  0.36326375905E+02  0.44194219602E+01  0.54367086081E+02  0.40000004339E+02 0.  0.
         12    1    3    3    0    0  0.40795618566E+01 -0.36326375905E+02 -0.44194219602E+01  0.36820913919E+02  0.00000000000E+00 0. -1.
         11    1    4    4    0    0 -0.82056192947E+01  0.61850424194E+01 -0.12294879370E+02  0.16023451461E+02  0.51100000000E-03 0. -1.
        -11    1    4    4    0    0 -0.49277489810E+01  0.11472328836E+02  0.14180210898E+01  0.12566137951E+02  0.51100000000E-03 0.  1.
        -12    1    4    4    0    0  0.90538064191E+01  0.18669004650E+02  0.15296280241E+02  0.25777496669E+02  0.00000000000E+00 0.  1.
</event>
<event>
 8    1  0.1290800E-006  0.9118800E+02  0.7816164E-02  0.1184000E+00
        -11   -1    0    0    0    0  0.00000000000E+00  0.00000000000E+00  0.45593999997E+02  0.45594000000E+02  0.51100000000E-03 0.  1.
         11   -1    0    0    0    0 -0.00000000000E+00 -0.00000000000E+00 -0.45593999997E+02  0.45594000000E+02  0.51100000000E-03 0. -1.
         23    2    1    2    0    0  0.71054273576E-14 -0.35527136788E-14  0.17763568394E-14  0.91188000000E+02  0.91188000000E+02 0.  0.
    9900012    2    3    3    0    0  0.29990163386E+02 -0.16049440271E+02  0.14099128356E+02  0.54367084024E+02  0.39999999650E+02 0.  0.
        -12    1    3    3    0    0 -0.29990163386E+02  0.16049440271E+02 -0.14099128356E+02  0.36820915976E+02  0.00000000000E+00 0.  1.
         11    1    4    4    0    0  0.29525197361E+01  0.40812842799E+00  0.26224679752E+01  0.39700478772E+01  0.51100000000E-03 0. -1.
        -11    1    4    4    0    0 -0.14329023719E+01  0.78227529028E+01  0.10230793401E+02  0.12958310309E+02  0.51100000000E-03 0.  1.
         12    1    4    4    0    0  0.28470546022E+02 -0.24280321601E+02  0.12458669796E+01  0.37438725838E+02  0.00000000000E+00 0. -1.
</event>
<event>
 8    1  0.1290800E-006  0.9118800E+02  0.7816164E-02  0.1184000E+00
        -11   -1    0    0    0    0  0.00000000000E+00  0.00000000000E+00  0.45593999997E+02  0.45594000000E+02  0.51100000000E-03 0.  1.
         11   -1    0    0    0    0 -0.00000000000E+00 -0.00000000000E+00 -0.45593999997E+02  0.45594000000E+02  0.51100000000E-03 0. -1.
         23    2    1    2    0    0 -0.71054273576E-14  0.00000000000E+00  0.17763568394E-14  0.91188000000E+02  0.91188000000E+02 0.  0.
    9900012    2    3    3    0    0 -0.31404651975E+02 -0.11813736258E+02  0.15164537035E+02  0.54367085922E+02  0.40000003977E+02 0.  0.
         12    1    3    3    0    0  0.31404651975E+02  0.11813736258E+02 -0.15164537035E+02  0.36820914078E+02  0.00000000000E+00 0. -1.
         11    1    4    4    0    0  0.39118962083E+01  0.16937408802E+01 -0.36904907805E+01  0.56383874092E+01  0.51100000000E-03 0. -1.
        -11    1    4    4    0    0  0.64467914870E+00 -0.79191354172E+01  0.47935729637E+00  0.79597801879E+01  0.51100000000E-03 0.  1.
        -12    1    4    4    0    0 -0.35961227332E+02 -0.55883417210E+01  0.18375670519E+02  0.40768918325E+02  0.00000000000E+00 0.  1.
</event>
<event>
 8    1  0.1290800E-006  0.9118800E+02  0.7816164E-02  0.1184000E+00
        -11   -1    0    0    0    0  0.00000000000E+00  0.00000000000E+00  0.45593999997E+02  0.45594000000E+02  0.51100000000E-03 0.  1.
         11   -1    0    0    0    0 -0.00000000000E+00 -0.00000000000E+00 -0.45593999997E+02  0.45594000000E+02  0.51100000000E-03 0. -1.
         23    2    1    2    0    0  0.35527136788E-14  0.00000000000E+00  0.00000000000E+00  0.91188000000E+02  0.91188000000E+02 0.  0.
    9900012    2    3    3    0    0  0.26443656878E+02 -0.45009738418E+01 -0.25224076080E+02  0.54367085173E+02  0.40000002269E+02 0.  0.
         12    1    3    3    0    0 -0.26443656878E+02  0.45009738418E+01  0.25224076080E+02  0.36820914827E+02  0.00000000000E+00 0. -1.
         11    1    4    4    0    0  0.18794106120E+02  0.37580551710E+01 -0.27922302463E+02  0.33867334980E+02  0.51100000000E-03 0. -1.
        -11    1    4    4    0    0  0.10401761024E+02 -0.16640158074E+01 -0.34376349103E+01  0.11080745239E+02  0.51100000000E-03 0.  1.
         12    1    4    4    0    0 -0.27522102659E+01 -0.65950132054E+01  0.61358612937E+01  0.94190049550E+01  0.00000000000E+00 0. -1.
</event>
<event>
 8    1  0.1290800E-006  0.9118800E+02  0.7816164E-02  0.1184000E+00
        -11   -1    0    0    0    0  0.00000000000E+00  0.00000000000E+00  0.45593999997E+02  0.45594000000E+02  0.51100000000E-03 0.  1.
         11   -1    0    0    0    0 -0.00000000000E+00 -0.00000000000E+00 -0.45593999997E+02  0.45594000000E+02  0.51100000000E-03 0. -1.
         23    2    1    2    0    0 -0.35527136788E-14  0.35527136788E-14  0.00000000000E+00  0.91188000000E+02  0.91188000000E+02 0.  0.
    9900012    2    3    3    0    0 -0.29917521831E+02  0.19175636848E+02  0.96444167346E+01  0.54367110071E+02  0.40000059029E+02 0.  0.
         12    1    3    3    0    0  0.29917521831E+02 -0.19175636848E+02 -0.96444167346E+01  0.36820889929E+02  0.00000000000E+00 0. -1.
         11    1    4    4    0    0 -0.48044751587E+01 -0.53987670066E+01  0.50741448547E+01  0.88304367395E+01  0.51100000000E-03 0. -1.
        -11    1    4    4    0    0 -0.22321150908E+01  0.20574409890E+02  0.77364929807E+01  0.22093935911E+02  0.51100000000E-03 0.  1.
         12    1    4    4    0    0 -0.22880931581E+02  0.39999939637E+01 -0.31662211008E+01  0.23442737421E+02  0.00000000000E+00 0. -1.
</event>
<event>
 8    1  0.1290800E-006  0.9118800E+02  0.7816164E-02  0.1184000E+00
        -11   -1    0    0    0    0  0.00000000000E+00  0.00000000000E+00  0.45593999997E+02  0.45594000000E+02  0.51100000000E-03 0.  1.
         11   -1    0    0    0    0 -0.00000000000E+00 -0.00000000000E+00 -0.45593999997E+02  0.45594000000E+02  0.51100000000E-03 0. -1.
         23    2    1    2    0    0  0.00000000000E+00  0.17763568394E-14  0.00000000000E+00  0.91188000000E+02  0.91188000000E+02 0.  0.
    9900012    2    3    3    0    0  0.30347559145E+02 -0.10872305376E+02  0.17793211812E+02  0.54367085334E+02  0.40000002637E+02 0.  0.
         12    1    3    3    0    0 -0.30347559145E+02  0.10872305376E+02 -0.17793211812E+02  0.36820914666E+02  0.00000000000E+00 0. -1.
         11    1    4    4    0    0 -0.59320739538E+01 -0.90486913314E+01  0.79340936359E+01  0.13417084567E+02  0.51100000000E-03 0. -1.
        -11    1    4    4    0    0  0.28355643945E+02 -0.77086657287E+01  0.45269030519E+01  0.29731446691E+02  0.51100000000E-03 0.  1.
         12    1    4    4    0    0  0.79239891538E+01  0.58850516839E+01  0.53322151240E+01  0.11218554076E+02  0.00000000000E+00 0. -1.
</event>
<event>
 8    1  0.1290800E-006  0.9118800E+02  0.7816164E-02  0.1184000E+00
        -11   -1    0    0    0    0  0.00000000000E+00  0.00000000000E+00  0.45593999997E+02  0.45594000000E+02  0.51100000000E-03 0.  1.
         11   -1    0    0    0    0 -0.00000000000E+00 -0.00000000000E+00 -0.45593999997E+02  0.45594000000E+02  0.51100000000E-03 0. -1.
         23    2    1    2    0    0 -0.53290705182E-14 -0.71054273576E-14 -0.35527136788E-14  0.91188000000E+02  0.91188000000E+02 0.  0.
    9900012    2    3    3    0    0 -0.15777131134E+02 -0.17450523513E+02 -0.28325626347E+02  0.54367085486E+02  0.40000002982E+02 0.  0.
        -12    1    3    3    0    0  0.15777131134E+02  0.17450523513E+02  0.28325626347E+02  0.36820914514E+02  0.00000000000E+00 0.  1.
         11    1    4    4    0    0 -0.10138618976E+02 -0.19021654680E+02 -0.33563752878E+02  0.39889101883E+02  0.51100000000E-03 0. -1.
        -11    1    4    4    0    0  0.23043468385E+01  0.36668086735E+01 -0.63867656447E+00  0.43776030217E+01  0.51100000000E-03 0.  1.
        -12    1    4    4    0    0 -0.79428589972E+01 -0.20956775066E+01  0.58768030959E+01  0.10100380581E+02  0.00000000000E+00 0.  1.
</event>
<event>
 8    1  0.1290800E-006  0.9118800E+02  0.7816164E-02  0.1184000E+00
        -11   -1    0    0    0    0  0.00000000000E+00  0.00000000000E+00  0.45593999997E+02  0.45594000000E+02  0.51100000000E-03 0.  1.
         11   -1    0    0    0    0 -0.00000000000E+00 -0.00000000000E+00 -0.45593999997E+02  0.45594000000E+02  0.51100000000E-03 0. -1.
         23    2    1    2    0    0  0.35527136788E-14 -0.71054273576E-14  0.00000000000E+00  0.91188000000E+02  0.91188000000E+02 0.  0.
    9900012    2    3    3    0    0 -0.13147391195E+02  0.32490345384E+02  0.11283277795E+02  0.54366962586E+02  0.39999722807E+02 0.  0.
         12    1    3    3    0    0  0.13147391195E+02 -0.32490345384E+02 -0.11283277795E+02  0.36821037414E+02  0.00000000000E+00 0. -1.
         11    1    4    4    0    0 -0.40493847833E+01  0.47867727806E+01  0.74744729436E+00  0.63142211314E+01  0.51100000000E-03 0. -1.
        -11    1    4    4    0    0 -0.63718510411E+01  0.34773135376E+02  0.34501463289E+00  0.35353789965E+02  0.51100000000E-03 0.  1.
         12    1    4    4    0    0 -0.27261553700E+01 -0.70695627719E+01  0.10190815868E+02  0.12698951490E+02  0.00000000000E+00 0. -1.
</event>
<event>
 8    1  0.1290800E-006  0.9118800E+02  0.7816164E-02  0.1184000E+00
        -11   -1    0    0    0    0  0.00000000000E+00  0.00000000000E+00  0.45593999997E+02  0.45594000000E+02  0.51100000000E-03 0. -1.
         11   -1    0    0    0    0 -0.00000000000E+00 -0.00000000000E+00 -0.45593999997E+02  0.45594000000E+02  0.51100000000E-03 0.  1.
         23    2    1    2    0    0  0.35527136788E-14  0.35527136788E-14  0.88817841970E-15  0.91188000000E+02  0.91188000000E+02 0.  0.
    9900012    2    3    3    0    0 -0.24846348026E+02 -0.26569750995E+02  0.56997027021E+01  0.54367091686E+02  0.40000017116E+02 0.  0.
        -12    1    3    3    0    0  0.24846348026E+02  0.26569750995E+02 -0.56997027021E+01  0.36820908314E+02  0.00000000000E+00 0.  1.
         11    1    4    4    0    0 -0.69115630655E+00 -0.47213509684E+01  0.62392534915E+00  0.48122900068E+01  0.51100000000E-03 0. -1.
        -11    1    4    4    0    0  0.85980160724E+01  0.12653877029E+01 -0.18179069903E+01  0.88787314694E+01  0.51100000000E-03 0.  1.
         12    1    4    4    0    0 -0.32753207792E+02 -0.23113787729E+02  0.68936843433E+01  0.40676070210E+02  0.00000000000E+00 0. -1.
</event>
<event>
 8    1  0.1290800E-006  0.9118800E+02  0.7816164E-02  0.1184000E+00
        -11   -1    0    0    0    0  0.00000000000E+00  0.00000000000E+00  0.45593999997E+02  0.45594000000E+02  0.51100000000E-03 0.  1.
         11   -1    0    0    0    0 -0.00000000000E+00 -0.00000000000E+00 -0.45593999997E+02  0.45594000000E+02  0.51100000000E-03 0. -1.
         23    2    1    2    0    0 -0.88817841970E-15 -0.17763568394E-14  0.00000000000E+00  0.91188000000E+02  0.91188000000E+02 0.  0.
    9900012    2    3    3    0    0 -0.69869943594E+01 -0.13038118470E+02  0.33718989678E+02  0.54367069969E+02  0.39999967609E+02 0.  0.
         12    1    3    3    0    0  0.69869943594E+01  0.13038118470E+02 -0.33718989678E+02  0.36820930031E+02  0.00000000000E+00 0. -1.
         11    1    4    4    0    0 -0.37091860189E+01  0.86233390661E+01 -0.18015723631E+01  0.95585407261E+01  0.51100000000E-03 0. -1.
        -11    1    4    4    0    0 -0.22978199741E+01 -0.25641814062E+01  0.19675332649E+02  0.19974326472E+02  0.51100000000E-03 0.  1.
        -12    1    4    4    0    0 -0.97998836634E+00 -0.19097276130E+02  0.15845229392E+02  0.24834202771E+02  0.00000000000E+00 0.  1.
</event>
<event>
 8    1  0.1290800E-006  0.9118800E+02  0.7816164E-02  0.1184000E+00
        -11   -1    0    0    0    0  0.00000000000E+00  0.00000000000E+00  0.45593999997E+02  0.45594000000E+02  0.51100000000E-03 0.  1.
         11   -1    0    0    0    0 -0.00000000000E+00 -0.00000000000E+00 -0.45593999997E+02  0.45594000000E+02  0.51100000000E-03 0. -1.
         23    2    1    2    0    0  0.00000000000E+00  0.00000000000E+00  0.00000000000E+00  0.91188000000E+02  0.91188000000E+02 0.  0.
    9900012    2    3    3    0    0 -0.30237271432E+02 -0.19083369052E+02 -0.87927323000E+01  0.54367086115E+02  0.40000004417E+02 0.  0.
         12    1    3    3    0    0  0.30237271432E+02  0.19083369052E+02  0.87927323000E+01  0.36820913885E+02  0.00000000000E+00 0. -1.
         11    1    4    4    0    0 -0.96471130438E+01  0.50272110441E+01 -0.45538661638E+01  0.11793105539E+02  0.51100000000E-03 0. -1.
        -11    1    4    4    0    0  0.45870904312E+01 -0.93494396169E+01 -0.80204903361E+01  0.13144644737E+02  0.51100000000E-03 0.  1.
        -12    1    4    4    0    0 -0.25177248819E+02 -0.14761140479E+02  0.37816241999E+01  0.29429335839E+02  0.00000000000E+00 0.  1.
</event>
<event>
 8    1  0.1290800E-006  0.9118800E+02  0.7816164E-02  0.1184000E+00
        -11   -1    0    0    0    0  0.00000000000E+00  0.00000000000E+00  0.45593999997E+02  0.45594000000E+02  0.51100000000E-03 0. -1.
         11   -1    0    0    0    0 -0.00000000000E+00 -0.00000000000E+00 -0.45593999997E+02  0.45594000000E+02  0.51100000000E-03 0.  1.
         23    2    1    2    0    0  0.44408920985E-15  0.00000000000E+00  0.00000000000E+00  0.91188000000E+02  0.91188000000E+02 0.  0.
    9900012    2    3    3    0    0  0.34026055671E+01  0.33180463262E+02  0.15596781170E+02  0.54367075924E+02  0.39999981185E+02 0.  0.
        -12    1    3    3    0    0 -0.34026055671E+01 -0.33180463262E+02 -0.15596781170E+02  0.36820924076E+02  0.00000000000E+00 0.  1.
         11    1    4    4    0    0  0.72732349245E+01  0.19756393923E+02  0.39505713322E+01  0.21420132148E+02  0.51100000000E-03 0. -1.
        -11    1    4    4    0    0  0.24825193529E+01  0.58276769587E+01 -0.84397513761E+01  0.10552446381E+02  0.51100000000E-03 0.  1.
         12    1    4    4    0    0 -0.63531487103E+01  0.75963923802E+01  0.20085961214E+02  0.22394497396E+02  0.00000000000E+00 0. -1.
</event>
<event>
 8    1  0.1290800E-006  0.9118800E+02  0.7816164E-02  0.1184000E+00
        -11   -1    0    0    0    0  0.00000000000E+00  0.00000000000E+00  0.45593999997E+02  0.45594000000E+02  0.51100000000E-03 0. -1.
         11   -1    0    0    0    0 -0.00000000000E+00 -0.00000000000E+00 -0.45593999997E+02  0.45594000000E+02  0.51100000000E-03 0.  1.
         23    2    1    2    0    0 -0.13322676296E-14  0.00000000000E+00  0.00000000000E+00  0.91188000000E+02  0.91188000000E+02 0.  0.
    9900012    2    3    3    0    0 -0.21981177700E+01 -0.18305223822E+02  0.31872640667E+02  0.54367106963E+02  0.40000051944E+02 0.  0.
        -12    1    3    3    0    0  0.21981177700E+01  0.18305223822E+02 -0.31872640667E+02  0.36820893037E+02  0.00000000000E+00 0.  1.
         11    1    4    4    0    0 -0.31160954127E+01 -0.12994857142E+02  0.11197920667E+01  0.13410081928E+02  0.51100000000E-03 0. -1.
        -11    1    4    4    0    0 -0.10835398091E+02 -0.87596126594E+01  0.11165988210E+02  0.17855418189E+02  0.51100000000E-03 0.  1.
         12    1    4    4    0    0  0.11753375733E+02  0.34492459795E+01  0.19586860391E+02  0.23101606847E+02  0.00000000000E+00 0. -1.
</event>
<event>
 8    1  0.1290800E-006  0.9118800E+02  0.7816164E-02  0.1184000E+00
        -11   -1    0    0    0    0  0.00000000000E+00  0.00000000000E+00  0.45593999997E+02  0.45594000000E+02  0.51100000000E-03 0.  1.
         11   -1    0    0    0    0 -0.00000000000E+00 -0.00000000000E+00 -0.45593999997E+02  0.45594000000E+02  0.51100000000E-03 0. -1.
         23    2    1    2    0    0  0.00000000000E+00  0.35527136788E-14  0.00000000000E+00  0.91188000000E+02  0.91188000000E+02 0.  0.
    9900012    2    3    3    0    0  0.18691798688E+02 -0.22958633586E+02  0.21892647198E+02  0.54367215168E+02  0.40000298617E+02 0.  0.
         12    1    3    3    0    0 -0.18691798688E+02  0.22958633586E+02 -0.21892647198E+02  0.36820784832E+02  0.00000000000E+00 0. -1.
         11    1    4    4    0    0 -0.36922160853E+01 -0.89016100698E+01  0.93124863602E+00  0.96818565233E+01  0.51100000000E-03 0. -1.
        -11    1    4    4    0    0  0.23087257766E+02 -0.17477907649E+02  0.25755780134E+02  0.38753824811E+02  0.51100000000E-03 0.  1.
         12    1    4    4    0    0 -0.70324299297E+00  0.34208841320E+01 -0.47943815724E+01  0.59315338331E+01  0.00000000000E+00 0. -1.
</event>
<event>
 8    1  0.1290800E-006  0.9118800E+02  0.7816164E-02  0.1184000E+00
        -11   -1    0    0    0    0  0.00000000000E+00  0.00000000000E+00  0.45593999997E+02  0.45594000000E+02  0.51100000000E-03 0.  1.
         11   -1    0    0    0    0 -0.00000000000E+00 -0.00000000000E+00 -0.45593999997E+02  0.45594000000E+02  0.51100000000E-03 0. -1.
         23    2    1    2    0    0  0.00000000000E+00  0.00000000000E+00 -0.35527136788E-14  0.91188000000E+02  0.91188000000E+02 0.  0.
    9900012    2    3    3    0    0  0.28114947575E+02 -0.21626163399E+01  0.23678109923E+02  0.54367080998E+02  0.39999992752E+02 0.  0.
         12    1    3    3    0    0 -0.28114947575E+02  0.21626163399E+01 -0.23678109923E+02  0.36820919002E+02  0.00000000000E+00 0. -1.
         11    1    4    4    0    0  0.11208074872E+00 -0.24408779602E+01 -0.97380599456E+01  0.10039933221E+02  0.51100000000E-03 0. -1.
        -11    1    4    4    0    0  0.24723143390E+02  0.11229679288E+00  0.24419789469E+02  0.34750144570E+02  0.51100000000E-03 0.  1.
        -12    1    4    4    0    0  0.32797234364E+01  0.16596482743E+00  0.89963803999E+01  0.95770032079E+01  0.00000000000E+00 0.  1.
</event>
<event>
 8    1  0.1290800E-006  0.9118800E+02  0.7816164E-02  0.1184000E+00
        -11   -1    0    0    0    0  0.00000000000E+00  0.00000000000E+00  0.45593999997E+02  0.45594000000E+02  0.51100000000E-03 0. -1.
         11   -1    0    0    0    0 -0.00000000000E+00 -0.00000000000E+00 -0.45593999997E+02  0.45594000000E+02  0.51100000000E-03 0.  1.
         23    2    1    2    0    0  0.00000000000E+00  0.00000000000E+00  0.88817841970E-15  0.91188000000E+02  0.91188000000E+02 0.  0.
    9900012    2    3    3    0    0  0.35127748451E+02 -0.10658705185E+02 -0.28658864363E+01  0.54367081862E+02  0.39999994721E+02 0.  0.
        -12    1    3    3    0    0 -0.35127748451E+02  0.10658705185E+02  0.28658864363E+01  0.36820918138E+02  0.00000000000E+00 0.  1.
         11    1    4    4    0    0  0.30397865408E+02 -0.10063697943E+02  0.14079934333E+02  0.34979319443E+02  0.51100000000E-03 0. -1.
        -11    1    4    4    0    0 -0.71088137400E+00  0.24624201356E+01 -0.22077755852E+01  0.33827708388E+01  0.51100000000E-03 0.  1.
         12    1    4    4    0    0  0.54407644172E+01 -0.30574273775E+01 -0.14738045184E+02  0.16004991580E+02  0.00000000000E+00 0. -1.
</event>
<event>
 8    1  0.1290800E-006  0.9118800E+02  0.7816164E-02  0.1184000E+00
        -11   -1    0    0    0    0  0.00000000000E+00  0.00000000000E+00  0.45593999997E+02  0.45594000000E+02  0.51100000000E-03 0.  1.
         11   -1    0    0    0    0 -0.00000000000E+00 -0.00000000000E+00 -0.45593999997E+02  0.45594000000E+02  0.51100000000E-03 0. -1.
         23    2    1    2    0    0 -0.17763568394E-14  0.35527136788E-14  0.35527136788E-14  0.91188000000E+02  0.91188000000E+02 0.  0.
    9900012    2    3    3    0    0  0.13856697948E+02  0.20943309496E+02 -0.26928602795E+02  0.54367082858E+02  0.39999996992E+02 0.  0.
        -12    1    3    3    0    0 -0.13856697948E+02 -0.20943309496E+02  0.26928602795E+02  0.36820917142E+02  0.00000000000E+00 0.  1.
         11    1    4    4    0    0  0.51833214629E+01 -0.78567289600E+01 -0.18906553005E+02  0.21119961130E+02  0.51100000000E-03 0. -1.
        -11    1    4    4    0    0  0.15112489928E+01  0.28042963125E+01  0.27522999148E+01  0.42098819946E+01  0.51100000000E-03 0.  1.
        -12    1    4    4    0    0  0.71621274925E+01  0.25995742143E+02 -0.10774349704E+02  0.29037239734E+02  0.00000000000E+00 0.  1.
</event>
<event>
 8    1  0.1290800E-006  0.9118800E+02  0.7816164E-02  0.1184000E+00
        -11   -1    0    0    0    0  0.00000000000E+00  0.00000000000E+00  0.45593999997E+02  0.45594000000E+02  0.51100000000E-03 0.  1.
         11   -1    0    0    0    0 -0.00000000000E+00 -0.00000000000E+00 -0.45593999997E+02  0.45594000000E+02  0.51100000000E-03 0. -1.
         23    2    1    2    0    0  0.35527136788E-14 -0.35527136788E-14  0.35527136788E-14  0.91188000000E+02  0.91188000000E+02 0.  0.
    9900012    2    3    3    0    0 -0.21501690712E+02  0.15995799588E+02 -0.25250574407E+02  0.54367084533E+02  0.40000000810E+02 0.  0.
        -12    1    3    3    0    0  0.21501690712E+02 -0.15995799588E+02  0.25250574407E+02  0.36820915467E+02  0.00000000000E+00 0.  1.
         11    1    4    4    0    0 -0.55180016543E+01 -0.95921775583E+01 -0.15261786860E+02  0.18851534447E+02  0.51100000000E-03 0.  1.
        -11    1    4    4    0    0 -0.45636617219E+00  0.96061187036E+01  0.25472526559E+01  0.99485819585E+01  0.51100000000E-03 0. -1.
         12    1    4    4    0    0 -0.15527322886E+02  0.15981858443E+02 -0.12536040203E+02  0.25566968128E+02  0.00000000000E+00 0. -1.
</event>
<event>
 8    1  0.1290800E-006  0.9118800E+02  0.7816164E-02  0.1184000E+00
        -11   -1    0    0    0    0  0.00000000000E+00  0.00000000000E+00  0.45593999997E+02  0.45594000000E+02  0.51100000000E-03 0. -1.
         11   -1    0    0    0    0 -0.00000000000E+00 -0.00000000000E+00 -0.45593999997E+02  0.45594000000E+02  0.51100000000E-03 0.  1.
         23    2    1    2    0    0 -0.88817841970E-15  0.00000000000E+00  0.00000000000E+00  0.91188000000E+02  0.91188000000E+02 0.  0.
    9900012    2    3    3    0    0  0.26676026744E+01  0.16396642826E+02  0.32860514540E+02  0.54367089965E+02  0.40000013194E+02 0.  0.
        -12    1    3    3    0    0 -0.26676026744E+01 -0.16396642826E+02 -0.32860514540E+02  0.36820910035E+02  0.00000000000E+00 0.  1.
         11    1    4    4    0    0  0.81160187699E+01  0.66043396511E+00  0.54623660634E+01  0.98052729165E+01  0.51100000000E-03 0. -1.
        -11    1    4    4    0    0  0.25532485356E+01  0.22308972954E+02  0.10605566667E+02  0.24833191437E+02  0.51100000000E-03 0.  1.
        -12    1    4    4    0    0 -0.80016646311E+01 -0.65727640936E+01  0.16792581810E+02  0.19728625612E+02  0.00000000000E+00 0.  1.
</event>
<event>
 8    1  0.1290800E-006  0.9118800E+02  0.7816164E-02  0.1184000E+00
        -11   -1    0    0    0    0  0.00000000000E+00  0.00000000000E+00  0.45593999997E+02  0.45594000000E+02  0.51100000000E-03 0.  1.
         11   -1    0    0    0    0 -0.00000000000E+00 -0.00000000000E+00 -0.45593999997E+02  0.45594000000E+02  0.51100000000E-03 0. -1.
         23    2    1    2    0    0  0.17763568394E-14  0.00000000000E+00  0.22204460493E-14  0.91188000000E+02  0.91188000000E+02 0.  0.
    9900012    2    3    3    0    0  0.96185076326E+01  0.35350032936E+02 -0.36925257624E+01  0.54367146341E+02  0.40000141714E+02 0.  0.
        -12    1    3    3    0    0 -0.96185076326E+01 -0.35350032936E+02  0.36925257624E+01  0.36820853659E+02  0.00000000000E+00 0.  1.
         11    1    4    4    0    0  0.20005458154E+02  0.31991704026E+02  0.70671353587E+01  0.38387913266E+02  0.51100000000E-03 0. -1.
        -11    1    4    4    0    0 -0.39358836059E+01  0.21225877822E+01 -0.16889465858E+01  0.47800731672E+01  0.51100000000E-03 0.  1.
         12    1    4    4    0    0 -0.64510669151E+01  0.12357411272E+01 -0.90707145352E+01  0.11199159908E+02  0.00000000000E+00 0. -1.
</event>
<event>
 8    1  0.1290800E-006  0.9118800E+02  0.7816164E-02  0.1184000E+00
        -11   -1    0    0    0    0  0.00000000000E+00  0.00000000000E+00  0.45593999997E+02  0.45594000000E+02  0.51100000000E-03 0.  1.
         11   -1    0    0    0    0 -0.00000000000E+00 -0.00000000000E+00 -0.45593999997E+02  0.45594000000E+02  0.51100000000E-03 0. -1.
         23    2    1    2    0    0  0.00000000000E+00  0.00000000000E+00  0.71054273576E-14  0.91188000000E+02  0.91188000000E+02 0.  0.
    9900012    2    3    3    0    0 -0.21500860349E+02  0.96216379661E+01 -0.28300463546E+02  0.54367093577E+02  0.40000021427E+02 0.  0.
        -12    1    3    3    0    0  0.21500860349E+02 -0.96216379661E+01  0.28300463546E+02  0.36820906423E+02  0.00000000000E+00 0.  1.
         11    1    4    4    0    0 -0.25752211159E+01  0.35019821624E+01  0.68266209278E+01  0.80931079576E+01  0.51100000000E-03 0.  1.
        -11    1    4    4    0    0 -0.99945500702E+00  0.65057742098E+01 -0.24635642839E+02  0.25499782484E+02  0.51100000000E-03 0. -1.
         12    1    4    4    0    0 -0.17926184226E+02 -0.38611840605E+00 -0.10491441635E+02  0.20774203135E+02  0.00000000000E+00 0. -1.
</event>
<event>
 8    1  0.1290800E-006  0.9118800E+02  0.7816164E-02  0.1184000E+00
        -11   -1    0    0    0    0  0.00000000000E+00  0.00000000000E+00  0.45593999997E+02  0.45594000000E+02  0.51100000000E-03 0. -1.
         11   -1    0    0    0    0 -0.00000000000E+00 -0.00000000000E+00 -0.45593999997E+02  0.45594000000E+02  0.51100000000E-03 0.  1.
         23    2    1    2    0    0 -0.88817841970E-15  0.00000000000E+00 -0.17763568394E-14  0.91188000000E+02  0.91188000000E+02 0.  0.
    9900012    2    3    3    0    0  0.73747186024E+01  0.32862813814E+02  0.14880485548E+02  0.54367083982E+02  0.39999999554E+02 0.  0.
        -12    1    3    3    0    0 -0.73747186024E+01 -0.32862813814E+02 -0.14880485548E+02  0.36820916018E+02  0.00000000000E+00 0.  1.
         11    1    4    4    0    0 -0.29417528457E+01  0.18930996237E+02  0.77898798495E+01  0.20681362544E+02  0.51100000000E-03 0. -1.
        -11    1    4    4    0    0  0.19244536975E+02  0.11483960418E+02  0.91421622289E+01  0.24203567521E+02  0.51100000000E-03 0.  1.
        -12    1    4    4    0    0 -0.89280655268E+01  0.24478571594E+01 -0.20515565307E+01  0.94821539178E+01  0.00000000000E+00 0.  1.
</event>
<event>
 8    1  0.1290800E-006  0.9118800E+02  0.7816164E-02  0.1184000E+00
        -11   -1    0    0    0    0  0.00000000000E+00  0.00000000000E+00  0.45593999997E+02  0.45594000000E+02  0.51100000000E-03 0. -1.
         11   -1    0    0    0    0 -0.00000000000E+00 -0.00000000000E+00 -0.45593999997E+02  0.45594000000E+02  0.51100000000E-03 0.  1.
         23    2    1    2    0    0  0.17763568394E-14  0.17763568394E-14  0.71054273576E-14  0.91188000000E+02  0.91188000000E+02 0.  0.
    9900012    2    3    3    0    0 -0.15592953347E+02 -0.10721648216E+02 -0.31586202434E+02  0.54367053261E+02  0.39999929519E+02 0.  0.
         12    1    3    3    0    0  0.15592953347E+02  0.10721648216E+02  0.31586202434E+02  0.36820946739E+02  0.00000000000E+00 0. -1.
         11    1    4    4    0    0 -0.33010734261E+01 -0.11253487425E+02 -0.47989677545E+01  0.12671549107E+02  0.51100000000E-03 0. -1.
        -11    1    4    4    0    0  0.92742219099E+01  0.47322909964E+00 -0.34168383455E+01  0.98949442826E+01  0.51100000000E-03 0.  1.
        -12    1    4    4    0    0 -0.21566101831E+02  0.58610109314E-01 -0.23370396334E+02  0.31800559871E+02  0.00000000000E+00 0.  1.
</event>
<event>
 8    1  0.1290800E-006  0.9118800E+02  0.7816164E-02  0.1184000E+00
        -11   -1    0    0    0    0  0.00000000000E+00  0.00000000000E+00  0.45593999997E+02  0.45594000000E+02  0.51100000000E-03 0.  1.
         11   -1    0    0    0    0 -0.00000000000E+00 -0.00000000000E+00 -0.45593999997E+02  0.45594000000E+02  0.51100000000E-03 0. -1.
         23    2    1    2    0    0  0.35527136788E-14  0.00000000000E+00  0.35527136788E-14  0.91188000000E+02  0.91188000000E+02 0.  0.
    9900012    2    3    3    0    0 -0.21083650123E+02 -0.18623753225E+01 -0.30129407944E+02  0.54367218267E+02  0.40000305683E+02 0.  0.
        -12    1    3    3    0    0  0.21083650123E+02  0.18623753225E+01  0.30129407944E+02  0.36820781733E+02  0.00000000000E+00 0.  1.
         11    1    4    4    0    0 -0.11805422292E+02  0.48729896210E+01 -0.94166610658E+01  0.15867814255E+02  0.51100000000E-03 0. -1.
        -11    1    4    4    0    0 -0.97807292349E+01 -0.74887708053E+01 -0.28296607213E+02  0.30861664449E+02  0.51100000000E-03 0.  1.
        -12    1    4    4    0    0  0.50250140447E+00  0.75340586180E+00  0.75838603347E+01  0.76377395628E+01  0.00000000000E+00 0.  1.
</event>
<event>
 8    1  0.1290800E-006  0.9118800E+02  0.7816164E-02  0.1184000E+00
        -11   -1    0    0    0    0  0.00000000000E+00  0.00000000000E+00  0.45593999997E+02  0.45594000000E+02  0.51100000000E-03 0.  1.
         11   -1    0    0    0    0 -0.00000000000E+00 -0.00000000000E+00 -0.45593999997E+02  0.45594000000E+02  0.51100000000E-03 0. -1.
         23    2    1    2    0    0  0.35527136788E-14  0.17763568394E-14  0.00000000000E+00  0.91188000000E+02  0.91188000000E+02 0.  0.
    9900012    2    3    3    0    0 -0.23738362253E+02 -0.10640037157E+02 -0.26058771556E+02  0.54367084637E+02  0.40000001047E+02 0.  0.
        -12    1    3    3    0    0  0.23738362253E+02  0.10640037157E+02  0.26058771556E+02  0.36820915363E+02  0.00000000000E+00 0.  1.
         11    1    4    4    0    0 -0.13882392966E+02 -0.12389742492E+02 -0.61231898875E+00  0.18617236323E+02  0.51100000000E-03 0. -1.
        -11    1    4    4    0    0 -0.93657661644E+01 -0.14148059749E+01  0.61540486483E+00  0.94919953225E+01  0.51100000000E-03 0.  1.
        -12    1    4    4    0    0 -0.49020312232E+00  0.31645113106E+01 -0.26061857432E+02  0.26257852992E+02  0.00000000000E+00 0.  1.
</event>
<event>
 8    1  0.1290800E-006  0.9118800E+02  0.7816164E-02  0.1184000E+00
        -11   -1    0    0    0    0  0.00000000000E+00  0.00000000000E+00  0.45593999997E+02  0.45594000000E+02  0.51100000000E-03 0.  1.
         11   -1    0    0    0    0 -0.00000000000E+00 -0.00000000000E+00 -0.45593999997E+02  0.45594000000E+02  0.51100000000E-03 0. -1.
         23    2    1    2    0    0  0.00000000000E+00  0.17763568394E-14  0.00000000000E+00  0.91188000000E+02  0.91188000000E+02 0.  0.
    9900012    2    3    3    0    0  0.16210637685E+02 -0.37768107686E+01 -0.32844018038E+02  0.54367101116E+02  0.40000038613E+02 0.  0.
        -12    1    3    3    0    0 -0.16210637685E+02  0.37768107686E+01  0.32844018038E+02  0.36820898884E+02  0.00000000000E+00 0.  1.
         11    1    4    4    0    0  0.10713109930E+02  0.53804352911E+01 -0.16036611152E+02  0.20022305207E+02  0.51100000000E-03 0. -1.
        -11    1    4    4    0    0  0.10508567718E+02  0.27712363717E+01 -0.18337814989E+02  0.21316313127E+02  0.51100000000E-03 0.  1.
        -12    1    4    4    0    0 -0.50110399628E+01 -0.11928482431E+02  0.15304081026E+01  0.13028482781E+02  0.00000000000E+00 0.  1.
</event>
<event>
 8    1  0.1290800E-006  0.9118800E+02  0.7816164E-02  0.1184000E+00
        -11   -1    0    0    0    0  0.00000000000E+00  0.00000000000E+00  0.45593999997E+02  0.45594000000E+02  0.51100000000E-03 0. -1.
         11   -1    0    0    0    0 -0.00000000000E+00 -0.00000000000E+00 -0.45593999997E+02  0.45594000000E+02  0.51100000000E-03 0.  1.
         23    2    1    2    0    0 -0.22204460493E-15  0.00000000000E+00  0.35527136788E-14  0.91188000000E+02  0.91188000000E+02 0.  0.
    9900012    2    3    3    0    0 -0.90588032488E+00 -0.21685354133E+02 -0.29743977307E+02  0.54367090328E+02  0.40000014021E+02 0.  0.
         12    1    3    3    0    0  0.90588032488E+00  0.21685354133E+02  0.29743977307E+02  0.36820909672E+02  0.00000000000E+00 0. -1.
         11    1    4    4    0    0 -0.92729885739E+00  0.32236107853E+00 -0.72430607212E+00  0.12200079439E+01  0.51100000000E-03 0. -1.
        -11    1    4    4    0    0 -0.18748715583E+01 -0.92851153144E+00 -0.31739790277E+02  0.31808671209E+02  0.51100000000E-03 0.  1.
        -12    1    4    4    0    0  0.18962900909E+01 -0.21079203680E+02  0.27201190418E+01  0.21338411175E+02  0.00000000000E+00 0.  1.
</event>
<event>
 8    1  0.1290800E-006  0.9118800E+02  0.7816164E-02  0.1184000E+00
        -11   -1    0    0    0    0  0.00000000000E+00  0.00000000000E+00  0.45593999997E+02  0.45594000000E+02  0.51100000000E-03 0.  1.
         11   -1    0    0    0    0 -0.00000000000E+00 -0.00000000000E+00 -0.45593999997E+02  0.45594000000E+02  0.51100000000E-03 0. -1.
         23    2    1    2    0    0 -0.88817841970E-15 -0.35527136788E-14  0.00000000000E+00  0.91188000000E+02  0.91188000000E+02 0.  0.
    9900012    2    3    3    0    0 -0.20974190256E+01  0.24814042943E+02 -0.27122779865E+02  0.54367067348E+02  0.39999961633E+02 0.  0.
        -12    1    3    3    0    0  0.20974190256E+01 -0.24814042943E+02  0.27122779865E+02  0.36820932652E+02  0.00000000000E+00 0.  1.
         11    1    4    4    0    0 -0.11264217685E+02 -0.57379538939E+01 -0.63713496967E+01  0.14156299381E+02  0.51100000000E-03 0.  1.
        -11    1    4    4    0    0  0.66386746977E+01  0.30340800935E+02 -0.16272436818E+02  0.35063205834E+02  0.51100000000E-03 0. -1.
        -12    1    4    4    0    0  0.25281239620E+01  0.21119590285E+00 -0.44789933503E+01  0.51475621326E+01  0.00000000000E+00 0.  1.
</event>
<event>
 8    1  0.1290800E-006  0.9118800E+02  0.7816164E-02  0.1184000E+00
        -11   -1    0    0    0    0  0.00000000000E+00  0.00000000000E+00  0.45593999997E+02  0.45594000000E+02  0.51100000000E-03 0.  1.
         11   -1    0    0    0    0 -0.00000000000E+00 -0.00000000000E+00 -0.45593999997E+02  0.45594000000E+02  0.51100000000E-03 0. -1.
         23    2    1    2    0    0  0.00000000000E+00  0.00000000000E+00  0.00000000000E+00  0.91188000000E+02  0.91188000000E+02 0.  0.
    9900012    2    3    3    0    0  0.19262492574E+02  0.26157254625E+02 -0.17336122264E+02  0.54366990714E+02  0.39999786931E+02 0.  0.
        -12    1    3    3    0    0 -0.19262492574E+02 -0.26157254625E+02  0.17336122264E+02  0.36821009286E+02  0.00000000000E+00 0.  1.
         11    1    4    4    0    0  0.40903755242E+00  0.32481123599E+00  0.75984658846E+01  0.76163966624E+01  0.51100000000E-03 0. -1.
        -11    1    4    4    0    0 -0.19572768619E+01  0.13019995564E+02 -0.21546117250E+01  0.13341423056E+02  0.51100000000E-03 0.  1.
         12    1    4    4    0    0  0.20810731883E+02  0.12812447825E+02 -0.22779976424E+02  0.33409170996E+02  0.00000000000E+00 0. -1.
</event>
<event>
 8    1  0.1290800E-006  0.9118800E+02  0.7816164E-02  0.1184000E+00
        -11   -1    0    0    0    0  0.00000000000E+00  0.00000000000E+00  0.45593999997E+02  0.45594000000E+02  0.51100000000E-03 0.  1.
         11   -1    0    0    0    0 -0.00000000000E+00 -0.00000000000E+00 -0.45593999997E+02  0.45594000000E+02  0.51100000000E-03 0. -1.
         23    2    1    2    0    0  0.00000000000E+00  0.00000000000E+00  0.00000000000E+00  0.91188000000E+02  0.91188000000E+02 0.  0.
    9900012    2    3    3    0    0  0.22975163130E+02 -0.52648345482E+01  0.28287817967E+02  0.54367119388E+02  0.40000080270E+02 0.  0.
         12    1    3    3    0    0 -0.22975163130E+02  0.52648345482E+01 -0.28287817967E+02  0.36820880612E+02  0.00000000000E+00 0. -1.
         11    1    4    4    0    0  0.55372403636E+01 -0.28153103148E+01 -0.55194201388E+01  0.83096932521E+01  0.51100000000E-03 0. -1.
        -11    1    4    4    0    0  0.33966517323E+01 -0.10622788371E+02  0.35324197420E+01  0.11698669380E+02  0.51100000000E-03 0.  1.
        -12    1    4    4    0    0  0.14041271035E+02  0.81732641372E+01  0.30274818364E+02  0.34358756757E+02  0.00000000000E+00 0.  1.
</event>
<event>
 8    1  0.1290800E-006  0.9118800E+02  0.7816164E-02  0.1184000E+00
        -11   -1    0    0    0    0  0.00000000000E+00  0.00000000000E+00  0.45593999997E+02  0.45594000000E+02  0.51100000000E-03 0. -1.
         11   -1    0    0    0    0 -0.00000000000E+00 -0.00000000000E+00 -0.45593999997E+02  0.45594000000E+02  0.51100000000E-03 0.  1.
         23    2    1    2    0    0  0.00000000000E+00  0.00000000000E+00  0.00000000000E+00  0.91188000000E+02  0.91188000000E+02 0.  0.
    9900012    2    3    3    0    0 -0.24470779216E+02 -0.21491780830E+02 -0.17177293507E+02  0.54367148694E+02  0.40000147077E+02 0.  0.
         12    1    3    3    0    0  0.24470779216E+02  0.21491780830E+02  0.17177293507E+02  0.36820851306E+02  0.00000000000E+00 0. -1.
         11    1    4    4    0    0 -0.22023467106E+02 -0.19233465413E+00 -0.53081342041E+01  0.22654941734E+02  0.51100000000E-03 0. -1.
        -11    1    4    4    0    0 -0.42429930400E+01 -0.18106458714E+02 -0.17141693355E+02  0.25291984668E+02  0.51100000000E-03 0.  1.
         12    1    4    4    0    0  0.17956809306E+01 -0.31929874625E+01  0.52725340525E+01  0.64202222917E+01  0.00000000000E+00 0. -1.
</event>
<event>
 8    1  0.1290800E-006  0.9118800E+02  0.7816164E-02  0.1184000E+00
        -11   -1    0    0    0    0  0.00000000000E+00  0.00000000000E+00  0.45593999997E+02  0.45594000000E+02  0.51100000000E-03 0.  1.
         11   -1    0    0    0    0 -0.00000000000E+00 -0.00000000000E+00 -0.45593999997E+02  0.45594000000E+02  0.51100000000E-03 0. -1.
         23    2    1    2    0    0 -0.17763568394E-14  0.00000000000E+00  0.00000000000E+00  0.91188000000E+02  0.91188000000E+02 0.  0.
    9900012    2    3    3    0    0  0.60457522834E+01 -0.31499769628E+02 -0.18083207754E+02  0.54366959684E+02  0.39999716190E+02 0.  0.
        -12    1    3    3    0    0 -0.60457522834E+01  0.31499769628E+02  0.18083207754E+02  0.36821040316E+02  0.00000000000E+00 0.  1.
         11    1    4    4    0    0 -0.24423166521E+01 -0.52622186140E+01 -0.58458809171E+01  0.82359079237E+01  0.51100000000E-03 0. -1.
        -11    1    4    4    0    0  0.11896795796E+02 -0.62700310123E+01  0.94644585820E+01  0.16444543643E+02  0.51100000000E-03 0.  1.
        -12    1    4    4    0    0 -0.34087268608E+01 -0.19967520002E+02 -0.21701785419E+02  0.29686508117E+02  0.00000000000E+00 0.  1.
</event>
<event>
 8    1  0.1290800E-006  0.9118800E+02  0.7816164E-02  0.1184000E+00
        -11   -1    0    0    0    0  0.00000000000E+00  0.00000000000E+00  0.45593999997E+02  0.45594000000E+02  0.51100000000E-03 0. -1.
         11   -1    0    0    0    0 -0.00000000000E+00 -0.00000000000E+00 -0.45593999997E+02  0.45594000000E+02  0.51100000000E-03 0.  1.
         23    2    1    2    0    0  0.88817841970E-15  0.35527136788E-14 -0.35527136788E-14  0.91188000000E+02  0.91188000000E+02 0.  0.
    9900012    2    3    3    0    0 -0.76870867484E+01 -0.30150360532E+02  0.19688763739E+02  0.54367041831E+02  0.39999903462E+02 0.  0.
        -12    1    3    3    0    0  0.76870867484E+01  0.30150360532E+02 -0.19688763739E+02  0.36820958169E+02  0.00000000000E+00 0.  1.
         11    1    4    4    0    0 -0.21157027167E+01 -0.66606908100E+01  0.93598219926E+01  0.11681064508E+02  0.51100000000E-03 0. -1.
        -11    1    4    4    0    0 -0.14588401779E+02 -0.11635704910E+01  0.11450009965E+02  0.18581660077E+02  0.51100000000E-03 0.  1.
         12    1    4    4    0    0  0.90170177476E+01 -0.22326099231E+02 -0.11210682184E+01  0.24104317246E+02  0.00000000000E+00 0. -1.
</event>
<event>
 8    1  0.1290800E-006  0.9118800E+02  0.7816164E-02  0.1184000E+00
        -11   -1    0    0    0    0  0.00000000000E+00  0.00000000000E+00  0.45593999997E+02  0.45594000000E+02  0.51100000000E-03 0.  1.
         11   -1    0    0    0    0 -0.00000000000E+00 -0.00000000000E+00 -0.45593999997E+02  0.45594000000E+02  0.51100000000E-03 0. -1.
         23    2    1    2    0    0 -0.88817841970E-15  0.00000000000E+00  0.00000000000E+00  0.91188000000E+02  0.91188000000E+02 0.  0.
    9900012    2    3    3    0    0 -0.44817345726E+01 -0.35504474487E+02 -0.86675397799E+01  0.54367083401E+02  0.39999998229E+02 0.  0.
         12    1    3    3    0    0  0.44817345726E+01  0.35504474487E+02  0.86675397799E+01  0.36820916599E+02  0.00000000000E+00 0. -1.
         11    1    4    4    0    0 -0.20777876418E+02 -0.15741884214E+02  0.46148163594E+00  0.26071824497E+02  0.51100000000E-03 0. -1.
        -11    1    4    4    0    0  0.11835281825E+02 -0.10812515031E+02 -0.88053890451E+01  0.18289867514E+02  0.51100000000E-03 0.  1.
         12    1    4    4    0    0  0.44608600208E+01 -0.89500752416E+01 -0.32363237072E+00  0.10005391390E+02  0.00000000000E+00 0. -1.
</event>
<event>
 8    1  0.1290800E-006  0.9118800E+02  0.7816164E-02  0.1184000E+00
        -11   -1    0    0    0    0  0.00000000000E+00  0.00000000000E+00  0.45593999997E+02  0.45594000000E+02  0.51100000000E-03 0.  1.
         11   -1    0    0    0    0 -0.00000000000E+00 -0.00000000000E+00 -0.45593999997E+02  0.45594000000E+02  0.51100000000E-03 0. -1.
         23    2    1    2    0    0  0.00000000000E+00 -0.35527136788E-14 -0.35527136788E-14  0.91188000000E+02  0.91188000000E+02 0.  0.
    9900012    2    3    3    0    0  0.29305697583E+02 -0.14270287445E+02 -0.17126381644E+02  0.54367109696E+02  0.40000058173E+02 0.  0.
         12    1    3    3    0    0 -0.29305697583E+02  0.14270287445E+02  0.17126381644E+02  0.36820890304E+02  0.00000000000E+00 0. -1.
         11    1    4    4    0    0  0.22162555014E+02 -0.23114480217E+02 -0.38081471341E+01  0.32248411206E+02  0.51100000000E-03 0. -1.
        -11    1    4    4    0    0  0.23170702923E+01  0.86923079067E+01 -0.12019776188E+01  0.90757799632E+01  0.51100000000E-03 0.  1.
         12    1    4    4    0    0  0.48260722767E+01  0.15188486565E+00 -0.12116256891E+02  0.13042918526E+02  0.00000000000E+00 0. -1.
</event>
<event>
 8    1  0.1290800E-006  0.9118800E+02  0.7816164E-02  0.1184000E+00
        -11   -1    0    0    0    0  0.00000000000E+00  0.00000000000E+00  0.45593999997E+02  0.45594000000E+02  0.51100000000E-03 0.  1.
         11   -1    0    0    0    0 -0.00000000000E+00 -0.00000000000E+00 -0.45593999997E+02  0.45594000000E+02  0.51100000000E-03 0. -1.
         23    2    1    2    0    0  0.00000000000E+00 -0.22204460493E-15  0.00000000000E+00  0.91188000000E+02  0.91188000000E+02 0.  0.
    9900012    2    3    3    0    0  0.19088488788E+02  0.11632436215E+01 -0.31465173802E+02  0.54367072495E+02  0.39999973367E+02 0.  0.
        -12    1    3    3    0    0 -0.19088488788E+02 -0.11632436215E+01  0.31465173802E+02  0.36820927505E+02  0.00000000000E+00 0.  1.
         11    1    4    4    0    0  0.15471606670E+02  0.91602004316E+01 -0.29429857180E+02  0.34487626459E+02  0.51100000000E-03 0. -1.
        -11    1    4    4    0    0 -0.67866720548E+01 -0.57754178511E+01 -0.24205887623E+01  0.92343716165E+01  0.51100000000E-03 0.  1.
        -12    1    4    4    0    0  0.10403554173E+02 -0.22215389591E+01  0.38527214034E+00  0.10645074419E+02  0.00000000000E+00 0.  1.
</event>
<event>
 8    1  0.1290800E-006  0.9118800E+02  0.7816164E-02  0.1184000E+00
        -11   -1    0    0    0    0  0.00000000000E+00  0.00000000000E+00  0.45593999997E+02  0.45594000000E+02  0.51100000000E-03 0.  1.
         11   -1    0    0    0    0 -0.00000000000E+00 -0.00000000000E+00 -0.45593999997E+02  0.45594000000E+02  0.51100000000E-03 0. -1.
         23    2    1    2    0    0 -0.88817841970E-15  0.00000000000E+00  0.00000000000E+00  0.91188000000E+02  0.91188000000E+02 0.  0.
    9900012    2    3    3    0    0 -0.48278370622E+01  0.32572175444E+02 -0.16478070253E+02  0.54367062707E+02  0.39999951054E+02 0.  0.
         12    1    3    3    0    0  0.48278370622E+01 -0.32572175444E+02  0.16478070253E+02  0.36820937293E+02  0.00000000000E+00 0. -1.
         11    1    4    4    0    0 -0.62937081685E+01  0.47259086846E+01  0.27791746224E+01  0.83467830479E+01  0.51100000000E-03 0. -1.
        -11    1    4    4    0    0 -0.42840775325E+01  0.21698272806E+02  0.29107279493E+01  0.22307861854E+02  0.51100000000E-03 0.  1.
         12    1    4    4    0    0  0.57499486389E+01  0.61479939538E+01 -0.22167972825E+02  0.23712417805E+02  0.00000000000E+00 0. -1.
</event>
<event>
 8    1  0.1290800E-006  0.9118800E+02  0.7816164E-02  0.1184000E+00
        -11   -1    0    0    0    0  0.00000000000E+00  0.00000000000E+00  0.45593999997E+02  0.45594000000E+02  0.51100000000E-03 0.  1.
         11   -1    0    0    0    0 -0.00000000000E+00 -0.00000000000E+00 -0.45593999997E+02  0.45594000000E+02  0.51100000000E-03 0. -1.
         23    2    1    2    0    0  0.00000000000E+00  0.17763568394E-14 -0.17763568394E-14  0.91188000000E+02  0.91188000000E+02 0.  0.
    9900012    2    3    3    0    0 -0.33016117558E+02  0.10102049743E+02  0.12793154858E+02  0.54367078789E+02  0.39999987715E+02 0.  0.
        -12    1    3    3    0    0  0.33016117558E+02 -0.10102049743E+02 -0.12793154858E+02  0.36820921211E+02  0.00000000000E+00 0.  1.
         11    1    4    4    0    0 -0.10692676989E+02 -0.78090234775E+01  0.12878675089E+02  0.18470908509E+02  0.51100000000E-03 0. -1.
        -11    1    4    4    0    0 -0.14901708065E+02  0.93109317823E+01  0.10415457677E+02  0.20426358285E+02  0.51100000000E-03 0.  1.
         12    1    4    4    0    0 -0.74217325045E+01  0.86001414381E+01 -0.10500977908E+02  0.15469811995E+02  0.00000000000E+00 0. -1.
</event>
<event>
 8    1  0.1290800E-006  0.9118800E+02  0.7816164E-02  0.1184000E+00
        -11   -1    0    0    0    0  0.00000000000E+00  0.00000000000E+00  0.45593999997E+02  0.45594000000E+02  0.51100000000E-03 0. -1.
         11   -1    0    0    0    0 -0.00000000000E+00 -0.00000000000E+00 -0.45593999997E+02  0.45594000000E+02  0.51100000000E-03 0.  1.
         23    2    1    2    0    0  0.00000000000E+00  0.44408920985E-15  0.71054273576E-14  0.91188000000E+02  0.91188000000E+02 0.  0.
    9900012    2    3    3    0    0 -0.11400122683E+02  0.36717468864E+01 -0.34818527090E+02  0.54367158740E+02  0.40000169980E+02 0.  0.
         12    1    3    3    0    0  0.11400122683E+02 -0.36717468864E+01  0.34818527090E+02  0.36820841260E+02  0.00000000000E+00 0. -1.
         11    1    4    4    0    0 -0.10574832949E+02 -0.10261926538E+02 -0.36063083527E+02  0.38957415493E+02  0.51100000000E-03 0. -1.
        -11    1    4    4    0    0  0.18626964397E+00  0.52682059898E+01 -0.25977348965E+01  0.58768118555E+01  0.51100000000E-03 0.  1.
         12    1    4    4    0    0 -0.10115593779E+01  0.86654674348E+01  0.38422913336E+01  0.95329313923E+01  0.00000000000E+00 0. -1.
</event>
<event>
 8    1  0.1290800E-006  0.9118800E+02  0.7816164E-02  0.1184000E+00
        -11   -1    0    0    0    0  0.00000000000E+00  0.00000000000E+00  0.45593999997E+02  0.45594000000E+02  0.51100000000E-03 0.  1.
         11   -1    0    0    0    0 -0.00000000000E+00 -0.00000000000E+00 -0.45593999997E+02  0.45594000000E+02  0.51100000000E-03 0. -1.
         23    2    1    2    0    0  0.00000000000E+00 -0.17763568394E-14  0.35527136788E-14  0.91188000000E+02  0.91188000000E+02 0.  0.
    9900012    2    3    3    0    0  0.32081263106E+02  0.47696347726E+01 -0.17430598756E+02  0.54367046300E+02  0.39999913651E+02 0.  0.
        -12    1    3    3    0    0 -0.32081263106E+02 -0.47696347726E+01  0.17430598756E+02  0.36820953700E+02  0.00000000000E+00 0.  1.
         11    1    4    4    0    0  0.92761139927E+00 -0.32120753046E+01 -0.95726578954E+01  0.10139707595E+02  0.51100000000E-03 0. -1.
        -11    1    4    4    0    0 -0.26287625705E+01  0.92775055905E+01 -0.28209830226E+01  0.10046912367E+02  0.51100000000E-03 0.  1.
         12    1    4    4    0    0  0.33782414277E+02 -0.12957955133E+01 -0.50369578378E+01  0.34180426339E+02  0.00000000000E+00 0. -1.
</event>
<event>
 8    1  0.1290800E-006  0.9118800E+02  0.7816164E-02  0.1184000E+00
        -11   -1    0    0    0    0  0.00000000000E+00  0.00000000000E+00  0.45593999997E+02  0.45594000000E+02  0.51100000000E-03 0.  1.
         11   -1    0    0    0    0 -0.00000000000E+00 -0.00000000000E+00 -0.45593999997E+02  0.45594000000E+02  0.51100000000E-03 0. -1.
         23    2    1    2    0    0  0.00000000000E+00  0.00000000000E+00  0.17763568394E-14  0.91188000000E+02  0.91188000000E+02 0.  0.
    9900012    2    3    3    0    0 -0.29179807550E+02 -0.21976001207E+02 -0.46230956458E+01  0.54367098177E+02  0.40000031914E+02 0.  0.
        -12    1    3    3    0    0  0.29179807550E+02  0.21976001207E+02  0.46230956458E+01  0.36820901823E+02  0.00000000000E+00 0.  1.
         11    1    4    4    0    0 -0.14286050494E+02 -0.17184974921E+02 -0.15836847953E+02  0.27390150695E+02  0.51100000000E-03 0. -1.
        -11    1    4    4    0    0 -0.91806612865E+01 -0.74764299736E+00  0.16025005275E+02  0.18483622644E+02  0.51100000000E-03 0.  1.
        -12    1    4    4    0    0 -0.57130957697E+01 -0.40433832881E+01 -0.48112529675E+01  0.84933248381E+01  0.00000000000E+00 0.  1.
</event>
<event>
 8    1  0.1290800E-006  0.9118800E+02  0.7816164E-02  0.1184000E+00
        -11   -1    0    0    0    0  0.00000000000E+00  0.00000000000E+00  0.45593999997E+02  0.45594000000E+02  0.51100000000E-03 0.  1.
         11   -1    0    0    0    0 -0.00000000000E+00 -0.00000000000E+00 -0.45593999997E+02  0.45594000000E+02  0.51100000000E-03 0. -1.
         23    2    1    2    0    0  0.35527136788E-14  0.00000000000E+00  0.00000000000E+00  0.91188000000E+02  0.91188000000E+02 0.  0.
    9900012    2    3    3    0    0 -0.30332113657E+02  0.13405501587E+02  0.16001107164E+02  0.54367081731E+02  0.39999994421E+02 0.  0.
        -12    1    3    3    0    0  0.30332113657E+02 -0.13405501587E+02 -0.16001107164E+02  0.36820918269E+02  0.00000000000E+00 0.  1.
         11    1    4    4    0    0 -0.21108862153E+02  0.42747544625E+01  0.93078280325E+01  0.23462592569E+02  0.51100000000E-03 0. -1.
        -11    1    4    4    0    0  0.74856339569E+01  0.83502911138E+01 -0.29511454918E+01  0.11596177706E+02  0.51100000000E-03 0.  1.
        -12    1    4    4    0    0 -0.16708885461E+02  0.78045601108E+00  0.96444246231E+01  0.19308311455E+02  0.00000000000E+00 0.  1.
</event>
<event>
 8    1  0.1290800E-006  0.9118800E+02  0.7816164E-02  0.1184000E+00
        -11   -1    0    0    0    0  0.00000000000E+00  0.00000000000E+00  0.45593999997E+02  0.45594000000E+02  0.51100000000E-03 0. -1.
         11   -1    0    0    0    0 -0.00000000000E+00 -0.00000000000E+00 -0.45593999997E+02  0.45594000000E+02  0.51100000000E-03 0.  1.
         23    2    1    2    0    0 -0.35527136788E-14  0.88817841970E-15 -0.35527136788E-14  0.91188000000E+02  0.91188000000E+02 0.  0.
    9900012    2    3    3    0    0 -0.23434493355E+02  0.55289787679E+01  0.27857379772E+02  0.54367099783E+02  0.40000035576E+02 0.  0.
        -12    1    3    3    0    0  0.23434493355E+02 -0.55289787679E+01 -0.27857379772E+02  0.36820900217E+02  0.00000000000E+00 0.  1.
         11    1    4    4    0    0  0.38057690177E+00 -0.65006270099E+01  0.19357684770E+02  0.20423588084E+02  0.51100000000E-03 0.  1.
        -11    1    4    4    0    0 -0.10571094655E+02  0.38702006607E+00 -0.50339435633E+01  0.11714880059E+02  0.51100000000E-03 0. -1.
        -12    1    4    4    0    0 -0.13243975602E+02  0.11642585712E+02  0.13533638565E+02  0.22228631640E+02  0.00000000000E+00 0.  1.
</event>
<event>
 8    1  0.1290800E-006  0.9118800E+02  0.7816164E-02  0.1184000E+00
        -11   -1    0    0    0    0  0.00000000000E+00  0.00000000000E+00  0.45593999997E+02  0.45594000000E+02  0.51100000000E-03 0.  1.
         11   -1    0    0    0    0 -0.00000000000E+00 -0.00000000000E+00 -0.45593999997E+02  0.45594000000E+02  0.51100000000E-03 0. -1.
         23    2    1    2    0    0  0.17763568394E-14  0.35527136788E-14 -0.35527136788E-14  0.91188000000E+02  0.91188000000E+02 0.  0.
    9900012    2    3    3    0    0  0.13906726897E+02 -0.19252230233E+02  0.28137853152E+02  0.54367024973E+02  0.39999865032E+02 0.  0.
         12    1    3    3    0    0 -0.13906726897E+02  0.19252230233E+02 -0.28137853152E+02  0.36820975027E+02  0.00000000000E+00 0. -1.
         11    1    4    4    0    0  0.18417305142E+00 -0.10757823212E+02  0.68622160364E+01  0.12761453254E+02  0.51100000000E-03 0. -1.
        -11    1    4    4    0    0  0.12262845311E+02 -0.13392080548E+02 -0.15409870319E+01  0.18223606608E+02  0.51100000000E-03 0.  1.
        -12    1    4    4    0    0  0.14597085341E+01  0.48976735265E+01  0.22816624147E+02  0.23381965111E+02  0.00000000000E+00 0.  1.
</event>
<event>
 8    1  0.1290800E-006  0.9118800E+02  0.7816164E-02  0.1184000E+00
        -11   -1    0    0    0    0  0.00000000000E+00  0.00000000000E+00  0.45593999997E+02  0.45594000000E+02  0.51100000000E-03 0.  1.
         11   -1    0    0    0    0 -0.00000000000E+00 -0.00000000000E+00 -0.45593999997E+02  0.45594000000E+02  0.51100000000E-03 0. -1.
         23    2    1    2    0    0  0.00000000000E+00  0.72164496601E-15  0.88817841970E-15  0.91188000000E+02  0.91188000000E+02 0.  0.
    9900012    2    3    3    0    0 -0.36597320658E+02 -0.13509233156E+00 -0.40488420415E+01  0.54367146517E+02  0.40000142115E+02 0.  0.
        -12    1    3    3    0    0  0.36597320658E+02  0.13509233156E+00  0.40488420415E+01  0.36820853483E+02  0.00000000000E+00 0.  1.
         11    1    4    4    0    0  0.29552909948E+01 -0.28261822291E+01  0.51127691013E+01  0.65468663497E+01  0.51100000000E-03 0. -1.
        -11    1    4    4    0    0 -0.18580159843E+02  0.13019090635E+02 -0.90951537207E+01  0.24442603834E+02  0.51100000000E-03 0.  1.
         12    1    4    4    0    0 -0.20972451810E+02 -0.10328000737E+02 -0.66457422107E-01  0.23377676333E+02  0.00000000000E+00 0. -1.
</event>
<event>
 8    1  0.1290800E-006  0.9118800E+02  0.7816164E-02  0.1184000E+00
        -11   -1    0    0    0    0  0.00000000000E+00  0.00000000000E+00  0.45593999997E+02  0.45594000000E+02  0.51100000000E-03 0. -1.
         11   -1    0    0    0    0 -0.00000000000E+00 -0.00000000000E+00 -0.45593999997E+02  0.45594000000E+02  0.51100000000E-03 0.  1.
         23    2    1    2    0    0  0.00000000000E+00  0.00000000000E+00 -0.88817841970E-15  0.91188000000E+02  0.91188000000E+02 0.  0.
    9900012    2    3    3    0    0  0.17984796611E+02  0.31118101559E+02 -0.79993797943E+01  0.54367092476E+02  0.40000018918E+02 0.  0.
        -12    1    3    3    0    0 -0.17984796611E+02 -0.31118101559E+02  0.79993797943E+01  0.36820907524E+02  0.00000000000E+00 0.  1.
         11    1    4    4    0    0  0.22643189390E+01 -0.48414325967E+01  0.23822463135E+01  0.58516414454E+01  0.51100000000E-03 0. -1.
        -11    1    4    4    0    0  0.18177949992E+02  0.13144018954E+02  0.18559119949E+01  0.22508831817E+02  0.51100000000E-03 0.  1.
        -12    1    4    4    0    0 -0.24574723197E+01  0.22815515202E+02 -0.12237538103E+02  0.26006619214E+02  0.00000000000E+00 0.  1.
</event>
<event>
 8    1  0.1290800E-006  0.9118800E+02  0.7816164E-02  0.1184000E+00
        -11   -1    0    0    0    0  0.00000000000E+00  0.00000000000E+00  0.45593999997E+02  0.45594000000E+02  0.51100000000E-03 0.  1.
         11   -1    0    0    0    0 -0.00000000000E+00 -0.00000000000E+00 -0.45593999997E+02  0.45594000000E+02  0.51100000000E-03 0. -1.
         23    2    1    2    0    0 -0.35527136788E-14  0.00000000000E+00  0.00000000000E+00  0.91188000000E+02  0.91188000000E+02 0.  0.
    9900012    2    3    3    0    0 -0.18516122246E+02  0.22300450185E+02 -0.22707309299E+02  0.54367098910E+02  0.40000033585E+02 0.  0.
        -12    1    3    3    0    0  0.18516122246E+02 -0.22300450185E+02  0.22707309299E+02  0.36820901090E+02  0.00000000000E+00 0.  1.
         11    1    4    4    0    0  0.24097286903E+01  0.51346966844E+00 -0.12428776700E+02  0.12670632738E+02  0.51100000000E-03 0. -1.
        -11    1    4    4    0    0  0.61848529456E+01  0.47572206547E+01  0.73993073525E+00  0.78377963785E+01  0.51100000000E-03 0.  1.
         12    1    4    4    0    0 -0.27110703882E+02  0.17029759862E+02 -0.11018463335E+02  0.33858669793E+02  0.00000000000E+00 0. -1.
</event>
<event>
 8    1  0.1290800E-006  0.9118800E+02  0.7816164E-02  0.1184000E+00
        -11   -1    0    0    0    0  0.00000000000E+00  0.00000000000E+00  0.45593999997E+02  0.45594000000E+02  0.51100000000E-03 0.  1.
         11   -1    0    0    0    0 -0.00000000000E+00 -0.00000000000E+00 -0.45593999997E+02  0.45594000000E+02  0.51100000000E-03 0. -1.
         23    2    1    2    0    0 -0.66613381478E-15  0.00000000000E+00  0.00000000000E+00  0.91188000000E+02  0.91188000000E+02 0.  0.
    9900012    2    3    3    0    0  0.13419774589E+01  0.33769120766E+02  0.14615896034E+02  0.54367097816E+02  0.40000031090E+02 0.  0.
         12    1    3    3    0    0 -0.13419774589E+01 -0.33769120766E+02 -0.14615896034E+02  0.36820902184E+02  0.00000000000E+00 0. -1.
         11    1    4    4    0    0  0.10843257152E+02 -0.51799698893E+00  0.62703985337E+01  0.12536444654E+02  0.51100000000E-03 0. -1.
        -11    1    4    4    0    0  0.15630626103E+01  0.24907494935E+02  0.10667724584E+02  0.27140869859E+02  0.51100000000E-03 0.  1.
        -12    1    4    4    0    0 -0.11064342303E+02  0.93796228197E+01 -0.23222270837E+01  0.14689783302E+02  0.00000000000E+00 0.  1.
</event>
<event>
 8    1  0.1290800E-006  0.9118800E+02  0.7816164E-02  0.1184000E+00
        -11   -1    0    0    0    0  0.00000000000E+00  0.00000000000E+00  0.45593999997E+02  0.45594000000E+02  0.51100000000E-03 0. -1.
         11   -1    0    0    0    0 -0.00000000000E+00 -0.00000000000E+00 -0.45593999997E+02  0.45594000000E+02  0.51100000000E-03 0.  1.
         23    2    1    2    0    0  0.35527136788E-14  0.00000000000E+00  0.00000000000E+00  0.91188000000E+02  0.91188000000E+02 0.  0.
    9900012    2    3    3    0    0 -0.23961277848E+02 -0.10622304611E+02 -0.25861214224E+02  0.54367101145E+02  0.40000038680E+02 0.  0.
         12    1    3    3    0    0  0.23961277848E+02  0.10622304611E+02  0.25861214224E+02  0.36820898855E+02  0.00000000000E+00 0. -1.
         11    1    4    4    0    0 -0.77472271440E+01 -0.79983309625E+01  0.66069213760E+01  0.12947750265E+02  0.51100000000E-03 0. -1.
        -11    1    4    4    0    0  0.83303651283E+00  0.48225747331E+01 -0.15450849523E+02  0.16207403498E+02  0.51100000000E-03 0.  1.
        -12    1    4    4    0    0 -0.17047087216E+02 -0.74465483815E+01 -0.17017286077E+02  0.25211947382E+02  0.00000000000E+00 0.  1.
</event>
<event>
 8    1  0.1290800E-006  0.9118800E+02  0.7816164E-02  0.1184000E+00
        -11   -1    0    0    0    0  0.00000000000E+00  0.00000000000E+00  0.45593999997E+02  0.45594000000E+02  0.51100000000E-03 0. -1.
         11   -1    0    0    0    0 -0.00000000000E+00 -0.00000000000E+00 -0.45593999997E+02  0.45594000000E+02  0.51100000000E-03 0.  1.
         23    2    1    2    0    0  0.00000000000E+00  0.00000000000E+00  0.11102230246E-15  0.91188000000E+02  0.91188000000E+02 0.  0.
    9900012    2    3    3    0    0  0.18065306161E+02  0.32078476077E+02  0.62955297695E+00  0.54367078623E+02  0.39999987336E+02 0.  0.
        -12    1    3    3    0    0 -0.18065306161E+02 -0.32078476077E+02 -0.62955297695E+00  0.36820921377E+02  0.00000000000E+00 0.  1.
         11    1    4    4    0    0 -0.19741425998E+01  0.16370464120E+02  0.11087116183E+02  0.19869913942E+02  0.51100000000E-03 0. -1.
        -11    1    4    4    0    0  0.73914855475E+01  0.16859924171E+02 -0.59757199376E+00  0.18418691435E+02  0.51100000000E-03 0.  1.
        -12    1    4    4    0    0  0.12647963213E+02 -0.11519122139E+01 -0.98599912127E+01  0.16078473246E+02  0.00000000000E+00 0.  1.
</event>
<event>
 8    1  0.1290800E-006  0.9118800E+02  0.7816164E-02  0.1184000E+00
        -11   -1    0    0    0    0  0.00000000000E+00  0.00000000000E+00  0.45593999997E+02  0.45594000000E+02  0.51100000000E-03 0. -1.
         11   -1    0    0    0    0 -0.00000000000E+00 -0.00000000000E+00 -0.45593999997E+02  0.45594000000E+02  0.51100000000E-03 0.  1.
         23    2    1    2    0    0  0.00000000000E+00  0.00000000000E+00  0.00000000000E+00  0.91188000000E+02  0.91188000000E+02 0.  0.
    9900012    2    3    3    0    0 -0.29884965929E+02  0.18723505839E+02  0.10587751424E+02  0.54367063840E+02  0.39999953636E+02 0.  0.
         12    1    3    3    0    0  0.29884965929E+02 -0.18723505839E+02 -0.10587751424E+02  0.36820936160E+02  0.00000000000E+00 0. -1.
         11    1    4    4    0    0 -0.14046968540E+02  0.67651922733E+01 -0.12220215229E+02  0.19809563654E+02  0.51100000000E-03 0. -1.
        -11    1    4    4    0    0 -0.98249220605E+01  0.15157370288E+02  0.11679492252E+02  0.21510125687E+02  0.51100000000E-03 0.  1.
         12    1    4    4    0    0 -0.60130753289E+01 -0.31990567228E+01  0.11128474401E+02  0.13047374499E+02  0.00000000000E+00 0. -1.
</event>
<event>
 8    1  0.1290800E-006  0.9118800E+02  0.7816164E-02  0.1184000E+00
        -11   -1    0    0    0    0  0.00000000000E+00  0.00000000000E+00  0.45593999997E+02  0.45594000000E+02  0.51100000000E-03 0. -1.
         11   -1    0    0    0    0 -0.00000000000E+00 -0.00000000000E+00 -0.45593999997E+02  0.45594000000E+02  0.51100000000E-03 0.  1.
         23    2    1    2    0    0  0.00000000000E+00  0.00000000000E+00  0.35527136788E-14  0.91188000000E+02  0.91188000000E+02 0.  0.
    9900012    2    3    3    0    0  0.17352571613E+02 -0.11805639557E+02  0.30253844628E+02  0.54367082280E+02  0.39999995675E+02 0.  0.
        -12    1    3    3    0    0 -0.17352571613E+02  0.11805639557E+02 -0.30253844628E+02  0.36820917720E+02  0.00000000000E+00 0.  1.
         11    1    4    4    0    0  0.27605324992E+02 -0.12569780389E+02  0.14067893861E+02  0.33435893661E+02  0.51100000000E-03 0. -1.
        -11    1    4    4    0    0 -0.58271039402E+01 -0.17338956425E+01  0.29588088081E+01  0.67613670403E+01  0.51100000000E-03 0.  1.
        -12    1    4    4    0    0 -0.44256494388E+01  0.24980364751E+01  0.13227141959E+02  0.14169821579E+02  0.00000000000E+00 0.  1.
</event>
<event>
 8    1  0.1290800E-006  0.9118800E+02  0.7816164E-02  0.1184000E+00
        -11   -1    0    0    0    0  0.00000000000E+00  0.00000000000E+00  0.45593999997E+02  0.45594000000E+02  0.51100000000E-03 0. -1.
         11   -1    0    0    0    0 -0.00000000000E+00 -0.00000000000E+00 -0.45593999997E+02  0.45594000000E+02  0.51100000000E-03 0.  1.
         23    2    1    2    0    0 -0.35527136788E-14  0.00000000000E+00 -0.17763568394E-14  0.91188000000E+02  0.91188000000E+02 0.  0.
    9900012    2    3    3    0    0  0.27046317759E+02  0.23048517346E+02  0.96459723289E+01  0.54367051637E+02  0.39999925816E+02 0.  0.
        -12    1    3    3    0    0 -0.27046317759E+02 -0.23048517346E+02 -0.96459723289E+01  0.36820948363E+02  0.00000000000E+00 0.  1.
         11    1    4    4    0    0  0.49066039472E+01 -0.19947024146E+00 -0.22717685729E+01  0.54106823398E+01  0.51100000000E-03 0. -1.
        -11    1    4    4    0    0  0.16460042073E+02 -0.30520694258E+01  0.14201981583E+02  0.21953231971E+02  0.51100000000E-03 0.  1.
         12    1    4    4    0    0  0.56796717392E+01  0.26300057013E+02 -0.22842406810E+01  0.27003137326E+02  0.00000000000E+00 0. -1.
</event>
<event>
 8    1  0.1290800E-006  0.9118800E+02  0.7816164E-02  0.1184000E+00
        -11   -1    0    0    0    0  0.00000000000E+00  0.00000000000E+00  0.45593999997E+02  0.45594000000E+02  0.51100000000E-03 0. -1.
         11   -1    0    0    0    0 -0.00000000000E+00 -0.00000000000E+00 -0.45593999997E+02  0.45594000000E+02  0.51100000000E-03 0.  1.
         23    2    1    2    0    0  0.00000000000E+00 -0.35527136788E-14  0.00000000000E+00  0.91188000000E+02  0.91188000000E+02 0.  0.
    9900012    2    3    3    0    0 -0.28952125489E+02  0.21219941617E+02 -0.82015990918E+01  0.54367112990E+02  0.40000065684E+02 0.  0.
         12    1    3    3    0    0  0.28952125489E+02 -0.21219941617E+02  0.82015990918E+01  0.36820887010E+02  0.00000000000E+00 0. -1.
         11    1    4    4    0    0 -0.12115090269E+02  0.14832825300E+02 -0.58720961679E+01  0.20031715660E+02  0.51100000000E-03 0. -1.
        -11    1    4    4    0    0 -0.21161281182E+02  0.57348111918E+00 -0.10318670776E+02  0.23550024814E+02  0.51100000000E-03 0.  1.
         12    1    4    4    0    0  0.43242459627E+01  0.58136351976E+01  0.79891678523E+01  0.10785372517E+02  0.00000000000E+00 0. -1.
</event>
<event>
 8    1  0.1290800E-006  0.9118800E+02  0.7816164E-02  0.1184000E+00
        -11   -1    0    0    0    0  0.00000000000E+00  0.00000000000E+00  0.45593999997E+02  0.45594000000E+02  0.51100000000E-03 0. -1.
         11   -1    0    0    0    0 -0.00000000000E+00 -0.00000000000E+00 -0.45593999997E+02  0.45594000000E+02  0.51100000000E-03 0.  1.
         23    2    1    2    0    0 -0.53290705182E-14 -0.71054273576E-14 -0.71054273576E-14  0.91188000000E+02  0.91188000000E+02 0.  0.
    9900012    2    3    3    0    0  0.15066935631E+02  0.23698118314E+02  0.23815286547E+02  0.54367065272E+02  0.39999956901E+02 0.  0.
        -12    1    3    3    0    0 -0.15066935631E+02 -0.23698118314E+02 -0.23815286547E+02  0.36820934728E+02  0.00000000000E+00 0.  1.
         11    1    4    4    0    0  0.11734600036E+02  0.19807125410E+02  0.13771284432E+02  0.26826690630E+02  0.51100000000E-03 0. -1.
        -11    1    4    4    0    0 -0.67906843966E+01  0.10833294673E+02  0.22007283983E+01  0.12973699310E+02  0.51100000000E-03 0.  1.
        -12    1    4    4    0    0  0.10123019992E+02 -0.69423017694E+01  0.78432737163E+01  0.14566675331E+02  0.00000000000E+00 0.  1.
</event>
<event>
 8    1  0.1290800E-006  0.9118800E+02  0.7816164E-02  0.1184000E+00
        -11   -1    0    0    0    0  0.00000000000E+00  0.00000000000E+00  0.45593999997E+02  0.45594000000E+02  0.51100000000E-03 0.  1.
         11   -1    0    0    0    0 -0.00000000000E+00 -0.00000000000E+00 -0.45593999997E+02  0.45594000000E+02  0.51100000000E-03 0. -1.
         23    2    1    2    0    0  0.00000000000E+00  0.00000000000E+00  0.22204460493E-14  0.91188000000E+02  0.91188000000E+02 0.  0.
    9900012    2    3    3    0    0 -0.36336964332E+02  0.52222524357E+01 -0.28516092642E+01  0.54367101413E+02  0.40000039292E+02 0.  0.
         12    1    3    3    0    0  0.36336964332E+02 -0.52222524357E+01  0.28516092642E+01  0.36820898587E+02  0.00000000000E+00 0. -1.
         11    1    4    4    0    0 -0.19777827703E+02 -0.74545324938E+01 -0.23579977621E+01  0.21267173697E+02  0.51100000000E-03 0. -1.
        -11    1    4    4    0    0 -0.33490361772E+01  0.63074194060E+01  0.11913686382E+02  0.13890122618E+02  0.51100000000E-03 0.  1.
        -12    1    4    4    0    0 -0.13210100452E+02  0.63693655235E+01 -0.12407297884E+02  0.19209805098E+02  0.00000000000E+00 0.  1.
</event>
<event>
 8    1  0.1290800E-006  0.9118800E+02  0.7816164E-02  0.1184000E+00
        -11   -1    0    0    0    0  0.00000000000E+00  0.00000000000E+00  0.45593999997E+02  0.45594000000E+02  0.51100000000E-03 0. -1.
         11   -1    0    0    0    0 -0.00000000000E+00 -0.00000000000E+00 -0.45593999997E+02  0.45594000000E+02  0.51100000000E-03 0.  1.
         23    2    1    2    0    0  0.00000000000E+00  0.00000000000E+00  0.17763568394E-14  0.91188000000E+02  0.91188000000E+02 0.  0.
    9900012    2    3    3    0    0 -0.33968854228E+02  0.78225520506E+01  0.11861924424E+02  0.54367073489E+02  0.39999975632E+02 0.  0.
         12    1    3    3    0    0  0.33968854228E+02 -0.78225520506E+01 -0.11861924424E+02  0.36820926511E+02  0.00000000000E+00 0. -1.
         11    1    4    4    0    0  0.56577857470E+01 -0.12216769278E+01 -0.24642482726E+01  0.62909104179E+01  0.51100000000E-03 0. -1.
        -11    1    4    4    0    0 -0.33880051203E+02  0.10620881790E+02  0.19211985022E+02  0.40370303049E+02  0.51100000000E-03 0.  1.
        -12    1    4    4    0    0 -0.57465887720E+01 -0.15766528118E+01 -0.48858123253E+01  0.77058600222E+01  0.00000000000E+00 0.  1.
</event>
<event>
 8    1  0.1290800E-006  0.9118800E+02  0.7816164E-02  0.1184000E+00
        -11   -1    0    0    0    0  0.00000000000E+00  0.00000000000E+00  0.45593999997E+02  0.45594000000E+02  0.51100000000E-03 0.  1.
         11   -1    0    0    0    0 -0.00000000000E+00 -0.00000000000E+00 -0.45593999997E+02  0.45594000000E+02  0.51100000000E-03 0. -1.
         23    2    1    2    0    0  0.00000000000E+00  0.00000000000E+00  0.00000000000E+00  0.91188000000E+02  0.91188000000E+02 0.  0.
    9900012    2    3    3    0    0  0.32267035852E+02  0.78161036747E+01  0.15922511147E+02  0.54367089629E+02  0.40000012428E+02 0.  0.
        -12    1    3    3    0    0 -0.32267035852E+02 -0.78161036747E+01 -0.15922511147E+02  0.36820910371E+02  0.00000000000E+00 0.  1.
         11    1    4    4    0    0  0.64152202616E+01  0.29427500579E+01 -0.38649143414E+01  0.80468871022E+01  0.51100000000E-03 0. -1.
        -11    1    4    4    0    0  0.94704449246E+01 -0.81736833792E+01  0.21952112515E+02  0.25266453474E+02  0.51100000000E-03 0.  1.
        -12    1    4    4    0    0  0.16381370665E+02  0.13047036996E+02 -0.21646870260E+01  0.21053749053E+02  0.00000000000E+00 0.  1.
</event>
<event>
 8    1  0.1290800E-006  0.9118800E+02  0.7816164E-02  0.1184000E+00
        -11   -1    0    0    0    0  0.00000000000E+00  0.00000000000E+00  0.45593999997E+02  0.45594000000E+02  0.51100000000E-03 0.  1.
         11   -1    0    0    0    0 -0.00000000000E+00 -0.00000000000E+00 -0.45593999997E+02  0.45594000000E+02  0.51100000000E-03 0. -1.
         23    2    1    2    0    0  0.00000000000E+00  0.00000000000E+00 -0.35527136788E-14  0.91188000000E+02  0.91188000000E+02 0.  0.
    9900012    2    3    3    0    0 -0.20516909106E+02  0.10158518018E+02 -0.28838203035E+02  0.54367068428E+02  0.39999964095E+02 0.  0.
        -12    1    3    3    0    0  0.20516909106E+02 -0.10158518018E+02  0.28838203035E+02  0.36820931572E+02  0.00000000000E+00 0.  1.
         11    1    4    4    0    0 -0.10118827609E+02 -0.84194358500E+01 -0.28397659673E+02  0.31300233982E+02  0.51100000000E-03 0. -1.
        -11    1    4    4    0    0 -0.25418003552E+01  0.99731555696E+01 -0.37505299676E+01  0.10954042923E+02  0.51100000000E-03 0.  1.
         12    1    4    4    0    0 -0.78562811416E+01  0.86047982985E+01  0.33099866056E+01  0.12112791522E+02  0.00000000000E+00 0. -1.
</event>
<event>
 8    1  0.1290800E-006  0.9118800E+02  0.7816164E-02  0.1184000E+00
        -11   -1    0    0    0    0  0.00000000000E+00  0.00000000000E+00  0.45593999997E+02  0.45594000000E+02  0.51100000000E-03 0. -1.
         11   -1    0    0    0    0 -0.00000000000E+00 -0.00000000000E+00 -0.45593999997E+02  0.45594000000E+02  0.51100000000E-03 0.  1.
         23    2    1    2    0    0  0.00000000000E+00  0.00000000000E+00  0.00000000000E+00  0.91188000000E+02  0.91188000000E+02 0.  0.
    9900012    2    3    3    0    0 -0.26822469923E+02  0.17705372362E+02 -0.17968164564E+02  0.54367081475E+02  0.39999993839E+02 0.  0.
         12    1    3    3    0    0  0.26822469923E+02 -0.17705372362E+02  0.17968164564E+02  0.36820918525E+02  0.00000000000E+00 0. -1.
         11    1    4    4    0    0 -0.15024736948E+02  0.56454311779E+01  0.10410219423E+02  0.19130767947E+02  0.51100000000E-03 0. -1.
        -11    1    4    4    0    0 -0.38209642430E+01  0.42933994995E+01 -0.21257106816E+02  0.22020391401E+02  0.51100000000E-03 0.  1.
         12    1    4    4    0    0 -0.79767687312E+01  0.77665416845E+01 -0.71212771710E+01  0.13215922127E+02  0.00000000000E+00 0. -1.
</event>
<event>
 8    1  0.1290800E-006  0.9118800E+02  0.7816164E-02  0.1184000E+00
        -11   -1    0    0    0    0  0.00000000000E+00  0.00000000000E+00  0.45593999997E+02  0.45594000000E+02  0.51100000000E-03 0.  1.
         11   -1    0    0    0    0 -0.00000000000E+00 -0.00000000000E+00 -0.45593999997E+02  0.45594000000E+02  0.51100000000E-03 0. -1.
         23    2    1    2    0    0  0.35527136788E-14  0.35527136788E-14  0.88817841970E-15  0.91188000000E+02  0.91188000000E+02 0.  0.
    9900012    2    3    3    0    0 -0.24455349735E+02  0.27446395912E+02 -0.21001018532E+01  0.54367092800E+02  0.40000019656E+02 0.  0.
        -12    1    3    3    0    0  0.24455349735E+02 -0.27446395912E+02  0.21001018532E+01  0.36820907200E+02  0.00000000000E+00 0.  1.
         11    1    4    4    0    0 -0.98053202194E+01  0.97266953911E+01 -0.14116797398E+02  0.19749351303E+02  0.51100000000E-03 0. -1.
        -11    1    4    4    0    0 -0.10084157184E+02  0.22964252458E+02  0.69872613646E+01  0.26035916322E+02  0.51100000000E-03 0.  1.
         12    1    4    4    0    0 -0.45658723316E+01 -0.52445519370E+01  0.50294341804E+01  0.85818251755E+01  0.00000000000E+00 0. -1.
</event>
<event>
 8    1  0.1290800E-006  0.9118800E+02  0.7816164E-02  0.1184000E+00
        -11   -1    0    0    0    0  0.00000000000E+00  0.00000000000E+00  0.45593999997E+02  0.45594000000E+02  0.51100000000E-03 0.  1.
         11   -1    0    0    0    0 -0.00000000000E+00 -0.00000000000E+00 -0.45593999997E+02  0.45594000000E+02  0.51100000000E-03 0. -1.
         23    2    1    2    0    0  0.00000000000E+00  0.00000000000E+00 -0.17763568394E-14  0.91188000000E+02  0.91188000000E+02 0.  0.
    9900012    2    3    3    0    0 -0.16228304216E+02  0.31426924028E+02 -0.10235746095E+02  0.54367083258E+02  0.39999997903E+02 0.  0.
         12    1    3    3    0    0  0.16228304216E+02 -0.31426924028E+02  0.10235746095E+02  0.36820916742E+02  0.00000000000E+00 0. -1.
         11    1    4    4    0    0 -0.15952510030E+02  0.11240896712E+02  0.64366886363E+01  0.20549240765E+02  0.51100000000E-03 0. -1.
        -11    1    4    4    0    0 -0.81805935925E+01  0.11171937608E+02 -0.72418306569E+00  0.13865739894E+02  0.51100000000E-03 0.  1.
         12    1    4    4    0    0  0.79047994060E+01  0.90140897080E+01 -0.15948251666E+02  0.19952102599E+02  0.00000000000E+00 0. -1.
</event>
<event>
 8    1  0.1290800E-006  0.9118800E+02  0.7816164E-02  0.1184000E+00
        -11   -1    0    0    0    0  0.00000000000E+00  0.00000000000E+00  0.45593999997E+02  0.45594000000E+02  0.51100000000E-03 0.  1.
         11   -1    0    0    0    0 -0.00000000000E+00 -0.00000000000E+00 -0.45593999997E+02  0.45594000000E+02  0.51100000000E-03 0. -1.
         23    2    1    2    0    0 -0.35527136788E-14  0.00000000000E+00  0.00000000000E+00  0.91188000000E+02  0.91188000000E+02 0.  0.
    9900012    2    3    3    0    0 -0.13398544759E+02 -0.17347149717E+02 -0.29586076926E+02  0.54367074525E+02  0.39999977995E+02 0.  0.
        -12    1    3    3    0    0  0.13398544759E+02  0.17347149717E+02  0.29586076926E+02  0.36820925475E+02  0.00000000000E+00 0.  1.
         11    1    4    4    0    0 -0.13096477900E+01  0.70047571298E+01 -0.20842498379E+01  0.74246816383E+01  0.51100000000E-03 0. -1.
        -11    1    4    4    0    0  0.79126355904E+01 -0.41870319203E+01 -0.30280491373E+01  0.94504031727E+01  0.51100000000E-03 0.  1.
         12    1    4    4    0    0 -0.20001532559E+02 -0.20164874927E+02 -0.24473777951E+02  0.37491989714E+02  0.00000000000E+00 0. -1.
</event>
<event>
 8    1  0.1290800E-006  0.9118800E+02  0.7816164E-02  0.1184000E+00
        -11   -1    0    0    0    0  0.00000000000E+00  0.00000000000E+00  0.45593999997E+02  0.45594000000E+02  0.51100000000E-03 0.  1.
         11   -1    0    0    0    0 -0.00000000000E+00 -0.00000000000E+00 -0.45593999997E+02  0.45594000000E+02  0.51100000000E-03 0. -1.
         23    2    1    2    0    0 -0.88817841970E-15  0.00000000000E+00  0.00000000000E+00  0.91188000000E+02  0.91188000000E+02 0.  0.
    9900012    2    3    3    0    0  0.74803876662E+01  0.20991996754E+02  0.29311335013E+02  0.54367156886E+02  0.40000165753E+02 0.  0.
        -12    1    3    3    0    0 -0.74803876662E+01 -0.20991996754E+02 -0.29311335013E+02  0.36820843114E+02  0.00000000000E+00 0.  1.
         11    1    4    4    0    0 -0.34983134090E+01 -0.81899274291E+00  0.97518385883E+01  0.10392656154E+02  0.51100000000E-03 0. -1.
        -11    1    4    4    0    0 -0.49780076504E+01 -0.51013101126E+01  0.77588941460E+01  0.10535860841E+02  0.51100000000E-03 0.  1.
        -12    1    4    4    0    0  0.15956708726E+02  0.26912299610E+02  0.11800602279E+02  0.33438639891E+02  0.00000000000E+00 0.  1.
</event>
<event>
 8    1  0.1290800E-006  0.9118800E+02  0.7816164E-02  0.1184000E+00
        -11   -1    0    0    0    0  0.00000000000E+00  0.00000000000E+00  0.45593999997E+02  0.45594000000E+02  0.51100000000E-03 0.  1.
         11   -1    0    0    0    0 -0.00000000000E+00 -0.00000000000E+00 -0.45593999997E+02  0.45594000000E+02  0.51100000000E-03 0. -1.
         23    2    1    2    0    0 -0.88817841970E-15  0.88817841970E-15  0.00000000000E+00  0.91188000000E+02  0.91188000000E+02 0.  0.
    9900012    2    3    3    0    0  0.60721038747E+01 -0.33442919295E+01  0.36162524594E+02  0.54367042394E+02  0.39999904746E+02 0.  0.
         12    1    3    3    0    0 -0.60721038747E+01  0.33442919295E+01 -0.36162524594E+02  0.36820957606E+02  0.00000000000E+00 0. -1.
         11    1    4    4    0    0 -0.13926404688E+02  0.37432798391E+01  0.93732899863E+01  0.17199286524E+02  0.51100000000E-03 0. -1.
        -11    1    4    4    0    0 -0.49483960720E+00 -0.19931859974E+01 -0.98474740177E+00  0.22775830091E+01  0.51100000000E-03 0.  1.
        -12    1    4    4    0    0  0.20493348170E+02 -0.50943857713E+01  0.27773982010E+02  0.34890172861E+02  0.00000000000E+00 0.  1.
</event>
<event>
 8    1  0.1290800E-006  0.9118800E+02  0.7816164E-02  0.1184000E+00
        -11   -1    0    0    0    0  0.00000000000E+00  0.00000000000E+00  0.45593999997E+02  0.45594000000E+02  0.51100000000E-03 0.  1.
         11   -1    0    0    0    0 -0.00000000000E+00 -0.00000000000E+00 -0.45593999997E+02  0.45594000000E+02  0.51100000000E-03 0. -1.
         23    2    1    2    0    0  0.44408920985E-15  0.00000000000E+00  0.00000000000E+00  0.91188000000E+02  0.91188000000E+02 0.  0.
    9900012    2    3    3    0    0  0.37754575121E+01  0.50683698310E+01 -0.36274468420E+02  0.54367088668E+02  0.40000010236E+02 0.  0.
        -12    1    3    3    0    0 -0.37754575121E+01 -0.50683698310E+01  0.36274468420E+02  0.36820911332E+02  0.00000000000E+00 0.  1.
         11    1    4    4    0    0  0.37575788574E+00 -0.37536671036E+01 -0.63285447636E+01  0.73676108610E+01  0.51100000000E-03 0. -1.
        -11    1    4    4    0    0 -0.96229592798E+01 -0.96231252639E+01 -0.12285305316E+02  0.18333974258E+02  0.51100000000E-03 0.  1.
         12    1    4    4    0    0  0.13022658906E+02  0.18445162198E+02 -0.17660618341E+02  0.28665503548E+02  0.00000000000E+00 0. -1.
</event>
<event>
 8    1  0.1290800E-006  0.9118800E+02  0.7816164E-02  0.1184000E+00
        -11   -1    0    0    0    0  0.00000000000E+00  0.00000000000E+00  0.45593999997E+02  0.45594000000E+02  0.51100000000E-03 0.  1.
         11   -1    0    0    0    0 -0.00000000000E+00 -0.00000000000E+00 -0.45593999997E+02  0.45594000000E+02  0.51100000000E-03 0. -1.
         23    2    1    2    0    0  0.00000000000E+00 -0.17763568394E-14  0.35527136788E-14  0.91188000000E+02  0.91188000000E+02 0.  0.
    9900012    2    3    3    0    0 -0.19453244244E+02 -0.14251751051E+02  0.27825146797E+02  0.54367083201E+02  0.39999997774E+02 0.  0.
         12    1    3    3    0    0  0.19453244244E+02  0.14251751051E+02 -0.27825146797E+02  0.36820916799E+02  0.00000000000E+00 0. -1.
         11    1    4    4    0    0  0.66844435099E+01  0.36750305805E+01  0.30214268801E+01  0.82046727818E+01  0.51100000000E-03 0. -1.
        -11    1    4    4    0    0 -0.21481672172E+02 -0.19910300719E+02  0.27715127037E+02  0.40323821507E+02  0.51100000000E-03 0.  1.
         12    1    4    4    0    0 -0.46560155820E+01  0.19835190872E+01 -0.29114071202E+01  0.58385889125E+01  0.00000000000E+00 0. -1.
</event>
<event>
 8    1  0.1290800E-006  0.9118800E+02  0.7816164E-02  0.1184000E+00
        -11   -1    0    0    0    0  0.00000000000E+00  0.00000000000E+00  0.45593999997E+02  0.45594000000E+02  0.51100000000E-03 0. -1.
         11   -1    0    0    0    0 -0.00000000000E+00 -0.00000000000E+00 -0.45593999997E+02  0.45594000000E+02  0.51100000000E-03 0.  1.
         23    2    1    2    0    0 -0.13322676296E-14 -0.35527136788E-14  0.00000000000E+00  0.91188000000E+02  0.91188000000E+02 0.  0.
    9900012    2    3    3    0    0  0.29359964526E+01 -0.22454385465E+02  0.29033778883E+02  0.54367084504E+02  0.40000000743E+02 0.  0.
        -12    1    3    3    0    0 -0.29359964526E+01  0.22454385465E+02 -0.29033778883E+02  0.36820915496E+02  0.00000000000E+00 0.  1.
         11    1    4    4    0    0  0.15455396762E+01  0.32498716796E+01  0.51001759300E+01  0.62419671260E+01  0.51100000000E-03 0. -1.
        -11    1    4    4    0    0 -0.13008976706E+02 -0.86704002900E+00  0.71481358126E+01  0.14868795486E+02  0.51100000000E-03 0.  1.
        -12    1    4    4    0    0  0.14399433483E+02 -0.24837217115E+02  0.16785467140E+02  0.33256321892E+02  0.00000000000E+00 0.  1.
</event>
<event>
 8    1  0.1290800E-006  0.9118800E+02  0.7816164E-02  0.1184000E+00
        -11   -1    0    0    0    0  0.00000000000E+00  0.00000000000E+00  0.45593999997E+02  0.45594000000E+02  0.51100000000E-03 0.  1.
         11   -1    0    0    0    0 -0.00000000000E+00 -0.00000000000E+00 -0.45593999997E+02  0.45594000000E+02  0.51100000000E-03 0. -1.
         23    2    1    2    0    0 -0.17763568394E-14  0.00000000000E+00  0.00000000000E+00  0.91188000000E+02  0.91188000000E+02 0.  0.
    9900012    2    3    3    0    0  0.13491590918E+02  0.83581875576E+01  0.33224910104E+02  0.54367123093E+02  0.40000088715E+02 0.  0.
         12    1    3    3    0    0 -0.13491590918E+02 -0.83581875576E+01 -0.33224910104E+02  0.36820876907E+02  0.00000000000E+00 0. -1.
         11    1    4    4    0    0 -0.85835664875E+01  0.18746918341E+01  0.24783011116E+02  0.26294290699E+02  0.51100000000E-03 0. -1.
        -11    1    4    4    0    0  0.21641691508E+02  0.45710854370E+01  0.30413246374E+01  0.22327276798E+02  0.51100000000E-03 0.  1.
        -12    1    4    4    0    0  0.43346589745E+00  0.19124102866E+01  0.54005743509E+01  0.57455555961E+01  0.00000000000E+00 0.  1.
</event>
<event>
 8    1  0.1290800E-006  0.9118800E+02  0.7816164E-02  0.1184000E+00
        -11   -1    0    0    0    0  0.00000000000E+00  0.00000000000E+00  0.45593999997E+02  0.45594000000E+02  0.51100000000E-03 0. -1.
         11   -1    0    0    0    0 -0.00000000000E+00 -0.00000000000E+00 -0.45593999997E+02  0.45594000000E+02  0.51100000000E-03 0.  1.
         23    2    1    2    0    0  0.00000000000E+00  0.00000000000E+00  0.00000000000E+00  0.91188000000E+02  0.91188000000E+02 0.  0.
    9900012    2    3    3    0    0 -0.30596443267E+02 -0.13263727328E+02 -0.15611866690E+02  0.54366821519E+02  0.39999401213E+02 0.  0.
         12    1    3    3    0    0  0.30596443267E+02  0.13263727328E+02  0.15611866690E+02  0.36821178481E+02  0.00000000000E+00 0. -1.
         11    1    4    4    0    0 -0.25400619866E+02 -0.16735733036E+02 -0.77500026454E+01  0.31390106579E+02  0.51100000000E-03 0. -1.
        -11    1    4    4    0    0 -0.11289793393E+02  0.76880242995E+01 -0.26406043133E+01  0.13911791541E+02  0.51100000000E-03 0.  1.
         12    1    4    4    0    0  0.60939699925E+01 -0.42160185916E+01 -0.52212597311E+01  0.90649233981E+01  0.00000000000E+00 0. -1.
</event>
<event>
 8    1  0.1290800E-006  0.9118800E+02  0.7816164E-02  0.1184000E+00
        -11   -1    0    0    0    0  0.00000000000E+00  0.00000000000E+00  0.45593999997E+02  0.45594000000E+02  0.51100000000E-03 0.  1.
         11   -1    0    0    0    0 -0.00000000000E+00 -0.00000000000E+00 -0.45593999997E+02  0.45594000000E+02  0.51100000000E-03 0. -1.
         23    2    1    2    0    0  0.00000000000E+00  0.00000000000E+00  0.00000000000E+00  0.91188000000E+02  0.91188000000E+02 0.  0.
    9900012    2    3    3    0    0 -0.10722923295E+02 -0.10097299841E+02 -0.33746742895E+02  0.54367092840E+02  0.40000019747E+02 0.  0.
        -12    1    3    3    0    0  0.10722923295E+02  0.10097299841E+02  0.33746742895E+02  0.36820907160E+02  0.00000000000E+00 0.  1.
         11    1    4    4    0    0  0.31867293035E+01 -0.14143765430E+02 -0.11752288448E+02  0.18663269494E+02  0.51100000000E-03 0. -1.
        -11    1    4    4    0    0 -0.12602709719E+02  0.13150248766E+02 -0.18218306984E+02  0.25761677828E+02  0.51100000000E-03 0.  1.
        -12    1    4    4    0    0 -0.13069428798E+01 -0.91037831778E+01 -0.37761474625E+01  0.99421455179E+01  0.00000000000E+00 0.  1.
</event>
<event>
 8    1  0.1290800E-006  0.9118800E+02  0.7816164E-02  0.1184000E+00
        -11   -1    0    0    0    0  0.00000000000E+00  0.00000000000E+00  0.45593999997E+02  0.45594000000E+02  0.51100000000E-03 0. -1.
         11   -1    0    0    0    0 -0.00000000000E+00 -0.00000000000E+00 -0.45593999997E+02  0.45594000000E+02  0.51100000000E-03 0.  1.
         23    2    1    2    0    0 -0.35527136788E-14  0.17763568394E-14  0.35527136788E-14  0.91188000000E+02  0.91188000000E+02 0.  0.
    9900012    2    3    3    0    0 -0.28914175120E+02  0.73652879195E+01 -0.21575509560E+02  0.54367087440E+02  0.40000007437E+02 0.  0.
         12    1    3    3    0    0  0.28914175120E+02 -0.73652879195E+01  0.21575509560E+02  0.36820912560E+02  0.00000000000E+00 0. -1.
         11    1    4    4    0    0 -0.76675338418E+01 -0.22818952852E+01  0.57226071491E+01  0.98359724558E+01  0.51100000000E-03 0.  1.
        -11    1    4    4    0    0 -0.55726732317E+01  0.11214144291E+02  0.55232043332E+00  0.12534623140E+02  0.51100000000E-03 0. -1.
        -12    1    4    4    0    0 -0.15673968046E+02 -0.15669610867E+01 -0.27850437142E+02  0.31996491845E+02  0.00000000000E+00 0.  1.
</event>
<event>
 8    1  0.1290800E-006  0.9118800E+02  0.7816164E-02  0.1184000E+00
        -11   -1    0    0    0    0  0.00000000000E+00  0.00000000000E+00  0.45593999997E+02  0.45594000000E+02  0.51100000000E-03 0.  1.
         11   -1    0    0    0    0 -0.00000000000E+00 -0.00000000000E+00 -0.45593999997E+02  0.45594000000E+02  0.51100000000E-03 0. -1.
         23    2    1    2    0    0  0.00000000000E+00  0.00000000000E+00 -0.35527136788E-14  0.91188000000E+02  0.91188000000E+02 0.  0.
    9900012    2    3    3    0    0 -0.20320591893E+02 -0.22435268995E+02  0.20964532138E+02  0.54367090756E+02  0.40000014997E+02 0.  0.
         12    1    3    3    0    0  0.20320591893E+02  0.22435268995E+02 -0.20964532138E+02  0.36820909244E+02  0.00000000000E+00 0. -1.
         11    1    4    4    0    0 -0.41162486227E+01 -0.12227696511E+02  0.32225645678E+01  0.13298307687E+02  0.51100000000E-03 0. -1.
        -11    1    4    4    0    0 -0.16913376724E+02 -0.17750591482E+02  0.32723331820E+01  0.24735682220E+02  0.51100000000E-03 0.  1.
        -12    1    4    4    0    0  0.70903345308E+00  0.75430189975E+01  0.14469634388E+02  0.16333100849E+02  0.00000000000E+00 0.  1.
</event>
<event>
 8    1  0.1290800E-006  0.9118800E+02  0.7816164E-02  0.1184000E+00
        -11   -1    0    0    0    0  0.00000000000E+00  0.00000000000E+00  0.45593999997E+02  0.45594000000E+02  0.51100000000E-03 0. -1.
         11   -1    0    0    0    0 -0.00000000000E+00 -0.00000000000E+00 -0.45593999997E+02  0.45594000000E+02  0.51100000000E-03 0.  1.
         23    2    1    2    0    0 -0.11102230246E-15  0.00000000000E+00  0.00000000000E+00  0.91188000000E+02  0.91188000000E+02 0.  0.
    9900012    2    3    3    0    0 -0.60041563690E+00 -0.25904009546E+02  0.26161194872E+02  0.54366996121E+02  0.39999799257E+02 0.  0.
         12    1    3    3    0    0  0.60041563690E+00  0.25904009546E+02 -0.26161194872E+02  0.36821003879E+02  0.00000000000E+00 0. -1.
         11    1    4    4    0    0  0.35783829250E+00 -0.17891148646E+02  0.29721321827E+02  0.34692624858E+02  0.51100000000E-03 0. -1.
        -11    1    4    4    0    0 -0.77424358369E+01 -0.95451546160E+01 -0.12889310375E+01  0.12357857129E+02  0.51100000000E-03 0.  1.
         12    1    4    4    0    0  0.67841819075E+01  0.15322937158E+01 -0.22711959173E+01  0.73165141345E+01  0.00000000000E+00 0. -1.
</event>
<event>
 8    1  0.1290800E-006  0.9118800E+02  0.7816164E-02  0.1184000E+00
        -11   -1    0    0    0    0  0.00000000000E+00  0.00000000000E+00  0.45593999997E+02  0.45594000000E+02  0.51100000000E-03 0.  1.
         11   -1    0    0    0    0 -0.00000000000E+00 -0.00000000000E+00 -0.45593999997E+02  0.45594000000E+02  0.51100000000E-03 0. -1.
         23    2    1    2    0    0  0.00000000000E+00 -0.17763568394E-14  0.00000000000E+00  0.91188000000E+02  0.91188000000E+02 0.  0.
    9900012    2    3    3    0    0 -0.31432953873E+02 -0.94525036990E+01  0.16685293944E+02  0.54367089510E+02  0.40000012156E+02 0.  0.
         12    1    3    3    0    0  0.31432953873E+02  0.94525036990E+01 -0.16685293944E+02  0.36820910490E+02  0.00000000000E+00 0. -1.
         11    1    4    4    0    0  0.60916325527E+00 -0.47800522357E+01  0.80128477763E+00  0.48848783817E+01  0.51100000000E-03 0. -1.
        -11    1    4    4    0    0 -0.14061880832E+01  0.76496519588E+01  0.14473512425E+02  0.16430979953E+02  0.51100000000E-03 0.  1.
        -12    1    4    4    0    0 -0.30635929045E+02 -0.12322103422E+02  0.14104967408E+01  0.33051231176E+02  0.00000000000E+00 0.  1.
</event>
<event>
 8    1  0.1290800E-006  0.9118800E+02  0.7816164E-02  0.1184000E+00
        -11   -1    0    0    0    0  0.00000000000E+00  0.00000000000E+00  0.45593999997E+02  0.45594000000E+02  0.51100000000E-03 0.  1.
         11   -1    0    0    0    0 -0.00000000000E+00 -0.00000000000E+00 -0.45593999997E+02  0.45594000000E+02  0.51100000000E-03 0. -1.
         23    2    1    2    0    0  0.00000000000E+00  0.17763568394E-14 -0.17763568394E-14  0.91188000000E+02  0.91188000000E+02 0.  0.
    9900012    2    3    3    0    0 -0.32967288522E+02  0.14049669495E+02 -0.84587722625E+01  0.54366998471E+02  0.39999804614E+02 0.  0.
        -12    1    3    3    0    0  0.32967288522E+02 -0.14049669495E+02  0.84587722625E+01  0.36821001529E+02  0.00000000000E+00 0.  1.
         11    1    4    4    0    0 -0.20397752351E+02  0.80036908045E+01 -0.15785118302E+02  0.27005505504E+02  0.51100000000E-03 0. -1.
        -11    1    4    4    0    0  0.64692509835E+01  0.13747476245E+01  0.31159749086E+01  0.73109807284E+01  0.51100000000E-03 0.  1.
        -12    1    4    4    0    0 -0.19038787154E+02  0.46712310664E+01  0.42103711308E+01  0.20050512238E+02  0.00000000000E+00 0.  1.
</event>
<event>
 8    1  0.1290800E-006  0.9118800E+02  0.7816164E-02  0.1184000E+00
        -11   -1    0    0    0    0  0.00000000000E+00  0.00000000000E+00  0.45593999997E+02  0.45594000000E+02  0.51100000000E-03 0.  1.
         11   -1    0    0    0    0 -0.00000000000E+00 -0.00000000000E+00 -0.45593999997E+02  0.45594000000E+02  0.51100000000E-03 0. -1.
         23    2    1    2    0    0 -0.17763568394E-14  0.00000000000E+00  0.00000000000E+00  0.91188000000E+02  0.91188000000E+02 0.  0.
    9900012    2    3    3    0    0 -0.14802294743E+02  0.12339782303E+02  0.31375144163E+02  0.54367111523E+02  0.40000062339E+02 0.  0.
         12    1    3    3    0    0  0.14802294743E+02 -0.12339782303E+02 -0.31375144163E+02  0.36820888477E+02  0.00000000000E+00 0. -1.
         11    1    4    4    0    0 -0.78885659557E+00 -0.70143392818E+01  0.11627311933E+02  0.13602118708E+02  0.51100000000E-03 0. -1.
        -11    1    4    4    0    0  0.37934650126E+01  0.61371782569E+01  0.16939383509E+02  0.18411899622E+02  0.51100000000E-03 0.  1.
        -12    1    4    4    0    0 -0.17806903160E+02  0.13216943328E+02  0.28084487212E+01  0.22353093193E+02  0.00000000000E+00 0.  1.
</event>
<event>
 8    1  0.1290800E-006  0.9118800E+02  0.7816164E-02  0.1184000E+00
        -11   -1    0    0    0    0  0.00000000000E+00  0.00000000000E+00  0.45593999997E+02  0.45594000000E+02  0.51100000000E-03 0.  1.
         11   -1    0    0    0    0 -0.00000000000E+00 -0.00000000000E+00 -0.45593999997E+02  0.45594000000E+02  0.51100000000E-03 0. -1.
         23    2    1    2    0    0  0.00000000000E+00  0.00000000000E+00  0.00000000000E+00  0.91188000000E+02  0.91188000000E+02 0.  0.
    9900012    2    3    3    0    0 -0.25840729216E+02  0.25677214609E+02  0.53589505326E+01  0.54367068626E+02  0.39999964546E+02 0.  0.
         12    1    3    3    0    0  0.25840729216E+02 -0.25677214609E+02 -0.53589505326E+01  0.36820931374E+02  0.00000000000E+00 0. -1.
         11    1    4    4    0    0 -0.90839628360E+01  0.29336108041E+02 -0.40044603473E+01  0.30970329651E+02  0.51100000000E-03 0. -1.
        -11    1    4    4    0    0 -0.13661463050E+02  0.22998272563E+01  0.30614194256E+01  0.14187919765E+02  0.51100000000E-03 0.  1.
         12    1    4    4    0    0 -0.30953033293E+01 -0.59587206885E+01  0.63019914543E+01  0.92088192096E+01  0.00000000000E+00 0. -1.
</event>
<event>
 8    1  0.1290800E-006  0.9118800E+02  0.7816164E-02  0.1184000E+00
        -11   -1    0    0    0    0  0.00000000000E+00  0.00000000000E+00  0.45593999997E+02  0.45594000000E+02  0.51100000000E-03 0. -1.
         11   -1    0    0    0    0 -0.00000000000E+00 -0.00000000000E+00 -0.45593999997E+02  0.45594000000E+02  0.51100000000E-03 0.  1.
         23    2    1    2    0    0  0.00000000000E+00 -0.17763568394E-14  0.00000000000E+00  0.91188000000E+02  0.91188000000E+02 0.  0.
    9900012    2    3    3    0    0 -0.20676388797E+02  0.78335418155E+01  0.29443256667E+02  0.54367044088E+02  0.39999908608E+02 0.  0.
        -12    1    3    3    0    0  0.20676388797E+02 -0.78335418155E+01 -0.29443256667E+02  0.36820955912E+02  0.00000000000E+00 0.  1.
         11    1    4    4    0    0 -0.78167204102E+01  0.10210511762E+02  0.29739085352E+02  0.32400136825E+02  0.51100000000E-03 0. -1.
        -11    1    4    4    0    0  0.27980932448E+01  0.93071747753E+00 -0.45370316824E+01  0.54111198081E+01  0.51100000000E-03 0.  1.
         12    1    4    4    0    0 -0.15657761632E+02 -0.33076874237E+01  0.42412029973E+01  0.16555787456E+02  0.00000000000E+00 0. -1.
</event>
<event>
 8    1  0.1290800E-006  0.9118800E+02  0.7816164E-02  0.1184000E+00
        -11   -1    0    0    0    0  0.00000000000E+00  0.00000000000E+00  0.45593999997E+02  0.45594000000E+02  0.51100000000E-03 0.  1.
         11   -1    0    0    0    0 -0.00000000000E+00 -0.00000000000E+00 -0.45593999997E+02  0.45594000000E+02  0.51100000000E-03 0. -1.
         23    2    1    2    0    0  0.00000000000E+00  0.35527136788E-14 -0.35527136788E-14  0.91188000000E+02  0.91188000000E+02 0.  0.
    9900012    2    3    3    0    0  0.71597719178E+01  0.29596731410E+02  0.20701455176E+02  0.54367094382E+02  0.40000023264E+02 0.  0.
         12    1    3    3    0    0 -0.71597719178E+01 -0.29596731410E+02 -0.20701455176E+02  0.36820905618E+02  0.00000000000E+00 0. -1.
         11    1    4    4    0    0 -0.14718938560E+01 -0.72323522218E+01  0.99971997845E+01  0.12426479549E+02  0.51100000000E-03 0. -1.
        -11    1    4    4    0    0  0.89710859702E+01  0.14330878606E+02  0.95325136372E+01  0.19409360670E+02  0.51100000000E-03 0.  1.
        -12    1    4    4    0    0 -0.33942019648E+00  0.22498205026E+02  0.11717417547E+01  0.22531254164E+02  0.00000000000E+00 0.  1.
</event>
<event>
 8    1  0.1290800E-006  0.9118800E+02  0.7816164E-02  0.1184000E+00
        -11   -1    0    0    0    0  0.00000000000E+00  0.00000000000E+00  0.45593999997E+02  0.45594000000E+02  0.51100000000E-03 0.  1.
         11   -1    0    0    0    0 -0.00000000000E+00 -0.00000000000E+00 -0.45593999997E+02  0.45594000000E+02  0.51100000000E-03 0. -1.
         23    2    1    2    0    0 -0.35527136788E-14 -0.35527136788E-14  0.00000000000E+00  0.91188000000E+02  0.91188000000E+02 0.  0.
    9900012    2    3    3    0    0  0.27227876434E+02  0.16292332959E+02 -0.18681121812E+02  0.54367059212E+02  0.39999943086E+02 0.  0.
        -12    1    3    3    0    0 -0.27227876434E+02 -0.16292332959E+02  0.18681121812E+02  0.36820940788E+02  0.00000000000E+00 0.  1.
         11    1    4    4    0    0  0.62422028022E+00 -0.15482554110E+01  0.46138787240E+01  0.49065897441E+01  0.51100000000E-03 0. -1.
        -11    1    4    4    0    0 -0.17016448613E+01  0.14840578991E+02 -0.56471142964E+01  0.15969604884E+02  0.51100000000E-03 0.  1.
         12    1    4    4    0    0  0.28305301015E+02  0.30000093792E+01 -0.17647886240E+02  0.33490864584E+02  0.00000000000E+00 0. -1.
</event>
<event>
 8    1  0.1290800E-006  0.9118800E+02  0.7816164E-02  0.1184000E+00
        -11   -1    0    0    0    0  0.00000000000E+00  0.00000000000E+00  0.45593999997E+02  0.45594000000E+02  0.51100000000E-03 0. -1.
         11   -1    0    0    0    0 -0.00000000000E+00 -0.00000000000E+00 -0.45593999997E+02  0.45594000000E+02  0.51100000000E-03 0.  1.
         23    2    1    2    0    0  0.00000000000E+00  0.00000000000E+00 -0.33306690739E-15  0.91188000000E+02  0.91188000000E+02 0.  0.
    9900012    2    3    3    0    0 -0.78709852875E+01 -0.35956143319E+02 -0.99031594982E+00  0.54367117644E+02  0.40000076293E+02 0.  0.
         12    1    3    3    0    0  0.78709852875E+01  0.35956143319E+02  0.99031594982E+00  0.36820882356E+02  0.00000000000E+00 0. -1.
         11    1    4    4    0    0  0.49026985704E+01 -0.28472151893E+02 -0.31289892467E+01  0.29060118043E+02  0.51100000000E-03 0.  1.
        -11    1    4    4    0    0 -0.13144387070E+02 -0.36319184004E+01  0.97530369905E+01  0.16765663527E+02  0.51100000000E-03 0. -1.
        -12    1    4    4    0    0  0.37070321186E+00 -0.38520730257E+01 -0.76143636936E+01  0.85413360738E+01  0.00000000000E+00 0.  1.
</event>
<event>
 8    1  0.1290800E-006  0.9118800E+02  0.7816164E-02  0.1184000E+00
        -11   -1    0    0    0    0  0.00000000000E+00  0.00000000000E+00  0.45593999997E+02  0.45594000000E+02  0.51100000000E-03 0.  1.
         11   -1    0    0    0    0 -0.00000000000E+00 -0.00000000000E+00 -0.45593999997E+02  0.45594000000E+02  0.51100000000E-03 0. -1.
         23    2    1    2    0    0 -0.35527136788E-14  0.00000000000E+00  0.00000000000E+00  0.91188000000E+02  0.91188000000E+02 0.  0.
    9900012    2    3    3    0    0  0.28321506545E+02  0.10514003673E+02  0.21050613511E+02  0.54367077478E+02  0.39999984726E+02 0.  0.
        -12    1    3    3    0    0 -0.28321506545E+02 -0.10514003673E+02 -0.21050613511E+02  0.36820922522E+02  0.00000000000E+00 0.  1.
         11    1    4    4    0    0  0.11757188353E+02  0.20526319141E+02 -0.10696629724E+01  0.23679219467E+02  0.51100000000E-03 0. -1.
        -11    1    4    4    0    0  0.14425696333E+02 -0.10232589428E+02  0.22377092446E+02  0.28522637811E+02  0.51100000000E-03 0.  1.
         12    1    4    4    0    0  0.21386218591E+01  0.22027396003E+00 -0.25681596319E+00  0.21652201995E+01  0.00000000000E+00 0. -1.
</event>
<event>
 8    1  0.1290800E-006  0.9118800E+02  0.7816164E-02  0.1184000E+00
        -11   -1    0    0    0    0  0.00000000000E+00  0.00000000000E+00  0.45593999997E+02  0.45594000000E+02  0.51100000000E-03 0.  1.
         11   -1    0    0    0    0 -0.00000000000E+00 -0.00000000000E+00 -0.45593999997E+02  0.45594000000E+02  0.51100000000E-03 0. -1.
         23    2    1    2    0    0  0.00000000000E+00  0.00000000000E+00  0.00000000000E+00  0.91188000000E+02  0.91188000000E+02 0.  0.
    9900012    2    3    3    0    0 -0.86990889677E+01 -0.18227968339E+02  0.30787100146E+02  0.54367102211E+02  0.40000041109E+02 0.  0.
         12    1    3    3    0    0  0.86990889677E+01  0.18227968339E+02 -0.30787100146E+02  0.36820897789E+02  0.00000000000E+00 0. -1.
         11    1    4    4    0    0 -0.12033820247E+02 -0.10410714842E+02  0.92578711372E+01  0.18409345223E+02  0.51100000000E-03 0. -1.
        -11    1    4    4    0    0  0.81136636909E+01 -0.88343895369E+01  0.26437999511E+02  0.29031806616E+02  0.51100000000E-03 0.  1.
        -12    1    4    4    0    0 -0.47789324111E+01  0.10171360399E+01 -0.49087705024E+01  0.69259503722E+01  0.00000000000E+00 0.  1.
</event>
<event>
 8    1  0.1290800E-006  0.9118800E+02  0.7816164E-02  0.1184000E+00
        -11   -1    0    0    0    0  0.00000000000E+00  0.00000000000E+00  0.45593999997E+02  0.45594000000E+02  0.51100000000E-03 0.  1.
         11   -1    0    0    0    0 -0.00000000000E+00 -0.00000000000E+00 -0.45593999997E+02  0.45594000000E+02  0.51100000000E-03 0. -1.
         23    2    1    2    0    0 -0.71054273576E-14  0.00000000000E+00  0.13322676296E-14  0.91188000000E+02  0.91188000000E+02 0.  0.
    9900012    2    3    3    0    0 -0.32405477587E+02 -0.17353683438E+02  0.21251371332E+01  0.54367061469E+02  0.39999948230E+02 0.  0.
         12    1    3    3    0    0  0.32405477587E+02  0.17353683438E+02 -0.21251371332E+01  0.36820938531E+02  0.00000000000E+00 0. -1.
         11    1    4    4    0    0  0.87306057345E+00 -0.83994843345E+01  0.94517189183E+01  0.12674721402E+02  0.51100000000E-03 0.  1.
        -11    1    4    4    0    0 -0.14651511941E+02 -0.15438272629E+02 -0.29270131363E+01  0.21484284259E+02  0.51100000000E-03 0. -1.
        -12    1    4    4    0    0 -0.18627026219E+02  0.64840735255E+01 -0.43995686489E+01  0.20208055808E+02  0.00000000000E+00 0.  1.
</event>
<event>
 8    1  0.1290800E-006  0.9118800E+02  0.7816164E-02  0.1184000E+00
        -11   -1    0    0    0    0  0.00000000000E+00  0.00000000000E+00  0.45593999997E+02  0.45594000000E+02  0.51100000000E-03 0.  1.
         11   -1    0    0    0    0 -0.00000000000E+00 -0.00000000000E+00 -0.45593999997E+02  0.45594000000E+02  0.51100000000E-03 0. -1.
         23    2    1    2    0    0  0.00000000000E+00  0.00000000000E+00  0.00000000000E+00  0.91188000000E+02  0.91188000000E+02 0.  0.
    9900012    2    3    3    0    0 -0.78962113494E+01 -0.93078571535E+01  0.34738917476E+02  0.54367099062E+02  0.40000033932E+02 0.  0.
         12    1    3    3    0    0  0.78962113494E+01  0.93078571535E+01 -0.34738917476E+02  0.36820900938E+02  0.00000000000E+00 0. -1.
         11    1    4    4    0    0 -0.22428029166E+01 -0.11297841021E+02 -0.11393642191E+01  0.11574520627E+02  0.51100000000E-03 0. -1.
        -11    1    4    4    0    0 -0.95825378481E+01 -0.42950972436E+01  0.33345036182E+02  0.34959466961E+02  0.51100000000E-03 0.  1.
         12    1    4    4    0    0  0.39291294153E+01  0.62850811113E+01  0.25332455127E+01  0.78331114741E+01  0.00000000000E+00 0. -1.
</event>
<event>
 8    1  0.1290800E-006  0.9118800E+02  0.7816164E-02  0.1184000E+00
        -11   -1    0    0    0    0  0.00000000000E+00  0.00000000000E+00  0.45593999997E+02  0.45594000000E+02  0.51100000000E-03 0. -1.
         11   -1    0    0    0    0 -0.00000000000E+00 -0.00000000000E+00 -0.45593999997E+02  0.45594000000E+02  0.51100000000E-03 0.  1.
         23    2    1    2    0    0  0.00000000000E+00 -0.35527136788E-14  0.00000000000E+00  0.91188000000E+02  0.91188000000E+02 0.  0.
    9900012    2    3    3    0    0  0.20444997954E+02 -0.27471460296E+02 -0.13531439749E+02  0.54367096510E+02  0.40000028115E+02 0.  0.
         12    1    3    3    0    0 -0.20444997954E+02  0.27471460296E+02  0.13531439749E+02  0.36820903490E+02  0.00000000000E+00 0. -1.
         11    1    4    4    0    0  0.12889769764E+02 -0.73032549378E+01  0.50494017460E+01  0.15651841921E+02  0.51100000000E-03 0.  1.
        -11    1    4    4    0    0  0.60155657703E+01 -0.34894833105E+01 -0.20695449948E+02  0.21832663011E+02  0.51100000000E-03 0. -1.
         12    1    4    4    0    0  0.15396624193E+01 -0.16678722047E+02  0.21146084536E+01  0.16882591579E+02  0.00000000000E+00 0. -1.
</event>
<event>
 8    1  0.1290800E-006  0.9118800E+02  0.7816164E-02  0.1184000E+00
        -11   -1    0    0    0    0  0.00000000000E+00  0.00000000000E+00  0.45593999997E+02  0.45594000000E+02  0.51100000000E-03 0. -1.
         11   -1    0    0    0    0 -0.00000000000E+00 -0.00000000000E+00 -0.45593999997E+02  0.45594000000E+02  0.51100000000E-03 0.  1.
         23    2    1    2    0    0  0.00000000000E+00  0.00000000000E+00 -0.35527136788E-14  0.91188000000E+02  0.91188000000E+02 0.  0.
    9900012    2    3    3    0    0 -0.27617644896E+02 -0.71988041307E+01  0.23264178674E+02  0.54367094255E+02  0.40000022973E+02 0.  0.
        -12    1    3    3    0    0  0.27617644896E+02  0.71988041307E+01 -0.23264178674E+02  0.36820905745E+02  0.00000000000E+00 0.  1.
         11    1    4    4    0    0 -0.56233156975E+01  0.20796496552E+01  0.44827734842E+01  0.74861125088E+01  0.51100000000E-03 0. -1.
        -11    1    4    4    0    0 -0.30862415142E+02 -0.26036104312E+01  0.94539629397E+01  0.32382786650E+02  0.51100000000E-03 0.  1.
         12    1    4    4    0    0  0.88680859439E+01 -0.66748433546E+01  0.93274422500E+01  0.14498195096E+02  0.00000000000E+00 0. -1.
</event>
<event>
 8    1  0.1290800E-006  0.9118800E+02  0.7816164E-02  0.1184000E+00
        -11   -1    0    0    0    0  0.00000000000E+00  0.00000000000E+00  0.45593999997E+02  0.45594000000E+02  0.51100000000E-03 0. -1.
         11   -1    0    0    0    0 -0.00000000000E+00 -0.00000000000E+00 -0.45593999997E+02  0.45594000000E+02  0.51100000000E-03 0.  1.
         23    2    1    2    0    0  0.71054273576E-14  0.35527136788E-14 -0.35527136788E-14  0.91188000000E+02  0.91188000000E+02 0.  0.
    9900012    2    3    3    0    0  0.25370331395E+02  0.21025872155E+02 -0.16432887773E+02  0.54367070958E+02  0.39999969864E+02 0.  0.
         12    1    3    3    0    0 -0.25370331395E+02 -0.21025872155E+02  0.16432887773E+02  0.36820929042E+02  0.00000000000E+00 0. -1.
         11    1    4    4    0    0  0.10905278483E+02  0.10003283640E+02  0.93257650295E+01  0.17491731648E+02  0.51100000000E-03 0. -1.
        -11    1    4    4    0    0  0.93748116874E+01  0.68948196938E+01 -0.14838745871E+01  0.11731475476E+02  0.51100000000E-03 0.  1.
         12    1    4    4    0    0  0.50902412236E+01  0.41277688209E+01 -0.24274778215E+02  0.25143863835E+02  0.00000000000E+00 0. -1.
</event>
<event>
 8    1  0.1290800E-006  0.9118800E+02  0.7816164E-02  0.1184000E+00
        -11   -1    0    0    0    0  0.00000000000E+00  0.00000000000E+00  0.45593999997E+02  0.45594000000E+02  0.51100000000E-03 0.  1.
         11   -1    0    0    0    0 -0.00000000000E+00 -0.00000000000E+00 -0.45593999997E+02  0.45594000000E+02  0.51100000000E-03 0. -1.
         23    2    1    2    0    0  0.00000000000E+00 -0.17763568394E-14  0.00000000000E+00  0.91188000000E+02  0.91188000000E+02 0.  0.
    9900012    2    3    3    0    0  0.35039448234E+02  0.10862109621E+02 -0.31672206545E+01  0.54367086858E+02  0.40000006111E+02 0.  0.
         12    1    3    3    0    0 -0.35039448234E+02 -0.10862109621E+02  0.31672206545E+01  0.36820913142E+02  0.00000000000E+00 0. -1.
         11    1    4    4    0    0 -0.42755324037E+01  0.60627365060E+01  0.47315068563E+00  0.74337623791E+01  0.51100000000E-03 0. -1.
        -11    1    4    4    0    0  0.31620493739E+02 -0.23374504719E+01  0.64706919563E+01  0.32360302125E+02  0.51100000000E-03 0.  1.
         12    1    4    4    0    0  0.76944868987E+01  0.71368235868E+01 -0.10111063296E+02  0.14573022354E+02  0.00000000000E+00 0. -1.
</event>
<event>
 8    1  0.1290800E-006  0.9118800E+02  0.7816164E-02  0.1184000E+00
        -11   -1    0    0    0    0  0.00000000000E+00  0.00000000000E+00  0.45593999997E+02  0.45594000000E+02  0.51100000000E-03 0.  1.
         11   -1    0    0    0    0 -0.00000000000E+00 -0.00000000000E+00 -0.45593999997E+02  0.45594000000E+02  0.51100000000E-03 0. -1.
         23    2    1    2    0    0 -0.17763568394E-14  0.00000000000E+00  0.00000000000E+00  0.91188000000E+02  0.91188000000E+02 0.  0.
    9900012    2    3    3    0    0 -0.90428134866E+00  0.10171341773E+02  0.35376630343E+02  0.54367083490E+02  0.39999998432E+02 0.  0.
         12    1    3    3    0    0  0.90428134866E+00 -0.10171341773E+02 -0.35376630343E+02  0.36820916510E+02  0.00000000000E+00 0. -1.
         11    1    4    4    0    0 -0.14518734788E+02  0.62853943431E+01  0.18210127034E+02  0.24122781116E+02  0.51100000000E-03 0. -1.
        -11    1    4    4    0    0 -0.26436238551E+01  0.64101826206E-02 -0.30347395451E+01  0.40247276362E+01  0.51100000000E-03 0.  1.
        -12    1    4    4    0    0  0.16258077295E+02  0.38795372476E+01  0.20201242854E+02  0.26219574737E+02  0.00000000000E+00 0.  1.
</event>
<event>
 8    1  0.1290800E-006  0.9118800E+02  0.7816164E-02  0.1184000E+00
        -11   -1    0    0    0    0  0.00000000000E+00  0.00000000000E+00  0.45593999997E+02  0.45594000000E+02  0.51100000000E-03 0. -1.
         11   -1    0    0    0    0 -0.00000000000E+00 -0.00000000000E+00 -0.45593999997E+02  0.45594000000E+02  0.51100000000E-03 0.  1.
         23    2    1    2    0    0 -0.35527136788E-14  0.35527136788E-14  0.00000000000E+00  0.91188000000E+02  0.91188000000E+02 0.  0.
    9900012    2    3    3    0    0 -0.30502713078E+02 -0.18852355987E+02  0.83636925083E+01  0.54367106695E+02  0.40000051333E+02 0.  0.
         12    1    3    3    0    0  0.30502713078E+02  0.18852355987E+02 -0.83636925083E+01  0.36820893305E+02  0.00000000000E+00 0. -1.
         11    1    4    4    0    0  0.42803200163E+01  0.62760572757E+01  0.81494838699E+01  0.11141100573E+02  0.51100000000E-03 0. -1.
        -11    1    4    4    0    0 -0.13010637827E+02 -0.12228103355E+02  0.12394697719E+01  0.17898030448E+02  0.51100000000E-03 0.  1.
         12    1    4    4    0    0 -0.21772395267E+02 -0.12900309908E+02 -0.10252611335E+01  0.25327975674E+02  0.00000000000E+00 0. -1.
</event>
<event>
 8    1  0.1290800E-006  0.9118800E+02  0.7816164E-02  0.1184000E+00
        -11   -1    0    0    0    0  0.00000000000E+00  0.00000000000E+00  0.45593999997E+02  0.45594000000E+02  0.51100000000E-03 0. -1.
         11   -1    0    0    0    0 -0.00000000000E+00 -0.00000000000E+00 -0.45593999997E+02  0.45594000000E+02  0.51100000000E-03 0.  1.
         23    2    1    2    0    0 -0.17763568394E-14  0.35527136788E-14  0.00000000000E+00  0.91188000000E+02  0.91188000000E+02 0.  0.
    9900012    2    3    3    0    0  0.15262782242E+02 -0.15105218250E+02  0.29910858127E+02  0.54367087816E+02  0.40000008294E+02 0.  0.
        -12    1    3    3    0    0 -0.15262782242E+02  0.15105218250E+02 -0.29910858127E+02  0.36820912184E+02  0.00000000000E+00 0.  1.
         11    1    4    4    0    0  0.11177329740E+02 -0.23900308723E+02  0.12703883065E+02  0.29283888102E+02  0.51100000000E-03 0.  1.
        -11    1    4    4    0    0  0.62411774115E+01  0.28021014821E+01  0.17415307357E+02  0.18710879157E+02  0.51100000000E-03 0. -1.
        -12    1    4    4    0    0 -0.21557249099E+01  0.59929889913E+01 -0.20833229546E+00  0.63723205571E+01  0.00000000000E+00 0.  1.
</event>
<event>
 8    1  0.1290800E-006  0.9118800E+02  0.7816164E-02  0.1184000E+00
        -11   -1    0    0    0    0  0.00000000000E+00  0.00000000000E+00  0.45593999997E+02  0.45594000000E+02  0.51100000000E-03 0.  1.
         11   -1    0    0    0    0 -0.00000000000E+00 -0.00000000000E+00 -0.45593999997E+02  0.45594000000E+02  0.51100000000E-03 0. -1.
         23    2    1    2    0    0  0.00000000000E+00  0.44408920985E-15  0.35527136788E-14  0.91188000000E+02  0.91188000000E+02 0.  0.
    9900012    2    3    3    0    0  0.28760294107E+02 -0.15220050311E+01 -0.22941410052E+02  0.54367091380E+02  0.40000016419E+02 0.  0.
        -12    1    3    3    0    0 -0.28760294107E+02  0.15220050311E+01  0.22941410052E+02  0.36820908620E+02  0.00000000000E+00 0.  1.
         11    1    4    4    0    0  0.65199013290E+01 -0.93924295644E+01  0.48265722927E+01  0.12410586079E+02  0.51100000000E-03 0. -1.
        -11    1    4    4    0    0 -0.28009187003E+01  0.56511567218E+01 -0.52367983754E+01  0.81978518739E+01  0.51100000000E-03 0.  1.
         12    1    4    4    0    0  0.25041311479E+02  0.22192678115E+01 -0.22531183969E+02  0.33758653427E+02  0.00000000000E+00 0. -1.
</event>
<event>
 8    1  0.1290800E-006  0.9118800E+02  0.7816164E-02  0.1184000E+00
        -11   -1    0    0    0    0  0.00000000000E+00  0.00000000000E+00  0.45593999997E+02  0.45594000000E+02  0.51100000000E-03 0. -1.
         11   -1    0    0    0    0 -0.00000000000E+00 -0.00000000000E+00 -0.45593999997E+02  0.45594000000E+02  0.51100000000E-03 0.  1.
         23    2    1    2    0    0 -0.35527136788E-14  0.00000000000E+00  0.17763568394E-14  0.91188000000E+02  0.91188000000E+02 0.  0.
    9900012    2    3    3    0    0 -0.23198684206E+02  0.26972771074E+02  0.94906746563E+01  0.54367051700E+02  0.39999925960E+02 0.  0.
        -12    1    3    3    0    0  0.23198684206E+02 -0.26972771074E+02 -0.94906746563E+01  0.36820948300E+02  0.00000000000E+00 0.  1.
         11    1    4    4    0    0 -0.95597936866E+01 -0.62012319316E+01  0.32328026637E+01  0.11844658970E+02  0.51100000000E-03 0. -1.
        -11    1    4    4    0    0 -0.34985740475E+01  0.95459419367E+01 -0.81665521945E+01  0.13040613591E+02  0.51100000000E-03 0.  1.
         12    1    4    4    0    0 -0.10140316472E+02  0.23628061069E+02  0.14424424187E+02  0.29481779138E+02  0.00000000000E+00 0. -1.
</event>
<event>
 8    1  0.1290800E-006  0.9118800E+02  0.7816164E-02  0.1184000E+00
        -11   -1    0    0    0    0  0.00000000000E+00  0.00000000000E+00  0.45593999997E+02  0.45594000000E+02  0.51100000000E-03 0.  1.
         11   -1    0    0    0    0 -0.00000000000E+00 -0.00000000000E+00 -0.45593999997E+02  0.45594000000E+02  0.51100000000E-03 0. -1.
         23    2    1    2    0    0  0.17763568394E-14  0.00000000000E+00 -0.35527136788E-14  0.91188000000E+02  0.91188000000E+02 0.  0.
    9900012    2    3    3    0    0  0.14683240552E+02  0.10984467189E+02  0.31929979028E+02  0.54367087012E+02  0.40000006462E+02 0.  0.
         12    1    3    3    0    0 -0.14683240552E+02 -0.10984467189E+02 -0.31929979028E+02  0.36820912988E+02  0.00000000000E+00 0. -1.
         11    1    4    4    0    0 -0.35770207507E+01  0.50232317223E+01 -0.33269954362E+01  0.70069132491E+01  0.51100000000E-03 0. -1.
        -11    1    4    4    0    0  0.21185559064E+02  0.87911462649E+01  0.16726987424E+02  0.28388453182E+02  0.51100000000E-03 0.  1.
        -12    1    4    4    0    0 -0.29252977618E+01 -0.28299107980E+01  0.18529987040E+02  0.18971720581E+02  0.00000000000E+00 0.  1.
</event>
<event>
 8    1  0.1290800E-006  0.9118800E+02  0.7816164E-02  0.1184000E+00
        -11   -1    0    0    0    0  0.00000000000E+00  0.00000000000E+00  0.45593999997E+02  0.45594000000E+02  0.51100000000E-03 0.  1.
         11   -1    0    0    0    0 -0.00000000000E+00 -0.00000000000E+00 -0.45593999997E+02  0.45594000000E+02  0.51100000000E-03 0. -1.
         23    2    1    2    0    0  0.00000000000E+00  0.17763568394E-14  0.00000000000E+00  0.91188000000E+02  0.91188000000E+02 0.  0.
    9900012    2    3    3    0    0 -0.30609559045E+02 -0.84709548932E+01  0.18630002297E+02  0.54367093340E+02  0.40000020886E+02 0.  0.
         12    1    3    3    0    0  0.30609559045E+02  0.84709548932E+01 -0.18630002297E+02  0.36820906660E+02  0.00000000000E+00 0. -1.
         11    1    4    4    0    0 -0.64085191705E+00  0.29217957081E+01 -0.53827913834E+01  0.61580861214E+01  0.51100000000E-03 0. -1.
        -11    1    4    4    0    0 -0.26636545452E+02 -0.18934982600E+02  0.22861684642E+02  0.39883527234E+02  0.51100000000E-03 0.  1.
        -12    1    4    4    0    0 -0.33321616752E+01  0.75422319987E+01  0.11511090386E+01  0.83254799844E+01  0.00000000000E+00 0.  1.
</event>
<event>
 8    1  0.1290800E-006  0.9118800E+02  0.7816164E-02  0.1184000E+00
        -11   -1    0    0    0    0  0.00000000000E+00  0.00000000000E+00  0.45593999997E+02  0.45594000000E+02  0.51100000000E-03 0. -1.
         11   -1    0    0    0    0 -0.00000000000E+00 -0.00000000000E+00 -0.45593999997E+02  0.45594000000E+02  0.51100000000E-03 0.  1.
         23    2    1    2    0    0  0.00000000000E+00  0.17763568394E-14  0.00000000000E+00  0.91188000000E+02  0.91188000000E+02 0.  0.
    9900012    2    3    3    0    0  0.19432388168E+02  0.13769797789E+02  0.28081210270E+02  0.54367090026E+02  0.40000013333E+02 0.  0.
        -12    1    3    3    0    0 -0.19432388168E+02 -0.13769797789E+02 -0.28081210270E+02  0.36820909974E+02  0.00000000000E+00 0.  1.
         11    1    4    4    0    0 -0.44304778323E-01  0.83792441495E+01  0.12251114910E+02  0.14842624843E+02  0.51100000000E-03 0. -1.
        -11    1    4    4    0    0  0.35606046687E+01 -0.71765212900E+01 -0.57879784898E+01  0.98833728399E+01  0.51100000000E-03 0.  1.
        -12    1    4    4    0    0  0.15916088278E+02  0.12567074929E+02  0.21618073850E+02  0.29641092344E+02  0.00000000000E+00 0.  1.
</event>
<event>
 8    1  0.1290800E-006  0.9118800E+02  0.7816164E-02  0.1184000E+00
        -11   -1    0    0    0    0  0.00000000000E+00  0.00000000000E+00  0.45593999997E+02  0.45594000000E+02  0.51100000000E-03 0. -1.
         11   -1    0    0    0    0 -0.00000000000E+00 -0.00000000000E+00 -0.45593999997E+02  0.45594000000E+02  0.51100000000E-03 0.  1.
         23    2    1    2    0    0  0.00000000000E+00 -0.17763568394E-14  0.00000000000E+00  0.91188000000E+02  0.91188000000E+02 0.  0.
    9900012    2    3    3    0    0  0.12016796866E+02  0.12544293164E+02  0.32465926275E+02  0.54366823120E+02  0.39999404863E+02 0.  0.
        -12    1    3    3    0    0 -0.12016796866E+02 -0.12544293164E+02 -0.32465926275E+02  0.36821176880E+02  0.00000000000E+00 0.  1.
         11    1    4    4    0    0  0.21239863379E+02 -0.20909018585E+01  0.29622589437E+02  0.36510292688E+02  0.51100000000E-03 0.  1.
        -11    1    4    4    0    0 -0.23890368839E+01  0.42100164545E+01  0.23509395629E+01  0.53813244531E+01  0.51100000000E-03 0. -1.
        -12    1    4    4    0    0 -0.68340296293E+01  0.10425178568E+02  0.49239727523E+00  0.12475205979E+02  0.00000000000E+00 0.  1.
</event>
<event>
 8    1  0.1290800E-006  0.9118800E+02  0.7816164E-02  0.1184000E+00
        -11   -1    0    0    0    0  0.00000000000E+00  0.00000000000E+00  0.45593999997E+02  0.45594000000E+02  0.51100000000E-03 0.  1.
         11   -1    0    0    0    0 -0.00000000000E+00 -0.00000000000E+00 -0.45593999997E+02  0.45594000000E+02  0.51100000000E-03 0. -1.
         23    2    1    2    0    0  0.17763568394E-14 -0.88817841970E-15  0.00000000000E+00  0.91188000000E+02  0.91188000000E+02 0.  0.
    9900012    2    3    3    0    0  0.15586208639E+02 -0.78269272326E+01  0.32428194472E+02  0.54367102586E+02  0.40000041966E+02 0.  0.
         12    1    3    3    0    0 -0.15586208639E+02  0.78269272326E+01 -0.32428194472E+02  0.36820897414E+02  0.00000000000E+00 0. -1.
         11    1    4    4    0    0  0.32113459223E+01 -0.48986977871E+01 -0.54667867726E+01  0.80122244427E+01  0.51100000000E-03 0. -1.
        -11    1    4    4    0    0  0.19161709767E+01 -0.84742726658E+01  0.31945245500E+02  0.33105644817E+02  0.51100000000E-03 0.  1.
        -12    1    4    4    0    0  0.10458691740E+02  0.55460432203E+01  0.59497357447E+01  0.13249233326E+02  0.00000000000E+00 0.  1.
</event>
<event>
 8    1  0.1290800E-006  0.9118800E+02  0.7816164E-02  0.1184000E+00
        -11   -1    0    0    0    0  0.00000000000E+00  0.00000000000E+00  0.45593999997E+02  0.45594000000E+02  0.51100000000E-03 0.  1.
         11   -1    0    0    0    0 -0.00000000000E+00 -0.00000000000E+00 -0.45593999997E+02  0.45594000000E+02  0.51100000000E-03 0. -1.
         23    2    1    2    0    0  0.00000000000E+00  0.00000000000E+00  0.00000000000E+00  0.91188000000E+02  0.91188000000E+02 0.  0.
    9900012    2    3    3    0    0  0.22879575159E+02  0.21717954927E+02 -0.18990415480E+02  0.54367076523E+02  0.39999982548E+02 0.  0.
        -12    1    3    3    0    0 -0.22879575159E+02 -0.21717954927E+02  0.18990415480E+02  0.36820923477E+02  0.00000000000E+00 0.  1.
         11    1    4    4    0    0  0.10595185724E+02 -0.20598075722E+01 -0.19852937516E+02  0.22597342676E+02  0.51100000000E-03 0. -1.
        -11    1    4    4    0    0  0.12349603070E+02  0.66098649085E+01  0.34031807625E+01  0.14414737239E+02  0.51100000000E-03 0.  1.
         12    1    4    4    0    0 -0.65213635172E-01  0.17167897590E+02 -0.25406587265E+01  0.17354996608E+02  0.00000000000E+00 0. -1.
</event>
<event>
 8    1  0.1290800E-006  0.9118800E+02  0.7816164E-02  0.1184000E+00
        -11   -1    0    0    0    0  0.00000000000E+00  0.00000000000E+00  0.45593999997E+02  0.45594000000E+02  0.51100000000E-03 0.  1.
         11   -1    0    0    0    0 -0.00000000000E+00 -0.00000000000E+00 -0.45593999997E+02  0.45594000000E+02  0.51100000000E-03 0. -1.
         23    2    1    2    0    0  0.35527136788E-14 -0.27755575616E-16 -0.35527136788E-14  0.91188000000E+02  0.91188000000E+02 0.  0.
    9900012    2    3    3    0    0 -0.27323282142E+02 -0.19488889629E+00  0.24681581596E+02  0.54367079333E+02  0.39999988955E+02 0.  0.
         12    1    3    3    0    0  0.27323282142E+02  0.19488889629E+00 -0.24681581596E+02  0.36820920667E+02  0.00000000000E+00 0. -1.
         11    1    4    4    0    0 -0.92852105788E+01  0.17294660817E+01 -0.94891332353E+01  0.13388421798E+02  0.51100000000E-03 0. -1.
        -11    1    4    4    0    0 -0.57453777047E+00 -0.43081350686E+01  0.11280844280E+02  0.12089150894E+02  0.51100000000E-03 0.  1.
         12    1    4    4    0    0 -0.17463533793E+02  0.23837800906E+01  0.22889870552E+02  0.28889506640E+02  0.00000000000E+00 0. -1.
</event>
<event>
 8    1  0.1290800E-006  0.9118800E+02  0.7816164E-02  0.1184000E+00
        -11   -1    0    0    0    0  0.00000000000E+00  0.00000000000E+00  0.45593999997E+02  0.45594000000E+02  0.51100000000E-03 0.  1.
         11   -1    0    0    0    0 -0.00000000000E+00 -0.00000000000E+00 -0.45593999997E+02  0.45594000000E+02  0.51100000000E-03 0. -1.
         23    2    1    2    0    0  0.00000000000E+00  0.17763568394E-14  0.00000000000E+00  0.91188000000E+02  0.91188000000E+02 0.  0.
    9900012    2    3    3    0    0 -0.68534388203E+01  0.90902755275E+01 -0.35016795736E+02  0.54367099462E+02  0.40000034844E+02 0.  0.
        -12    1    3    3    0    0  0.68534388203E+01 -0.90902755275E+01  0.35016795736E+02  0.36820900538E+02  0.00000000000E+00 0.  1.
         11    1    4    4    0    0 -0.44263189988E+01 -0.14762443721E+02 -0.11663643006E+02  0.19327767924E+02  0.51100000000E-03 0. -1.
        -11    1    4    4    0    0 -0.33630289641E+01  0.54358332785E+01 -0.17326333275E+01  0.66227083398E+01  0.51100000000E-03 0.  1.
         12    1    4    4    0    0  0.93590914255E+00  0.18416885970E+02 -0.21620519403E+02  0.28416623198E+02  0.00000000000E+00 0. -1.
</event>
<event>
 8    1  0.1290800E-006  0.9118800E+02  0.7816164E-02  0.1184000E+00
        -11   -1    0    0    0    0  0.00000000000E+00  0.00000000000E+00  0.45593999997E+02  0.45594000000E+02  0.51100000000E-03 0.  1.
         11   -1    0    0    0    0 -0.00000000000E+00 -0.00000000000E+00 -0.45593999997E+02  0.45594000000E+02  0.51100000000E-03 0. -1.
         23    2    1    2    0    0  0.00000000000E+00  0.00000000000E+00  0.00000000000E+00  0.91188000000E+02  0.91188000000E+02 0.  0.
    9900012    2    3    3    0    0  0.25685857864E+02 -0.18867906779E+02 -0.18439568366E+02  0.54367097214E+02  0.40000029719E+02 0.  0.
        -12    1    3    3    0    0 -0.25685857864E+02  0.18867906779E+02  0.18439568366E+02  0.36820902786E+02  0.00000000000E+00 0.  1.
         11    1    4    4    0    0 -0.22205815961E+01 -0.15407539936E+02 -0.75796596631E+01  0.17313997527E+02  0.51100000000E-03 0. -1.
        -11    1    4    4    0    0  0.18413492750E+01 -0.83391426829E+01 -0.49984264092E+01  0.98952581910E+01  0.51100000000E-03 0.  1.
         12    1    4    4    0    0  0.26065090185E+02  0.48787758397E+01 -0.58614822936E+01  0.27157841496E+02  0.00000000000E+00 0. -1.
</event>
<event>
 8    1  0.1290800E-006  0.9118800E+02  0.7816164E-02  0.1184000E+00
        -11   -1    0    0    0    0  0.00000000000E+00  0.00000000000E+00  0.45593999997E+02  0.45594000000E+02  0.51100000000E-03 0. -1.
         11   -1    0    0    0    0 -0.00000000000E+00 -0.00000000000E+00 -0.45593999997E+02  0.45594000000E+02  0.51100000000E-03 0.  1.
         23    2    1    2    0    0  0.00000000000E+00  0.35527136788E-14  0.00000000000E+00  0.91188000000E+02  0.91188000000E+02 0.  0.
    9900012    2    3    3    0    0  0.91518986872E+01  0.28227619211E+02  0.21799655422E+02  0.54367072358E+02  0.39999973055E+02 0.  0.
        -12    1    3    3    0    0 -0.91518986872E+01 -0.28227619211E+02 -0.21799655422E+02  0.36820927642E+02  0.00000000000E+00 0.  1.
         11    1    4    4    0    0 -0.13170619987E+02  0.12488471780E+02  0.14943824314E+02  0.23510530484E+02  0.51100000000E-03 0. -1.
        -11    1    4    4    0    0  0.43749951874E+01  0.89073304793E+01 -0.12692044685E+01  0.10004598913E+02  0.51100000000E-03 0.  1.
         12    1    4    4    0    0  0.17947523487E+02  0.68318169509E+01  0.81250355761E+01  0.20851942962E+02  0.00000000000E+00 0. -1.
</event>
<event>
 8    1  0.1290800E-006  0.9118800E+02  0.7816164E-02  0.1184000E+00
        -11   -1    0    0    0    0  0.00000000000E+00  0.00000000000E+00  0.45593999997E+02  0.45594000000E+02  0.51100000000E-03 0.  1.
         11   -1    0    0    0    0 -0.00000000000E+00 -0.00000000000E+00 -0.45593999997E+02  0.45594000000E+02  0.51100000000E-03 0. -1.
         23    2    1    2    0    0  0.17763568394E-14  0.00000000000E+00 -0.17763568394E-14  0.91188000000E+02  0.91188000000E+02 0.  0.
    9900012    2    3    3    0    0 -0.95256931198E+01 -0.33697129567E+02  0.11381703934E+02  0.54367101656E+02  0.40000039844E+02 0.  0.
        -12    1    3    3    0    0  0.95256931198E+01  0.33697129567E+02 -0.11381703934E+02  0.36820898344E+02  0.00000000000E+00 0.  1.
         11    1    4    4    0    0 -0.11281664557E+02 -0.16340125633E+02  0.11403701640E+02  0.22898036428E+02  0.51100000000E-03 0. -1.
        -11    1    4    4    0    0  0.13179021320E+02 -0.10002615241E+02 -0.45315575872E+01  0.17154414272E+02  0.51100000000E-03 0.  1.
        -12    1    4    4    0    0 -0.11423049882E+02 -0.73543886927E+01  0.45095598814E+01  0.14314650956E+02  0.00000000000E+00 0.  1.
</event>
<event>
 8    1  0.1290800E-006  0.9118800E+02  0.7816164E-02  0.1184000E+00
        -11   -1    0    0    0    0  0.00000000000E+00  0.00000000000E+00  0.45593999997E+02  0.45594000000E+02  0.51100000000E-03 0.  1.
         11   -1    0    0    0    0 -0.00000000000E+00 -0.00000000000E+00 -0.45593999997E+02  0.45594000000E+02  0.51100000000E-03 0. -1.
         23    2    1    2    0    0  0.17763568394E-14 -0.15543122345E-14  0.00000000000E+00  0.91188000000E+02  0.91188000000E+02 0.  0.
    9900012    2    3    3    0    0 -0.96209911206E+01 -0.84405505321E+00  0.35531729325E+02  0.54367086270E+02  0.40000004771E+02 0.  0.
         12    1    3    3    0    0  0.96209911206E+01  0.84405505321E+00 -0.35531729325E+02  0.36820913730E+02  0.00000000000E+00 0. -1.
         11    1    4    4    0    0 -0.18001745897E+01  0.10317895129E+02  0.10619342791E+02  0.14915429260E+02  0.51100000000E-03 0. -1.
        -11    1    4    4    0    0 -0.25151386895E+00  0.47551301351E+01  0.20819985783E+02  0.21357582496E+02  0.51100000000E-03 0.  1.
         12    1    4    4    0    0 -0.75693026619E+01 -0.15917080317E+02  0.40924007508E+01  0.18094074514E+02  0.00000000000E+00 0. -1.
</event>
<event>
 8    1  0.1290800E-006  0.9118800E+02  0.7816164E-02  0.1184000E+00
        -11   -1    0    0    0    0  0.00000000000E+00  0.00000000000E+00  0.45593999997E+02  0.45594000000E+02  0.51100000000E-03 0.  1.
         11   -1    0    0    0    0 -0.00000000000E+00 -0.00000000000E+00 -0.45593999997E+02  0.45594000000E+02  0.51100000000E-03 0. -1.
         23    2    1    2    0    0  0.00000000000E+00  0.00000000000E+00  0.00000000000E+00  0.91188000000E+02  0.91188000000E+02 0.  0.
    9900012    2    3    3    0    0  0.19079055114E+02  0.25821813174E+02  0.18027858189E+02  0.54367081346E+02  0.39999993545E+02 0.  0.
         12    1    3    3    0    0 -0.19079055114E+02 -0.25821813174E+02 -0.18027858189E+02  0.36820918654E+02  0.00000000000E+00 0. -1.
         11    1    4    4    0    0  0.16066536071E+02  0.65875011325E+01  0.41226264354E+01  0.17847263137E+02  0.51100000000E-03 0. -1.
        -11    1    4    4    0    0  0.33371735281E+01  0.25604517646E+02  0.15268083324E+02  0.29997373546E+02  0.51100000000E-03 0.  1.
        -12    1    4    4    0    0 -0.32465448507E+00 -0.63702056044E+01 -0.13628515705E+01  0.65224446629E+01  0.00000000000E+00 0.  1.
</event>
<event>
 8    1  0.1290800E-006  0.9118800E+02  0.7816164E-02  0.1184000E+00
        -11   -1    0    0    0    0  0.00000000000E+00  0.00000000000E+00  0.45593999997E+02  0.45594000000E+02  0.51100000000E-03 0. -1.
         11   -1    0    0    0    0 -0.00000000000E+00 -0.00000000000E+00 -0.45593999997E+02  0.45594000000E+02  0.51100000000E-03 0.  1.
         23    2    1    2    0    0  0.13322676296E-14  0.00000000000E+00  0.00000000000E+00  0.91188000000E+02  0.91188000000E+02 0.  0.
    9900012    2    3    3    0    0 -0.20576611737E+01 -0.22106650852E+02  0.29374168054E+02  0.54367085695E+02  0.40000003458E+02 0.  0.
        -12    1    3    3    0    0  0.20576611737E+01  0.22106650852E+02 -0.29374168054E+02  0.36820914305E+02  0.00000000000E+00 0.  1.
         11    1    4    4    0    0  0.13723607580E+02 -0.21150466870E+01  0.18153667461E+02  0.22855337889E+02  0.51100000000E-03 0. -1.
        -11    1    4    4    0    0 -0.13730751659E+02 -0.56755485113E+01  0.42251216159E+01  0.15446586839E+02  0.51100000000E-03 0.  1.
         12    1    4    4    0    0 -0.20505170947E+01 -0.14316055654E+02  0.69953789773E+01  0.16065160967E+02  0.00000000000E+00 0. -1.
</event>
<event>
 8    1  0.1290800E-006  0.9118800E+02  0.7816164E-02  0.1184000E+00
        -11   -1    0    0    0    0  0.00000000000E+00  0.00000000000E+00  0.45593999997E+02  0.45594000000E+02  0.51100000000E-03 0. -1.
         11   -1    0    0    0    0 -0.00000000000E+00 -0.00000000000E+00 -0.45593999997E+02  0.45594000000E+02  0.51100000000E-03 0.  1.
         23    2    1    2    0    0  0.00000000000E+00  0.17763568394E-14  0.88817841970E-15  0.91188000000E+02  0.91188000000E+02 0.  0.
    9900012    2    3    3    0    0 -0.35597761055E+02 -0.70609246517E+01 -0.62226780622E+01  0.54367096001E+02  0.40000026954E+02 0.  0.
         12    1    3    3    0    0  0.35597761055E+02  0.70609246517E+01  0.62226780622E+01  0.36820903999E+02  0.00000000000E+00 0. -1.
         11    1    4    4    0    0 -0.21220152652E+02 -0.12372470017E+01  0.47662422145E+01  0.21784001556E+02  0.51100000000E-03 0. -1.
        -11    1    4    4    0    0 -0.10332648868E+02  0.99615606133E+01 -0.58197894951E+01  0.15487616747E+02  0.51100000000E-03 0.  1.
        -12    1    4    4    0    0 -0.40449595348E+01 -0.15785238263E+02 -0.51691307816E+01  0.17095477697E+02  0.00000000000E+00 0.  1.
</event>
<event>
 8    1  0.1290800E-006  0.9118800E+02  0.7816164E-02  0.1184000E+00
        -11   -1    0    0    0    0  0.00000000000E+00  0.00000000000E+00  0.45593999997E+02  0.45594000000E+02  0.51100000000E-03 0.  1.
         11   -1    0    0    0    0 -0.00000000000E+00 -0.00000000000E+00 -0.45593999997E+02  0.45594000000E+02  0.51100000000E-03 0. -1.
         23    2    1    2    0    0 -0.35527136788E-14 -0.17763568394E-14 -0.71054273576E-14  0.91188000000E+02  0.91188000000E+02 0.  0.
    9900012    2    3    3    0    0 -0.13774968993E+02  0.83268102471E+01  0.33116383882E+02  0.54367076314E+02  0.39999982074E+02 0.  0.
         12    1    3    3    0    0  0.13774968993E+02 -0.83268102471E+01 -0.33116383882E+02  0.36820923686E+02  0.00000000000E+00 0. -1.
         11    1    4    4    0    0 -0.39398411505E+01 -0.44201811252E+01 -0.31052201391E+01  0.66860109066E+01  0.51100000000E-03 0. -1.
        -11    1    4    4    0    0 -0.16548104766E+02  0.76066050435E-01  0.17304870662E+02  0.23943769676E+02  0.51100000000E-03 0.  1.
        -12    1    4    4    0    0  0.67129769236E+01  0.12670925322E+02  0.18916733359E+02  0.23737295732E+02  0.00000000000E+00 0.  1.
</event>
<event>
 8    1  0.1290800E-006  0.9118800E+02  0.7816164E-02  0.1184000E+00
        -11   -1    0    0    0    0  0.00000000000E+00  0.00000000000E+00  0.45593999997E+02  0.45594000000E+02  0.51100000000E-03 0.  1.
         11   -1    0    0    0    0 -0.00000000000E+00 -0.00000000000E+00 -0.45593999997E+02  0.45594000000E+02  0.51100000000E-03 0. -1.
         23    2    1    2    0    0  0.00000000000E+00  0.17763568394E-14  0.13322676296E-14  0.91188000000E+02  0.91188000000E+02 0.  0.
    9900012    2    3    3    0    0  0.33030134477E+02  0.15977452170E+02  0.30838459844E+01  0.54367097411E+02  0.40000030167E+02 0.  0.
         12    1    3    3    0    0 -0.33030134477E+02 -0.15977452170E+02 -0.30838459844E+01  0.36820902589E+02  0.00000000000E+00 0. -1.
         11    1    4    4    0    0  0.20524111114E+02  0.10395345331E+02 -0.43055425676E+01  0.23405982967E+02  0.51100000000E-03 0. -1.
        -11    1    4    4    0    0  0.17909326673E+01  0.31229212698E+01  0.16372760361E+02  0.16763870650E+02  0.51100000000E-03 0.  1.
         12    1    4    4    0    0  0.10715090696E+02  0.24591855688E+01 -0.89833718090E+01  0.14197243794E+02  0.00000000000E+00 0. -1.
</event>
<event>
 8    1  0.1290800E-006  0.9118800E+02  0.7816164E-02  0.1184000E+00
        -11   -1    0    0    0    0  0.00000000000E+00  0.00000000000E+00  0.45593999997E+02  0.45594000000E+02  0.51100000000E-03 0. -1.
         11   -1    0    0    0    0 -0.00000000000E+00 -0.00000000000E+00 -0.45593999997E+02  0.45594000000E+02  0.51100000000E-03 0.  1.
         23    2    1    2    0    0  0.00000000000E+00  0.35527136788E-14  0.00000000000E+00  0.91188000000E+02  0.91188000000E+02 0.  0.
    9900012    2    3    3    0    0 -0.13166195426E+02 -0.28500524755E+02  0.19239319606E+02  0.54367081595E+02  0.39999994112E+02 0.  0.
        -12    1    3    3    0    0  0.13166195426E+02  0.28500524755E+02 -0.19239319606E+02  0.36820918405E+02  0.00000000000E+00 0.  1.
         11    1    4    4    0    0 -0.16250243879E+02 -0.11437734507E+02  0.18219865327E+01  0.19955245725E+02  0.51100000000E-03 0. -1.
        -11    1    4    4    0    0  0.43412822034E+01  0.48508959808E+01  0.19622675693E+00  0.65127895857E+01  0.51100000000E-03 0.  1.
         12    1    4    4    0    0 -0.12572337510E+01 -0.21913686229E+02  0.17221106316E+02  0.27899046285E+02  0.00000000000E+00 0. -1.
</event>
<event>
 8    1  0.1290800E-006  0.9118800E+02  0.7816164E-02  0.1184000E+00
        -11   -1    0    0    0    0  0.00000000000E+00  0.00000000000E+00  0.45593999997E+02  0.45594000000E+02  0.51100000000E-03 0.  1.
         11   -1    0    0    0    0 -0.00000000000E+00 -0.00000000000E+00 -0.45593999997E+02  0.45594000000E+02  0.51100000000E-03 0. -1.
         23    2    1    2    0    0 -0.44408920985E-15  0.00000000000E+00  0.00000000000E+00  0.91188000000E+02  0.91188000000E+02 0.  0.
    9900012    2    3    3    0    0  0.32534368771E+01  0.57173321255E+01  0.36228541780E+02  0.54367082335E+02  0.39999995800E+02 0.  0.
         12    1    3    3    0    0 -0.32534368771E+01 -0.57173321255E+01 -0.36228541780E+02  0.36820917665E+02  0.00000000000E+00 0. -1.
         11    1    4    4    0    0 -0.10223929533E+02  0.56619882861E+01  0.98768336210E+00  0.11728698356E+02  0.51100000000E-03 0. -1.
        -11    1    4    4    0    0  0.13199193332E+02  0.54639440361E-01  0.37813370270E+02  0.40050875915E+02  0.51100000000E-03 0.  1.
        -12    1    4    4    0    0  0.27817307739E+00  0.70439905103E-03 -0.25725118519E+01  0.25875080648E+01  0.00000000000E+00 0.  1.
</event>
<event>
 8    1  0.1290800E-006  0.9118800E+02  0.7816164E-02  0.1184000E+00
        -11   -1    0    0    0    0  0.00000000000E+00  0.00000000000E+00  0.45593999997E+02  0.45594000000E+02  0.51100000000E-03 0.  1.
         11   -1    0    0    0    0 -0.00000000000E+00 -0.00000000000E+00 -0.45593999997E+02  0.45594000000E+02  0.51100000000E-03 0. -1.
         23    2    1    2    0    0  0.35527136788E-14 -0.35527136788E-14  0.00000000000E+00  0.91188000000E+02  0.91188000000E+02 0.  0.
    9900012    2    3    3    0    0 -0.20149117559E+02  0.26158194871E+02 -0.16295419431E+02  0.54367098439E+02  0.40000032512E+02 0.  0.
        -12    1    3    3    0    0  0.20149117559E+02 -0.26158194871E+02  0.16295419431E+02  0.36820901561E+02  0.00000000000E+00 0.  1.
         11    1    4    4    0    0  0.66818243334E+01  0.46130304840E+01 -0.11006364362E+02  0.13677239612E+02  0.51100000000E-03 0. -1.
        -11    1    4    4    0    0 -0.10060394953E+02  0.35047341381E+01  0.74104834577E+01  0.12977286825E+02  0.51100000000E-03 0.  1.
         12    1    4    4    0    0 -0.16770546939E+02  0.18040430249E+02 -0.12699538527E+02  0.27712572002E+02  0.00000000000E+00 0. -1.
</event>
<event>
 8    1  0.1290800E-006  0.9118800E+02  0.7816164E-02  0.1184000E+00
        -11   -1    0    0    0    0  0.00000000000E+00  0.00000000000E+00  0.45593999997E+02  0.45594000000E+02  0.51100000000E-03 0.  1.
         11   -1    0    0    0    0 -0.00000000000E+00 -0.00000000000E+00 -0.45593999997E+02  0.45594000000E+02  0.51100000000E-03 0. -1.
         23    2    1    2    0    0 -0.71054273576E-14  0.00000000000E+00  0.35527136788E-14  0.91188000000E+02  0.91188000000E+02 0.  0.
    9900012    2    3    3    0    0  0.33678069911E+02  0.67498577564E+01 -0.13266749816E+02  0.54367087147E+02  0.40000006770E+02 0.  0.
        -12    1    3    3    0    0 -0.33678069911E+02 -0.67498577564E+01  0.13266749816E+02  0.36820912853E+02  0.00000000000E+00 0.  1.
         11    1    4    4    0    0  0.89088758579E+01 -0.56370435574E+00  0.99710749589E+01  0.13383129968E+02  0.51100000000E-03 0. -1.
        -11    1    4    4    0    0  0.92988461940E+00  0.32509252533E+01  0.35448729303E+01  0.48989105688E+01  0.51100000000E-03 0.  1.
         12    1    4    4    0    0  0.23839309433E+02  0.40626368588E+01 -0.26782697705E+02  0.36085046610E+02  0.00000000000E+00 0. -1.
</event>
<event>
 8    1  0.1290800E-006  0.9118800E+02  0.7816164E-02  0.1184000E+00
        -11   -1    0    0    0    0  0.00000000000E+00  0.00000000000E+00  0.45593999997E+02  0.45594000000E+02  0.51100000000E-03 0.  1.
         11   -1    0    0    0    0 -0.00000000000E+00 -0.00000000000E+00 -0.45593999997E+02  0.45594000000E+02  0.51100000000E-03 0. -1.
         23    2    1    2    0    0  0.00000000000E+00 -0.35527136788E-14 -0.35527136788E-14  0.91188000000E+02  0.91188000000E+02 0.  0.
    9900012    2    3    3    0    0 -0.82351309118E+01  0.24613797682E+02  0.26117510626E+02  0.54367071457E+02  0.39999971000E+02 0.  0.
         12    1    3    3    0    0  0.82351309118E+01 -0.24613797682E+02 -0.26117510626E+02  0.36820928543E+02  0.00000000000E+00 0. -1.
         11    1    4    4    0    0 -0.79685488792E+01  0.40137999475E+01  0.85584432358E+01  0.12363466833E+02  0.51100000000E-03 0. -1.
        -11    1    4    4    0    0 -0.32229675569E+01  0.27534573444E+02  0.19882382254E+02  0.34115236757E+02  0.51100000000E-03 0.  1.
         12    1    4    4    0    0  0.29563855243E+01 -0.69345757098E+01 -0.23233148632E+01  0.78883678665E+01  0.00000000000E+00 0. -1.
</event>
<event>
 8    1  0.1290800E-006  0.9118800E+02  0.7816164E-02  0.1184000E+00
        -11   -1    0    0    0    0  0.00000000000E+00  0.00000000000E+00  0.45593999997E+02  0.45594000000E+02  0.51100000000E-03 0.  1.
         11   -1    0    0    0    0 -0.00000000000E+00 -0.00000000000E+00 -0.45593999997E+02  0.45594000000E+02  0.51100000000E-03 0. -1.
         23    2    1    2    0    0  0.00000000000E+00  0.00000000000E+00  0.00000000000E+00  0.91188000000E+02  0.91188000000E+02 0.  0.
    9900012    2    3    3    0    0  0.17702199321E+02 -0.97638929215E+01  0.30774627410E+02  0.54367093466E+02  0.40000021175E+02 0.  0.
         12    1    3    3    0    0 -0.17702199321E+02  0.97638929215E+01 -0.30774627410E+02  0.36820906534E+02  0.00000000000E+00 0. -1.
         11    1    4    4    0    0  0.18184198567E+02  0.60391998526E+00  0.54403256707E+01  0.18990180108E+02  0.51100000000E-03 0. -1.
        -11    1    4    4    0    0  0.10075006210E+02 -0.61300158546E+01  0.67530559396E+01  0.13589945154E+02  0.51100000000E-03 0.  1.
        -12    1    4    4    0    0 -0.10557005456E+02 -0.42377970522E+01  0.18581245799E+02  0.21786968204E+02  0.00000000000E+00 0.  1.
</event>
<event>
 8    1  0.1290800E-006  0.9118800E+02  0.7816164E-02  0.1184000E+00
        -11   -1    0    0    0    0  0.00000000000E+00  0.00000000000E+00  0.45593999997E+02  0.45594000000E+02  0.51100000000E-03 0.  1.
         11   -1    0    0    0    0 -0.00000000000E+00 -0.00000000000E+00 -0.45593999997E+02  0.45594000000E+02  0.51100000000E-03 0. -1.
         23    2    1    2    0    0  0.00000000000E+00  0.00000000000E+00 -0.13322676296E-14  0.91188000000E+02  0.91188000000E+02 0.  0.
    9900012    2    3    3    0    0 -0.21400756288E+02  0.29862321546E+02 -0.24545648895E+01  0.54367143049E+02  0.40000134209E+02 0.  0.
        -12    1    3    3    0    0  0.21400756288E+02 -0.29862321546E+02  0.24545648895E+01  0.36820856951E+02  0.00000000000E+00 0.  1.
         11    1    4    4    0    0 -0.16385927560E+02  0.27662856562E+02  0.11080782059E+02  0.34007587190E+02  0.51100000000E-03 0. -1.
        -11    1    4    4    0    0 -0.94581684349E+01 -0.13035156691E+01 -0.83003688547E+01  0.12651174911E+02  0.51100000000E-03 0.  1.
         12    1    4    4    0    0  0.44433397067E+01  0.35029806523E+01 -0.52349780935E+01  0.77083809480E+01  0.00000000000E+00 0. -1.
</event>
<event>
 8    1  0.1290800E-006  0.9118800E+02  0.7816164E-02  0.1184000E+00
        -11   -1    0    0    0    0  0.00000000000E+00  0.00000000000E+00  0.45593999997E+02  0.45594000000E+02  0.51100000000E-03 0.  1.
         11   -1    0    0    0    0 -0.00000000000E+00 -0.00000000000E+00 -0.45593999997E+02  0.45594000000E+02  0.51100000000E-03 0. -1.
         23    2    1    2    0    0  0.35527136788E-14 -0.35527136788E-14 -0.35527136788E-14  0.91188000000E+02  0.91188000000E+02 0.  0.
    9900012    2    3    3    0    0  0.15817590842E+02 -0.18548567891E+02 -0.27595917518E+02  0.54367079119E+02  0.39999988469E+02 0.  0.
        -12    1    3    3    0    0 -0.15817590842E+02  0.18548567891E+02  0.27595917518E+02  0.36820920881E+02  0.00000000000E+00 0.  1.
         11    1    4    4    0    0  0.50823603482E+01 -0.54337652810E+00  0.20504300477E+01  0.55072596091E+01  0.51100000000E-03 0.  1.
        -11    1    4    4    0    0 -0.16035970767E+01  0.68856311199E+01  0.13906281485E+01  0.72053651130E+01  0.51100000000E-03 0. -1.
         12    1    4    4    0    0  0.12338827570E+02 -0.24890822482E+02 -0.31036975714E+02  0.41654454397E+02  0.00000000000E+00 0. -1.
</event>
<event>
 8    1  0.1290800E-006  0.9118800E+02  0.7816164E-02  0.1184000E+00
        -11   -1    0    0    0    0  0.00000000000E+00  0.00000000000E+00  0.45593999997E+02  0.45594000000E+02  0.51100000000E-03 0.  1.
         11   -1    0    0    0    0 -0.00000000000E+00 -0.00000000000E+00 -0.45593999997E+02  0.45594000000E+02  0.51100000000E-03 0. -1.
         23    2    1    2    0    0  0.00000000000E+00  0.17763568394E-14  0.00000000000E+00  0.91188000000E+02  0.91188000000E+02 0.  0.
    9900012    2    3    3    0    0 -0.32812258537E+02 -0.15833932233E+02 -0.53311986919E+01  0.54367090183E+02  0.40000013690E+02 0.  0.
        -12    1    3    3    0    0  0.32812258537E+02  0.15833932233E+02  0.53311986919E+01  0.36820909817E+02  0.00000000000E+00 0.  1.
         11    1    4    4    0    0  0.16152908816E+01 -0.46526869978E+01  0.18405315639E+01  0.52577768715E+01  0.51100000000E-03 0.  1.
        -11    1    4    4    0    0 -0.11117130868E+02 -0.16215128644E+01 -0.18374018975E+02  0.21536584601E+02  0.51100000000E-03 0. -1.
         12    1    4    4    0    0 -0.23310418550E+02 -0.95597323710E+01  0.11202288719E+02  0.27572728711E+02  0.00000000000E+00 0. -1.
</event>
<event>
 8    1  0.1290800E-006  0.9118800E+02  0.7816164E-02  0.1184000E+00
        -11   -1    0    0    0    0  0.00000000000E+00  0.00000000000E+00  0.45593999997E+02  0.45594000000E+02  0.51100000000E-03 0.  1.
         11   -1    0    0    0    0 -0.00000000000E+00 -0.00000000000E+00 -0.45593999997E+02  0.45594000000E+02  0.51100000000E-03 0. -1.
         23    2    1    2    0    0  0.00000000000E+00 -0.35527136788E-14  0.00000000000E+00  0.91188000000E+02  0.91188000000E+02 0.  0.
    9900012    2    3    3    0    0  0.29896172666E+02  0.17610418987E+02 -0.12323592660E+02  0.54367096521E+02  0.40000028138E+02 0.  0.
        -12    1    3    3    0    0 -0.29896172666E+02 -0.17610418987E+02  0.12323592660E+02  0.36820903479E+02  0.00000000000E+00 0.  1.
         11    1    4    4    0    0  0.51504806910E+01 -0.61889308308E+01 -0.66843723841E+01  0.10464757551E+02  0.51100000000E-03 0. -1.
        -11    1    4    4    0    0  0.15040678036E+02 -0.20197604693E+01 -0.59957494996E+01  0.16317182369E+02  0.51100000000E-03 0.  1.
         12    1    4    4    0    0  0.97050139387E+01  0.25819110288E+02  0.35652922341E+00  0.27585156601E+02  0.00000000000E+00 0. -1.
</event>
<event>
 8    1  0.1290800E-006  0.9118800E+02  0.7816164E-02  0.1184000E+00
        -11   -1    0    0    0    0  0.00000000000E+00  0.00000000000E+00  0.45593999997E+02  0.45594000000E+02  0.51100000000E-03 0. -1.
         11   -1    0    0    0    0 -0.00000000000E+00 -0.00000000000E+00 -0.45593999997E+02  0.45594000000E+02  0.51100000000E-03 0.  1.
         23    2    1    2    0    0  0.17763568394E-14  0.00000000000E+00 -0.11102230246E-14  0.91188000000E+02  0.91188000000E+02 0.  0.
    9900012    2    3    3    0    0  0.82053126685E+01 -0.35883768904E+02  0.89873894412E+00  0.54367085312E+02  0.40000002587E+02 0.  0.
         12    1    3    3    0    0 -0.82053126685E+01  0.35883768904E+02 -0.89873894412E+00  0.36820914688E+02  0.00000000000E+00 0. -1.
         11    1    4    4    0    0 -0.42175070517E+01  0.60738887449E+00  0.81546200082E+01  0.92007670721E+01  0.51100000000E-03 0. -1.
        -11    1    4    4    0    0  0.86901822424E+00 -0.12117160148E+02  0.76418572532E+01  0.14351959632E+02  0.51100000000E-03 0.  1.
        -12    1    4    4    0    0  0.11553801496E+02 -0.24373997630E+02 -0.14897738317E+02  0.30814358608E+02  0.00000000000E+00 0.  1.
</event>
<event>
 8    1  0.1290800E-006  0.9118800E+02  0.7816164E-02  0.1184000E+00
        -11   -1    0    0    0    0  0.00000000000E+00  0.00000000000E+00  0.45593999997E+02  0.45594000000E+02  0.51100000000E-03 0.  1.
         11   -1    0    0    0    0 -0.00000000000E+00 -0.00000000000E+00 -0.45593999997E+02  0.45594000000E+02  0.51100000000E-03 0. -1.
         23    2    1    2    0    0  0.17763568394E-14  0.00000000000E+00  0.17763568394E-14  0.91188000000E+02  0.91188000000E+02 0.  0.
    9900012    2    3    3    0    0 -0.90357986701E+01 -0.34296432950E+02 -0.98938249316E+01  0.54367099108E+02  0.40000034037E+02 0.  0.
         12    1    3    3    0    0  0.90357986701E+01  0.34296432950E+02  0.98938249316E+01  0.36820900892E+02  0.00000000000E+00 0. -1.
         11    1    4    4    0    0  0.36245733485E+01 -0.60689797785E+01  0.14052845755E+01  0.72072791337E+01  0.51100000000E-03 0. -1.
        -11    1    4    4    0    0  0.19923445058E+01  0.16874661657E+01 -0.13525093637E+02  0.13774800792E+02  0.51100000000E-03 0.  1.
        -12    1    4    4    0    0 -0.14652716524E+02 -0.29914919337E+02  0.22259841304E+01  0.33385019183E+02  0.00000000000E+00 0.  1.
</event>
<event>
 8    1  0.1290800E-006  0.9118800E+02  0.7816164E-02  0.1184000E+00
        -11   -1    0    0    0    0  0.00000000000E+00  0.00000000000E+00  0.45593999997E+02  0.45594000000E+02  0.51100000000E-03 0. -1.
         11   -1    0    0    0    0 -0.00000000000E+00 -0.00000000000E+00 -0.45593999997E+02  0.45594000000E+02  0.51100000000E-03 0.  1.
         23    2    1    2    0    0  0.35527136788E-14  0.10658141036E-13  0.17763568394E-14  0.91188000000E+02  0.91188000000E+02 0.  0.
    9900012    2    3    3    0    0  0.17155725784E+02  0.28740619540E+02  0.15343964703E+02  0.54367090295E+02  0.40000013944E+02 0.  0.
        -12    1    3    3    0    0 -0.17155725784E+02 -0.28740619540E+02 -0.15343964703E+02  0.36820909705E+02  0.00000000000E+00 0.  1.
         11    1    4    4    0    0 -0.82178610918E+01 -0.35899432123E+00  0.69248894168E+01  0.10752497921E+02  0.51100000000E-03 0. -1.
        -11    1    4    4    0    0  0.10190894611E+02  0.11120058429E+02 -0.57539198658E+01  0.16143655921E+02  0.51100000000E-03 0.  1.
         12    1    4    4    0    0  0.15182692265E+02  0.17979555433E+02  0.14172995152E+02  0.27470936452E+02  0.00000000000E+00 0. -1.
</event>
<event>
 8    1  0.1290800E-006  0.9118800E+02  0.7816164E-02  0.1184000E+00
        -11   -1    0    0    0    0  0.00000000000E+00  0.00000000000E+00  0.45593999997E+02  0.45594000000E+02  0.51100000000E-03 0.  1.
         11   -1    0    0    0    0 -0.00000000000E+00 -0.00000000000E+00 -0.45593999997E+02  0.45594000000E+02  0.51100000000E-03 0. -1.
         23    2    1    2    0    0  0.00000000000E+00  0.00000000000E+00  0.00000000000E+00  0.91188000000E+02  0.91188000000E+02 0.  0.
    9900012    2    3    3    0    0  0.60046793475E+01  0.12254749389E+02 -0.34198621912E+02  0.54367071204E+02  0.39999970425E+02 0.  0.
        -12    1    3    3    0    0 -0.60046793475E+01 -0.12254749389E+02  0.34198621912E+02  0.36820928796E+02  0.00000000000E+00 0.  1.
         11    1    4    4    0    0 -0.67359788595E+01  0.17270704106E+02 -0.10853203095E+02  0.21481216195E+02  0.51100000000E-03 0. -1.
        -11    1    4    4    0    0  0.81624749345E+01 -0.97713679545E+01 -0.55194844677E+01  0.13876971493E+02  0.51100000000E-03 0.  1.
        -12    1    4    4    0    0  0.45781832725E+01  0.47554132375E+01 -0.17825934349E+02  0.19008883517E+02  0.00000000000E+00 0.  1.
</event>
<event>
 8    1  0.1290800E-006  0.9118800E+02  0.7816164E-02  0.1184000E+00
        -11   -1    0    0    0    0  0.00000000000E+00  0.00000000000E+00  0.45593999997E+02  0.45594000000E+02  0.51100000000E-03 0.  1.
         11   -1    0    0    0    0 -0.00000000000E+00 -0.00000000000E+00 -0.45593999997E+02  0.45594000000E+02  0.51100000000E-03 0. -1.
         23    2    1    2    0    0  0.88817841970E-15  0.00000000000E+00  0.00000000000E+00  0.91188000000E+02  0.91188000000E+02 0.  0.
    9900012    2    3    3    0    0  0.53810279907E+01 -0.30152482917E+02 -0.20436523130E+02  0.54367093358E+02  0.40000020927E+02 0.  0.
        -12    1    3    3    0    0 -0.53810279907E+01  0.30152482917E+02  0.20436523130E+02  0.36820906642E+02  0.00000000000E+00 0.  1.
         11    1    4    4    0    0  0.10868687448E+02 -0.34210566320E+01 -0.79248470142E+01  0.13879308188E+02  0.51100000000E-03 0. -1.
        -11    1    4    4    0    0  0.82377424105E+01 -0.22078580741E+02 -0.10705573876E+02  0.25883072458E+02  0.51100000000E-03 0.  1.
        -12    1    4    4    0    0 -0.13725401868E+02 -0.46528455439E+01 -0.18061022395E+01  0.14604712712E+02  0.00000000000E+00 0.  1.
</event>
<event>
 8    1  0.1290800E-006  0.9118800E+02  0.7816164E-02  0.1184000E+00
        -11   -1    0    0    0    0  0.00000000000E+00  0.00000000000E+00  0.45593999997E+02  0.45594000000E+02  0.51100000000E-03 0.  1.
         11   -1    0    0    0    0 -0.00000000000E+00 -0.00000000000E+00 -0.45593999997E+02  0.45594000000E+02  0.51100000000E-03 0. -1.
         23    2    1    2    0    0  0.00000000000E+00  0.00000000000E+00  0.00000000000E+00  0.91188000000E+02  0.91188000000E+02 0.  0.
    9900012    2    3    3    0    0 -0.23798253525E+02 -0.26461662614E+02 -0.94447798846E+01  0.54367077602E+02  0.39999985009E+02 0.  0.
        -12    1    3    3    0    0  0.23798253525E+02  0.26461662614E+02  0.94447798846E+01  0.36820922398E+02  0.00000000000E+00 0.  1.
         11    1    4    4    0    0  0.16871283569E+01  0.49834528339E+01 -0.97300374539E+01  0.11061411906E+02  0.51100000000E-03 0. -1.
        -11    1    4    4    0    0 -0.13644312736E+02 -0.93226353786E+01 -0.57518361694E+01  0.17497497536E+02  0.51100000000E-03 0.  1.
        -12    1    4    4    0    0 -0.11841069146E+02 -0.22122480070E+02  0.60370937388E+01  0.25808168160E+02  0.00000000000E+00 0.  1.
</event>
<event>
 8    1  0.1290800E-006  0.9118800E+02  0.7816164E-02  0.1184000E+00
        -11   -1    0    0    0    0  0.00000000000E+00  0.00000000000E+00  0.45593999997E+02  0.45594000000E+02  0.51100000000E-03 0.  1.
         11   -1    0    0    0    0 -0.00000000000E+00 -0.00000000000E+00 -0.45593999997E+02  0.45594000000E+02  0.51100000000E-03 0. -1.
         23    2    1    2    0    0  0.17763568394E-14  0.00000000000E+00  0.35527136788E-14  0.91188000000E+02  0.91188000000E+02 0.  0.
    9900012    2    3    3    0    0  0.13104107709E+02  0.18435468437E+02  0.29055032950E+02  0.54367094592E+02  0.40000023740E+02 0.  0.
         12    1    3    3    0    0 -0.13104107709E+02 -0.18435468437E+02 -0.29055032950E+02  0.36820905408E+02  0.00000000000E+00 0. -1.
         11    1    4    4    0    0 -0.69525965884E+00 -0.23249140090E+01  0.29862186419E+01  0.38478712532E+01  0.51100000000E-03 0. -1.
        -11    1    4    4    0    0  0.63398338742E+01  0.14891172993E+02 -0.58574237927E+01  0.17211912747E+02  0.51100000000E-03 0.  1.
        -12    1    4    4    0    0  0.74595334938E+01  0.58692094531E+01  0.31926238101E+02  0.33307310591E+02  0.00000000000E+00 0.  1.
</event>
<event>
 8    1  0.1290800E-006  0.9118800E+02  0.7816164E-02  0.1184000E+00
        -11   -1    0    0    0    0  0.00000000000E+00  0.00000000000E+00  0.45593999997E+02  0.45594000000E+02  0.51100000000E-03 0.  1.
         11   -1    0    0    0    0 -0.00000000000E+00 -0.00000000000E+00 -0.45593999997E+02  0.45594000000E+02  0.51100000000E-03 0. -1.
         23    2    1    2    0    0 -0.88817841970E-15  0.35527136788E-14  0.00000000000E+00  0.91188000000E+02  0.91188000000E+02 0.  0.
    9900012    2    3    3    0    0  0.59617541712E+01 -0.10819256855E+02  0.34686868551E+02  0.54367113515E+02  0.40000066879E+02 0.  0.
         12    1    3    3    0    0 -0.59617541712E+01  0.10819256855E+02 -0.34686868551E+02  0.36820886485E+02  0.00000000000E+00 0. -1.
         11    1    4    4    0    0  0.11742077713E+02  0.12811818460E+02  0.12675384234E+02  0.21510101046E+02  0.51100000000E-03 0. -1.
        -11    1    4    4    0    0 -0.31432317576E+01 -0.92851436088E+01  0.91799290795E+01  0.13429999847E+02  0.51100000000E-03 0.  1.
         12    1    4    4    0    0 -0.26370917843E+01 -0.14345931706E+02  0.12831555238E+02  0.19427012622E+02  0.00000000000E+00 0. -1.
</event>
<event>
 8    1  0.1290800E-006  0.9118800E+02  0.7816164E-02  0.1184000E+00
        -11   -1    0    0    0    0  0.00000000000E+00  0.00000000000E+00  0.45593999997E+02  0.45594000000E+02  0.51100000000E-03 0.  1.
         11   -1    0    0    0    0 -0.00000000000E+00 -0.00000000000E+00 -0.45593999997E+02  0.45594000000E+02  0.51100000000E-03 0. -1.
         23    2    1    2    0    0 -0.35527136788E-14  0.00000000000E+00  0.17763568394E-14  0.91188000000E+02  0.91188000000E+02 0.  0.
    9900012    2    3    3    0    0 -0.23803115789E+02 -0.25532270181E+02  0.11717228187E+02  0.54367101338E+02  0.40000039121E+02 0.  0.
         12    1    3    3    0    0  0.23803115789E+02  0.25532270181E+02 -0.11717228187E+02  0.36820898662E+02  0.00000000000E+00 0. -1.
         11    1    4    4    0    0 -0.12674336979E+02 -0.18241499775E+02 -0.65945082991E+01  0.23170642457E+02  0.51100000000E-03 0. -1.
        -11    1    4    4    0    0  0.25490407083E+01 -0.10713256016E+02  0.63876166472E+01  0.12730793758E+02  0.51100000000E-03 0.  1.
        -12    1    4    4    0    0 -0.13677819518E+02  0.34224856107E+01  0.11924119839E+02  0.18465665123E+02  0.00000000000E+00 0.  1.
</event>
<event>
 8    1  0.1290800E-006  0.9118800E+02  0.7816164E-02  0.1184000E+00
        -11   -1    0    0    0    0  0.00000000000E+00  0.00000000000E+00  0.45593999997E+02  0.45594000000E+02  0.51100000000E-03 0.  1.
         11   -1    0    0    0    0 -0.00000000000E+00 -0.00000000000E+00 -0.45593999997E+02  0.45594000000E+02  0.51100000000E-03 0. -1.
         23    2    1    2    0    0 -0.35527136788E-14  0.00000000000E+00  0.00000000000E+00  0.91188000000E+02  0.91188000000E+02 0.  0.
    9900012    2    3    3    0    0  0.26771849619E+02 -0.25109317026E+02 -0.29278054004E+01  0.54367057888E+02  0.39999940067E+02 0.  0.
        -12    1    3    3    0    0 -0.26771849619E+02  0.25109317026E+02  0.29278054004E+01  0.36820942112E+02  0.00000000000E+00 0.  1.
         11    1    4    4    0    0 -0.54551953099E+01  0.42108949192E-01  0.41116870772E+01  0.68313175826E+01  0.51100000000E-03 0.  1.
        -11    1    4    4    0    0  0.19170617659E+02 -0.21129138378E+01  0.23719849781E+01  0.19432017376E+02  0.51100000000E-03 0. -1.
         12    1    4    4    0    0  0.13056427270E+02 -0.23038512138E+02 -0.94114774556E+01  0.28103722929E+02  0.00000000000E+00 0. -1.
</event>
<event>
 8    1  0.1290800E-006  0.9118800E+02  0.7816164E-02  0.1184000E+00
        -11   -1    0    0    0    0  0.00000000000E+00  0.00000000000E+00  0.45593999997E+02  0.45594000000E+02  0.51100000000E-03 0. -1.
         11   -1    0    0    0    0 -0.00000000000E+00 -0.00000000000E+00 -0.45593999997E+02  0.45594000000E+02  0.51100000000E-03 0.  1.
         23    2    1    2    0    0 -0.35527136788E-14  0.00000000000E+00 -0.71054273576E-14  0.91188000000E+02  0.91188000000E+02 0.  0.
    9900012    2    3    3    0    0  0.22586799365E+02 -0.17017098441E+02  0.23580399227E+02  0.54367076972E+02  0.39999983574E+02 0.  0.
        -12    1    3    3    0    0 -0.22586799365E+02  0.17017098441E+02 -0.23580399227E+02  0.36820923028E+02  0.00000000000E+00 0.  1.
         11    1    4    4    0    0 -0.29029405276E+01 -0.11068895890E+02 -0.33203643085E+00  0.11448046488E+02  0.51100000000E-03 0. -1.
        -11    1    4    4    0    0  0.38588013914E+01  0.68786757896E+01 -0.45724538476E+00  0.79003545743E+01  0.51100000000E-03 0.  1.
         12    1    4    4    0    0  0.21630938501E+02 -0.12826878340E+02  0.24369681043E+02  0.35018675911E+02  0.00000000000E+00 0. -1.
</event>
<event>
 8    1  0.1290800E-006  0.9118800E+02  0.7816164E-02  0.1184000E+00
        -11   -1    0    0    0    0  0.00000000000E+00  0.00000000000E+00  0.45593999997E+02  0.45594000000E+02  0.51100000000E-03 0. -1.
         11   -1    0    0    0    0 -0.00000000000E+00 -0.00000000000E+00 -0.45593999997E+02  0.45594000000E+02  0.51100000000E-03 0.  1.
         23    2    1    2    0    0  0.71054273576E-14  0.17763568394E-14  0.00000000000E+00  0.91188000000E+02  0.91188000000E+02 0.  0.
    9900012    2    3    3    0    0 -0.30632782657E+02  0.10605939954E+02 -0.17461992726E+02  0.54367156371E+02  0.40000164579E+02 0.  0.
        -12    1    3    3    0    0  0.30632782657E+02 -0.10605939954E+02  0.17461992726E+02  0.36820843629E+02  0.00000000000E+00 0.  1.
         11    1    4    4    0    0 -0.22192277944E+02  0.16697142172E+02 -0.23354317896E+01  0.27870163239E+02  0.51100000000E-03 0. -1.
        -11    1    4    4    0    0 -0.10880311507E+02 -0.93249729967E+01 -0.16828719736E+02  0.22102988669E+02  0.51100000000E-03 0.  1.
        -12    1    4    4    0    0  0.24398067942E+01  0.32337707781E+01  0.17021588004E+01  0.43940044629E+01  0.00000000000E+00 0.  1.
</event>
<event>
 8    1  0.1290800E-006  0.9118800E+02  0.7816164E-02  0.1184000E+00
        -11   -1    0    0    0    0  0.00000000000E+00  0.00000000000E+00  0.45593999997E+02  0.45594000000E+02  0.51100000000E-03 0.  1.
         11   -1    0    0    0    0 -0.00000000000E+00 -0.00000000000E+00 -0.45593999997E+02  0.45594000000E+02  0.51100000000E-03 0. -1.
         23    2    1    2    0    0  0.88817841970E-15  0.00000000000E+00  0.00000000000E+00  0.91188000000E+02  0.91188000000E+02 0.  0.
    9900012    2    3    3    0    0  0.34615157298E+01  0.61070647248E+01  0.36145569352E+02  0.54367075046E+02  0.39999979181E+02 0.  0.
         12    1    3    3    0    0 -0.34615157298E+01 -0.61070647248E+01 -0.36145569352E+02  0.36820924954E+02  0.00000000000E+00 0. -1.
         11    1    4    4    0    0 -0.13286432091E+02 -0.23855578841E+01  0.12086586761E+02  0.18119209251E+02  0.51100000000E-03 0. -1.
        -11    1    4    4    0    0  0.79032976000E+01  0.13388787187E+02  0.20051996674E+02  0.25373299079E+02  0.51100000000E-03 0.  1.
         12    1    4    4    0    0  0.88446502205E+01 -0.48961645777E+01  0.40069859177E+01  0.10874566715E+02  0.00000000000E+00 0. -1.
</event>
<event>
 8    1  0.1290800E-006  0.9118800E+02  0.7816164E-02  0.1184000E+00
        -11   -1    0    0    0    0  0.00000000000E+00  0.00000000000E+00  0.45593999997E+02  0.45594000000E+02  0.51100000000E-03 0.  1.
         11   -1    0    0    0    0 -0.00000000000E+00 -0.00000000000E+00 -0.45593999997E+02  0.45594000000E+02  0.51100000000E-03 0. -1.
         23    2    1    2    0    0  0.00000000000E+00  0.00000000000E+00  0.88817841970E-15  0.91188000000E+02  0.91188000000E+02 0.  0.
    9900012    2    3    3    0    0  0.33728962006E+02  0.13508319463E+02 -0.59717389224E+01  0.54367092373E+02  0.40000018683E+02 0.  0.
         12    1    3    3    0    0 -0.33728962006E+02 -0.13508319463E+02  0.59717389224E+01  0.36820907627E+02  0.00000000000E+00 0. -1.
         11    1    4    4    0    0  0.18103701914E+02 -0.76445200027E+01 -0.18919912423E+01  0.19742399555E+02  0.51100000000E-03 0. -1.
        -11    1    4    4    0    0  0.17619176806E+02  0.10624930764E+02 -0.94476027733E+01  0.22640268185E+02  0.51100000000E-03 0.  1.
        -12    1    4    4    0    0 -0.19939167138E+01  0.10527908701E+02  0.53678550932E+01  0.11984424633E+02  0.00000000000E+00 0.  1.
</event>
<event>
 8    1  0.1290800E-006  0.9118800E+02  0.7816164E-02  0.1184000E+00
        -11   -1    0    0    0    0  0.00000000000E+00  0.00000000000E+00  0.45593999997E+02  0.45594000000E+02  0.51100000000E-03 0.  1.
         11   -1    0    0    0    0 -0.00000000000E+00 -0.00000000000E+00 -0.45593999997E+02  0.45594000000E+02  0.51100000000E-03 0. -1.
         23    2    1    2    0    0 -0.35527136788E-14  0.00000000000E+00 -0.35527136788E-14  0.91188000000E+02  0.91188000000E+02 0.  0.
    9900012    2    3    3    0    0  0.20330501344E+02  0.30813080997E+01  0.30544331901E+02  0.54367082633E+02  0.39999996478E+02 0.  0.
         12    1    3    3    0    0 -0.20330501344E+02 -0.30813080997E+01 -0.30544331901E+02  0.36820917367E+02  0.00000000000E+00 0. -1.
         11    1    4    4    0    0  0.10649551106E+02 -0.11087206630E+02  0.40016602349E+01  0.15885602743E+02  0.51100000000E-03 0. -1.
        -11    1    4    4    0    0  0.16404012764E+02  0.11452816785E+02  0.15669593374E+02  0.25412493066E+02  0.51100000000E-03 0.  1.
         12    1    4    4    0    0 -0.67230625261E+01  0.27156979448E+01  0.10873078292E+02  0.13068986824E+02  0.00000000000E+00 0. -1.
</event>
<event>
 8    1  0.1290800E-006  0.9118800E+02  0.7816164E-02  0.1184000E+00
        -11   -1    0    0    0    0  0.00000000000E+00  0.00000000000E+00  0.45593999997E+02  0.45594000000E+02  0.51100000000E-03 0. -1.
         11   -1    0    0    0    0 -0.00000000000E+00 -0.00000000000E+00 -0.45593999997E+02  0.45594000000E+02  0.51100000000E-03 0.  1.
         23    2    1    2    0    0  0.00000000000E+00 -0.17763568394E-14 -0.35527136788E-14  0.91188000000E+02  0.91188000000E+02 0.  0.
    9900012    2    3    3    0    0  0.21606659993E+02 -0.15549333333E+02  0.25439156619E+02  0.54367079144E+02  0.39999988525E+02 0.  0.
        -12    1    3    3    0    0 -0.21606659993E+02  0.15549333333E+02 -0.25439156619E+02  0.36820920856E+02  0.00000000000E+00 0.  1.
         11    1    4    4    0    0  0.16536022860E+02  0.17451644868E+01  0.24504685683E+02  0.29613599440E+02  0.51100000000E-03 0. -1.
        -11    1    4    4    0    0  0.28898787090E+01 -0.20139296302E+02  0.30778025590E+01  0.20577063040E+02  0.51100000000E-03 0.  1.
        -12    1    4    4    0    0  0.21807584239E+01  0.28447984826E+01 -0.21433316224E+01  0.41764166643E+01  0.00000000000E+00 0.  1.
</event>
<event>
 8    1  0.1290800E-006  0.9118800E+02  0.7816164E-02  0.1184000E+00
        -11   -1    0    0    0    0  0.00000000000E+00  0.00000000000E+00  0.45593999997E+02  0.45594000000E+02  0.51100000000E-03 0.  1.
         11   -1    0    0    0    0 -0.00000000000E+00 -0.00000000000E+00 -0.45593999997E+02  0.45594000000E+02  0.51100000000E-03 0. -1.
         23    2    1    2    0    0  0.00000000000E+00  0.00000000000E+00 -0.71054273576E-14  0.91188000000E+02  0.91188000000E+02 0.  0.
    9900012    2    3    3    0    0 -0.96952792769E+01 -0.12825480647E+02 -0.33125410725E+02  0.54367024595E+02  0.39999864169E+02 0.  0.
        -12    1    3    3    0    0  0.96952792769E+01  0.12825480647E+02  0.33125410725E+02  0.36820975405E+02  0.00000000000E+00 0.  1.
         11    1    4    4    0    0 -0.19726014245E+02 -0.40626510068E+01 -0.12391490403E+02  0.23646771574E+02  0.51100000000E-03 0. -1.
        -11    1    4    4    0    0 -0.23081982509E+01 -0.57906271061E+01  0.20279459532E+00  0.62370078849E+01  0.51100000000E-03 0.  1.
         12    1    4    4    0    0  0.12338933219E+02 -0.29722025337E+01 -0.20936714917E+02  0.24483245136E+02  0.00000000000E+00 0. -1.
</event>
<event>
 8    1  0.1290800E-006  0.9118800E+02  0.7816164E-02  0.1184000E+00
        -11   -1    0    0    0    0  0.00000000000E+00  0.00000000000E+00  0.45593999997E+02  0.45594000000E+02  0.51100000000E-03 0. -1.
         11   -1    0    0    0    0 -0.00000000000E+00 -0.00000000000E+00 -0.45593999997E+02  0.45594000000E+02  0.51100000000E-03 0.  1.
         23    2    1    2    0    0  0.88817841970E-15 -0.35527136788E-14  0.35527136788E-14  0.91188000000E+02  0.91188000000E+02 0.  0.
    9900012    2    3    3    0    0  0.25022422570E+01  0.19169207357E+02 -0.31337815381E+02  0.54367103761E+02  0.40000044643E+02 0.  0.
         12    1    3    3    0    0 -0.25022422570E+01 -0.19169207357E+02  0.31337815381E+02  0.36820896239E+02  0.00000000000E+00 0. -1.
         11    1    4    4    0    0  0.26397286129E+01  0.16180505751E+02 -0.15719342416E+02  0.22712874317E+02  0.51100000000E-03 0. -1.
        -11    1    4    4    0    0  0.56563289573E+01  0.82096717265E+01  0.38457428426E+01  0.10685621433E+02  0.51100000000E-03 0.  1.
         12    1    4    4    0    0 -0.57938153131E+01 -0.52209701203E+01 -0.19464215808E+02  0.20968608011E+02  0.00000000000E+00 0. -1.
</event>
<event>
 8    1  0.1290800E-006  0.9118800E+02  0.7816164E-02  0.1184000E+00
        -11   -1    0    0    0    0  0.00000000000E+00  0.00000000000E+00  0.45593999997E+02  0.45594000000E+02  0.51100000000E-03 0.  1.
         11   -1    0    0    0    0 -0.00000000000E+00 -0.00000000000E+00 -0.45593999997E+02  0.45594000000E+02  0.51100000000E-03 0. -1.
         23    2    1    2    0    0  0.00000000000E+00 -0.35527136788E-14  0.00000000000E+00  0.91188000000E+02  0.91188000000E+02 0.  0.
    9900012    2    3    3    0    0  0.60676019322E+01  0.21986184823E+02  0.28906244006E+02  0.54367094813E+02  0.40000024246E+02 0.  0.
         12    1    3    3    0    0 -0.60676019322E+01 -0.21986184823E+02 -0.28906244006E+02  0.36820905187E+02  0.00000000000E+00 0. -1.
         11    1    4    4    0    0 -0.10288807592E+02 -0.43935464093E+01  0.76290853104E+01  0.13541261191E+02  0.51100000000E-03 0. -1.
        -11    1    4    4    0    0  0.86428947018E+01  0.19838447584E+02  0.21776493344E+02  0.30699825634E+02  0.51100000000E-03 0.  1.
        -12    1    4    4    0    0  0.77135148223E+01  0.65412836478E+01 -0.49933464855E+00  0.10126007988E+02  0.00000000000E+00 0.  1.
</event>
<event>
 8    1  0.1290800E-006  0.9118800E+02  0.7816164E-02  0.1184000E+00
        -11   -1    0    0    0    0  0.00000000000E+00  0.00000000000E+00  0.45593999997E+02  0.45594000000E+02  0.51100000000E-03 0.  1.
         11   -1    0    0    0    0 -0.00000000000E+00 -0.00000000000E+00 -0.45593999997E+02  0.45594000000E+02  0.51100000000E-03 0. -1.
         23    2    1    2    0    0  0.00000000000E+00 -0.88817841970E-15 -0.17763568394E-14  0.91188000000E+02  0.91188000000E+02 0.  0.
    9900012    2    3    3    0    0 -0.34121750997E+02  0.50675373116E+01  0.12876553210E+02  0.54367089527E+02  0.40000012194E+02 0.  0.
         12    1    3    3    0    0  0.34121750997E+02 -0.50675373116E+01 -0.12876553210E+02  0.36820910473E+02  0.00000000000E+00 0. -1.
         11    1    4    4    0    0 -0.72054861612E+01  0.15733427747E+02  0.18818125635E+01  0.17406923860E+02  0.51100000000E-03 0. -1.
        -11    1    4    4    0    0 -0.14006709375E+02 -0.12910675311E+02 -0.11639703109E+01  0.19084765434E+02  0.51100000000E-03 0.  1.
         12    1    4    4    0    0 -0.12909555461E+02  0.22447848758E+01  0.12158710957E+02  0.17875400233E+02  0.00000000000E+00 0. -1.
</event>
<event>
 8    1  0.1290800E-006  0.9118800E+02  0.7816164E-02  0.1184000E+00
        -11   -1    0    0    0    0  0.00000000000E+00  0.00000000000E+00  0.45593999997E+02  0.45594000000E+02  0.51100000000E-03 0. -1.
         11   -1    0    0    0    0 -0.00000000000E+00 -0.00000000000E+00 -0.45593999997E+02  0.45594000000E+02  0.51100000000E-03 0.  1.
         23    2    1    2    0    0  0.17763568394E-14  0.88817841970E-15  0.00000000000E+00  0.91188000000E+02  0.91188000000E+02 0.  0.
    9900012    2    3    3    0    0  0.15046918270E+02  0.41489310419E+01 -0.33349016650E+02  0.54367078097E+02  0.39999986138E+02 0.  0.
         12    1    3    3    0    0 -0.15046918270E+02 -0.41489310419E+01  0.33349016650E+02  0.36820921903E+02  0.00000000000E+00 0. -1.
         11    1    4    4    0    0  0.37690678580E+01  0.85045548177E+01  0.65863908055E+01  0.11397976543E+02  0.51100000000E-03 0. -1.
        -11    1    4    4    0    0  0.82239779116E+01  0.21935837124E+01 -0.18930689846E+02  0.20756122965E+02  0.51100000000E-03 0.  1.
         12    1    4    4    0    0  0.30538725008E+01 -0.65492074882E+01 -0.21004717610E+02  0.22212978590E+02  0.00000000000E+00 0. -1.
</event>
<event>
 8    1  0.1290800E-006  0.9118800E+02  0.7816164E-02  0.1184000E+00
        -11   -1    0    0    0    0  0.00000000000E+00  0.00000000000E+00  0.45593999997E+02  0.45594000000E+02  0.51100000000E-03 0.  1.
         11   -1    0    0    0    0 -0.00000000000E+00 -0.00000000000E+00 -0.45593999997E+02  0.45594000000E+02  0.51100000000E-03 0. -1.
         23    2    1    2    0    0  0.44408920985E-15 -0.88817841970E-15  0.71054273576E-14  0.91188000000E+02  0.91188000000E+02 0.  0.
    9900012    2    3    3    0    0 -0.57148276225E+00  0.13306174328E+01 -0.36792445486E+02  0.54367066007E+02  0.39999958575E+02 0.  0.
        -12    1    3    3    0    0  0.57148276225E+00 -0.13306174328E+01  0.36792445486E+02  0.36820933993E+02  0.00000000000E+00 0.  1.
         11    1    4    4    0    0 -0.59362035777E+01 -0.18794175067E+01 -0.24442421967E+02  0.25223059191E+02  0.51100000000E-03 0. -1.
        -11    1    4    4    0    0  0.12588824040E+02  0.10084178108E+02 -0.54827918756E+01  0.17036142340E+02  0.51100000000E-03 0.  1.
        -12    1    4    4    0    0 -0.72241032245E+01 -0.68741431688E+01 -0.68672316435E+01  0.12107864475E+02  0.00000000000E+00 0.  1.
</event>
<event>
 8    1  0.1290800E-006  0.9118800E+02  0.7816164E-02  0.1184000E+00
        -11   -1    0    0    0    0  0.00000000000E+00  0.00000000000E+00  0.45593999997E+02  0.45594000000E+02  0.51100000000E-03 0. -1.
         11   -1    0    0    0    0 -0.00000000000E+00 -0.00000000000E+00 -0.45593999997E+02  0.45594000000E+02  0.51100000000E-03 0.  1.
         23    2    1    2    0    0  0.00000000000E+00  0.00000000000E+00  0.00000000000E+00  0.91188000000E+02  0.91188000000E+02 0.  0.
    9900012    2    3    3    0    0 -0.36568777679E+01  0.16164869609E+02 -0.32880160586E+02  0.54367072191E+02  0.39999972675E+02 0.  0.
         12    1    3    3    0    0  0.36568777679E+01 -0.16164869609E+02  0.32880160586E+02  0.36820927809E+02  0.00000000000E+00 0. -1.
         11    1    4    4    0    0 -0.50281899422E+01  0.10397335536E+02 -0.30201161371E+02  0.32334152668E+02  0.51100000000E-03 0. -1.
        -11    1    4    4    0    0 -0.79367223794E+01  0.41206803867E+01 -0.72694876613E+01  0.11524626679E+02  0.51100000000E-03 0.  1.
         12    1    4    4    0    0  0.93080345538E+01  0.16468536864E+01  0.45904884460E+01  0.10508292844E+02  0.00000000000E+00 0. -1.
</event>
<event>
 8    1  0.1290800E-006  0.9118800E+02  0.7816164E-02  0.1184000E+00
        -11   -1    0    0    0    0  0.00000000000E+00  0.00000000000E+00  0.45593999997E+02  0.45594000000E+02  0.51100000000E-03 0. -1.
         11   -1    0    0    0    0 -0.00000000000E+00 -0.00000000000E+00 -0.45593999997E+02  0.45594000000E+02  0.51100000000E-03 0.  1.
         23    2    1    2    0    0 -0.17763568394E-14 -0.17763568394E-14  0.00000000000E+00  0.91188000000E+02  0.91188000000E+02 0.  0.
    9900012    2    3    3    0    0  0.10699551207E+02  0.10118479327E+02  0.33747837259E+02  0.54367074705E+02  0.39999978406E+02 0.  0.
        -12    1    3    3    0    0 -0.10699551207E+02 -0.10118479327E+02 -0.33747837259E+02  0.36820925295E+02  0.00000000000E+00 0.  1.
         11    1    4    4    0    0  0.14337754905E+02  0.16476553553E+02  0.38654924241E+02  0.44398774770E+02  0.51100000000E-03 0.  1.
        -11    1    4    4    0    0 -0.29892173471E+01 -0.22417522976E+01 -0.28836283839E+00  0.37475361372E+01  0.51100000000E-03 0. -1.
        -12    1    4    4    0    0 -0.64898635067E+00 -0.41163219292E+01 -0.46187241443E+01  0.62207637979E+01  0.00000000000E+00 0.  1.
</event>
<event>
 8    1  0.1290800E-006  0.9118800E+02  0.7816164E-02  0.1184000E+00
        -11   -1    0    0    0    0  0.00000000000E+00  0.00000000000E+00  0.45593999997E+02  0.45594000000E+02  0.51100000000E-03 0.  1.
         11   -1    0    0    0    0 -0.00000000000E+00 -0.00000000000E+00 -0.45593999997E+02  0.45594000000E+02  0.51100000000E-03 0. -1.
         23    2    1    2    0    0  0.35527136788E-14  0.00000000000E+00  0.00000000000E+00  0.91188000000E+02  0.91188000000E+02 0.  0.
    9900012    2    3    3    0    0  0.26833851908E+02  0.23514126970E+02  0.91000634976E+01  0.54367069389E+02  0.39999966286E+02 0.  0.
         12    1    3    3    0    0 -0.26833851908E+02 -0.23514126970E+02 -0.91000634976E+01  0.36820930611E+02  0.00000000000E+00 0. -1.
         11    1    4    4    0    0 -0.70050020815E+00 -0.21769659395E+01 -0.26753901802E+01  0.35196014150E+01  0.51100000000E-03 0. -1.
        -11    1    4    4    0    0  0.21356526332E+01 -0.64617604666E+01  0.67168969104E+01  0.95620115490E+01  0.51100000000E-03 0.  1.
        -12    1    4    4    0    0  0.25398699483E+02  0.32152853376E+02  0.50585567675E+01  0.41285456425E+02  0.00000000000E+00 0.  1.
</event>
<event>
 8    1  0.1290800E-006  0.9118800E+02  0.7816164E-02  0.1184000E+00
        -11   -1    0    0    0    0  0.00000000000E+00  0.00000000000E+00  0.45593999997E+02  0.45594000000E+02  0.51100000000E-03 0. -1.
         11   -1    0    0    0    0 -0.00000000000E+00 -0.00000000000E+00 -0.45593999997E+02  0.45594000000E+02  0.51100000000E-03 0.  1.
         23    2    1    2    0    0  0.00000000000E+00  0.17763568394E-14 -0.35527136788E-14  0.91188000000E+02  0.91188000000E+02 0.  0.
    9900012    2    3    3    0    0  0.31816549869E+02 -0.57863726180E+01  0.17607085866E+02  0.54367021926E+02  0.39999858085E+02 0.  0.
        -12    1    3    3    0    0 -0.31816549869E+02  0.57863726180E+01 -0.17607085866E+02  0.36820978074E+02  0.00000000000E+00 0.  1.
         11    1    4    4    0    0  0.14974728474E+02  0.94200753636E+01  0.34748463433E+01  0.18029278136E+02  0.51100000000E-03 0.  1.
        -11    1    4    4    0    0 -0.31859418080E+01  0.37822075093E+01  0.55544855576E+01  0.74369099039E+01  0.51100000000E-03 0. -1.
         12    1    4    4    0    0  0.20027763203E+02 -0.18988655491E+02  0.85777539650E+01  0.28900833886E+02  0.00000000000E+00 0. -1.
</event>
<event>
 8    1  0.1290800E-006  0.9118800E+02  0.7816164E-02  0.1184000E+00
        -11   -1    0    0    0    0  0.00000000000E+00  0.00000000000E+00  0.45593999997E+02  0.45594000000E+02  0.51100000000E-03 0.  1.
         11   -1    0    0    0    0 -0.00000000000E+00 -0.00000000000E+00 -0.45593999997E+02  0.45594000000E+02  0.51100000000E-03 0. -1.
         23    2    1    2    0    0  0.00000000000E+00  0.17763568394E-14  0.35527136788E-14  0.91188000000E+02  0.91188000000E+02 0.  0.
    9900012    2    3    3    0    0  0.18890899218E+02  0.15855867112E+02  0.27340551094E+02  0.54367077561E+02  0.39999984916E+02 0.  0.
         12    1    3    3    0    0 -0.18890899218E+02 -0.15855867112E+02 -0.27340551094E+02  0.36820922439E+02  0.00000000000E+00 0. -1.
         11    1    4    4    0    0  0.22843024148E+01 -0.11718744807E+02  0.18110769508E+01  0.12075885780E+02  0.51100000000E-03 0. -1.
        -11    1    4    4    0    0  0.11885008468E+02  0.11014370992E+02  0.96070610811E+01  0.18837871895E+02  0.51100000000E-03 0.  1.
         12    1    4    4    0    0  0.47215883355E+01  0.16560240927E+02  0.15922413062E+02  0.23453319886E+02  0.00000000000E+00 0. -1.
</event>
<event>
 8    1  0.1290800E-006  0.9118800E+02  0.7816164E-02  0.1184000E+00
        -11   -1    0    0    0    0  0.00000000000E+00  0.00000000000E+00  0.45593999997E+02  0.45594000000E+02  0.51100000000E-03 0. -1.
         11   -1    0    0    0    0 -0.00000000000E+00 -0.00000000000E+00 -0.45593999997E+02  0.45594000000E+02  0.51100000000E-03 0.  1.
         23    2    1    2    0    0  0.35527136788E-14  0.00000000000E+00  0.00000000000E+00  0.91188000000E+02  0.91188000000E+02 0.  0.
    9900012    2    3    3    0    0 -0.10428390607E+02 -0.22473731640E+02 -0.27238935559E+02  0.54367088077E+02  0.40000008889E+02 0.  0.
         12    1    3    3    0    0  0.10428390607E+02  0.22473731640E+02  0.27238935559E+02  0.36820911923E+02  0.00000000000E+00 0. -1.
         11    1    4    4    0    0 -0.43437739109E+00 -0.18900926080E+01  0.24207401887E+01  0.31017925635E+01  0.51100000000E-03 0. -1.
        -11    1    4    4    0    0  0.11020669894E+02  0.43213884794E+00 -0.13512111307E+02  0.17441876652E+02  0.51100000000E-03 0.  1.
        -12    1    4    4    0    0 -0.21014683110E+02 -0.21015777880E+02 -0.16147564440E+02  0.33823418861E+02  0.00000000000E+00 0.  1.
</event>
<event>
 8    1  0.1290800E-006  0.9118800E+02  0.7816164E-02  0.1184000E+00
        -11   -1    0    0    0    0  0.00000000000E+00  0.00000000000E+00  0.45593999997E+02  0.45594000000E+02  0.51100000000E-03 0. -1.
         11   -1    0    0    0    0 -0.00000000000E+00 -0.00000000000E+00 -0.45593999997E+02  0.45594000000E+02  0.51100000000E-03 0.  1.
         23    2    1    2    0    0  0.00000000000E+00 -0.17763568394E-14 -0.35527136788E-14  0.91188000000E+02  0.91188000000E+02 0.  0.
    9900012    2    3    3    0    0 -0.12827241917E+02 -0.14199993068E+02 -0.31457941505E+02  0.54367081732E+02  0.39999994425E+02 0.  0.
         12    1    3    3    0    0  0.12827241917E+02  0.14199993068E+02  0.31457941505E+02  0.36820918268E+02  0.00000000000E+00 0. -1.
         11    1    4    4    0    0 -0.23553662605E+02 -0.74225372942E+01 -0.17269239177E+02  0.30134626330E+02  0.51100000000E-03 0. -1.
        -11    1    4    4    0    0  0.57748307181E+01 -0.68848228977E+01  0.22776389243E+00  0.89889561578E+01  0.51100000000E-03 0.  1.
         12    1    4    4    0    0  0.49515899702E+01  0.10736712401E+00 -0.14416466221E+02  0.15243499245E+02  0.00000000000E+00 0. -1.
</event>
<event>
 8    1  0.1290800E-006  0.9118800E+02  0.7816164E-02  0.1184000E+00
        -11   -1    0    0    0    0  0.00000000000E+00  0.00000000000E+00  0.45593999997E+02  0.45594000000E+02  0.51100000000E-03 0.  1.
         11   -1    0    0    0    0 -0.00000000000E+00 -0.00000000000E+00 -0.45593999997E+02  0.45594000000E+02  0.51100000000E-03 0. -1.
         23    2    1    2    0    0  0.00000000000E+00  0.35527136788E-14  0.17763568394E-14  0.91188000000E+02  0.91188000000E+02 0.  0.
    9900012    2    3    3    0    0  0.14646117159E+02  0.30610890308E+02  0.14291464851E+02  0.54367064095E+02  0.39999954218E+02 0.  0.
         12    1    3    3    0    0 -0.14646117159E+02 -0.30610890308E+02 -0.14291464851E+02  0.36820935905E+02  0.00000000000E+00 0. -1.
         11    1    4    4    0    0  0.38199596568E+01 -0.96623219670E+00  0.93686068952E+01  0.10163488174E+02  0.51100000000E-03 0. -1.
        -11    1    4    4    0    0 -0.69023856222E+01  0.23130704376E+02  0.45412261025E+01  0.24562067237E+02  0.51100000000E-03 0.  1.
         12    1    4    4    0    0  0.17728543125E+02  0.84464181291E+01  0.38163185327E+00  0.19641508685E+02  0.00000000000E+00 0. -1.
</event>
<event>
 8    1  0.1290800E-006  0.9118800E+02  0.7816164E-02  0.1184000E+00
        -11   -1    0    0    0    0  0.00000000000E+00  0.00000000000E+00  0.45593999997E+02  0.45594000000E+02  0.51100000000E-03 0.  1.
         11   -1    0    0    0    0 -0.00000000000E+00 -0.00000000000E+00 -0.45593999997E+02  0.45594000000E+02  0.51100000000E-03 0. -1.
         23    2    1    2    0    0  0.00000000000E+00  0.88817841970E-15  0.35527136788E-14  0.91188000000E+02  0.91188000000E+02 0.  0.
    9900012    2    3    3    0    0 -0.18388962215E+02 -0.28327030381E+01  0.31774233112E+02  0.54367081656E+02  0.39999994251E+02 0.  0.
         12    1    3    3    0    0  0.18388962215E+02  0.28327030381E+01 -0.31774233112E+02  0.36820918344E+02  0.00000000000E+00 0. -1.
         11    1    4    4    0    0 -0.15319338081E+02  0.69137765783E+01 -0.28496113772E+01  0.17047073388E+02  0.51100000000E-03 0. -1.
        -11    1    4    4    0    0 -0.11647000898E+01  0.15844255719E+01  0.93856014067E+01  0.95893923018E+01  0.51100000000E-03 0.  1.
         12    1    4    4    0    0 -0.19049240440E+01 -0.11330905188E+02  0.25238243082E+02  0.27730615967E+02  0.00000000000E+00 0. -1.
</event>
<event>
 8    1  0.1290800E-006  0.9118800E+02  0.7816164E-02  0.1184000E+00
        -11   -1    0    0    0    0  0.00000000000E+00  0.00000000000E+00  0.45593999997E+02  0.45594000000E+02  0.51100000000E-03 0.  1.
         11   -1    0    0    0    0 -0.00000000000E+00 -0.00000000000E+00 -0.45593999997E+02  0.45594000000E+02  0.51100000000E-03 0. -1.
         23    2    1    2    0    0  0.00000000000E+00  0.44408920985E-15  0.00000000000E+00  0.91188000000E+02  0.91188000000E+02 0.  0.
    9900012    2    3    3    0    0 -0.89031339490E+01  0.20526447062E+01 -0.35669332759E+02  0.54367076004E+02  0.39999981367E+02 0.  0.
        -12    1    3    3    0    0  0.89031339490E+01 -0.20526447062E+01  0.35669332759E+02  0.36820923996E+02  0.00000000000E+00 0.  1.
         11    1    4    4    0    0  0.26025080283E+01  0.14690809248E+00  0.57394982672E+00  0.26690913604E+01  0.51100000000E-03 0. -1.
        -11    1    4    4    0    0 -0.10815464884E+01  0.14249800120E+02 -0.28085010171E+01  0.14564141735E+02  0.51100000000E-03 0.  1.
        -12    1    4    4    0    0 -0.10424095489E+02 -0.12344063506E+02 -0.33434781569E+02  0.37133842909E+02  0.00000000000E+00 0.  1.
</event>
<event>
 8    1  0.1290800E-006  0.9118800E+02  0.7816164E-02  0.1184000E+00
        -11   -1    0    0    0    0  0.00000000000E+00  0.00000000000E+00  0.45593999997E+02  0.45594000000E+02  0.51100000000E-03 0.  1.
         11   -1    0    0    0    0 -0.00000000000E+00 -0.00000000000E+00 -0.45593999997E+02  0.45594000000E+02  0.51100000000E-03 0. -1.
         23    2    1    2    0    0  0.44408920985E-15  0.00000000000E+00  0.00000000000E+00  0.91188000000E+02  0.91188000000E+02 0.  0.
    9900012    2    3    3    0    0  0.20323708834E+01  0.25743934004E+02 -0.26246913034E+02  0.54367066915E+02  0.39999960647E+02 0.  0.
        -12    1    3    3    0    0 -0.20323708834E+01 -0.25743934004E+02  0.26246913034E+02  0.36820933085E+02  0.00000000000E+00 0.  1.
         11    1    4    4    0    0  0.99127095501E+01  0.17058870567E+02 -0.13842886218E+02  0.24101708959E+02  0.51100000000E-03 0. -1.
        -11    1    4    4    0    0 -0.33339611619E+01  0.63205985277E+01 -0.19923208606E+02  0.21165998776E+02  0.51100000000E-03 0.  1.
         12    1    4    4    0    0 -0.45463775048E+01  0.23644649092E+01  0.75191817890E+01  0.90993591807E+01  0.00000000000E+00 0. -1.
</event>
<event>
 8    1  0.1290800E-006  0.9118800E+02  0.7816164E-02  0.1184000E+00
        -11   -1    0    0    0    0  0.00000000000E+00  0.00000000000E+00  0.45593999997E+02  0.45594000000E+02  0.51100000000E-03 0. -1.
         11   -1    0    0    0    0 -0.00000000000E+00 -0.00000000000E+00 -0.45593999997E+02  0.45594000000E+02  0.51100000000E-03 0.  1.
         23    2    1    2    0    0  0.35527136788E-14  0.17763568394E-14  0.35527136788E-14  0.91188000000E+02  0.91188000000E+02 0.  0.
    9900012    2    3    3    0    0 -0.23442294012E+02 -0.13868586894E+02 -0.24777022378E+02  0.54367086257E+02  0.40000004740E+02 0.  0.
         12    1    3    3    0    0  0.23442294012E+02  0.13868586894E+02  0.24777022378E+02  0.36820913743E+02  0.00000000000E+00 0. -1.
         11    1    4    4    0    0  0.43499063933E+00  0.78373017574E+01  0.20792926355E+01  0.81200969094E+01  0.51100000000E-03 0. -1.
        -11    1    4    4    0    0 -0.16403266972E+02 -0.47051568760E+01 -0.20375481744E+02  0.26577545506E+02  0.51100000000E-03 0.  1.
        -12    1    4    4    0    0 -0.74740176795E+01 -0.17000731775E+02 -0.64808332692E+01  0.19669443841E+02  0.00000000000E+00 0.  1.
</event>
<event>
 8    1  0.1290800E-006  0.9118800E+02  0.7816164E-02  0.1184000E+00
        -11   -1    0    0    0    0  0.00000000000E+00  0.00000000000E+00  0.45593999997E+02  0.45594000000E+02  0.51100000000E-03 0.  1.
         11   -1    0    0    0    0 -0.00000000000E+00 -0.00000000000E+00 -0.45593999997E+02  0.45594000000E+02  0.51100000000E-03 0. -1.
         23    2    1    2    0    0  0.35527136788E-14 -0.35527136788E-14  0.00000000000E+00  0.91188000000E+02  0.91188000000E+02 0.  0.
    9900012    2    3    3    0    0 -0.24056584455E+02  0.26002592776E+02 -0.10046314729E+02  0.54367047726E+02  0.39999916901E+02 0.  0.
        -12    1    3    3    0    0  0.24056584455E+02 -0.26002592776E+02  0.10046314729E+02  0.36820952274E+02  0.00000000000E+00 0.  1.
         11    1    4    4    0    0 -0.17429137705E+02  0.53647947783E+01 -0.69961545677E+01  0.19532077287E+02  0.51100000000E-03 0. -1.
        -11    1    4    4    0    0 -0.30741955647E+01  0.16847084779E+02 -0.14385540505E+02  0.22365569964E+02  0.51100000000E-03 0.  1.
         12    1    4    4    0    0 -0.35532511858E+01  0.37907132185E+01  0.11335380343E+02  0.12469400475E+02  0.00000000000E+00 0. -1.
</event>
<event>
 8    1  0.1290800E-006  0.9118800E+02  0.7816164E-02  0.1184000E+00
        -11   -1    0    0    0    0  0.00000000000E+00  0.00000000000E+00  0.45593999997E+02  0.45594000000E+02  0.51100000000E-03 0.  1.
         11   -1    0    0    0    0 -0.00000000000E+00 -0.00000000000E+00 -0.45593999997E+02  0.45594000000E+02  0.51100000000E-03 0. -1.
         23    2    1    2    0    0  0.00000000000E+00  0.66613381478E-15  0.00000000000E+00  0.91188000000E+02  0.91188000000E+02 0.  0.
    9900012    2    3    3    0    0 -0.34610681578E+02 -0.11435255576E+01  0.12512904947E+02  0.54367085831E+02  0.40000003770E+02 0.  0.
         12    1    3    3    0    0  0.34610681578E+02  0.11435255576E+01 -0.12512904947E+02  0.36820914169E+02  0.00000000000E+00 0. -1.
         11    1    4    4    0    0 -0.10162613146E+02 -0.12128234660E+02 -0.93108653576E+01  0.18359329941E+02  0.51100000000E-03 0. -1.
        -11    1    4    4    0    0 -0.16719703832E+02  0.53166704497E+01  0.19329372027E+02  0.26104407753E+02  0.51100000000E-03 0.  1.
         12    1    4    4    0    0 -0.77283646000E+01  0.56680386530E+01  0.24943982779E+01  0.99033481374E+01  0.00000000000E+00 0. -1.
</event>
<event>
 8    1  0.1290800E-006  0.9118800E+02  0.7816164E-02  0.1184000E+00
        -11   -1    0    0    0    0  0.00000000000E+00  0.00000000000E+00  0.45593999997E+02  0.45594000000E+02  0.51100000000E-03 0. -1.
         11   -1    0    0    0    0 -0.00000000000E+00 -0.00000000000E+00 -0.45593999997E+02  0.45594000000E+02  0.51100000000E-03 0.  1.
         23    2    1    2    0    0  0.35527136788E-14  0.00000000000E+00  0.00000000000E+00  0.91188000000E+02  0.91188000000E+02 0.  0.
    9900012    2    3    3    0    0 -0.15486545457E+02  0.87097411148E+01 -0.32250378006E+02  0.54367087980E+02  0.40000008667E+02 0.  0.
         12    1    3    3    0    0  0.15486545457E+02 -0.87097411148E+01  0.32250378006E+02  0.36820912020E+02  0.00000000000E+00 0. -1.
         11    1    4    4    0    0  0.10759810230E+02  0.33668513955E+00 -0.13408383064E+02  0.17195104237E+02  0.51100000000E-03 0. -1.
        -11    1    4    4    0    0 -0.16404192676E+02  0.10267308545E+02 -0.48329905291E+01  0.19946753115E+02  0.51100000000E-03 0.  1.
         12    1    4    4    0    0 -0.98421630107E+01 -0.18942525701E+01 -0.14009004413E+02  0.17225230627E+02  0.00000000000E+00 0. -1.
</event>
<event>
 8    1  0.1290800E-006  0.9118800E+02  0.7816164E-02  0.1184000E+00
        -11   -1    0    0    0    0  0.00000000000E+00  0.00000000000E+00  0.45593999997E+02  0.45594000000E+02  0.51100000000E-03 0. -1.
         11   -1    0    0    0    0 -0.00000000000E+00 -0.00000000000E+00 -0.45593999997E+02  0.45594000000E+02  0.51100000000E-03 0.  1.
         23    2    1    2    0    0  0.00000000000E+00  0.00000000000E+00  0.00000000000E+00  0.91188000000E+02  0.91188000000E+02 0.  0.
    9900012    2    3    3    0    0 -0.17901837351E+02  0.18540057877E+02  0.26297723700E+02  0.54367084769E+02  0.40000001348E+02 0.  0.
        -12    1    3    3    0    0  0.17901837351E+02 -0.18540057877E+02 -0.26297723700E+02  0.36820915231E+02  0.00000000000E+00 0.  1.
         11    1    4    4    0    0  0.26400962871E+01  0.13267080483E+02  0.18253518807E+02  0.22719517646E+02  0.51100000000E-03 0. -1.
        -11    1    4    4    0    0 -0.85964623267E+01  0.11909817134E+02 -0.18107189556E+01  0.14799378774E+02  0.51100000000E-03 0.  1.
        -12    1    4    4    0    0 -0.11945471311E+02 -0.66368397400E+01  0.98549238486E+01  0.16848188349E+02  0.00000000000E+00 0.  1.
</event>
<event>
 8    1  0.1290800E-006  0.9118800E+02  0.7816164E-02  0.1184000E+00
        -11   -1    0    0    0    0  0.00000000000E+00  0.00000000000E+00  0.45593999997E+02  0.45594000000E+02  0.51100000000E-03 0.  1.
         11   -1    0    0    0    0 -0.00000000000E+00 -0.00000000000E+00 -0.45593999997E+02  0.45594000000E+02  0.51100000000E-03 0. -1.
         23    2    1    2    0    0  0.00000000000E+00  0.00000000000E+00  0.00000000000E+00  0.91188000000E+02  0.91188000000E+02 0.  0.
    9900012    2    3    3    0    0  0.27576884871E+02  0.16684743047E+02 -0.17802089741E+02  0.54367087072E+02  0.40000006597E+02 0.  0.
         12    1    3    3    0    0 -0.27576884871E+02 -0.16684743047E+02  0.17802089741E+02  0.36820912928E+02  0.00000000000E+00 0. -1.
         11    1    4    4    0    0  0.67447248728E+01 -0.64368691054E+01  0.28677299031E+00  0.93277455207E+01  0.51100000000E-03 0. -1.
        -11    1    4    4    0    0  0.14218250627E+02  0.22081114153E+02 -0.24392836582E+02  0.35843335920E+02  0.51100000000E-03 0.  1.
         12    1    4    4    0    0  0.66139093711E+01  0.10404979995E+01  0.63039738503E+01  0.91960056308E+01  0.00000000000E+00 0. -1.
</event>
<event>
 8    1  0.1290800E-006  0.9118800E+02  0.7816164E-02  0.1184000E+00
        -11   -1    0    0    0    0  0.00000000000E+00  0.00000000000E+00  0.45593999997E+02  0.45594000000E+02  0.51100000000E-03 0.  1.
         11   -1    0    0    0    0 -0.00000000000E+00 -0.00000000000E+00 -0.45593999997E+02  0.45594000000E+02  0.51100000000E-03 0. -1.
         23    2    1    2    0    0  0.00000000000E+00 -0.13322676296E-14  0.00000000000E+00  0.91188000000E+02  0.91188000000E+02 0.  0.
    9900012    2    3    3    0    0 -0.25321067742E+02  0.37874320105E+01  0.26462718484E+02  0.54367128440E+02  0.40000100905E+02 0.  0.
         12    1    3    3    0    0  0.25321067742E+02 -0.37874320105E+01 -0.26462718484E+02  0.36820871560E+02  0.00000000000E+00 0. -1.
         11    1    4    4    0    0  0.72075452429E+01 -0.42541746964E+00  0.90165161387E+01  0.11551071465E+02  0.51100000000E-03 0. -1.
        -11    1    4    4    0    0  0.91845331669E+00  0.47739822075E+01  0.53887139660E+01  0.72575960952E+01  0.51100000000E-03 0.  1.
         12    1    4    4    0    0 -0.33447066302E+02 -0.56113272738E+00  0.12057488380E+02  0.35558460880E+02  0.00000000000E+00 0. -1.
</event>
<event>
 8    1  0.1290800E-006  0.9118800E+02  0.7816164E-02  0.1184000E+00
        -11   -1    0    0    0    0  0.00000000000E+00  0.00000000000E+00  0.45593999997E+02  0.45594000000E+02  0.51100000000E-03 0. -1.
         11   -1    0    0    0    0 -0.00000000000E+00 -0.00000000000E+00 -0.45593999997E+02  0.45594000000E+02  0.51100000000E-03 0.  1.
         23    2    1    2    0    0  0.22204460493E-15 -0.35527136788E-14  0.00000000000E+00  0.91188000000E+02  0.91188000000E+02 0.  0.
    9900012    2    3    3    0    0 -0.94871582541E-01  0.22621662473E+02 -0.29052176683E+02  0.54367114843E+02  0.40000069908E+02 0.  0.
         12    1    3    3    0    0  0.94871582541E-01 -0.22621662473E+02  0.29052176683E+02  0.36820885157E+02  0.00000000000E+00 0. -1.
         11    1    4    4    0    0 -0.10311880427E+01  0.97985325582E+01  0.20095657315E+01  0.10055493213E+02  0.51100000000E-03 0. -1.
        -11    1    4    4    0    0  0.19174369059E+01  0.13534186132E+02 -0.45086298924E+00  0.13676769950E+02  0.51100000000E-03 0.  1.
        -12    1    4    4    0    0 -0.98112044568E+00 -0.71105621737E+00 -0.30610879426E+02  0.30634851680E+02  0.00000000000E+00 0.  1.
</event>
<event>
 8    1  0.1290800E-006  0.9118800E+02  0.7816164E-02  0.1184000E+00
        -11   -1    0    0    0    0  0.00000000000E+00  0.00000000000E+00  0.45593999997E+02  0.45594000000E+02  0.51100000000E-03 0.  1.
         11   -1    0    0    0    0 -0.00000000000E+00 -0.00000000000E+00 -0.45593999997E+02  0.45594000000E+02  0.51100000000E-03 0. -1.
         23    2    1    2    0    0  0.26645352591E-14  0.00000000000E+00  0.71054273576E-14  0.91188000000E+02  0.91188000000E+02 0.  0.
    9900012    2    3    3    0    0  0.66377199869E+01 -0.12699063999E+02  0.33918344282E+02  0.54367087031E+02  0.40000006505E+02 0.  0.
         12    1    3    3    0    0 -0.66377199869E+01  0.12699063999E+02 -0.33918344282E+02  0.36820912969E+02  0.00000000000E+00 0. -1.
         11    1    4    4    0    0 -0.35771880035E+01 -0.14424252902E+02  0.15237969260E+02  0.21284995965E+02  0.51100000000E-03 0. -1.
        -11    1    4    4    0    0  0.97380593640E+01  0.20967653607E+01  0.24907576803E+02  0.26825614766E+02  0.51100000000E-03 0.  1.
         12    1    4    4    0    0  0.47684862632E+00 -0.37157645723E+00 -0.62272017806E+01  0.62564763000E+01  0.00000000000E+00 0. -1.
</event>
<event>
 8    1  0.1290800E-006  0.9118800E+02  0.7816164E-02  0.1184000E+00
        -11   -1    0    0    0    0  0.00000000000E+00  0.00000000000E+00  0.45593999997E+02  0.45594000000E+02  0.51100000000E-03 0. -1.
         11   -1    0    0    0    0 -0.00000000000E+00 -0.00000000000E+00 -0.45593999997E+02  0.45594000000E+02  0.51100000000E-03 0.  1.
         23    2    1    2    0    0 -0.44408920985E-15  0.00000000000E+00 -0.35527136788E-14  0.91188000000E+02  0.91188000000E+02 0.  0.
    9900012    2    3    3    0    0  0.19826082909E+01  0.29666360981E+02 -0.21719907051E+02  0.54367108216E+02  0.40000054800E+02 0.  0.
         12    1    3    3    0    0 -0.19826082909E+01 -0.29666360981E+02  0.21719907051E+02  0.36820891784E+02  0.00000000000E+00 0. -1.
         11    1    4    4    0    0  0.11243016910E+02 -0.37677106153E+01 -0.72538148448E+01  0.13900320233E+02  0.51100000000E-03 0. -1.
        -11    1    4    4    0    0 -0.28415513489E+00  0.22514448722E+02 -0.13600095137E+02  0.26304823386E+02  0.51100000000E-03 0.  1.
         12    1    4    4    0    0 -0.89762534842E+01  0.10919622874E+02 -0.86599706901E+00  0.14161964597E+02  0.00000000000E+00 0. -1.
</event>
<event>
 8    1  0.1290800E-006  0.9118800E+02  0.7816164E-02  0.1184000E+00
        -11   -1    0    0    0    0  0.00000000000E+00  0.00000000000E+00  0.45593999997E+02  0.45594000000E+02  0.51100000000E-03 0.  1.
         11   -1    0    0    0    0 -0.00000000000E+00 -0.00000000000E+00 -0.45593999997E+02  0.45594000000E+02  0.51100000000E-03 0. -1.
         23    2    1    2    0    0  0.00000000000E+00 -0.17763568394E-14  0.00000000000E+00  0.91188000000E+02  0.91188000000E+02 0.  0.
    9900012    2    3    3    0    0 -0.28252262691E+02  0.11940458065E+02  0.20371862445E+02  0.54367113734E+02  0.40000067378E+02 0.  0.
         12    1    3    3    0    0  0.28252262691E+02 -0.11940458065E+02 -0.20371862445E+02  0.36820886266E+02  0.00000000000E+00 0. -1.
         11    1    4    4    0    0 -0.27893688152E+00 -0.34815737068E+01  0.17511848611E+02  0.17856763517E+02  0.51100000000E-03 0. -1.
        -11    1    4    4    0    0 -0.18190857636E+02  0.30687685235E+01 -0.46940045639E+01  0.19035711725E+02  0.51100000000E-03 0.  1.
        -12    1    4    4    0    0 -0.97824681737E+01  0.12353263248E+02  0.75540183976E+01  0.17474638491E+02  0.00000000000E+00 0.  1.
</event>
<event>
 8    1  0.1290800E-006  0.9118800E+02  0.7816164E-02  0.1184000E+00
        -11   -1    0    0    0    0  0.00000000000E+00  0.00000000000E+00  0.45593999997E+02  0.45594000000E+02  0.51100000000E-03 0.  1.
         11   -1    0    0    0    0 -0.00000000000E+00 -0.00000000000E+00 -0.45593999997E+02  0.45594000000E+02  0.51100000000E-03 0. -1.
         23    2    1    2    0    0  0.35527136788E-14  0.00000000000E+00  0.00000000000E+00  0.91188000000E+02  0.91188000000E+02 0.  0.
    9900012    2    3    3    0    0  0.24628283050E+02 -0.28767430051E+01  0.27220438198E+02  0.54367078882E+02  0.39999987926E+02 0.  0.
         12    1    3    3    0    0 -0.24628283050E+02  0.28767430051E+01 -0.27220438198E+02  0.36820921118E+02  0.00000000000E+00 0. -1.
         11    1    4    4    0    0 -0.32734362530E+01 -0.22475381370E+01  0.32762331058E+01  0.51478652085E+01  0.51100000000E-03 0. -1.
        -11    1    4    4    0    0  0.10522297854E+02  0.11831708112E+02 -0.15893628997E+01  0.15913332261E+02  0.51100000000E-03 0.  1.
        -12    1    4    4    0    0  0.17379421449E+02 -0.12460912980E+02  0.25533567992E+02  0.33305881412E+02  0.00000000000E+00 0.  1.
</event>
<event>
 8    1  0.1290800E-006  0.9118800E+02  0.7816164E-02  0.1184000E+00
        -11   -1    0    0    0    0  0.00000000000E+00  0.00000000000E+00  0.45593999997E+02  0.45594000000E+02  0.51100000000E-03 0.  1.
         11   -1    0    0    0    0 -0.00000000000E+00 -0.00000000000E+00 -0.45593999997E+02  0.45594000000E+02  0.51100000000E-03 0. -1.
         23    2    1    2    0    0  0.71054273576E-14  0.00000000000E+00  0.00000000000E+00  0.91188000000E+02  0.91188000000E+02 0.  0.
    9900012    2    3    3    0    0 -0.25433668511E+02  0.26109050489E+02 -0.52179697945E+01  0.54367065463E+02  0.39999957336E+02 0.  0.
        -12    1    3    3    0    0  0.25433668511E+02 -0.26109050489E+02  0.52179697945E+01  0.36820934537E+02  0.00000000000E+00 0.  1.
         11    1    4    4    0    0 -0.14182332863E+02 -0.32305969967E+01  0.56324882115E+01  0.15598084693E+02  0.51100000000E-03 0. -1.
        -11    1    4    4    0    0  0.11367989335E+01 -0.26660092112E+01 -0.74102576458E+00  0.29914940038E+01  0.51100000000E-03 0.  1.
         12    1    4    4    0    0 -0.12388134582E+02  0.32005656697E+02 -0.10109432241E+02  0.35777486766E+02  0.00000000000E+00 0. -1.
</event>
<event>
 8    1  0.1290800E-006  0.9118800E+02  0.7816164E-02  0.1184000E+00
        -11   -1    0    0    0    0  0.00000000000E+00  0.00000000000E+00  0.45593999997E+02  0.45594000000E+02  0.51100000000E-03 0.  1.
         11   -1    0    0    0    0 -0.00000000000E+00 -0.00000000000E+00 -0.45593999997E+02  0.45594000000E+02  0.51100000000E-03 0. -1.
         23    2    1    2    0    0  0.88817841970E-15  0.00000000000E+00 -0.71054273576E-14  0.91188000000E+02  0.91188000000E+02 0.  0.
    9900012    2    3    3    0    0 -0.50568275773E+01  0.68380722290E+01 -0.35825216068E+02  0.54367124898E+02  0.40000092830E+02 0.  0.
        -12    1    3    3    0    0  0.50568275773E+01 -0.68380722290E+01  0.35825216068E+02  0.36820875102E+02  0.00000000000E+00 0.  1.
         11    1    4    4    0    0 -0.96754710845E+01  0.10961283469E+02 -0.19938718533E+01  0.14756015764E+02  0.51100000000E-03 0. -1.
        -11    1    4    4    0    0  0.58508671539E+01 -0.11761085812E+01 -0.35045739821E+00  0.59781852177E+01  0.51100000000E-03 0.  1.
         12    1    4    4    0    0 -0.12322236467E+01 -0.29471026585E+01 -0.33480886816E+02  0.33632923917E+02  0.00000000000E+00 0. -1.
</event>
<event>
 8    1  0.1290800E-006  0.9118800E+02  0.7816164E-02  0.1184000E+00
        -11   -1    0    0    0    0  0.00000000000E+00  0.00000000000E+00  0.45593999997E+02  0.45594000000E+02  0.51100000000E-03 0. -1.
         11   -1    0    0    0    0 -0.00000000000E+00 -0.00000000000E+00 -0.45593999997E+02  0.45594000000E+02  0.51100000000E-03 0.  1.
         23    2    1    2    0    0 -0.17763568394E-14  0.00000000000E+00  0.00000000000E+00  0.91188000000E+02  0.91188000000E+02 0.  0.
    9900012    2    3    3    0    0 -0.10790850437E+02  0.24252993998E+02 -0.25517225274E+02  0.54367096199E+02  0.40000027405E+02 0.  0.
        -12    1    3    3    0    0  0.10790850437E+02 -0.24252993998E+02  0.25517225274E+02  0.36820903801E+02  0.00000000000E+00 0.  1.
         11    1    4    4    0    0  0.11388645140E+02  0.85712448647E+01 -0.66050152660E+01  0.15709669111E+02  0.51100000000E-03 0. -1.
        -11    1    4    4    0    0 -0.11293601714E+02  0.13140552655E+02 -0.21062853497E+02  0.27273858573E+02  0.51100000000E-03 0.  1.
        -12    1    4    4    0    0 -0.10885893862E+02  0.25411964786E+01  0.21506434886E+01  0.11383568515E+02  0.00000000000E+00 0.  1.
</event>
<event>
 8    1  0.1290800E-006  0.9118800E+02  0.7816164E-02  0.1184000E+00
        -11   -1    0    0    0    0  0.00000000000E+00  0.00000000000E+00  0.45593999997E+02  0.45594000000E+02  0.51100000000E-03 0.  1.
         11   -1    0    0    0    0 -0.00000000000E+00 -0.00000000000E+00 -0.45593999997E+02  0.45594000000E+02  0.51100000000E-03 0. -1.
         23    2    1    2    0    0  0.00000000000E+00  0.00000000000E+00  0.44408920985E-15  0.91188000000E+02  0.91188000000E+02 0.  0.
    9900012    2    3    3    0    0  0.19429068028E+02 -0.31206688391E+02  0.21058505270E+01  0.54367072646E+02  0.39999973712E+02 0.  0.
         12    1    3    3    0    0 -0.19429068028E+02  0.31206688391E+02 -0.21058505270E+01  0.36820927354E+02  0.00000000000E+00 0. -1.
         11    1    4    4    0    0 -0.45628758292E+01 -0.17327013665E+01  0.10867679106E+02  0.11913376485E+02  0.51100000000E-03 0. -1.
        -11    1    4    4    0    0  0.14839337289E+02 -0.16530799617E+02  0.34007910855E+01  0.22473064932E+02  0.51100000000E-03 0.  1.
        -12    1    4    4    0    0  0.91526065676E+01 -0.12943187407E+02 -0.12162619664E+02  0.19980631230E+02  0.00000000000E+00 0.  1.
</event>
<event>
 8    1  0.1290800E-006  0.9118800E+02  0.7816164E-02  0.1184000E+00
        -11   -1    0    0    0    0  0.00000000000E+00  0.00000000000E+00  0.45593999997E+02  0.45594000000E+02  0.51100000000E-03 0.  1.
         11   -1    0    0    0    0 -0.00000000000E+00 -0.00000000000E+00 -0.45593999997E+02  0.45594000000E+02  0.51100000000E-03 0. -1.
         23    2    1    2    0    0 -0.18873791419E-14 -0.88817841970E-15  0.71054273576E-14  0.91188000000E+02  0.91188000000E+02 0.  0.
    9900012    2    3    3    0    0 -0.62246355623E+00 -0.51082173159E+01 -0.36459529608E+02  0.54367100442E+02  0.40000037077E+02 0.  0.
        -12    1    3    3    0    0  0.62246355623E+00  0.51082173159E+01  0.36459529608E+02  0.36820899558E+02  0.00000000000E+00 0.  1.
         11    1    4    4    0    0 -0.11381260204E+02 -0.25666680799E+01 -0.27762148074E+02  0.30114078681E+02  0.51100000000E-03 0. -1.
        -11    1    4    4    0    0  0.63134202253E+01  0.48071545824E+01  0.40291385727E+01  0.88995487537E+01  0.51100000000E-03 0.  1.
        -12    1    4    4    0    0  0.44453764225E+01 -0.73487038184E+01 -0.12726520107E+02  0.15353473007E+02  0.00000000000E+00 0.  1.
</event>
<event>
 8    1  0.1290800E-006  0.9118800E+02  0.7816164E-02  0.1184000E+00
        -11   -1    0    0    0    0  0.00000000000E+00  0.00000000000E+00  0.45593999997E+02  0.45594000000E+02  0.51100000000E-03 0. -1.
         11   -1    0    0    0    0 -0.00000000000E+00 -0.00000000000E+00 -0.45593999997E+02  0.45594000000E+02  0.51100000000E-03 0.  1.
         23    2    1    2    0    0 -0.35527136788E-14  0.00000000000E+00  0.00000000000E+00  0.91188000000E+02  0.91188000000E+02 0.  0.
    9900012    2    3    3    0    0  0.24986304583E+02 -0.51186487721E+01 -0.26556828048E+02  0.54367067123E+02  0.39999961120E+02 0.  0.
        -12    1    3    3    0    0 -0.24986304583E+02  0.51186487721E+01  0.26556828048E+02  0.36820932877E+02  0.00000000000E+00 0.  1.
         11    1    4    4    0    0  0.31682600457E+02 -0.53179753997E+01 -0.19198147815E+02  0.37425084019E+02  0.51100000000E-03 0. -1.
        -11    1    4    4    0    0  0.10915120362E+01  0.20942296306E+01 -0.85218231812E+01  0.88430010100E+01  0.51100000000E-03 0.  1.
         12    1    4    4    0    0 -0.77878079102E+01 -0.18949030031E+01  0.11631429477E+01  0.80989820937E+01  0.00000000000E+00 0. -1.
</event>
<event>
 8    1  0.1290800E-006  0.9118800E+02  0.7816164E-02  0.1184000E+00
        -11   -1    0    0    0    0  0.00000000000E+00  0.00000000000E+00  0.45593999997E+02  0.45594000000E+02  0.51100000000E-03 0.  1.
         11   -1    0    0    0    0 -0.00000000000E+00 -0.00000000000E+00 -0.45593999997E+02  0.45594000000E+02  0.51100000000E-03 0. -1.
         23    2    1    2    0    0  0.00000000000E+00  0.17763568394E-14  0.00000000000E+00  0.91188000000E+02  0.91188000000E+02 0.  0.
    9900012    2    3    3    0    0 -0.13796243054E+02  0.33188673280E+01  0.33976877844E+02  0.54367089762E+02  0.40000012730E+02 0.  0.
         12    1    3    3    0    0  0.13796243054E+02 -0.33188673280E+01 -0.33976877844E+02  0.36820910238E+02  0.00000000000E+00 0. -1.
         11    1    4    4    0    0 -0.62256544455E+00  0.16177027144E+02  0.60907297623E+01  0.17296843187E+02  0.51100000000E-03 0. -1.
        -11    1    4    4    0    0 -0.22288725305E+01 -0.13034863629E+02  0.12573176743E+02  0.18247200230E+02  0.51100000000E-03 0.  1.
        -12    1    4    4    0    0 -0.10944805079E+02  0.17670381286E+00  0.15312971339E+02  0.18823046345E+02  0.00000000000E+00 0.  1.
</event>
<event>
 8    1  0.1290800E-006  0.9118800E+02  0.7816164E-02  0.1184000E+00
        -11   -1    0    0    0    0  0.00000000000E+00  0.00000000000E+00  0.45593999997E+02  0.45594000000E+02  0.51100000000E-03 0.  1.
         11   -1    0    0    0    0 -0.00000000000E+00 -0.00000000000E+00 -0.45593999997E+02  0.45594000000E+02  0.51100000000E-03 0. -1.
         23    2    1    2    0    0  0.00000000000E+00  0.00000000000E+00  0.26645352591E-14  0.91188000000E+02  0.91188000000E+02 0.  0.
    9900012    2    3    3    0    0  0.10862109983E+02 -0.35059166057E+02  0.29409647984E+01  0.54367084316E+02  0.40000000315E+02 0.  0.
        -12    1    3    3    0    0 -0.10862109983E+02  0.35059166057E+02 -0.29409647984E+01  0.36820915684E+02  0.00000000000E+00 0.  1.
         11    1    4    4    0    0 -0.48812582371E+01 -0.10970601672E+02  0.14614452092E+02  0.18914623793E+02  0.51100000000E-03 0. -1.
        -11    1    4    4    0    0  0.78898115943E+01 -0.15663093866E+01 -0.79533024431E+01  0.11311828857E+02  0.51100000000E-03 0.  1.
         12    1    4    4    0    0  0.78535566262E+01 -0.22522254998E+02 -0.37201848502E+01  0.24140631666E+02  0.00000000000E+00 0. -1.
</event>
<event>
 8    1  0.1290800E-006  0.9118800E+02  0.7816164E-02  0.1184000E+00
        -11   -1    0    0    0    0  0.00000000000E+00  0.00000000000E+00  0.45593999997E+02  0.45594000000E+02  0.51100000000E-03 0.  1.
         11   -1    0    0    0    0 -0.00000000000E+00 -0.00000000000E+00 -0.45593999997E+02  0.45594000000E+02  0.51100000000E-03 0. -1.
         23    2    1    2    0    0  0.00000000000E+00  0.00000000000E+00  0.00000000000E+00  0.91188000000E+02  0.91188000000E+02 0.  0.
    9900012    2    3    3    0    0  0.34510867612E+02 -0.10239515073E+02 -0.77416578351E+01  0.54367069562E+02  0.39999966681E+02 0.  0.
        -12    1    3    3    0    0 -0.34510867612E+02  0.10239515073E+02  0.77416578351E+01  0.36820930438E+02  0.00000000000E+00 0.  1.
         11    1    4    4    0    0  0.66617627682E+01  0.10725264109E+02  0.68110229650E+01  0.14345745275E+02  0.51100000000E-03 0. -1.
        -11    1    4    4    0    0  0.14290276066E+02 -0.54220658622E+01 -0.94959668428E+00  0.15313801695E+02  0.51100000000E-03 0.  1.
         12    1    4    4    0    0  0.13558828779E+02 -0.15542713320E+02 -0.13603084116E+02  0.24707522592E+02  0.00000000000E+00 0. -1.
</event>
<event>
 8    1  0.1290800E-006  0.9118800E+02  0.7816164E-02  0.1184000E+00
        -11   -1    0    0    0    0  0.00000000000E+00  0.00000000000E+00  0.45593999997E+02  0.45594000000E+02  0.51100000000E-03 0. -1.
         11   -1    0    0    0    0 -0.00000000000E+00 -0.00000000000E+00 -0.45593999997E+02  0.45594000000E+02  0.51100000000E-03 0.  1.
         23    2    1    2    0    0  0.00000000000E+00 -0.44408920985E-15  0.00000000000E+00  0.91188000000E+02  0.91188000000E+02 0.  0.
    9900012    2    3    3    0    0 -0.44928671219E+01  0.32208668916E+01  0.36403564895E+02  0.54367090511E+02  0.40000014439E+02 0.  0.
        -12    1    3    3    0    0  0.44928671219E+01 -0.32208668916E+01 -0.36403564895E+02  0.36820909489E+02  0.00000000000E+00 0.  1.
         11    1    4    4    0    0 -0.17165408175E+02 -0.29355404769E+01  0.15433489242E+02  0.23269319417E+02  0.51100000000E-03 0. -1.
        -11    1    4    4    0    0  0.73230698274E+01 -0.55066458667E+01  0.44670517005E+01  0.10193382734E+02  0.51100000000E-03 0.  1.
        -12    1    4    4    0    0  0.53494712253E+01  0.11663053235E+02  0.16503023952E+02  0.20904388360E+02  0.00000000000E+00 0.  1.
</event>
<event>
 8    1  0.1290800E-006  0.9118800E+02  0.7816164E-02  0.1184000E+00
        -11   -1    0    0    0    0  0.00000000000E+00  0.00000000000E+00  0.45593999997E+02  0.45594000000E+02  0.51100000000E-03 0. -1.
         11   -1    0    0    0    0 -0.00000000000E+00 -0.00000000000E+00 -0.45593999997E+02  0.45594000000E+02  0.51100000000E-03 0.  1.
         23    2    1    2    0    0 -0.14432899320E-14  0.00000000000E+00  0.00000000000E+00  0.91188000000E+02  0.91188000000E+02 0.  0.
    9900012    2    3    3    0    0 -0.81312729623E+00  0.13363765529E+02  0.34300559600E+02  0.54367084830E+02  0.40000001487E+02 0.  0.
        -12    1    3    3    0    0  0.81312729623E+00 -0.13363765529E+02 -0.34300559600E+02  0.36820915170E+02  0.00000000000E+00 0.  1.
         11    1    4    4    0    0  0.33120333038E+01  0.70305117480E+01  0.29889785246E+01  0.83265630920E+01  0.51100000000E-03 0.  1.
        -11    1    4    4    0    0  0.12233925093E+02 -0.56484172097E+01  0.12307863321E+02  0.18249850409E+02  0.51100000000E-03 0. -1.
         12    1    4    4    0    0 -0.16359085693E+02  0.11981670991E+02  0.19003717754E+02  0.27790671329E+02  0.00000000000E+00 0. -1.
</event>
<event>
 8    1  0.1290800E-006  0.9118800E+02  0.7816164E-02  0.1184000E+00
        -11   -1    0    0    0    0  0.00000000000E+00  0.00000000000E+00  0.45593999997E+02  0.45594000000E+02  0.51100000000E-03 0. -1.
         11   -1    0    0    0    0 -0.00000000000E+00 -0.00000000000E+00 -0.45593999997E+02  0.45594000000E+02  0.51100000000E-03 0.  1.
         23    2    1    2    0    0 -0.88817841970E-15 -0.71054273576E-14  0.00000000000E+00  0.91188000000E+02  0.91188000000E+02 0.  0.
    9900012    2    3    3    0    0  0.75781664823E+01  0.34859755572E+02  0.91184679546E+01  0.54367114301E+02  0.40000068672E+02 0.  0.
        -12    1    3    3    0    0 -0.75781664823E+01 -0.34859755572E+02 -0.91184679546E+01  0.36820885699E+02  0.00000000000E+00 0.  1.
         11    1    4    4    0    0  0.72831804605E+01  0.12614077223E+02  0.12372237428E+02  0.19111041862E+02  0.51100000000E-03 0. -1.
        -11    1    4    4    0    0  0.94062699436E+01  0.16145133067E+00  0.40966585559E+01  0.10260925512E+02  0.51100000000E-03 0.  1.
         12    1    4    4    0    0 -0.91112839218E+01  0.22084227018E+02 -0.73504280289E+01  0.24995146927E+02  0.00000000000E+00 0. -1.
</event>
<event>
 8    1  0.1290800E-006  0.9118800E+02  0.7816164E-02  0.1184000E+00
        -11   -1    0    0    0    0  0.00000000000E+00  0.00000000000E+00  0.45593999997E+02  0.45594000000E+02  0.51100000000E-03 0.  1.
         11   -1    0    0    0    0 -0.00000000000E+00 -0.00000000000E+00 -0.45593999997E+02  0.45594000000E+02  0.51100000000E-03 0. -1.
         23    2    1    2    0    0  0.35527136788E-14  0.00000000000E+00 -0.35527136788E-14  0.91188000000E+02  0.91188000000E+02 0.  0.
    9900012    2    3    3    0    0  0.17364419281E+02  0.25001732026E+02 -0.20716517598E+02  0.54367030939E+02  0.39999878630E+02 0.  0.
         12    1    3    3    0    0 -0.17364419281E+02 -0.25001732026E+02  0.20716517598E+02  0.36820969061E+02  0.00000000000E+00 0. -1.
         11    1    4    4    0    0 -0.63284195444E+01 -0.17210618160E+01  0.19025804289E+01  0.68286719246E+01  0.51100000000E-03 0. -1.
        -11    1    4    4    0    0  0.94445130815E+01  0.21004753662E+02 -0.39491486959E+01  0.23366520482E+02  0.51100000000E-03 0.  1.
         12    1    4    4    0    0  0.14248325744E+02  0.57180401795E+01 -0.18669949331E+02  0.24171838532E+02  0.00000000000E+00 0. -1.
</event>
<event>
 8    1  0.1290800E-006  0.9118800E+02  0.7816164E-02  0.1184000E+00
        -11   -1    0    0    0    0  0.00000000000E+00  0.00000000000E+00  0.45593999997E+02  0.45594000000E+02  0.51100000000E-03 0.  1.
         11   -1    0    0    0    0 -0.00000000000E+00 -0.00000000000E+00 -0.45593999997E+02  0.45594000000E+02  0.51100000000E-03 0. -1.
         23    2    1    2    0    0  0.00000000000E+00  0.00000000000E+00  0.88817841970E-15  0.91188000000E+02  0.91188000000E+02 0.  0.
    9900012    2    3    3    0    0 -0.12294691088E+02 -0.34524469858E+02  0.35611523009E+01  0.54367078587E+02  0.39999987256E+02 0.  0.
        -12    1    3    3    0    0  0.12294691088E+02  0.34524469858E+02 -0.35611523009E+01  0.36820921413E+02  0.00000000000E+00 0.  1.
         11    1    4    4    0    0 -0.65169060930E+01 -0.13155863284E+01 -0.23275182339E+01  0.70440168798E+01  0.51100000000E-03 0. -1.
        -11    1    4    4    0    0 -0.90909722209E+01 -0.10206973221E+02  0.16793092097E+02  0.21652621566E+02  0.51100000000E-03 0.  1.
         12    1    4    4    0    0  0.33131872261E+01 -0.23001910309E+02 -0.10904421562E+02  0.25670440141E+02  0.00000000000E+00 0. -1.
</event>
<event>
 8    1  0.1290800E-006  0.9118800E+02  0.7816164E-02  0.1184000E+00
        -11   -1    0    0    0    0  0.00000000000E+00  0.00000000000E+00  0.45593999997E+02  0.45594000000E+02  0.51100000000E-03 0. -1.
         11   -1    0    0    0    0 -0.00000000000E+00 -0.00000000000E+00 -0.45593999997E+02  0.45594000000E+02  0.51100000000E-03 0.  1.
         23    2    1    2    0    0  0.00000000000E+00  0.00000000000E+00  0.88817841970E-15  0.91188000000E+02  0.91188000000E+02 0.  0.
    9900012    2    3    3    0    0 -0.11029928218E+02 -0.34869160570E+02  0.42734959632E+01  0.54367076015E+02  0.39999981391E+02 0.  0.
         12    1    3    3    0    0  0.11029928218E+02  0.34869160570E+02 -0.42734959632E+01  0.36820923985E+02  0.00000000000E+00 0. -1.
         11    1    4    4    0    0 -0.12123972162E+02 -0.23911890586E+02  0.16429850162E+01  0.26860167766E+02  0.51100000000E-03 0. -1.
        -11    1    4    4    0    0 -0.67680776554E+01 -0.99477921313E+01 -0.78501381945E+01  0.14366283910E+02  0.51100000000E-03 0.  1.
         12    1    4    4    0    0  0.78621216002E+01 -0.10094778526E+01  0.10480649142E+02  0.13140624339E+02  0.00000000000E+00 0. -1.
</event>
<event>
 8    1  0.1290800E-006  0.9118800E+02  0.7816164E-02  0.1184000E+00
        -11   -1    0    0    0    0  0.00000000000E+00  0.00000000000E+00  0.45593999997E+02  0.45594000000E+02  0.51100000000E-03 0. -1.
         11   -1    0    0    0    0 -0.00000000000E+00 -0.00000000000E+00 -0.45593999997E+02  0.45594000000E+02  0.51100000000E-03 0.  1.
         23    2    1    2    0    0 -0.22204460493E-15  0.35527136788E-14  0.00000000000E+00  0.91188000000E+02  0.91188000000E+02 0.  0.
    9900012    2    3    3    0    0  0.16056726758E+01  0.21143560798E+02  0.30102327850E+02  0.54367102538E+02  0.40000041856E+02 0.  0.
        -12    1    3    3    0    0 -0.16056726758E+01 -0.21143560798E+02 -0.30102327850E+02  0.36820897462E+02  0.00000000000E+00 0.  1.
         11    1    4    4    0    0 -0.43120408765E+01 -0.82411702329E+00  0.13363084750E+02  0.14065734950E+02  0.51100000000E-03 0. -1.
        -11    1    4    4    0    0  0.41879179311E+01  0.16382321644E+02 -0.51250322438E+01  0.17668759855E+02  0.51100000000E-03 0.  1.
         12    1    4    4    0    0  0.17297956212E+01  0.55853561769E+01  0.21864275344E+02  0.22632607734E+02  0.00000000000E+00 0. -1.
</event>
<event>
 8    1  0.1290800E-006  0.9118800E+02  0.7816164E-02  0.1184000E+00
        -11   -1    0    0    0    0  0.00000000000E+00  0.00000000000E+00  0.45593999997E+02  0.45594000000E+02  0.51100000000E-03 0.  1.
         11   -1    0    0    0    0 -0.00000000000E+00 -0.00000000000E+00 -0.45593999997E+02  0.45594000000E+02  0.51100000000E-03 0. -1.
         23    2    1    2    0    0  0.00000000000E+00  0.00000000000E+00  0.00000000000E+00  0.91188000000E+02  0.91188000000E+02 0.  0.
    9900012    2    3    3    0    0 -0.31212999413E+02  0.12646688849E+02  0.14885898684E+02  0.54367081342E+02  0.39999993536E+02 0.  0.
         12    1    3    3    0    0  0.31212999413E+02 -0.12646688849E+02 -0.14885898684E+02  0.36820918658E+02  0.00000000000E+00 0. -1.
         11    1    4    4    0    0 -0.11318713148E+01 -0.16509291069E+01 -0.68116229572E+01  0.70996413403E+01  0.51100000000E-03 0. -1.
        -11    1    4    4    0    0 -0.26531941511E+02  0.60309701159E+01  0.41165600587E+01  0.27518404529E+02  0.51100000000E-03 0.  1.
         12    1    4    4    0    0 -0.35491865876E+01  0.82666478396E+01  0.17580961582E+02  0.19749035472E+02  0.00000000000E+00 0. -1.
</event>
<event>
 8    1  0.1290800E-006  0.9118800E+02  0.7816164E-02  0.1184000E+00
        -11   -1    0    0    0    0  0.00000000000E+00  0.00000000000E+00  0.45593999997E+02  0.45594000000E+02  0.51100000000E-03 0.  1.
         11   -1    0    0    0    0 -0.00000000000E+00 -0.00000000000E+00 -0.45593999997E+02  0.45594000000E+02  0.51100000000E-03 0. -1.
         23    2    1    2    0    0 -0.88817841970E-15  0.35527136788E-14 -0.71054273576E-14  0.91188000000E+02  0.91188000000E+02 0.  0.
    9900012    2    3    3    0    0 -0.21732135729E+01  0.14526694551E+02 -0.33764371554E+02  0.54367075266E+02  0.39999979684E+02 0.  0.
        -12    1    3    3    0    0  0.21732135729E+01 -0.14526694551E+02  0.33764371554E+02  0.36820924734E+02  0.00000000000E+00 0.  1.
         11    1    4    4    0    0  0.16308765517E+01  0.24717390807E+02 -0.25517358861E+02  0.35563250275E+02  0.51100000000E-03 0. -1.
        -11    1    4    4    0    0  0.41022325846E+00 -0.11695900451E+02 -0.82674104494E+01  0.14328728006E+02  0.51100000000E-03 0.  1.
        -12    1    4    4    0    0 -0.42143133830E+01  0.15052041950E+01  0.20397755915E-01  0.44750969852E+01  0.00000000000E+00 0.  1.
</event>
<event>
 8    1  0.1290800E-006  0.9118800E+02  0.7816164E-02  0.1184000E+00
        -11   -1    0    0    0    0  0.00000000000E+00  0.00000000000E+00  0.45593999997E+02  0.45594000000E+02  0.51100000000E-03 0.  1.
         11   -1    0    0    0    0 -0.00000000000E+00 -0.00000000000E+00 -0.45593999997E+02  0.45594000000E+02  0.51100000000E-03 0. -1.
         23    2    1    2    0    0 -0.71054273576E-14 -0.88817841970E-15 -0.22204460493E-14  0.91188000000E+02  0.91188000000E+02 0.  0.
    9900012    2    3    3    0    0 -0.36442921986E+02 -0.41851372706E+01  0.31904341703E+01  0.54367071073E+02  0.39999970125E+02 0.  0.
         12    1    3    3    0    0  0.36442921986E+02  0.41851372706E+01 -0.31904341703E+01  0.36820928927E+02  0.00000000000E+00 0. -1.
         11    1    4    4    0    0 -0.19171244421E+02  0.10009814624E+01  0.16515864212E+02  0.25324145543E+02  0.51100000000E-03 0. -1.
        -11    1    4    4    0    0 -0.16641766749E+02  0.10327650384E+01 -0.29538808182E+01  0.16933411242E+02  0.51100000000E-03 0.  1.
         12    1    4    4    0    0 -0.62991081631E+00 -0.62188837714E+01 -0.10371549224E+02  0.12109514288E+02  0.00000000000E+00 0. -1.
</event>
<event>
 8    1  0.1290800E-006  0.9118800E+02  0.7816164E-02  0.1184000E+00
        -11   -1    0    0    0    0  0.00000000000E+00  0.00000000000E+00  0.45593999997E+02  0.45594000000E+02  0.51100000000E-03 0.  1.
         11   -1    0    0    0    0 -0.00000000000E+00 -0.00000000000E+00 -0.45593999997E+02  0.45594000000E+02  0.51100000000E-03 0. -1.
         23    2    1    2    0    0  0.00000000000E+00  0.00000000000E+00  0.00000000000E+00  0.91188000000E+02  0.91188000000E+02 0.  0.
    9900012    2    3    3    0    0  0.33623867950E+02  0.13934922448E+02 -0.55705255341E+01  0.54367118502E+02  0.40000078249E+02 0.  0.
         12    1    3    3    0    0 -0.33623867950E+02 -0.13934922448E+02  0.55705255341E+01  0.36820881498E+02  0.00000000000E+00 0. -1.
         11    1    4    4    0    0 -0.54183009029E+01 -0.62874467250E+00  0.32188755300E+00  0.54641482773E+01  0.51100000000E-03 0. -1.
        -11    1    4    4    0    0  0.39939670417E+02  0.82003634341E+01 -0.90159919855E+01  0.41757769878E+02  0.51100000000E-03 0.  1.
        -12    1    4    4    0    0 -0.89750156365E+00  0.63633036863E+01  0.31235788985E+01  0.71452003467E+01  0.00000000000E+00 0.  1.
</event>
<event>
 8    1  0.1290800E-006  0.9118800E+02  0.7816164E-02  0.1184000E+00
        -11   -1    0    0    0    0  0.00000000000E+00  0.00000000000E+00  0.45593999997E+02  0.45594000000E+02  0.51100000000E-03 0. -1.
         11   -1    0    0    0    0 -0.00000000000E+00 -0.00000000000E+00 -0.45593999997E+02  0.45594000000E+02  0.51100000000E-03 0.  1.
         23    2    1    2    0    0  0.00000000000E+00  0.00000000000E+00 -0.17763568394E-14  0.91188000000E+02  0.91188000000E+02 0.  0.
    9900012    2    3    3    0    0 -0.12836450022E+02  0.31211408435E+02  0.14725943645E+02  0.54367083635E+02  0.39999998764E+02 0.  0.
        -12    1    3    3    0    0  0.12836450022E+02 -0.31211408435E+02 -0.14725943645E+02  0.36820916365E+02  0.00000000000E+00 0.  1.
         11    1    4    4    0    0 -0.38722678345E+01  0.12971803562E+02  0.24925829246E+01  0.13764996031E+02  0.51100000000E-03 0. -1.
        -11    1    4    4    0    0  0.61431097775E+01  0.21193557983E+02  0.20843921000E+01  0.22164146462E+02  0.51100000000E-03 0.  1.
         12    1    4    4    0    0 -0.15107291965E+02 -0.29539531099E+01  0.10148968621E+02  0.18437941142E+02  0.00000000000E+00 0. -1.
</event>
<event>
 8    1  0.1290800E-006  0.9118800E+02  0.7816164E-02  0.1184000E+00
        -11   -1    0    0    0    0  0.00000000000E+00  0.00000000000E+00  0.45593999997E+02  0.45594000000E+02  0.51100000000E-03 0.  1.
         11   -1    0    0    0    0 -0.00000000000E+00 -0.00000000000E+00 -0.45593999997E+02  0.45594000000E+02  0.51100000000E-03 0. -1.
         23    2    1    2    0    0  0.44408920985E-15  0.17763568394E-14  0.00000000000E+00  0.91188000000E+02  0.91188000000E+02 0.  0.
    9900012    2    3    3    0    0 -0.11802535418E+01 -0.11234004912E+02 -0.35045471839E+02  0.54367068980E+02  0.39999965354E+02 0.  0.
        -12    1    3    3    0    0  0.11802535418E+01  0.11234004912E+02  0.35045471839E+02  0.36820931020E+02  0.00000000000E+00 0.  1.
         11    1    4    4    0    0 -0.56418379566E+00 -0.26917889998E+01 -0.90343311821E+00  0.28948614881E+01  0.51100000000E-03 0. -1.
        -11    1    4    4    0    0 -0.13671761569E+02 -0.14684539096E+02 -0.30640422290E+02  0.36624967321E+02  0.51100000000E-03 0.  1.
         12    1    4    4    0    0  0.13055691823E+02  0.61423231840E+01 -0.35016164303E+01  0.14847240171E+02  0.00000000000E+00 0. -1.
</event>
<event>
 8    1  0.1290800E-006  0.9118800E+02  0.7816164E-02  0.1184000E+00
        -11   -1    0    0    0    0  0.00000000000E+00  0.00000000000E+00  0.45593999997E+02  0.45594000000E+02  0.51100000000E-03 0.  1.
         11   -1    0    0    0    0 -0.00000000000E+00 -0.00000000000E+00 -0.45593999997E+02  0.45594000000E+02  0.51100000000E-03 0. -1.
         23    2    1    2    0    0  0.00000000000E+00  0.00000000000E+00  0.00000000000E+00  0.91188000000E+02  0.91188000000E+02 0.  0.
    9900012    2    3    3    0    0 -0.34064348309E+02 -0.13487452033E+02 -0.36729227056E+01  0.54367060994E+02  0.39999947148E+02 0.  0.
         12    1    3    3    0    0  0.34064348309E+02  0.13487452033E+02  0.36729227056E+01  0.36820939006E+02  0.00000000000E+00 0. -1.
         11    1    4    4    0    0 -0.41281650086E+01 -0.73293637233E+01 -0.61393236680E+01  0.10414058493E+02  0.51100000000E-03 0. -1.
        -11    1    4    4    0    0  0.62282922428E+01 -0.40826519171E+01 -0.12029278772E+01  0.75436534039E+01  0.51100000000E-03 0.  1.
        -12    1    4    4    0    0 -0.36164475544E+02 -0.20754363923E+01  0.36693288396E+01  0.36409349097E+02  0.00000000000E+00 0.  1.
</event>
<event>
 8    1  0.1290800E-006  0.9118800E+02  0.7816164E-02  0.1184000E+00
        -11   -1    0    0    0    0  0.00000000000E+00  0.00000000000E+00  0.45593999997E+02  0.45594000000E+02  0.51100000000E-03 0.  1.
         11   -1    0    0    0    0 -0.00000000000E+00 -0.00000000000E+00 -0.45593999997E+02  0.45594000000E+02  0.51100000000E-03 0. -1.
         23    2    1    2    0    0 -0.17763568394E-14  0.88817841970E-15  0.71054273576E-14  0.91188000000E+02  0.91188000000E+02 0.  0.
    9900012    2    3    3    0    0  0.94395341659E+01 -0.68958908491E+01 -0.34915955312E+02  0.54367054178E+02  0.39999931609E+02 0.  0.
        -12    1    3    3    0    0 -0.94395341659E+01  0.68958908491E+01  0.34915955312E+02  0.36820945822E+02  0.00000000000E+00 0.  1.
         11    1    4    4    0    0  0.71843432910E+01 -0.16466867172E+02 -0.14163180295E+02  0.22877241515E+02  0.51100000000E-03 0.  1.
        -11    1    4    4    0    0 -0.94462343536E+01  0.65929221725E+01 -0.87626867866E+01  0.14473515337E+02  0.51100000000E-03 0. -1.
        -12    1    4    4    0    0  0.11701425229E+02  0.29780541505E+01 -0.11990088231E+02  0.17016297326E+02  0.00000000000E+00 0.  1.
</event>
<event>
 8    1  0.1290800E-006  0.9118800E+02  0.7816164E-02  0.1184000E+00
        -11   -1    0    0    0    0  0.00000000000E+00  0.00000000000E+00  0.45593999997E+02  0.45594000000E+02  0.51100000000E-03 0. -1.
         11   -1    0    0    0    0 -0.00000000000E+00 -0.00000000000E+00 -0.45593999997E+02  0.45594000000E+02  0.51100000000E-03 0.  1.
         23    2    1    2    0    0  0.00000000000E+00  0.88817841970E-15  0.88817841970E-15  0.91188000000E+02  0.91188000000E+02 0.  0.
    9900012    2    3    3    0    0  0.35707021088E+02  0.54293036793E+01 -0.71631542556E+01  0.54367089198E+02  0.40000011444E+02 0.  0.
         12    1    3    3    0    0 -0.35707021088E+02 -0.54293036793E+01  0.71631542556E+01  0.36820910802E+02  0.00000000000E+00 0. -1.
         11    1    4    4    0    0  0.30104547583E+02 -0.68708861468E+01 -0.67571597722E+01  0.31609366809E+02  0.51100000000E-03 0. -1.
        -11    1    4    4    0    0 -0.28746783830E+01  0.15427083750E+01 -0.68756307189E+01  0.76103891477E+01  0.51100000000E-03 0.  1.
         12    1    4    4    0    0  0.84771518879E+01  0.10757481451E+02  0.64696362355E+01  0.15147333241E+02  0.00000000000E+00 0. -1.
</event>
<event>
 8    1  0.1290800E-006  0.9118800E+02  0.7816164E-02  0.1184000E+00
        -11   -1    0    0    0    0  0.00000000000E+00  0.00000000000E+00  0.45593999997E+02  0.45594000000E+02  0.51100000000E-03 0.  1.
         11   -1    0    0    0    0 -0.00000000000E+00 -0.00000000000E+00 -0.45593999997E+02  0.45594000000E+02  0.51100000000E-03 0. -1.
         23    2    1    2    0    0 -0.17763568394E-14  0.71054273576E-14  0.00000000000E+00  0.91188000000E+02  0.91188000000E+02 0.  0.
    9900012    2    3    3    0    0 -0.12313484996E+02  0.34368226280E+02 -0.47940293740E+01  0.54367087355E+02  0.40000007243E+02 0.  0.
        -12    1    3    3    0    0  0.12313484996E+02 -0.34368226280E+02  0.47940293740E+01  0.36820912645E+02  0.00000000000E+00 0.  1.
         11    1    4    4    0    0  0.62475227318E+01  0.30693594426E+01 -0.22342657442E+01  0.73105712054E+01  0.51100000000E-03 0. -1.
        -11    1    4    4    0    0 -0.14564665800E+01 -0.34727065070E+01  0.62685906658E+01  0.73127433005E+01  0.51100000000E-03 0.  1.
         12    1    4    4    0    0 -0.17104541148E+02  0.34771573344E+02 -0.88283542955E+01  0.39743772849E+02  0.00000000000E+00 0. -1.
</event>
<event>
 8    1  0.1290800E-006  0.9118800E+02  0.7816164E-02  0.1184000E+00
        -11   -1    0    0    0    0  0.00000000000E+00  0.00000000000E+00  0.45593999997E+02  0.45594000000E+02  0.51100000000E-03 0.  1.
         11   -1    0    0    0    0 -0.00000000000E+00 -0.00000000000E+00 -0.45593999997E+02  0.45594000000E+02  0.51100000000E-03 0. -1.
         23    2    1    2    0    0  0.00000000000E+00  0.35527136788E-14  0.00000000000E+00  0.91188000000E+02  0.91188000000E+02 0.  0.
    9900012    2    3    3    0    0 -0.62046950273E+01  0.28770417985E+02 -0.22125717496E+02  0.54367047186E+02  0.39999915670E+02 0.  0.
        -12    1    3    3    0    0  0.62046950273E+01 -0.28770417985E+02  0.22125717496E+02  0.36820952814E+02  0.00000000000E+00 0.  1.
         11    1    4    4    0    0 -0.57641465579E+01 -0.68147874912E-01 -0.13281906356E+02  0.14478917998E+02  0.51100000000E-03 0. -1.
        -11    1    4    4    0    0  0.29255077097E+01  0.15712710889E+01  0.73014494349E+01  0.80211378436E+01  0.51100000000E-03 0.  1.
        -12    1    4    4    0    0 -0.33660561791E+01  0.27267294771E+02 -0.16145260575E+02  0.31866991345E+02  0.00000000000E+00 0.  1.
</event>
<event>
 8    1  0.1290800E-006  0.9118800E+02  0.7816164E-02  0.1184000E+00
        -11   -1    0    0    0    0  0.00000000000E+00  0.00000000000E+00  0.45593999997E+02  0.45594000000E+02  0.51100000000E-03 0. -1.
         11   -1    0    0    0    0 -0.00000000000E+00 -0.00000000000E+00 -0.45593999997E+02  0.45594000000E+02  0.51100000000E-03 0.  1.
         23    2    1    2    0    0  0.00000000000E+00 -0.35527136788E-14  0.35527136788E-14  0.91188000000E+02  0.91188000000E+02 0.  0.
    9900012    2    3    3    0    0 -0.16988442543E+02  0.17076713975E+02 -0.27848876129E+02  0.54367065169E+02  0.39999956665E+02 0.  0.
         12    1    3    3    0    0  0.16988442543E+02 -0.17076713975E+02  0.27848876129E+02  0.36820934831E+02  0.00000000000E+00 0. -1.
         11    1    4    4    0    0 -0.11296791050E+02  0.16309356310E+02 -0.13058359538E+02  0.23751491435E+02  0.51100000000E-03 0. -1.
        -11    1    4    4    0    0 -0.45530919413E+01 -0.39458614103E+01 -0.21505170943E+02  0.22333222921E+02  0.51100000000E-03 0.  1.
         12    1    4    4    0    0 -0.11385595512E+01  0.47132190751E+01  0.67146543530E+01  0.82823508125E+01  0.00000000000E+00 0. -1.
</event>
<event>
 8    1  0.1290800E-006  0.9118800E+02  0.7816164E-02  0.1184000E+00
        -11   -1    0    0    0    0  0.00000000000E+00  0.00000000000E+00  0.45593999997E+02  0.45594000000E+02  0.51100000000E-03 0.  1.
         11   -1    0    0    0    0 -0.00000000000E+00 -0.00000000000E+00 -0.45593999997E+02  0.45594000000E+02  0.51100000000E-03 0. -1.
         23    2    1    2    0    0  0.00000000000E+00  0.00000000000E+00 -0.33306690739E-15  0.91188000000E+02  0.91188000000E+02 0.  0.
    9900012    2    3    3    0    0 -0.16612422321E+02 -0.32855519156E+02 -0.56566627812E+00  0.54367113363E+02  0.40000066534E+02 0.  0.
        -12    1    3    3    0    0  0.16612422321E+02  0.32855519156E+02  0.56566627812E+00  0.36820886637E+02  0.00000000000E+00 0.  1.
         11    1    4    4    0    0 -0.30459017602E+01 -0.18896922452E+02 -0.51425657065E+01  0.19819615990E+02  0.51100000000E-03 0. -1.
        -11    1    4    4    0    0  0.68765170021E+01 -0.58866189789E+01 -0.52581784056E+01  0.10468390969E+02  0.51100000000E-03 0.  1.
        -12    1    4    4    0    0 -0.20443037563E+02 -0.80719777246E+01  0.98350778340E+01  0.24079106404E+02  0.00000000000E+00 0.  1.
</event>
<event>
 8    1  0.1290800E-006  0.9118800E+02  0.7816164E-02  0.1184000E+00
        -11   -1    0    0    0    0  0.00000000000E+00  0.00000000000E+00  0.45593999997E+02  0.45594000000E+02  0.51100000000E-03 0. -1.
         11   -1    0    0    0    0 -0.00000000000E+00 -0.00000000000E+00 -0.45593999997E+02  0.45594000000E+02  0.51100000000E-03 0.  1.
         23    2    1    2    0    0  0.00000000000E+00  0.00000000000E+00  0.00000000000E+00  0.91188000000E+02  0.91188000000E+02 0.  0.
    9900012    2    3    3    0    0 -0.39760390373E+01 -0.33490328232E+02 -0.14777243644E+02  0.54367110532E+02  0.40000060080E+02 0.  0.
         12    1    3    3    0    0  0.39760390373E+01  0.33490328232E+02  0.14777243644E+02  0.36820889468E+02  0.00000000000E+00 0. -1.
         11    1    4    4    0    0  0.17202600237E+01 -0.17846828952E+02  0.50682509370E+01  0.18632116520E+02  0.51100000000E-03 0. -1.
        -11    1    4    4    0    0  0.91615400753E+00 -0.21113110068E+02 -0.14356510621E+02  0.25548231883E+02  0.51100000000E-03 0.  1.
         12    1    4    4    0    0 -0.66124530685E+01  0.54696107880E+01 -0.54889839603E+01  0.10186762129E+02  0.00000000000E+00 0. -1.
</event>
<event>
 8    1  0.1290800E-006  0.9118800E+02  0.7816164E-02  0.1184000E+00
        -11   -1    0    0    0    0  0.00000000000E+00  0.00000000000E+00  0.45593999997E+02  0.45594000000E+02  0.51100000000E-03 0.  1.
         11   -1    0    0    0    0 -0.00000000000E+00 -0.00000000000E+00 -0.45593999997E+02  0.45594000000E+02  0.51100000000E-03 0. -1.
         23    2    1    2    0    0 -0.17763568394E-14  0.00000000000E+00  0.00000000000E+00  0.91188000000E+02  0.91188000000E+02 0.  0.
    9900012    2    3    3    0    0  0.12842542139E+02  0.32207229706E+02 -0.12391153752E+02  0.54367119711E+02  0.40000081005E+02 0.  0.
        -12    1    3    3    0    0 -0.12842542139E+02 -0.32207229706E+02  0.12391153752E+02  0.36820880289E+02  0.00000000000E+00 0.  1.
         11    1    4    4    0    0  0.20240788671E+02  0.62939298169E+01 -0.11637662591E+02  0.24181362025E+02  0.51100000000E-03 0. -1.
        -11    1    4    4    0    0 -0.73969458110E+01  0.12849050708E+02 -0.61497107360E+01  0.16050914424E+02  0.51100000000E-03 0.  1.
         12    1    4    4    0    0 -0.13007209888E-02  0.13064249181E+02  0.53962195747E+01  0.14134843263E+02  0.00000000000E+00 0. -1.
</event>
<event>
 8    1  0.1290800E-006  0.9118800E+02  0.7816164E-02  0.1184000E+00
        -11   -1    0    0    0    0  0.00000000000E+00  0.00000000000E+00  0.45593999997E+02  0.45594000000E+02  0.51100000000E-03 0.  1.
         11   -1    0    0    0    0 -0.00000000000E+00 -0.00000000000E+00 -0.45593999997E+02  0.45594000000E+02  0.51100000000E-03 0. -1.
         23    2    1    2    0    0  0.00000000000E+00  0.00000000000E+00  0.00000000000E+00  0.91188000000E+02  0.91188000000E+02 0.  0.
    9900012    2    3    3    0    0  0.84721552517E+01  0.30912204611E+01 -0.35699405060E+02  0.54367074154E+02  0.39999977148E+02 0.  0.
        -12    1    3    3    0    0 -0.84721552517E+01 -0.30912204611E+01  0.35699405060E+02  0.36820925846E+02  0.00000000000E+00 0.  1.
         11    1    4    4    0    0  0.13582030346E+02  0.37493819796E+01 -0.14269474547E+02  0.20053611088E+02  0.51100000000E-03 0. -1.
        -11    1    4    4    0    0  0.44143098087E+01 -0.46479088692E+01  0.35186716837E+01  0.73123346902E+01  0.51100000000E-03 0.  1.
         12    1    4    4    0    0 -0.95241849032E+01  0.39897473507E+01 -0.24948602197E+02  0.27001128376E+02  0.00000000000E+00 0. -1.
</event>
<event>
 8    1  0.1290800E-006  0.9118800E+02  0.7816164E-02  0.1184000E+00
        -11   -1    0    0    0    0  0.00000000000E+00  0.00000000000E+00  0.45593999997E+02  0.45594000000E+02  0.51100000000E-03 0. -1.
         11   -1    0    0    0    0 -0.00000000000E+00 -0.00000000000E+00 -0.45593999997E+02  0.45594000000E+02  0.51100000000E-03 0.  1.
         23    2    1    2    0    0  0.00000000000E+00  0.88817841970E-15  0.00000000000E+00  0.91188000000E+02  0.91188000000E+02 0.  0.
    9900012    2    3    3    0    0  0.94917002360E+01 -0.36952432662E+01  0.35384076943E+02  0.54367080711E+02  0.39999992097E+02 0.  0.
        -12    1    3    3    0    0 -0.94917002360E+01  0.36952432662E+01 -0.35384076943E+02  0.36820919289E+02  0.00000000000E+00 0.  1.
         11    1    4    4    0    0  0.50887771616E+01 -0.85675211657E+01  0.26498324571E+02  0.28310056116E+02  0.51100000000E-03 0. -1.
        -11    1    4    4    0    0  0.71308407510E+00  0.14281666515E+02  0.41092653767E+01  0.14878190399E+02  0.51100000000E-03 0.  1.
        -12    1    4    4    0    0  0.36898389992E+01 -0.94093886160E+01  0.47764869950E+01  0.11178834196E+02  0.00000000000E+00 0.  1.
</event>
<event>
 8    1  0.1290800E-006  0.9118800E+02  0.7816164E-02  0.1184000E+00
        -11   -1    0    0    0    0  0.00000000000E+00  0.00000000000E+00  0.45593999997E+02  0.45594000000E+02  0.51100000000E-03 0. -1.
         11   -1    0    0    0    0 -0.00000000000E+00 -0.00000000000E+00 -0.45593999997E+02  0.45594000000E+02  0.51100000000E-03 0.  1.
         23    2    1    2    0    0  0.00000000000E+00  0.00000000000E+00  0.00000000000E+00  0.91188000000E+02  0.91188000000E+02 0.  0.
    9900012    2    3    3    0    0 -0.20633680879E+02  0.28642521107E+02 -0.10470678585E+02  0.54367110385E+02  0.40000059745E+02 0.  0.
         12    1    3    3    0    0  0.20633680879E+02 -0.28642521107E+02  0.10470678585E+02  0.36820889615E+02  0.00000000000E+00 0. -1.
         11    1    4    4    0    0  0.23099336676E+01  0.60553535035E+01  0.20653634959E+01  0.68021192456E+01  0.51100000000E-03 0. -1.
        -11    1    4    4    0    0 -0.12229625091E+02  0.75079638427E+01  0.10674407096E+02  0.17885083675E+02  0.51100000000E-03 0.  1.
        -12    1    4    4    0    0 -0.10713989456E+02  0.15079203761E+02 -0.23210449177E+02  0.29679907465E+02  0.00000000000E+00 0.  1.
</event>
<event>
 8    1  0.1290800E-006  0.9118800E+02  0.7816164E-02  0.1184000E+00
        -11   -1    0    0    0    0  0.00000000000E+00  0.00000000000E+00  0.45593999997E+02  0.45594000000E+02  0.51100000000E-03 0.  1.
         11   -1    0    0    0    0 -0.00000000000E+00 -0.00000000000E+00 -0.45593999997E+02  0.45594000000E+02  0.51100000000E-03 0. -1.
         23    2    1    2    0    0 -0.35527136788E-14  0.17763568394E-14 -0.35527136788E-14  0.91188000000E+02  0.91188000000E+02 0.  0.
    9900012    2    3    3    0    0  0.19949699803E+02 -0.12589343480E+02  0.28271841428E+02  0.54367094128E+02  0.40000022684E+02 0.  0.
         12    1    3    3    0    0 -0.19949699803E+02  0.12589343480E+02 -0.28271841428E+02  0.36820905872E+02  0.00000000000E+00 0. -1.
         11    1    4    4    0    0 -0.55464133254E+01 -0.75860515589E+01  0.28369695623E+01  0.98162760550E+01  0.51100000000E-03 0. -1.
        -11    1    4    4    0    0  0.65949533867E+01 -0.13783123143E+02  0.73420559632E+01  0.16952099568E+02  0.51100000000E-03 0.  1.
        -12    1    4    4    0    0  0.18901159741E+02  0.87798312212E+01  0.18092815903E+02  0.27598718505E+02  0.00000000000E+00 0.  1.
</event>
<event>
 8    1  0.1290800E-006  0.9118800E+02  0.7816164E-02  0.1184000E+00
        -11   -1    0    0    0    0  0.00000000000E+00  0.00000000000E+00  0.45593999997E+02  0.45594000000E+02  0.51100000000E-03 0.  1.
         11   -1    0    0    0    0 -0.00000000000E+00 -0.00000000000E+00 -0.45593999997E+02  0.45594000000E+02  0.51100000000E-03 0. -1.
         23    2    1    2    0    0  0.00000000000E+00  0.88817841970E-15  0.71054273576E-14  0.91188000000E+02  0.91188000000E+02 0.  0.
    9900012    2    3    3    0    0  0.10873786584E+02  0.27900511254E+01  0.35067889789E+02  0.54367075050E+02  0.39999979191E+02 0.  0.
         12    1    3    3    0    0 -0.10873786584E+02 -0.27900511254E+01 -0.35067889789E+02  0.36820924950E+02  0.00000000000E+00 0. -1.
         11    1    4    4    0    0  0.15569594503E+02  0.46085390538E+01  0.55299511544E+01  0.17153170705E+02  0.51100000000E-03 0. -1.
        -11    1    4    4    0    0  0.43185716118E+01  0.70200500951E+01  0.19208390694E+02  0.20901996015E+02  0.51100000000E-03 0.  1.
         12    1    4    4    0    0 -0.90143795309E+01 -0.88385380234E+01  0.10329547941E+02  0.16311908330E+02  0.00000000000E+00 0. -1.
</event>
<event>
 8    1  0.1290800E-006  0.9118800E+02  0.7816164E-02  0.1184000E+00
        -11   -1    0    0    0    0  0.00000000000E+00  0.00000000000E+00  0.45593999997E+02  0.45594000000E+02  0.51100000000E-03 0.  1.
         11   -1    0    0    0    0 -0.00000000000E+00 -0.00000000000E+00 -0.45593999997E+02  0.45594000000E+02  0.51100000000E-03 0. -1.
         23    2    1    2    0    0  0.00000000000E+00 -0.71054273576E-14  0.44408920985E-15  0.91188000000E+02  0.91188000000E+02 0.  0.
    9900012    2    3    3    0    0 -0.12686824532E+02 -0.34497061360E+02  0.21854086432E+01  0.54367098733E+02  0.40000033181E+02 0.  0.
         12    1    3    3    0    0  0.12686824532E+02  0.34497061360E+02 -0.21854086432E+01  0.36820901267E+02  0.00000000000E+00 0. -1.
         11    1    4    4    0    0 -0.17264604645E+02 -0.15356436662E+02  0.18711053213E+01  0.23181625394E+02  0.51100000000E-03 0.  1.
        -11    1    4    4    0    0  0.52877424022E+01  0.27068507968E+00 -0.83733457073E+01  0.99068869339E+01  0.51100000000E-03 0. -1.
         12    1    4    4    0    0 -0.70996228854E+00 -0.19411309778E+02  0.86876490292E+01  0.21278586405E+02  0.00000000000E+00 0. -1.
</event>
<event>
 8    1  0.1290800E-006  0.9118800E+02  0.7816164E-02  0.1184000E+00
        -11   -1    0    0    0    0  0.00000000000E+00  0.00000000000E+00  0.45593999997E+02  0.45594000000E+02  0.51100000000E-03 0.  1.
         11   -1    0    0    0    0 -0.00000000000E+00 -0.00000000000E+00 -0.45593999997E+02  0.45594000000E+02  0.51100000000E-03 0. -1.
         23    2    1    2    0    0  0.00000000000E+00  0.88817841970E-15  0.00000000000E+00  0.91188000000E+02  0.91188000000E+02 0.  0.
    9900012    2    3    3    0    0 -0.32165782305E+02 -0.42222054943E+01 -0.17415979321E+02  0.54367069726E+02  0.39999967054E+02 0.  0.
        -12    1    3    3    0    0  0.32165782305E+02  0.42222054943E+01  0.17415979321E+02  0.36820930274E+02  0.00000000000E+00 0.  1.
         11    1    4    4    0    0  0.22147713975E+01 -0.13586378021E+01 -0.66611828576E+01  0.71499976465E+01  0.51100000000E-03 0. -1.
        -11    1    4    4    0    0 -0.63994750426E+00 -0.81237258085E+01  0.50520649633E+01  0.95878993776E+01  0.51100000000E-03 0.  1.
         12    1    4    4    0    0 -0.33740606199E+02  0.52601581164E+01 -0.15806861426E+02  0.37629172702E+02  0.00000000000E+00 0. -1.
</event>
<event>
 8    1  0.1290800E-006  0.9118800E+02  0.7816164E-02  0.1184000E+00
        -11   -1    0    0    0    0  0.00000000000E+00  0.00000000000E+00  0.45593999997E+02  0.45594000000E+02  0.51100000000E-03 0.  1.
         11   -1    0    0    0    0 -0.00000000000E+00 -0.00000000000E+00 -0.45593999997E+02  0.45594000000E+02  0.51100000000E-03 0. -1.
         23    2    1    2    0    0  0.00000000000E+00  0.30531133177E-14 -0.77715611724E-15  0.91188000000E+02  0.91188000000E+02 0.  0.
    9900012    2    3    3    0    0  0.36815605948E+02 -0.12751117410E+00 -0.61438170588E+00  0.54367047198E+02  0.39999915697E+02 0.  0.
         12    1    3    3    0    0 -0.36815605948E+02  0.12751117410E+00  0.61438170588E+00  0.36820952802E+02  0.00000000000E+00 0. -1.
         11    1    4    4    0    0  0.12123227860E+02 -0.17632443599E+02 -0.56596090012E+01  0.22133840501E+02  0.51100000000E-03 0. -1.
        -11    1    4    4    0    0  0.21866106185E+02  0.11273776984E+02  0.60062316700E+01  0.25323891216E+02  0.51100000000E-03 0.  1.
         12    1    4    4    0    0  0.28262719023E+01  0.62311554412E+01 -0.96100437470E+00  0.69093154803E+01  0.00000000000E+00 0. -1.
</event>
<event>
 8    1  0.1290800E-006  0.9118800E+02  0.7816164E-02  0.1184000E+00
        -11   -1    0    0    0    0  0.00000000000E+00  0.00000000000E+00  0.45593999997E+02  0.45594000000E+02  0.51100000000E-03 0. -1.
         11   -1    0    0    0    0 -0.00000000000E+00 -0.00000000000E+00 -0.45593999997E+02  0.45594000000E+02  0.51100000000E-03 0.  1.
         23    2    1    2    0    0 -0.71054273576E-14  0.00000000000E+00 -0.17763568394E-14  0.91188000000E+02  0.91188000000E+02 0.  0.
    9900012    2    3    3    0    0 -0.33181216878E+02 -0.83200127267E+01 -0.13622149567E+02  0.54367099358E+02  0.40000034606E+02 0.  0.
         12    1    3    3    0    0  0.33181216878E+02  0.83200127267E+01  0.13622149567E+02  0.36820900642E+02  0.00000000000E+00 0. -1.
         11    1    4    4    0    0 -0.39306948032E+01  0.60691704050E+01  0.13519860774E+01  0.73561578053E+01  0.51100000000E-03 0. -1.
        -11    1    4    4    0    0 -0.69701338284E+01  0.71543425932E+01  0.39009445825E+01  0.10723094349E+02  0.51100000000E-03 0.  1.
         12    1    4    4    0    0 -0.22280388246E+02 -0.21543525725E+02 -0.18875080227E+02  0.36287847203E+02  0.00000000000E+00 0. -1.
</event>
<event>
 8    1  0.1290800E-006  0.9118800E+02  0.7816164E-02  0.1184000E+00
        -11   -1    0    0    0    0  0.00000000000E+00  0.00000000000E+00  0.45593999997E+02  0.45594000000E+02  0.51100000000E-03 0.  1.
         11   -1    0    0    0    0 -0.00000000000E+00 -0.00000000000E+00 -0.45593999997E+02  0.45594000000E+02  0.51100000000E-03 0. -1.
         23    2    1    2    0    0  0.00000000000E+00  0.00000000000E+00  0.00000000000E+00  0.91188000000E+02  0.91188000000E+02 0.  0.
    9900012    2    3    3    0    0 -0.43728404145E+01  0.10186390837E+02 -0.35112602997E+02  0.54367093156E+02  0.40000020468E+02 0.  0.
        -12    1    3    3    0    0  0.43728404145E+01 -0.10186390837E+02  0.35112602997E+02  0.36820906844E+02  0.00000000000E+00 0.  1.
         11    1    4    4    0    0 -0.13786533776E+02 -0.66120389258E+01 -0.89570820443E+01  0.17720521757E+02  0.51100000000E-03 0. -1.
        -11    1    4    4    0    0  0.69380562786E+00  0.16300429344E+02 -0.13025868803E+02  0.20877227340E+02  0.51100000000E-03 0.  1.
        -12    1    4    4    0    0  0.87198877338E+01  0.49800041869E+00 -0.13129652150E+02  0.15769344060E+02  0.00000000000E+00 0.  1.
</event>
<event>
 8    1  0.1290800E-006  0.9118800E+02  0.7816164E-02  0.1184000E+00
        -11   -1    0    0    0    0  0.00000000000E+00  0.00000000000E+00  0.45593999997E+02  0.45594000000E+02  0.51100000000E-03 0.  1.
         11   -1    0    0    0    0 -0.00000000000E+00 -0.00000000000E+00 -0.45593999997E+02  0.45594000000E+02  0.51100000000E-03 0. -1.
         23    2    1    2    0    0  0.00000000000E+00  0.00000000000E+00  0.00000000000E+00  0.91188000000E+02  0.91188000000E+02 0.  0.
    9900012    2    3    3    0    0 -0.11957981696E+02 -0.32326508811E+02  0.12953152878E+02  0.54367072966E+02  0.39999974440E+02 0.  0.
         12    1    3    3    0    0  0.11957981696E+02  0.32326508811E+02 -0.12953152878E+02  0.36820927034E+02  0.00000000000E+00 0. -1.
         11    1    4    4    0    0 -0.26677873594E+01 -0.25501908926E+01 -0.89274752328E+01  0.96602472679E+01  0.51100000000E-03 0. -1.
        -11    1    4    4    0    0 -0.90941839550E+01 -0.83441544219E+01 -0.21267490140E+01  0.12524063097E+02  0.51100000000E-03 0.  1.
        -12    1    4    4    0    0 -0.19601038136E+00 -0.21432163497E+02  0.24007377125E+02  0.32182762601E+02  0.00000000000E+00 0.  1.
</event>
<event>
 8    1  0.1290800E-006  0.9118800E+02  0.7816164E-02  0.1184000E+00
        -11   -1    0    0    0    0  0.00000000000E+00  0.00000000000E+00  0.45593999997E+02  0.45594000000E+02  0.51100000000E-03 0.  1.
         11   -1    0    0    0    0 -0.00000000000E+00 -0.00000000000E+00 -0.45593999997E+02  0.45594000000E+02  0.51100000000E-03 0. -1.
         23    2    1    2    0    0  0.00000000000E+00  0.17763568394E-14  0.00000000000E+00  0.91188000000E+02  0.91188000000E+02 0.  0.
    9900012    2    3    3    0    0 -0.34882718205E+02  0.11419687421E+02  0.29272237355E+01  0.54367055838E+02  0.39999935394E+02 0.  0.
         12    1    3    3    0    0  0.34882718205E+02 -0.11419687421E+02 -0.29272237355E+01  0.36820944162E+02  0.00000000000E+00 0. -1.
         11    1    4    4    0    0 -0.68023378681E+01  0.17872331624E+00 -0.48602492913E+01  0.83621627543E+01  0.51100000000E-03 0. -1.
        -11    1    4    4    0    0 -0.41829601003E+01  0.17225306473E+02  0.11444803226E+02  0.21099570124E+02  0.51100000000E-03 0.  1.
        -12    1    4    4    0    0 -0.23897420237E+02 -0.59843423680E+01 -0.36573301992E+01  0.24905322960E+02  0.00000000000E+00 0.  1.
</event>
<event>
 8    1  0.1290800E-006  0.9118800E+02  0.7816164E-02  0.1184000E+00
        -11   -1    0    0    0    0  0.00000000000E+00  0.00000000000E+00  0.45593999997E+02  0.45594000000E+02  0.51100000000E-03 0.  1.
         11   -1    0    0    0    0 -0.00000000000E+00 -0.00000000000E+00 -0.45593999997E+02  0.45594000000E+02  0.51100000000E-03 0. -1.
         23    2    1    2    0    0 -0.67654215563E-15  0.00000000000E+00  0.00000000000E+00  0.91188000000E+02  0.91188000000E+02 0.  0.
    9900012    2    3    3    0    0  0.13362874751E-01 -0.35388448128E+02  0.10170429060E+02  0.54367081126E+02  0.39999993042E+02 0.  0.
         12    1    3    3    0    0 -0.13362874751E-01  0.35388448128E+02 -0.10170429060E+02  0.36820918874E+02  0.00000000000E+00 0. -1.
         11    1    4    4    0    0 -0.55547686002E+01 -0.10410590241E+02  0.13347906421E+02  0.17815792137E+02  0.51100000000E-03 0.  1.
        -11    1    4    4    0    0  0.34268527211E+01 -0.11593638178E+02 -0.14507993139E+02  0.18884851891E+02  0.51100000000E-03 0. -1.
         12    1    4    4    0    0  0.21412787538E+01 -0.13384219709E+02  0.11330515778E+02  0.17666437098E+02  0.00000000000E+00 0. -1.
</event>
<event>
 8    1  0.1290800E-006  0.9118800E+02  0.7816164E-02  0.1184000E+00
        -11   -1    0    0    0    0  0.00000000000E+00  0.00000000000E+00  0.45593999997E+02  0.45594000000E+02  0.51100000000E-03 0. -1.
         11   -1    0    0    0    0 -0.00000000000E+00 -0.00000000000E+00 -0.45593999997E+02  0.45594000000E+02  0.51100000000E-03 0.  1.
         23    2    1    2    0    0  0.00000000000E+00  0.00000000000E+00  0.00000000000E+00  0.91188000000E+02  0.91188000000E+02 0.  0.
    9900012    2    3    3    0    0 -0.10694247522E+02  0.25786507405E+02  0.24009757280E+02  0.54367091010E+02  0.40000015575E+02 0.  0.
        -12    1    3    3    0    0  0.10694247522E+02 -0.25786507405E+02 -0.24009757280E+02  0.36820908990E+02  0.00000000000E+00 0.  1.
         11    1    4    4    0    0  0.13778285430E+01 -0.19478462948E+01 -0.35372840395E+00  0.24119785918E+01  0.51100000000E-03 0. -1.
        -11    1    4    4    0    0 -0.23712103603E+02  0.13814114417E+02  0.11727896219E+02  0.29843544769E+02  0.51100000000E-03 0.  1.
         12    1    4    4    0    0  0.11640027538E+02  0.13920239283E+02  0.12635589465E+02  0.22111567649E+02  0.00000000000E+00 0. -1.
</event>
<event>
 8    1  0.1290800E-006  0.9118800E+02  0.7816164E-02  0.1184000E+00
        -11   -1    0    0    0    0  0.00000000000E+00  0.00000000000E+00  0.45593999997E+02  0.45594000000E+02  0.51100000000E-03 0. -1.
         11   -1    0    0    0    0 -0.00000000000E+00 -0.00000000000E+00 -0.45593999997E+02  0.45594000000E+02  0.51100000000E-03 0.  1.
         23    2    1    2    0    0  0.00000000000E+00 -0.44408920985E-15  0.00000000000E+00  0.91188000000E+02  0.91188000000E+02 0.  0.
    9900012    2    3    3    0    0 -0.17385488281E+02  0.14626299567E+01 -0.32425344335E+02  0.54366845152E+02  0.39999455089E+02 0.  0.
         12    1    3    3    0    0  0.17385488281E+02 -0.14626299567E+01  0.32425344335E+02  0.36821154848E+02  0.00000000000E+00 0. -1.
         11    1    4    4    0    0  0.84652678139E+01  0.21867758013E+01 -0.50552033681E+01  0.10099397453E+02  0.51100000000E-03 0. -1.
        -11    1    4    4    0    0 -0.14050878961E+02 -0.29243414233E+01 -0.28801390069E+02  0.32179170942E+02  0.51100000000E-03 0.  1.
         12    1    4    4    0    0 -0.11799877133E+02  0.22001955786E+01  0.14312491026E+01  0.12088276757E+02  0.00000000000E+00 0. -1.
</event>
<event>
 8    1  0.1290800E-006  0.9118800E+02  0.7816164E-02  0.1184000E+00
        -11   -1    0    0    0    0  0.00000000000E+00  0.00000000000E+00  0.45593999997E+02  0.45594000000E+02  0.51100000000E-03 0. -1.
         11   -1    0    0    0    0 -0.00000000000E+00 -0.00000000000E+00 -0.45593999997E+02  0.45594000000E+02  0.51100000000E-03 0.  1.
         23    2    1    2    0    0  0.00000000000E+00  0.00000000000E+00 -0.35527136788E-14  0.91188000000E+02  0.91188000000E+02 0.  0.
    9900012    2    3    3    0    0  0.38687277525E+01  0.21222935807E+02  0.29839566411E+02  0.54367084989E+02  0.40000001849E+02 0.  0.
        -12    1    3    3    0    0 -0.38687277525E+01 -0.21222935807E+02 -0.29839566411E+02  0.36820915011E+02  0.00000000000E+00 0.  1.
         11    1    4    4    0    0  0.14599453796E+02 -0.30917480252E+01  0.13370707773E+02  0.20036935485E+02  0.51100000000E-03 0. -1.
        -11    1    4    4    0    0 -0.46917867220E+01 -0.60846797226E-01  0.88400600544E+00  0.47747284589E+01  0.51100000000E-03 0.  1.
         12    1    4    4    0    0 -0.60389393216E+01  0.24375530629E+02  0.15584852632E+02  0.29555421045E+02  0.00000000000E+00 0. -1.
</event>
<event>
 8    1  0.1290800E-006  0.9118800E+02  0.7816164E-02  0.1184000E+00
        -11   -1    0    0    0    0  0.00000000000E+00  0.00000000000E+00  0.45593999997E+02  0.45594000000E+02  0.51100000000E-03 0.  1.
         11   -1    0    0    0    0 -0.00000000000E+00 -0.00000000000E+00 -0.45593999997E+02  0.45594000000E+02  0.51100000000E-03 0. -1.
         23    2    1    2    0    0  0.17763568394E-14  0.26645352591E-14  0.00000000000E+00  0.91188000000E+02  0.91188000000E+02 0.  0.
    9900012    2    3    3    0    0  0.75513384639E+01  0.51160812908E+01 -0.35673276584E+02  0.54367086613E+02  0.40000005552E+02 0.  0.
        -12    1    3    3    0    0 -0.75513384639E+01 -0.51160812908E+01  0.35673276584E+02  0.36820913387E+02  0.00000000000E+00 0.  1.
         11    1    4    4    0    0  0.17835849627E+00 -0.33287056156E+01  0.95968722036E-01  0.33348617791E+01  0.51100000000E-03 0. -1.
        -11    1    4    4    0    0 -0.12985999051E+02 -0.25850527866E+01 -0.12705551718E+02  0.18350741510E+02  0.51100000000E-03 0.  1.
         12    1    4    4    0    0  0.20358979018E+02  0.11029839693E+02 -0.23063693588E+02  0.32681483324E+02  0.00000000000E+00 0. -1.
</event>
<event>
 8    1  0.1290800E-006  0.9118800E+02  0.7816164E-02  0.1184000E+00
        -11   -1    0    0    0    0  0.00000000000E+00  0.00000000000E+00  0.45593999997E+02  0.45594000000E+02  0.51100000000E-03 0.  1.
         11   -1    0    0    0    0 -0.00000000000E+00 -0.00000000000E+00 -0.45593999997E+02  0.45594000000E+02  0.51100000000E-03 0. -1.
         23    2    1    2    0    0 -0.35527136788E-14  0.00000000000E+00  0.00000000000E+00  0.91188000000E+02  0.91188000000E+02 0.  0.
    9900012    2    3    3    0    0 -0.20248531364E+02 -0.19097229160E+02  0.24105559947E+02  0.54367011361E+02  0.39999833999E+02 0.  0.
         12    1    3    3    0    0  0.20248531364E+02  0.19097229160E+02 -0.24105559947E+02  0.36820988639E+02  0.00000000000E+00 0. -1.
         11    1    4    4    0    0  0.21514119699E+01  0.84736854211E+01  0.21876129160E+01  0.90120790394E+01  0.51100000000E-03 0. -1.
        -11    1    4    4    0    0 -0.59566331119E+01 -0.90765439190E+01  0.16927078093E+02  0.20109477879E+02  0.51100000000E-03 0.  1.
        -12    1    4    4    0    0 -0.16443310222E+02 -0.18494370662E+02  0.49908689386E+01  0.25245454443E+02  0.00000000000E+00 0.  1.
</event>
<event>
 8    1  0.1290800E-006  0.9118800E+02  0.7816164E-02  0.1184000E+00
        -11   -1    0    0    0    0  0.00000000000E+00  0.00000000000E+00  0.45593999997E+02  0.45594000000E+02  0.51100000000E-03 0.  1.
         11   -1    0    0    0    0 -0.00000000000E+00 -0.00000000000E+00 -0.45593999997E+02  0.45594000000E+02  0.51100000000E-03 0. -1.
         23    2    1    2    0    0  0.00000000000E+00  0.00000000000E+00  0.00000000000E+00  0.91188000000E+02  0.91188000000E+02 0.  0.
    9900012    2    3    3    0    0  0.10523315924E+02 -0.29591853327E+01  0.35160840108E+02  0.54367059857E+02  0.39999944557E+02 0.  0.
         12    1    3    3    0    0 -0.10523315924E+02  0.29591853327E+01 -0.35160840108E+02  0.36820940143E+02  0.00000000000E+00 0. -1.
         11    1    4    4    0    0 -0.48677643571E+01  0.29082800121E+01  0.38645884362E+01  0.68620890775E+01  0.51100000000E-03 0. -1.
        -11    1    4    4    0    0  0.62822709295E+01 -0.47492036369E+01  0.36236586476E+02  0.37082503461E+02  0.51100000000E-03 0.  1.
        -12    1    4    4    0    0  0.91088093511E+01 -0.11182617079E+01 -0.49403348038E+01  0.10422467319E+02  0.00000000000E+00 0.  1.
</event>
<event>
 8    1  0.1290800E-006  0.9118800E+02  0.7816164E-02  0.1184000E+00
        -11   -1    0    0    0    0  0.00000000000E+00  0.00000000000E+00  0.45593999997E+02  0.45594000000E+02  0.51100000000E-03 0.  1.
         11   -1    0    0    0    0 -0.00000000000E+00 -0.00000000000E+00 -0.45593999997E+02  0.45594000000E+02  0.51100000000E-03 0. -1.
         23    2    1    2    0    0  0.00000000000E+00  0.00000000000E+00  0.00000000000E+00  0.91188000000E+02  0.91188000000E+02 0.  0.
    9900012    2    3    3    0    0  0.30215819385E+02  0.96249816327E+01  0.18712042095E+02  0.54367129126E+02  0.40000102468E+02 0.  0.
         12    1    3    3    0    0 -0.30215819385E+02 -0.96249816327E+01 -0.18712042095E+02  0.36820870874E+02  0.00000000000E+00 0. -1.
         11    1    4    4    0    0 -0.36074759778E+01  0.52585221499E+01 -0.60693915584E+01  0.88036045051E+01  0.51100000000E-03 0. -1.
        -11    1    4    4    0    0  0.89566555447E+01 -0.64478123086E+01  0.58338410165E+01  0.12483175212E+02  0.51100000000E-03 0.  1.
        -12    1    4    4    0    0  0.24866639818E+02  0.10814271791E+02  0.18947592637E+02  0.33080349408E+02  0.00000000000E+00 0.  1.
</event>
<event>
 8    1  0.1290800E-006  0.9118800E+02  0.7816164E-02  0.1184000E+00
        -11   -1    0    0    0    0  0.00000000000E+00  0.00000000000E+00  0.45593999997E+02  0.45594000000E+02  0.51100000000E-03 0.  1.
         11   -1    0    0    0    0 -0.00000000000E+00 -0.00000000000E+00 -0.45593999997E+02  0.45594000000E+02  0.51100000000E-03 0. -1.
         23    2    1    2    0    0  0.35527136788E-14  0.44408920985E-15  0.00000000000E+00  0.91188000000E+02  0.91188000000E+02 0.  0.
    9900012    2    3    3    0    0 -0.31993088752E+02  0.11510995876E+01 -0.18190585124E+02  0.54367080059E+02  0.39999990610E+02 0.  0.
        -12    1    3    3    0    0  0.31993088752E+02 -0.11510995876E+01  0.18190585124E+02  0.36820919941E+02  0.00000000000E+00 0.  1.
         11    1    4    4    0    0 -0.24007728202E+02  0.47586079561E+01  0.62150268148E+01  0.25251572657E+02  0.51100000000E-03 0. -1.
        -11    1    4    4    0    0  0.18709326274E+01 -0.45097194891E+01 -0.35693560694E+01  0.60479965094E+01  0.51100000000E-03 0.  1.
         12    1    4    4    0    0 -0.98562931780E+01  0.90221112061E+00 -0.20836255869E+02  0.23067510892E+02  0.00000000000E+00 0. -1.
</event>
<event>
 8    1  0.1290800E-006  0.9118800E+02  0.7816164E-02  0.1184000E+00
        -11   -1    0    0    0    0  0.00000000000E+00  0.00000000000E+00  0.45593999997E+02  0.45594000000E+02  0.51100000000E-03 0.  1.
         11   -1    0    0    0    0 -0.00000000000E+00 -0.00000000000E+00 -0.45593999997E+02  0.45594000000E+02  0.51100000000E-03 0. -1.
         23    2    1    2    0    0 -0.35527136788E-14 -0.35527136788E-14  0.00000000000E+00  0.91188000000E+02  0.91188000000E+02 0.  0.
    9900012    2    3    3    0    0  0.26540431670E+02 -0.23855227762E+02 -0.90726173183E+01  0.54367098465E+02  0.40000032572E+02 0.  0.
         12    1    3    3    0    0 -0.26540431670E+02  0.23855227762E+02  0.90726173183E+01  0.36820901535E+02  0.00000000000E+00 0. -1.
         11    1    4    4    0    0  0.23187957270E+02  0.11757070705E+01 -0.19741164164E+01  0.23301518950E+02  0.51100000000E-03 0. -1.
        -11    1    4    4    0    0  0.42944895790E+01 -0.15076272544E+02  0.39481546047E+01  0.16165536168E+02  0.51100000000E-03 0.  1.
        -12    1    4    4    0    0 -0.94201517918E+00 -0.99546622892E+01 -0.11046655507E+02  0.14900043348E+02  0.00000000000E+00 0.  1.
</event>
<event>
 8    1  0.1290800E-006  0.9118800E+02  0.7816164E-02  0.1184000E+00
        -11   -1    0    0    0    0  0.00000000000E+00  0.00000000000E+00  0.45593999997E+02  0.45594000000E+02  0.51100000000E-03 0.  1.
         11   -1    0    0    0    0 -0.00000000000E+00 -0.00000000000E+00 -0.45593999997E+02  0.45594000000E+02  0.51100000000E-03 0. -1.
         23    2    1    2    0    0  0.17763568394E-14 -0.17763568394E-14  0.00000000000E+00  0.91188000000E+02  0.91188000000E+02 0.  0.
    9900012    2    3    3    0    0 -0.15014361090E+02 -0.81195873735E+01 -0.32625503242E+02  0.54367052160E+02  0.39999927009E+02 0.  0.
        -12    1    3    3    0    0  0.15014361090E+02  0.81195873735E+01  0.32625503242E+02  0.36820947840E+02  0.00000000000E+00 0.  1.
         11    1    4    4    0    0 -0.14668276570E+02  0.39225802964E+01 -0.37990046791E+02  0.40911961933E+02  0.51100000000E-03 0. -1.
        -11    1    4    4    0    0 -0.33751010061E+00 -0.59367097871E+01  0.40925125975E+01  0.72185244881E+01  0.51100000000E-03 0.  1.
         12    1    4    4    0    0 -0.85744194309E-02 -0.61054578828E+01  0.12720309519E+01  0.62365657394E+01  0.00000000000E+00 0. -1.
</event>
<event>
 8    1  0.1290800E-006  0.9118800E+02  0.7816164E-02  0.1184000E+00
        -11   -1    0    0    0    0  0.00000000000E+00  0.00000000000E+00  0.45593999997E+02  0.45594000000E+02  0.51100000000E-03 0. -1.
         11   -1    0    0    0    0 -0.00000000000E+00 -0.00000000000E+00 -0.45593999997E+02  0.45594000000E+02  0.51100000000E-03 0.  1.
         23    2    1    2    0    0  0.00000000000E+00 -0.17763568394E-14  0.17763568394E-14  0.91188000000E+02  0.91188000000E+02 0.  0.
    9900012    2    3    3    0    0  0.33061018780E+02 -0.10991519458E+02  0.11913673381E+02  0.54367080998E+02  0.39999992750E+02 0.  0.
        -12    1    3    3    0    0 -0.33061018780E+02  0.10991519458E+02 -0.11913673381E+02  0.36820919002E+02  0.00000000000E+00 0.  1.
         11    1    4    4    0    0 -0.26419363261E+01 -0.14244283239E+02 -0.13667885011E+01  0.14551547808E+02  0.51100000000E-03 0.  1.
        -11    1    4    4    0    0  0.55620998071E+01  0.42825789758E+01  0.47431077284E+01  0.84719837188E+01  0.51100000000E-03 0. -1.
         12    1    4    4    0    0  0.30140855299E+02 -0.10298151948E+01  0.85373541540E+01  0.31343549471E+02  0.00000000000E+00 0. -1.
</event>
<event>
 8    1  0.1290800E-006  0.9118800E+02  0.7816164E-02  0.1184000E+00
        -11   -1    0    0    0    0  0.00000000000E+00  0.00000000000E+00  0.45593999997E+02  0.45594000000E+02  0.51100000000E-03 0. -1.
         11   -1    0    0    0    0 -0.00000000000E+00 -0.00000000000E+00 -0.45593999997E+02  0.45594000000E+02  0.51100000000E-03 0.  1.
         23    2    1    2    0    0 -0.35527136788E-14 -0.17763568394E-14  0.35527136788E-14  0.91188000000E+02  0.91188000000E+02 0.  0.
    9900012    2    3    3    0    0  0.28362901540E+02 -0.75837389009E+01 -0.22221926037E+02  0.54367064701E+02  0.39999955600E+02 0.  0.
         12    1    3    3    0    0 -0.28362901540E+02  0.75837389009E+01  0.22221926037E+02  0.36820935299E+02  0.00000000000E+00 0. -1.
         11    1    4    4    0    0  0.98428594607E+01  0.48782744405E+01 -0.27814360885E+02  0.29905151990E+02  0.51100000000E-03 0. -1.
        -11    1    4    4    0    0  0.10737935952E+02 -0.38696850863E+01  0.59338934995E+01  0.12864245936E+02  0.51100000000E-03 0.  1.
         12    1    4    4    0    0  0.77821061268E+01 -0.85923282551E+01 -0.34145865183E+00  0.11597666775E+02  0.00000000000E+00 0. -1.
</event>
<event>
 8    1  0.1290800E-006  0.9118800E+02  0.7816164E-02  0.1184000E+00
        -11   -1    0    0    0    0  0.00000000000E+00  0.00000000000E+00  0.45593999997E+02  0.45594000000E+02  0.51100000000E-03 0. -1.
         11   -1    0    0    0    0 -0.00000000000E+00 -0.00000000000E+00 -0.45593999997E+02  0.45594000000E+02  0.51100000000E-03 0.  1.
         23    2    1    2    0    0  0.00000000000E+00  0.00000000000E+00  0.35527136788E-14  0.91188000000E+02  0.91188000000E+02 0.  0.
    9900012    2    3    3    0    0 -0.10530338092E+02  0.27357189171E+02 -0.22281769041E+02  0.54367067757E+02  0.39999962565E+02 0.  0.
         12    1    3    3    0    0  0.10530338092E+02 -0.27357189171E+02  0.22281769041E+02  0.36820932243E+02  0.00000000000E+00 0. -1.
         11    1    4    4    0    0  0.13307214226E+02  0.13189089598E+02 -0.76436038591E+01  0.20235086239E+02  0.51100000000E-03 0. -1.
        -11    1    4    4    0    0 -0.32457258101E+01  0.27491805034E+01 -0.89489373318E+01  0.99083908433E+01  0.51100000000E-03 0.  1.
        -12    1    4    4    0    0 -0.20591826508E+02  0.11418919069E+02 -0.56892278503E+01  0.24223590674E+02  0.00000000000E+00 0.  1.
</event>
<event>
 8    1  0.1290800E-006  0.9118800E+02  0.7816164E-02  0.1184000E+00
        -11   -1    0    0    0    0  0.00000000000E+00  0.00000000000E+00  0.45593999997E+02  0.45594000000E+02  0.51100000000E-03 0. -1.
         11   -1    0    0    0    0 -0.00000000000E+00 -0.00000000000E+00 -0.45593999997E+02  0.45594000000E+02  0.51100000000E-03 0.  1.
         23    2    1    2    0    0 -0.17763568394E-14  0.35527136788E-14  0.35527136788E-14  0.91188000000E+02  0.91188000000E+02 0.  0.
    9900012    2    3    3    0    0  0.43439783579E+01  0.18558853208E+02  0.31503827272E+02  0.54366914829E+02  0.39999613934E+02 0.  0.
        -12    1    3    3    0    0 -0.43439783579E+01 -0.18558853208E+02 -0.31503827272E+02  0.36821085171E+02  0.00000000000E+00 0.  1.
         11    1    4    4    0    0  0.12592982615E+02  0.54315628591E+01  0.18963508359E+02  0.23402985616E+02  0.51100000000E-03 0. -1.
        -11    1    4    4    0    0 -0.66965167014E+01  0.12348314181E+02 -0.37836104935E+01  0.14547848902E+02  0.51100000000E-03 0.  1.
         12    1    4    4    0    0 -0.15524875555E+01  0.77897616799E+00  0.16323929407E+02  0.16416080311E+02  0.00000000000E+00 0. -1.
</event>
<event>
 8    1  0.1290800E-006  0.9118800E+02  0.7816164E-02  0.1184000E+00
        -11   -1    0    0    0    0  0.00000000000E+00  0.00000000000E+00  0.45593999997E+02  0.45594000000E+02  0.51100000000E-03 0.  1.
         11   -1    0    0    0    0 -0.00000000000E+00 -0.00000000000E+00 -0.45593999997E+02  0.45594000000E+02  0.51100000000E-03 0. -1.
         23    2    1    2    0    0  0.00000000000E+00  0.00000000000E+00  0.44408920985E-15  0.91188000000E+02  0.91188000000E+02 0.  0.
    9900012    2    3    3    0    0 -0.35450756949E+02  0.92097479106E+01  0.37691271714E+01  0.54367055628E+02  0.39999934914E+02 0.  0.
         12    1    3    3    0    0  0.35450756949E+02 -0.92097479106E+01 -0.37691271714E+01  0.36820944372E+02  0.00000000000E+00 0. -1.
         11    1    4    4    0    0 -0.28252809628E+00 -0.96929841381E+01 -0.23350216133E+01  0.99742713930E+01  0.51100000000E-03 0. -1.
        -11    1    4    4    0    0  0.19457783113E+01  0.11317767246E+01 -0.12752666533E+01  0.25871368517E+01  0.51100000000E-03 0.  1.
        -12    1    4    4    0    0 -0.37114007164E+02  0.17770955324E+02  0.73794154380E+01  0.41805647383E+02  0.00000000000E+00 0.  1.
</event>
<event>
 8    1  0.1290800E-006  0.9118800E+02  0.7816164E-02  0.1184000E+00
        -11   -1    0    0    0    0  0.00000000000E+00  0.00000000000E+00  0.45593999997E+02  0.45594000000E+02  0.51100000000E-03 0. -1.
         11   -1    0    0    0    0 -0.00000000000E+00 -0.00000000000E+00 -0.45593999997E+02  0.45594000000E+02  0.51100000000E-03 0.  1.
         23    2    1    2    0    0  0.00000000000E+00  0.00000000000E+00  0.35527136788E-14  0.91188000000E+02  0.91188000000E+02 0.  0.
    9900012    2    3    3    0    0  0.12637365174E+02 -0.31455309652E+02  0.14374987676E+02  0.54367085094E+02  0.40000002088E+02 0.  0.
        -12    1    3    3    0    0 -0.12637365174E+02  0.31455309652E+02 -0.14374987676E+02  0.36820914906E+02  0.00000000000E+00 0.  1.
         11    1    4    4    0    0  0.16991484610E+01 -0.29411549110E+01 -0.42605596568E+01  0.54488408449E+01  0.51100000000E-03 0. -1.
        -11    1    4    4    0    0 -0.85288255051E+01 -0.23135701030E+01 -0.34725513731E+01  0.94948451498E+01  0.51100000000E-03 0.  1.
         12    1    4    4    0    0  0.19467042218E+02 -0.26200584638E+02  0.22108098706E+02  0.39423399099E+02  0.00000000000E+00 0. -1.
</event>
<event>
 8    1  0.1290800E-006  0.9118800E+02  0.7816164E-02  0.1184000E+00
        -11   -1    0    0    0    0  0.00000000000E+00  0.00000000000E+00  0.45593999997E+02  0.45594000000E+02  0.51100000000E-03 0.  1.
         11   -1    0    0    0    0 -0.00000000000E+00 -0.00000000000E+00 -0.45593999997E+02  0.45594000000E+02  0.51100000000E-03 0. -1.
         23    2    1    2    0    0  0.00000000000E+00  0.00000000000E+00  0.88817841970E-15  0.91188000000E+02  0.91188000000E+02 0.  0.
    9900012    2    3    3    0    0  0.36508513281E+02 -0.34898062942E+01 -0.32756295124E+01  0.54367081507E+02  0.39999993912E+02 0.  0.
         12    1    3    3    0    0 -0.36508513281E+02  0.34898062942E+01  0.32756295124E+01  0.36820918493E+02  0.00000000000E+00 0. -1.
         11    1    4    4    0    0  0.21001136243E+02 -0.53608474659E+01  0.13616936785E+02  0.25597018903E+02  0.51100000000E-03 0. -1.
        -11    1    4    4    0    0  0.26598110693E+01  0.57553491151E+01  0.98349039283E+00  0.64160651473E+01  0.51100000000E-03 0.  1.
         12    1    4    4    0    0  0.12847565969E+02 -0.38843079434E+01 -0.17876056690E+02  0.22353997457E+02  0.00000000000E+00 0. -1.
</event>
<event>
 8    1  0.1290800E-006  0.9118800E+02  0.7816164E-02  0.1184000E+00
        -11   -1    0    0    0    0  0.00000000000E+00  0.00000000000E+00  0.45593999997E+02  0.45594000000E+02  0.51100000000E-03 0.  1.
         11   -1    0    0    0    0 -0.00000000000E+00 -0.00000000000E+00 -0.45593999997E+02  0.45594000000E+02  0.51100000000E-03 0. -1.
         23    2    1    2    0    0  0.00000000000E+00 -0.22204460493E-15  0.35527136788E-14  0.91188000000E+02  0.91188000000E+02 0.  0.
    9900012    2    3    3    0    0  0.30909934003E+02 -0.67210636658E-01 -0.20008792991E+02  0.54367077492E+02  0.39999984760E+02 0.  0.
         12    1    3    3    0    0 -0.30909934003E+02  0.67210636658E-01  0.20008792991E+02  0.36820922508E+02  0.00000000000E+00 0. -1.
         11    1    4    4    0    0 -0.70958372154E+01 -0.11077809957E+01 -0.17730501902E+00  0.71839767436E+01  0.51100000000E-03 0. -1.
        -11    1    4    4    0    0  0.24933154232E+02  0.49468027086E+01 -0.31208234529E+01  0.25610009298E+02  0.51100000000E-03 0.  1.
        -12    1    4    4    0    0  0.13072616987E+02 -0.39062323496E+01 -0.16710664519E+02  0.21573091451E+02  0.00000000000E+00 0.  1.
</event>
<event>
 8    1  0.1290800E-006  0.9118800E+02  0.7816164E-02  0.1184000E+00
        -11   -1    0    0    0    0  0.00000000000E+00  0.00000000000E+00  0.45593999997E+02  0.45594000000E+02  0.51100000000E-03 0. -1.
         11   -1    0    0    0    0 -0.00000000000E+00 -0.00000000000E+00 -0.45593999997E+02  0.45594000000E+02  0.51100000000E-03 0.  1.
         23    2    1    2    0    0  0.88817841970E-15  0.00000000000E+00  0.35527136788E-14  0.91188000000E+02  0.91188000000E+02 0.  0.
    9900012    2    3    3    0    0 -0.69001120752E+01 -0.27492201778E+02  0.23502133948E+02  0.54367041222E+02  0.39999902073E+02 0.  0.
        -12    1    3    3    0    0  0.69001120752E+01  0.27492201778E+02 -0.23502133948E+02  0.36820958778E+02  0.00000000000E+00 0.  1.
         11    1    4    4    0    0  0.84499713796E+01 -0.12135301713E+02  0.18061795705E+02  0.23343008125E+02  0.51100000000E-03 0. -1.
        -11    1    4    4    0    0  0.52028937498E+01 -0.25433138938E+01 -0.11911815189E+01  0.59124836242E+01  0.51100000000E-03 0.  1.
         12    1    4    4    0    0 -0.20552977205E+02 -0.12813586171E+02  0.66315197619E+01  0.25111549472E+02  0.00000000000E+00 0. -1.
</event>
<event>
 8    1  0.1290800E-006  0.9118800E+02  0.7816164E-02  0.1184000E+00
        -11   -1    0    0    0    0  0.00000000000E+00  0.00000000000E+00  0.45593999997E+02  0.45594000000E+02  0.51100000000E-03 0. -1.
         11   -1    0    0    0    0 -0.00000000000E+00 -0.00000000000E+00 -0.45593999997E+02  0.45594000000E+02  0.51100000000E-03 0.  1.
         23    2    1    2    0    0 -0.35527136788E-14  0.00000000000E+00  0.00000000000E+00  0.91188000000E+02  0.91188000000E+02 0.  0.
    9900012    2    3    3    0    0  0.28891758241E+02  0.17222125056E+02  0.14981319579E+02  0.54367146914E+02  0.40000143019E+02 0.  0.
        -12    1    3    3    0    0 -0.28891758241E+02 -0.17222125056E+02 -0.14981319579E+02  0.36820853086E+02  0.00000000000E+00 0.  1.
         11    1    4    4    0    0  0.94383669075E+01  0.99021598223E+01  0.72309818924E+01  0.15473287899E+02  0.51100000000E-03 0. -1.
        -11    1    4    4    0    0 -0.42477863893E+01  0.12680304748E+02  0.56035638783E+01  0.14499439510E+02  0.51100000000E-03 0.  1.
        -12    1    4    4    0    0  0.23701177723E+02 -0.53603395148E+01  0.21467738082E+01  0.24394419504E+02  0.00000000000E+00 0.  1.
</event>
<event>
 8    1  0.1290800E-006  0.9118800E+02  0.7816164E-02  0.1184000E+00
        -11   -1    0    0    0    0  0.00000000000E+00  0.00000000000E+00  0.45593999997E+02  0.45594000000E+02  0.51100000000E-03 0.  1.
         11   -1    0    0    0    0 -0.00000000000E+00 -0.00000000000E+00 -0.45593999997E+02  0.45594000000E+02  0.51100000000E-03 0. -1.
         23    2    1    2    0    0 -0.17763568394E-14  0.00000000000E+00  0.00000000000E+00  0.91188000000E+02  0.91188000000E+02 0.  0.
    9900012    2    3    3    0    0 -0.65489455835E+01 -0.49343272839E+01  0.35896293164E+02  0.54367080173E+02  0.39999990870E+02 0.  0.
         12    1    3    3    0    0  0.65489455835E+01  0.49343272839E+01 -0.35896293164E+02  0.36820919827E+02  0.00000000000E+00 0. -1.
         11    1    4    4    0    0 -0.27776092439E+01  0.76760413774E+01  0.18829501384E+01  0.83774832632E+01  0.51100000000E-03 0. -1.
        -11    1    4    4    0    0 -0.14542391202E+02 -0.78558267744E+01  0.10194335006E+02  0.19419568035E+02  0.51100000000E-03 0.  1.
        -12    1    4    4    0    0  0.10771054862E+02 -0.47545418870E+01  0.23819008019E+02  0.26570028875E+02  0.00000000000E+00 0.  1.
</event>
<event>
 8    1  0.1290800E-006  0.9118800E+02  0.7816164E-02  0.1184000E+00
        -11   -1    0    0    0    0  0.00000000000E+00  0.00000000000E+00  0.45593999997E+02  0.45594000000E+02  0.51100000000E-03 0. -1.
         11   -1    0    0    0    0 -0.00000000000E+00 -0.00000000000E+00 -0.45593999997E+02  0.45594000000E+02  0.51100000000E-03 0.  1.
         23    2    1    2    0    0  0.17763568394E-14  0.35527136788E-14  0.00000000000E+00  0.91188000000E+02  0.91188000000E+02 0.  0.
    9900012    2    3    3    0    0 -0.15024692566E+02  0.22204527166E+02 -0.25238819679E+02  0.54367076164E+02  0.39999981731E+02 0.  0.
         12    1    3    3    0    0  0.15024692566E+02 -0.22204527166E+02  0.25238819679E+02  0.36820923836E+02  0.00000000000E+00 0. -1.
         11    1    4    4    0    0 -0.89339098488E+01  0.30050391702E+02 -0.68652364689E+01  0.32093180875E+02  0.51100000000E-03 0. -1.
        -11    1    4    4    0    0  0.12300624288E+01 -0.23724453639E+01 -0.80657802651E+01  0.84969619352E+01  0.51100000000E-03 0.  1.
        -12    1    4    4    0    0 -0.73208451455E+01 -0.54734191722E+01 -0.10307802945E+02  0.13776933354E+02  0.00000000000E+00 0.  1.
</event>
<event>
 8    1  0.1290800E-006  0.9118800E+02  0.7816164E-02  0.1184000E+00
        -11   -1    0    0    0    0  0.00000000000E+00  0.00000000000E+00  0.45593999997E+02  0.45594000000E+02  0.51100000000E-03 0.  1.
         11   -1    0    0    0    0 -0.00000000000E+00 -0.00000000000E+00 -0.45593999997E+02  0.45594000000E+02  0.51100000000E-03 0. -1.
         23    2    1    2    0    0 -0.44408920985E-15  0.35527136788E-14  0.00000000000E+00  0.91188000000E+02  0.91188000000E+02 0.  0.
    9900012    2    3    3    0    0  0.88412012558E+00  0.29732769146E+02  0.21701605645E+02  0.54367096738E+02  0.40000028633E+02 0.  0.
         12    1    3    3    0    0 -0.88412012558E+00 -0.29732769146E+02 -0.21701605645E+02  0.36820903262E+02  0.00000000000E+00 0. -1.
         11    1    4    4    0    0  0.25582798100E+01  0.44844604814E+01  0.10319441271E+02  0.11538892920E+02  0.51100000000E-03 0. -1.
        -11    1    4    4    0    0  0.55005642581E+01  0.21330711659E+01  0.16988928600E+02  0.17984156777E+02  0.51100000000E-03 0.  1.
         12    1    4    4    0    0 -0.71747239426E+01  0.23115237499E+02 -0.56067642261E+01  0.24844047041E+02  0.00000000000E+00 0. -1.
</event>
<event>
 8    1  0.1290800E-006  0.9118800E+02  0.7816164E-02  0.1184000E+00
        -11   -1    0    0    0    0  0.00000000000E+00  0.00000000000E+00  0.45593999997E+02  0.45594000000E+02  0.51100000000E-03 0. -1.
         11   -1    0    0    0    0 -0.00000000000E+00 -0.00000000000E+00 -0.45593999997E+02  0.45594000000E+02  0.51100000000E-03 0.  1.
         23    2    1    2    0    0  0.00000000000E+00  0.00000000000E+00  0.00000000000E+00  0.91188000000E+02  0.91188000000E+02 0.  0.
    9900012    2    3    3    0    0  0.32005377304E+02 -0.38655821368E+01  0.17790259797E+02  0.54367078701E+02  0.39999987515E+02 0.  0.
        -12    1    3    3    0    0 -0.32005377304E+02  0.38655821368E+01 -0.17790259797E+02  0.36820921299E+02  0.00000000000E+00 0.  1.
         11    1    4    4    0    0  0.10716020741E+02  0.49200904728E+01  0.52962350959E+01  0.12926348952E+02  0.51100000000E-03 0. -1.
        -11    1    4    4    0    0  0.28935945583E+02 -0.47523998980E+01  0.45015061081E+01  0.29667116629E+02  0.51100000000E-03 0.  1.
        -12    1    4    4    0    0 -0.76465890204E+01 -0.40332727116E+01  0.79925185935E+01  0.11773613119E+02  0.00000000000E+00 0.  1.
</event>
<event>
 8    1  0.1290800E-006  0.9118800E+02  0.7816164E-02  0.1184000E+00
        -11   -1    0    0    0    0  0.00000000000E+00  0.00000000000E+00  0.45593999997E+02  0.45594000000E+02  0.51100000000E-03 0. -1.
         11   -1    0    0    0    0 -0.00000000000E+00 -0.00000000000E+00 -0.45593999997E+02  0.45594000000E+02  0.51100000000E-03 0.  1.
         23    2    1    2    0    0  0.00000000000E+00  0.00000000000E+00 -0.35527136788E-14  0.91188000000E+02  0.91188000000E+02 0.  0.
    9900012    2    3    3    0    0  0.19701800763E+02 -0.89035124373E+01 -0.29805132566E+02  0.54367089986E+02  0.40000013240E+02 0.  0.
         12    1    3    3    0    0 -0.19701800763E+02  0.89035124373E+01  0.29805132566E+02  0.36820910014E+02  0.00000000000E+00 0. -1.
         11    1    4    4    0    0  0.38088380732E+01  0.45069071904E+01 -0.97066433145E+01  0.11359506353E+02  0.51100000000E-03 0.  1.
        -11    1    4    4    0    0  0.14353423715E+01 -0.14330793810E+02 -0.24013127189E+02  0.28001109560E+02  0.51100000000E-03 0. -1.
         12    1    4    4    0    0  0.14457620318E+02  0.92037418194E+00  0.39146379377E+01  0.15006474072E+02  0.00000000000E+00 0. -1.
</event>
<event>
 8    1  0.1290800E-006  0.9118800E+02  0.7816164E-02  0.1184000E+00
        -11   -1    0    0    0    0  0.00000000000E+00  0.00000000000E+00  0.45593999997E+02  0.45594000000E+02  0.51100000000E-03 0.  1.
         11   -1    0    0    0    0 -0.00000000000E+00 -0.00000000000E+00 -0.45593999997E+02  0.45594000000E+02  0.51100000000E-03 0. -1.
         23    2    1    2    0    0  0.00000000000E+00 -0.35527136788E-14  0.00000000000E+00  0.91188000000E+02  0.91188000000E+02 0.  0.
    9900012    2    3    3    0    0  0.32217614513E+02 -0.16907853772E+02 -0.56506249450E+01  0.54367085205E+02  0.40000002343E+02 0.  0.
        -12    1    3    3    0    0 -0.32217614513E+02  0.16907853772E+02  0.56506249450E+01  0.36820914795E+02  0.00000000000E+00 0.  1.
         11    1    4    4    0    0  0.76213403434E+01  0.66524421063E+01 -0.20698152080E-01  0.10116335467E+02  0.51100000000E-03 0. -1.
        -11    1    4    4    0    0  0.17946749700E+02 -0.29776003347E+02 -0.38844776317E+01  0.34982643795E+02  0.51100000000E-03 0.  1.
        -12    1    4    4    0    0  0.66495244693E+01  0.62157074690E+01 -0.17454491612E+01  0.92681059437E+01  0.00000000000E+00 0.  1.
</event>
<event>
 8    1  0.1290800E-006  0.9118800E+02  0.7816164E-02  0.1184000E+00
        -11   -1    0    0    0    0  0.00000000000E+00  0.00000000000E+00  0.45593999997E+02  0.45594000000E+02  0.51100000000E-03 0.  1.
         11   -1    0    0    0    0 -0.00000000000E+00 -0.00000000000E+00 -0.45593999997E+02  0.45594000000E+02  0.51100000000E-03 0. -1.
         23    2    1    2    0    0 -0.35527136788E-14  0.00000000000E+00 -0.35527136788E-14  0.91188000000E+02  0.91188000000E+02 0.  0.
    9900012    2    3    3    0    0 -0.29843708593E+02  0.10696028519E+02 -0.18727709511E+02  0.54367094631E+02  0.40000023830E+02 0.  0.
        -12    1    3    3    0    0  0.29843708593E+02 -0.10696028519E+02  0.18727709511E+02  0.36820905369E+02  0.00000000000E+00 0.  1.
         11    1    4    4    0    0 -0.25216084438E+02 -0.58697286411E+01 -0.20820884697E+02  0.33223694385E+02  0.51100000000E-03 0. -1.
        -11    1    4    4    0    0  0.18958325399E+01  0.90655787485E+01  0.53344203260E+01  0.10688074641E+02  0.51100000000E-03 0.  1.
         12    1    4    4    0    0 -0.65234566943E+01  0.75001784115E+01 -0.32412451398E+01  0.10455325605E+02  0.00000000000E+00 0. -1.
</event>
<event>
 8    1  0.1290800E-006  0.9118800E+02  0.7816164E-02  0.1184000E+00
        -11   -1    0    0    0    0  0.00000000000E+00  0.00000000000E+00  0.45593999997E+02  0.45594000000E+02  0.51100000000E-03 0. -1.
         11   -1    0    0    0    0 -0.00000000000E+00 -0.00000000000E+00 -0.45593999997E+02  0.45594000000E+02  0.51100000000E-03 0.  1.
         23    2    1    2    0    0  0.17763568394E-14  0.00000000000E+00  0.00000000000E+00  0.91188000000E+02  0.91188000000E+02 0.  0.
    9900012    2    3    3    0    0 -0.91264933478E+01  0.19876899179E+02  0.29621008599E+02  0.54366971331E+02  0.39999742743E+02 0.  0.
        -12    1    3    3    0    0  0.91264933478E+01 -0.19876899179E+02 -0.29621008599E+02  0.36821028669E+02  0.00000000000E+00 0.  1.
         11    1    4    4    0    0 -0.58620209345E+01 -0.29331067398E+01  0.19802738718E+02  0.20859407125E+02  0.51100000000E-03 0. -1.
        -11    1    4    4    0    0  0.83824316522E+01  0.88554935360E+01 -0.11997962981E+01  0.12252527804E+02  0.51100000000E-03 0.  1.
         12    1    4    4    0    0 -0.11646904066E+02  0.13954512383E+02  0.11018066179E+02  0.21255036403E+02  0.00000000000E+00 0. -1.
</event>
<event>
 8    1  0.1290800E-006  0.9118800E+02  0.7816164E-02  0.1184000E+00
        -11   -1    0    0    0    0  0.00000000000E+00  0.00000000000E+00  0.45593999997E+02  0.45594000000E+02  0.51100000000E-03 0. -1.
         11   -1    0    0    0    0 -0.00000000000E+00 -0.00000000000E+00 -0.45593999997E+02  0.45594000000E+02  0.51100000000E-03 0.  1.
         23    2    1    2    0    0  0.00000000000E+00 -0.17763568394E-14  0.00000000000E+00  0.91188000000E+02  0.91188000000E+02 0.  0.
    9900012    2    3    3    0    0 -0.12138477673E+02 -0.91249937792E+01  0.33543564278E+02  0.54367097565E+02  0.40000030519E+02 0.  0.
        -12    1    3    3    0    0  0.12138477673E+02  0.91249937792E+01 -0.33543564278E+02  0.36820902435E+02  0.00000000000E+00 0.  1.
         11    1    4    4    0    0 -0.33034450537E+01 -0.45367101096E+00  0.22346839881E+02  0.22594243061E+02  0.51100000000E-03 0. -1.
        -11    1    4    4    0    0  0.89666896366E+01 -0.44875199658E+01  0.87788395742E+01  0.13326941998E+02  0.51100000000E-03 0.  1.
        -12    1    4    4    0    0 -0.17801722256E+02 -0.41838028025E+01  0.24178848228E+01  0.18445912506E+02  0.00000000000E+00 0.  1.
</event>
<event>
 8    1  0.1290800E-006  0.9118800E+02  0.7816164E-02  0.1184000E+00
        -11   -1    0    0    0    0  0.00000000000E+00  0.00000000000E+00  0.45593999997E+02  0.45594000000E+02  0.51100000000E-03 0.  1.
         11   -1    0    0    0    0 -0.00000000000E+00 -0.00000000000E+00 -0.45593999997E+02  0.45594000000E+02  0.51100000000E-03 0. -1.
         23    2    1    2    0    0  0.00000000000E+00  0.88817841970E-15  0.00000000000E+00  0.91188000000E+02  0.91188000000E+02 0.  0.
    9900012    2    3    3    0    0 -0.12936194956E+02 -0.30286354861E+01 -0.34340396557E+02  0.54367073769E+02  0.39999976271E+02 0.  0.
        -12    1    3    3    0    0  0.12936194956E+02  0.30286354861E+01  0.34340396557E+02  0.36820926231E+02  0.00000000000E+00 0.  1.
         11    1    4    4    0    0 -0.11656347715E+02 -0.41729377696E+01 -0.78283240252E+01  0.14648088919E+02  0.51100000000E-03 0.  1.
        -11    1    4    4    0    0 -0.10261731670E+01 -0.75662407755E+01  0.35492351302E+01  0.84201010156E+01  0.51100000000E-03 0. -1.
         12    1    4    4    0    0 -0.25367407391E+00  0.87105430591E+01 -0.30061307662E+02  0.31298883834E+02  0.00000000000E+00 0. -1.
</event>
<event>
 8    1  0.1290800E-006  0.9118800E+02  0.7816164E-02  0.1184000E+00
        -11   -1    0    0    0    0  0.00000000000E+00  0.00000000000E+00  0.45593999997E+02  0.45594000000E+02  0.51100000000E-03 0. -1.
         11   -1    0    0    0    0 -0.00000000000E+00 -0.00000000000E+00 -0.45593999997E+02  0.45594000000E+02  0.51100000000E-03 0.  1.
         23    2    1    2    0    0  0.00000000000E+00  0.00000000000E+00  0.00000000000E+00  0.91188000000E+02  0.91188000000E+02 0.  0.
    9900012    2    3    3    0    0  0.25867616099E+02  0.26203895173E+02 -0.69036706680E-01  0.54367048750E+02  0.39999919235E+02 0.  0.
        -12    1    3    3    0    0 -0.25867616099E+02 -0.26203895173E+02  0.69036706680E-01  0.36820951250E+02  0.00000000000E+00 0.  1.
         11    1    4    4    0    0  0.18186557469E+02  0.10418084765E+02 -0.23379052939E+00  0.20960487137E+02  0.51100000000E-03 0. -1.
        -11    1    4    4    0    0  0.16033312605E+02  0.57290936002E+00  0.43775067214E+00  0.16049516010E+02  0.51100000000E-03 0.  1.
        -12    1    4    4    0    0 -0.83522539758E+01  0.15212901048E+02 -0.27299684943E+00  0.17357045603E+02  0.00000000000E+00 0.  1.
</event>
<event>
 8    1  0.1290800E-006  0.9118800E+02  0.7816164E-02  0.1184000E+00
        -11   -1    0    0    0    0  0.00000000000E+00  0.00000000000E+00  0.45593999997E+02  0.45594000000E+02  0.51100000000E-03 0.  1.
         11   -1    0    0    0    0 -0.00000000000E+00 -0.00000000000E+00 -0.45593999997E+02  0.45594000000E+02  0.51100000000E-03 0. -1.
         23    2    1    2    0    0  0.17763568394E-14  0.00000000000E+00 -0.35527136788E-14  0.91188000000E+02  0.91188000000E+02 0.  0.
    9900012    2    3    3    0    0 -0.88328173993E+01 -0.23527794603E+02  0.26911027361E+02  0.54367093225E+02  0.40000020626E+02 0.  0.
         12    1    3    3    0    0  0.88328173993E+01  0.23527794603E+02 -0.26911027361E+02  0.36820906775E+02  0.00000000000E+00 0. -1.
         11    1    4    4    0    0 -0.72109029873E+00 -0.98231915420E+01  0.10541179257E+02  0.14426764145E+02  0.51100000000E-03 0. -1.
        -11    1    4    4    0    0 -0.10048055030E+01 -0.22202351140E+02  0.27660015107E+01  0.22396535331E+02  0.51100000000E-03 0.  1.
         12    1    4    4    0    0 -0.71069215975E+01  0.84977480789E+01  0.13603846593E+02  0.17543793750E+02  0.00000000000E+00 0. -1.
</event>
<event>
 8    1  0.1290800E-006  0.9118800E+02  0.7816164E-02  0.1184000E+00
        -11   -1    0    0    0    0  0.00000000000E+00  0.00000000000E+00  0.45593999997E+02  0.45594000000E+02  0.51100000000E-03 0. -1.
         11   -1    0    0    0    0 -0.00000000000E+00 -0.00000000000E+00 -0.45593999997E+02  0.45594000000E+02  0.51100000000E-03 0.  1.
         23    2    1    2    0    0  0.00000000000E+00  0.00000000000E+00  0.88817841970E-15  0.91188000000E+02  0.91188000000E+02 0.  0.
    9900012    2    3    3    0    0 -0.20022089368E+02  0.30040898660E+02  0.72416118016E+01  0.54367073933E+02  0.39999976645E+02 0.  0.
         12    1    3    3    0    0  0.20022089368E+02 -0.30040898660E+02 -0.72416118016E+01  0.36820926067E+02  0.00000000000E+00 0. -1.
         11    1    4    4    0    0 -0.49174315755E+01  0.26780214442E+02  0.96761323534E+01  0.28896168543E+02  0.51100000000E-03 0. -1.
        -11    1    4    4    0    0 -0.12250146686E+02  0.11089989153E+02  0.77072416489E+00  0.16542308461E+02  0.51100000000E-03 0.  1.
         12    1    4    4    0    0 -0.28545111064E+01 -0.78293049349E+01 -0.32052447167E+01  0.89285969287E+01  0.00000000000E+00 0. -1.
</event>
<event>
 8    1  0.1290800E-006  0.9118800E+02  0.7816164E-02  0.1184000E+00
        -11   -1    0    0    0    0  0.00000000000E+00  0.00000000000E+00  0.45593999997E+02  0.45594000000E+02  0.51100000000E-03 0.  1.
         11   -1    0    0    0    0 -0.00000000000E+00 -0.00000000000E+00 -0.45593999997E+02  0.45594000000E+02  0.51100000000E-03 0. -1.
         23    2    1    2    0    0  0.00000000000E+00  0.88817841970E-15  0.00000000000E+00  0.91188000000E+02  0.91188000000E+02 0.  0.
    9900012    2    3    3    0    0 -0.92157379541E+01 -0.34496107522E+01 -0.35481570676E+02  0.54367197483E+02  0.40000258301E+02 0.  0.
        -12    1    3    3    0    0  0.92157379541E+01  0.34496107522E+01  0.35481570676E+02  0.36820802517E+02  0.00000000000E+00 0.  1.
         11    1    4    4    0    0  0.68179692745E+01 -0.13851435400E+02 -0.12246946821E+02  0.19706209031E+02  0.51100000000E-03 0. -1.
        -11    1    4    4    0    0  0.29365789000E+00  0.93523787119E+01 -0.82307941647E+01  0.12461909780E+02  0.51100000000E-03 0.  1.
         12    1    4    4    0    0 -0.16327365119E+02  0.10494459363E+01 -0.15003829690E+02  0.22199078671E+02  0.00000000000E+00 0. -1.
</event>
<event>
 8    1  0.1290800E-006  0.9118800E+02  0.7816164E-02  0.1184000E+00
        -11   -1    0    0    0    0  0.00000000000E+00  0.00000000000E+00  0.45593999997E+02  0.45594000000E+02  0.51100000000E-03 0. -1.
         11   -1    0    0    0    0 -0.00000000000E+00 -0.00000000000E+00 -0.45593999997E+02  0.45594000000E+02  0.51100000000E-03 0.  1.
         23    2    1    2    0    0  0.00000000000E+00  0.00000000000E+00  0.00000000000E+00  0.91188000000E+02  0.91188000000E+02 0.  0.
    9900012    2    3    3    0    0 -0.10166752565E+02 -0.11493117787E+01  0.35370846408E+02  0.54367074551E+02  0.39999978054E+02 0.  0.
        -12    1    3    3    0    0  0.10166752565E+02  0.11493117787E+01 -0.35370846408E+02  0.36820925449E+02  0.00000000000E+00 0.  1.
         11    1    4    4    0    0 -0.14297697910E+02 -0.32941231642E+01  0.33197237369E+02  0.36295068289E+02  0.51100000000E-03 0. -1.
        -11    1    4    4    0    0  0.58620945126E+01 -0.49312877081E+01  0.61036718844E+01  0.97947210919E+01  0.51100000000E-03 0.  1.
        -12    1    4    4    0    0 -0.17311491680E+01  0.70760990937E+01 -0.39300628447E+01  0.82772851702E+01  0.00000000000E+00 0.  1.
</event>
<event>
 8    1  0.1290800E-006  0.9118800E+02  0.7816164E-02  0.1184000E+00
        -11   -1    0    0    0    0  0.00000000000E+00  0.00000000000E+00  0.45593999997E+02  0.45594000000E+02  0.51100000000E-03 0. -1.
         11   -1    0    0    0    0 -0.00000000000E+00 -0.00000000000E+00 -0.45593999997E+02  0.45594000000E+02  0.51100000000E-03 0.  1.
         23    2    1    2    0    0  0.44408920985E-15  0.00000000000E+00  0.00000000000E+00  0.91188000000E+02  0.91188000000E+02 0.  0.
    9900012    2    3    3    0    0  0.33170875312E+01  0.17216240447E+02 -0.32378691449E+02  0.54367059426E+02  0.39999943573E+02 0.  0.
         12    1    3    3    0    0 -0.33170875312E+01 -0.17216240447E+02  0.32378691449E+02  0.36820940574E+02  0.00000000000E+00 0. -1.
         11    1    4    4    0    0 -0.24972082499E+01 -0.50458667081E+01  0.28957400429E+01  0.63310449798E+01  0.51100000000E-03 0. -1.
        -11    1    4    4    0    0 -0.45861417342E+01  0.12280291715E+02 -0.41741309635E+01  0.13757239192E+02  0.51100000000E-03 0.  1.
        -12    1    4    4    0    0  0.10400437515E+02  0.99818154399E+01 -0.31100300528E+02  0.34278775254E+02  0.00000000000E+00 0.  1.
</event>
<event>
 8    1  0.1290800E-006  0.9118800E+02  0.7816164E-02  0.1184000E+00
        -11   -1    0    0    0    0  0.00000000000E+00  0.00000000000E+00  0.45593999997E+02  0.45594000000E+02  0.51100000000E-03 0. -1.
         11   -1    0    0    0    0 -0.00000000000E+00 -0.00000000000E+00 -0.45593999997E+02  0.45594000000E+02  0.51100000000E-03 0.  1.
         23    2    1    2    0    0  0.17763568394E-14  0.71054273576E-14 -0.13322676296E-14  0.91188000000E+02  0.91188000000E+02 0.  0.
    9900012    2    3    3    0    0  0.68154351339E+01  0.36104195179E+02  0.24118954527E+01  0.54367077887E+02  0.39999985659E+02 0.  0.
         12    1    3    3    0    0 -0.68154351339E+01 -0.36104195179E+02 -0.24118954527E+01  0.36820922113E+02  0.00000000000E+00 0. -1.
         11    1    4    4    0    0 -0.86765684580E+01  0.33338657758E+01 -0.41046759011E+01  0.10160997280E+02  0.51100000000E-03 0. -1.
        -11    1    4    4    0    0 -0.35645447552E+01  0.89497637696E+01 -0.58710475156E+01  0.11281553529E+02  0.51100000000E-03 0.  1.
        -12    1    4    4    0    0  0.19056548347E+02  0.23820565634E+02  0.12387618869E+02  0.32924527077E+02  0.00000000000E+00 0.  1.
</event>
<event>
 8    1  0.1290800E-006  0.9118800E+02  0.7816164E-02  0.1184000E+00
        -11   -1    0    0    0    0  0.00000000000E+00  0.00000000000E+00  0.45593999997E+02  0.45594000000E+02  0.51100000000E-03 0. -1.
         11   -1    0    0    0    0 -0.00000000000E+00 -0.00000000000E+00 -0.45593999997E+02  0.45594000000E+02  0.51100000000E-03 0.  1.
         23    2    1    2    0    0  0.35527136788E-14 -0.35527136788E-14  0.00000000000E+00  0.91188000000E+02  0.91188000000E+02 0.  0.
    9900012    2    3    3    0    0  0.21831311667E+02  0.27813682273E+02  0.10274774141E+02  0.54367108181E+02  0.40000054720E+02 0.  0.
        -12    1    3    3    0    0 -0.21831311667E+02 -0.27813682273E+02 -0.10274774141E+02  0.36820891819E+02  0.00000000000E+00 0.  1.
         11    1    4    4    0    0  0.18904183106E+02  0.17429470289E+01  0.91734282135E+01  0.21084539091E+02  0.51100000000E-03 0. -1.
        -11    1    4    4    0    0  0.73997529992E+01  0.99827521279E+01 -0.74847257590E+01  0.14506302232E+02  0.51100000000E-03 0.  1.
         12    1    4    4    0    0 -0.44726244380E+01  0.16087983116E+02  0.85860716867E+01  0.18776266858E+02  0.00000000000E+00 0. -1.
</event>
<event>
 8    1  0.1290800E-006  0.9118800E+02  0.7816164E-02  0.1184000E+00
        -11   -1    0    0    0    0  0.00000000000E+00  0.00000000000E+00  0.45593999997E+02  0.45594000000E+02  0.51100000000E-03 0.  1.
         11   -1    0    0    0    0 -0.00000000000E+00 -0.00000000000E+00 -0.45593999997E+02  0.45594000000E+02  0.51100000000E-03 0. -1.
         23    2    1    2    0    0  0.00000000000E+00  0.71054273576E-14  0.33306690739E-15  0.91188000000E+02  0.91188000000E+02 0.  0.
    9900012    2    3    3    0    0  0.12938385917E+02 -0.34460813059E+02  0.91173652125E+00  0.54367072116E+02  0.39999972502E+02 0.  0.
        -12    1    3    3    0    0 -0.12938385917E+02  0.34460813059E+02 -0.91173652125E+00  0.36820927884E+02  0.00000000000E+00 0.  1.
         11    1    4    4    0    0 -0.86575772966E+00 -0.23500328249E+02  0.72001695901E+01  0.24593848959E+02  0.51100000000E-03 0. -1.
        -11    1    4    4    0    0 -0.57619789202E+01  0.13174988806E+01 -0.34124712934E+00  0.59205282063E+01  0.51100000000E-03 0.  1.
         12    1    4    4    0    0  0.19566122566E+02 -0.12277983691E+02 -0.59471859395E+01  0.23852694950E+02  0.00000000000E+00 0. -1.
</event>
<event>
 8    1  0.1290800E-006  0.9118800E+02  0.7816164E-02  0.1184000E+00
        -11   -1    0    0    0    0  0.00000000000E+00  0.00000000000E+00  0.45593999997E+02  0.45594000000E+02  0.51100000000E-03 0.  1.
         11   -1    0    0    0    0 -0.00000000000E+00 -0.00000000000E+00 -0.45593999997E+02  0.45594000000E+02  0.51100000000E-03 0. -1.
         23    2    1    2    0    0  0.00000000000E+00  0.00000000000E+00 -0.17763568394E-14  0.91188000000E+02  0.91188000000E+02 0.  0.
    9900012    2    3    3    0    0 -0.13446116717E+02 -0.31589594266E+02  0.13307103817E+02  0.54367088379E+02  0.40000009577E+02 0.  0.
         12    1    3    3    0    0  0.13446116717E+02  0.31589594266E+02 -0.13307103817E+02  0.36820911621E+02  0.00000000000E+00 0. -1.
         11    1    4    4    0    0 -0.42901117249E+01 -0.12183337951E+02  0.14277023416E+02  0.19252848623E+02  0.51100000000E-03 0. -1.
        -11    1    4    4    0    0  0.10072232508E+01 -0.16356189584E+01  0.11156469640E+02  0.11320625563E+02  0.51100000000E-03 0.  1.
         12    1    4    4    0    0 -0.10163228242E+02 -0.17770637357E+02 -0.12126389239E+02  0.23793614193E+02  0.00000000000E+00 0. -1.
</event>
<event>
 8    1  0.1290800E-006  0.9118800E+02  0.7816164E-02  0.1184000E+00
        -11   -1    0    0    0    0  0.00000000000E+00  0.00000000000E+00  0.45593999997E+02  0.45594000000E+02  0.51100000000E-03 0.  1.
         11   -1    0    0    0    0 -0.00000000000E+00 -0.00000000000E+00 -0.45593999997E+02  0.45594000000E+02  0.51100000000E-03 0. -1.
         23    2    1    2    0    0 -0.17763568394E-14 -0.44408920985E-15  0.00000000000E+00  0.91188000000E+02  0.91188000000E+02 0.  0.
    9900012    2    3    3    0    0  0.15256998901E+02  0.37320654833E+01 -0.33302777555E+02  0.54367091251E+02  0.40000016125E+02 0.  0.
        -12    1    3    3    0    0 -0.15256998901E+02 -0.37320654833E+01  0.33302777555E+02  0.36820908749E+02  0.00000000000E+00 0.  1.
         11    1    4    4    0    0  0.99405892178E+01  0.18079535674E+01 -0.64381221932E+01  0.11980543716E+02  0.51100000000E-03 0. -1.
        -11    1    4    4    0    0  0.16647419686E+02 -0.96553766182E+00 -0.46979601848E+01  0.17324539686E+02  0.51100000000E-03 0.  1.
         12    1    4    4    0    0 -0.11331010003E+02  0.28896495777E+01 -0.22166695177E+02  0.25062007849E+02  0.00000000000E+00 0. -1.
</event>
<event>
 8    1  0.1290800E-006  0.9118800E+02  0.7816164E-02  0.1184000E+00
        -11   -1    0    0    0    0  0.00000000000E+00  0.00000000000E+00  0.45593999997E+02  0.45594000000E+02  0.51100000000E-03 0.  1.
         11   -1    0    0    0    0 -0.00000000000E+00 -0.00000000000E+00 -0.45593999997E+02  0.45594000000E+02  0.51100000000E-03 0. -1.
         23    2    1    2    0    0  0.00000000000E+00  0.00000000000E+00  0.00000000000E+00  0.91188000000E+02  0.91188000000E+02 0.  0.
    9900012    2    3    3    0    0  0.14947146334E+01 -0.12826400344E+02 -0.34482340494E+02  0.54367047764E+02  0.39999916987E+02 0.  0.
        -12    1    3    3    0    0 -0.14947146334E+01  0.12826400344E+02  0.34482340494E+02  0.36820952236E+02  0.00000000000E+00 0.  1.
         11    1    4    4    0    0 -0.63930913552E+01 -0.10359979980E+02 -0.19893418399E+02  0.23322712066E+02  0.51100000000E-03 0. -1.
        -11    1    4    4    0    0  0.38857942270E+01 -0.96701262036E+01 -0.19019854248E+02  0.21687913534E+02  0.51100000000E-03 0.  1.
         12    1    4    4    0    0  0.40020117615E+01  0.72037058399E+01  0.44309321529E+01  0.93564221640E+01  0.00000000000E+00 0. -1.
</event>
<event>
 8    1  0.1290800E-006  0.9118800E+02  0.7816164E-02  0.1184000E+00
        -11   -1    0    0    0    0  0.00000000000E+00  0.00000000000E+00  0.45593999997E+02  0.45594000000E+02  0.51100000000E-03 0.  1.
         11   -1    0    0    0    0 -0.00000000000E+00 -0.00000000000E+00 -0.45593999997E+02  0.45594000000E+02  0.51100000000E-03 0. -1.
         23    2    1    2    0    0  0.00000000000E+00  0.00000000000E+00  0.00000000000E+00  0.91188000000E+02  0.91188000000E+02 0.  0.
    9900012    2    3    3    0    0 -0.21998117715E+02  0.27909134713E+02  0.96407689487E+01  0.54367062895E+02  0.39999951481E+02 0.  0.
         12    1    3    3    0    0  0.21998117715E+02 -0.27909134713E+02 -0.96407689487E+01  0.36820937105E+02  0.00000000000E+00 0. -1.
         11    1    4    4    0    0 -0.44365800894E+01 -0.37775612747E+01 -0.77636382961E+01  0.97070743238E+01  0.51100000000E-03 0. -1.
        -11    1    4    4    0    0  0.32592743343E+01  0.38993518457E+00  0.28627375179E+01  0.43554775848E+01  0.51100000000E-03 0.  1.
         12    1    4    4    0    0 -0.20820811959E+02  0.31296760803E+02  0.14541669727E+02  0.40304510986E+02  0.00000000000E+00 0. -1.
</event>
<event>
 8    1  0.1290800E-006  0.9118800E+02  0.7816164E-02  0.1184000E+00
        -11   -1    0    0    0    0  0.00000000000E+00  0.00000000000E+00  0.45593999997E+02  0.45594000000E+02  0.51100000000E-03 0.  1.
         11   -1    0    0    0    0 -0.00000000000E+00 -0.00000000000E+00 -0.45593999997E+02  0.45594000000E+02  0.51100000000E-03 0. -1.
         23    2    1    2    0    0 -0.35527136788E-14  0.00000000000E+00  0.35527136788E-14  0.91188000000E+02  0.91188000000E+02 0.  0.
    9900012    2    3    3    0    0 -0.27590277475E+02 -0.11065153861E+02  0.21728282043E+02  0.54367091787E+02  0.40000017347E+02 0.  0.
         12    1    3    3    0    0  0.27590277475E+02  0.11065153861E+02 -0.21728282043E+02  0.36820908213E+02  0.00000000000E+00 0. -1.
         11    1    4    4    0    0 -0.19376801326E-01 -0.20115247813E+02  0.88659578916E+01  0.21982465276E+02  0.51100000000E-03 0. -1.
        -11    1    4    4    0    0 -0.13052971286E+02  0.58735507315E+01  0.94032382442E+01  0.17125990405E+02  0.51100000000E-03 0.  1.
         12    1    4    4    0    0 -0.14517929387E+02  0.31765432198E+01  0.34590859070E+01  0.15258636106E+02  0.00000000000E+00 0. -1.
</event>
<event>
 8    1  0.1290800E-006  0.9118800E+02  0.7816164E-02  0.1184000E+00
        -11   -1    0    0    0    0  0.00000000000E+00  0.00000000000E+00  0.45593999997E+02  0.45594000000E+02  0.51100000000E-03 0.  1.
         11   -1    0    0    0    0 -0.00000000000E+00 -0.00000000000E+00 -0.45593999997E+02  0.45594000000E+02  0.51100000000E-03 0. -1.
         23    2    1    2    0    0 -0.17763568394E-14 -0.35527136788E-14  0.00000000000E+00  0.91188000000E+02  0.91188000000E+02 0.  0.
    9900012    2    3    3    0    0  0.19670667503E+01 -0.30703106565E+02  0.20229414024E+02  0.54367091591E+02  0.40000016899E+02 0.  0.
         12    1    3    3    0    0 -0.19670667503E+01  0.30703106565E+02 -0.20229414024E+02  0.36820908409E+02  0.00000000000E+00 0. -1.
         11    1    4    4    0    0  0.87219945785E+01 -0.28834214652E+01  0.41210236868E+01  0.10068274195E+02  0.51100000000E-03 0. -1.
        -11    1    4    4    0    0  0.93604826104E+01 -0.13827434121E+02  0.15749642963E+02  0.22953601521E+02  0.51100000000E-03 0.  1.
        -12    1    4    4    0    0 -0.16115410439E+02 -0.13992250978E+02  0.35874737406E+00  0.21345215874E+02  0.00000000000E+00 0.  1.
</event>
<event>
 8    1  0.1290800E-006  0.9118800E+02  0.7816164E-02  0.1184000E+00
        -11   -1    0    0    0    0  0.00000000000E+00  0.00000000000E+00  0.45593999997E+02  0.45594000000E+02  0.51100000000E-03 0.  1.
         11   -1    0    0    0    0 -0.00000000000E+00 -0.00000000000E+00 -0.45593999997E+02  0.45594000000E+02  0.51100000000E-03 0. -1.
         23    2    1    2    0    0  0.35527136788E-14  0.35527136788E-14 -0.35527136788E-14  0.91188000000E+02  0.91188000000E+02 0.  0.
    9900012    2    3    3    0    0 -0.18194578207E+02 -0.16344040752E+02 -0.27524693611E+02  0.54367094218E+02  0.40000022889E+02 0.  0.
        -12    1    3    3    0    0  0.18194578207E+02  0.16344040752E+02  0.27524693611E+02  0.36820905782E+02  0.00000000000E+00 0.  1.
         11    1    4    4    0    0 -0.11964977622E+02  0.56804723355E+01  0.15634975420E+01  0.13336902949E+02  0.51100000000E-03 0. -1.
        -11    1    4    4    0    0  0.74784007505E+00 -0.21378510659E+02 -0.18222130603E+02  0.28100641038E+02  0.51100000000E-03 0.  1.
        -12    1    4    4    0    0 -0.69774406604E+01 -0.64600242912E+00 -0.10866060550E+02  0.12929550231E+02  0.00000000000E+00 0.  1.
</event>
<event>
 8    1  0.1290800E-006  0.9118800E+02  0.7816164E-02  0.1184000E+00
        -11   -1    0    0    0    0  0.00000000000E+00  0.00000000000E+00  0.45593999997E+02  0.45594000000E+02  0.51100000000E-03 0. -1.
         11   -1    0    0    0    0 -0.00000000000E+00 -0.00000000000E+00 -0.45593999997E+02  0.45594000000E+02  0.51100000000E-03 0.  1.
         23    2    1    2    0    0  0.00000000000E+00  0.35527136788E-14  0.00000000000E+00  0.91188000000E+02  0.91188000000E+02 0.  0.
    9900012    2    3    3    0    0  0.22444912721E+02  0.23343525213E+02  0.17523865113E+02  0.54367080336E+02  0.39999991243E+02 0.  0.
        -12    1    3    3    0    0 -0.22444912721E+02 -0.23343525213E+02 -0.17523865113E+02  0.36820919664E+02  0.00000000000E+00 0.  1.
         11    1    4    4    0    0  0.24931765797E+02  0.81001872181E+01 -0.17168793968E+01  0.26270775661E+02  0.51100000000E-03 0. -1.
        -11    1    4    4    0    0 -0.64654514394E+01  0.68987410985E+01  0.39897000386E+01  0.10262182893E+02  0.51100000000E-03 0.  1.
        -12    1    4    4    0    0  0.39785983630E+01  0.83445968961E+01  0.15251044471E+02  0.17834121782E+02  0.00000000000E+00 0.  1.
</event>
<event>
 8    1  0.1290800E-006  0.9118800E+02  0.7816164E-02  0.1184000E+00
        -11   -1    0    0    0    0  0.00000000000E+00  0.00000000000E+00  0.45593999997E+02  0.45594000000E+02  0.51100000000E-03 0.  1.
         11   -1    0    0    0    0 -0.00000000000E+00 -0.00000000000E+00 -0.45593999997E+02  0.45594000000E+02  0.51100000000E-03 0. -1.
         23    2    1    2    0    0  0.17763568394E-14  0.00000000000E+00  0.00000000000E+00  0.91188000000E+02  0.91188000000E+02 0.  0.
    9900012    2    3    3    0    0 -0.11030434338E+02  0.20965891187E+02  0.28187584616E+02  0.54367095591E+02  0.40000026020E+02 0.  0.
         12    1    3    3    0    0  0.11030434338E+02 -0.20965891187E+02 -0.28187584616E+02  0.36820904409E+02  0.00000000000E+00 0. -1.
         11    1    4    4    0    0  0.30576186271E+01  0.16137869531E+02  0.24538301439E+02  0.29528090057E+02  0.51100000000E-03 0. -1.
        -11    1    4    4    0    0 -0.23508330495E+01  0.61865708837E+01  0.95601517474E+01  0.11627406289E+02  0.51100000000E-03 0.  1.
         12    1    4    4    0    0 -0.11737219915E+02 -0.13585492272E+01 -0.59108685700E+01  0.13211599244E+02  0.00000000000E+00 0. -1.
</event>
<event>
 8    1  0.1290800E-006  0.9118800E+02  0.7816164E-02  0.1184000E+00
        -11   -1    0    0    0    0  0.00000000000E+00  0.00000000000E+00  0.45593999997E+02  0.45594000000E+02  0.51100000000E-03 0.  1.
         11   -1    0    0    0    0 -0.00000000000E+00 -0.00000000000E+00 -0.45593999997E+02  0.45594000000E+02  0.51100000000E-03 0. -1.
         23    2    1    2    0    0  0.00000000000E+00  0.00000000000E+00  0.00000000000E+00  0.91188000000E+02  0.91188000000E+02 0.  0.
    9900012    2    3    3    0    0 -0.17016020114E+02 -0.27929917646E+02 -0.16916075747E+02  0.54367097527E+02  0.40000030433E+02 0.  0.
        -12    1    3    3    0    0  0.17016020114E+02  0.27929917646E+02  0.16916075747E+02  0.36820902473E+02  0.00000000000E+00 0.  1.
         11    1    4    4    0    0 -0.61448056066E+01 -0.47173471899E+01 -0.84033280040E+01  0.11429257292E+02  0.51100000000E-03 0. -1.
        -11    1    4    4    0    0  0.91648993646E+01 -0.85619491766E+01  0.62972500210E+01  0.14034162325E+02  0.51100000000E-03 0.  1.
        -12    1    4    4    0    0 -0.20036113872E+02 -0.14650621280E+02 -0.14809997764E+02  0.28903677910E+02  0.00000000000E+00 0.  1.
</event>
<event>
 8    1  0.1290800E-006  0.9118800E+02  0.7816164E-02  0.1184000E+00
        -11   -1    0    0    0    0  0.00000000000E+00  0.00000000000E+00  0.45593999997E+02  0.45594000000E+02  0.51100000000E-03 0.  1.
         11   -1    0    0    0    0 -0.00000000000E+00 -0.00000000000E+00 -0.45593999997E+02  0.45594000000E+02  0.51100000000E-03 0. -1.
         23    2    1    2    0    0  0.00000000000E+00  0.00000000000E+00  0.35527136788E-14  0.91188000000E+02  0.91188000000E+02 0.  0.
    9900012    2    3    3    0    0 -0.11095325835E+02  0.22633219015E+02 -0.26840480292E+02  0.54367078764E+02  0.39999987658E+02 0.  0.
        -12    1    3    3    0    0  0.11095325835E+02 -0.22633219015E+02  0.26840480292E+02  0.36820921236E+02  0.00000000000E+00 0.  1.
         11    1    4    4    0    0  0.53387591072E+01  0.13206277202E+02 -0.59985132243E+00  0.14257206185E+02  0.51100000000E-03 0.  1.
        -11    1    4    4    0    0  0.38224907073E+01  0.67262790328E+01 -0.14773422546E+02  0.16676578751E+02  0.51100000000E-03 0. -1.
        -12    1    4    4    0    0 -0.20256575649E+02  0.27006627806E+01 -0.11467206423E+02  0.23433293828E+02  0.00000000000E+00 0.  1.
</event>
<event>
 8    1  0.1290800E-006  0.9118800E+02  0.7816164E-02  0.1184000E+00
        -11   -1    0    0    0    0  0.00000000000E+00  0.00000000000E+00  0.45593999997E+02  0.45594000000E+02  0.51100000000E-03 0. -1.
         11   -1    0    0    0    0 -0.00000000000E+00 -0.00000000000E+00 -0.45593999997E+02  0.45594000000E+02  0.51100000000E-03 0.  1.
         23    2    1    2    0    0 -0.17763568394E-14  0.00000000000E+00 -0.22204460493E-14  0.91188000000E+02  0.91188000000E+02 0.  0.
    9900012    2    3    3    0    0  0.83912219393E+01  0.35774215391E+02  0.23609546487E+01  0.54367065746E+02  0.39999957981E+02 0.  0.
         12    1    3    3    0    0 -0.83912219393E+01 -0.35774215391E+02 -0.23609546487E+01  0.36820934254E+02  0.00000000000E+00 0. -1.
         11    1    4    4    0    0 -0.47734450298E+01 -0.10942109779E+01  0.81856575652E+01  0.95387664377E+01  0.51100000000E-03 0. -1.
        -11    1    4    4    0    0  0.89015003155E+01  0.38124123194E+02 -0.78753205240E+01  0.39933772058E+02  0.51100000000E-03 0.  1.
        -12    1    4    4    0    0  0.42631666536E+01 -0.12556968246E+01  0.20506176075E+01  0.48945272503E+01  0.00000000000E+00 0.  1.
</event>
<event>
 8    1  0.1290800E-006  0.9118800E+02  0.7816164E-02  0.1184000E+00
        -11   -1    0    0    0    0  0.00000000000E+00  0.00000000000E+00  0.45593999997E+02  0.45594000000E+02  0.51100000000E-03 0.  1.
         11   -1    0    0    0    0 -0.00000000000E+00 -0.00000000000E+00 -0.45593999997E+02  0.45594000000E+02  0.51100000000E-03 0. -1.
         23    2    1    2    0    0  0.00000000000E+00  0.00000000000E+00  0.00000000000E+00  0.91188000000E+02  0.91188000000E+02 0.  0.
    9900012    2    3    3    0    0 -0.24538025880E+02  0.19510615030E+02 -0.19313276771E+02  0.54367062035E+02  0.39999949522E+02 0.  0.
        -12    1    3    3    0    0  0.24538025880E+02 -0.19510615030E+02  0.19313276771E+02  0.36820937965E+02  0.00000000000E+00 0.  1.
         11    1    4    4    0    0 -0.52667416484E+01  0.61411293780E+01 -0.12891090532E+02  0.15219469537E+02  0.51100000000E-03 0. -1.
        -11    1    4    4    0    0 -0.19341491952E+02  0.59776334356E+01  0.89163259766E+01  0.22120720639E+02  0.51100000000E-03 0.  1.
        -12    1    4    4    0    0  0.70207720187E-01  0.73918522168E+01 -0.15338512216E+02  0.17026871859E+02  0.00000000000E+00 0.  1.
</event>
<event>
 8    1  0.1290800E-006  0.9118800E+02  0.7816164E-02  0.1184000E+00
        -11   -1    0    0    0    0  0.00000000000E+00  0.00000000000E+00  0.45593999997E+02  0.45594000000E+02  0.51100000000E-03 0.  1.
         11   -1    0    0    0    0 -0.00000000000E+00 -0.00000000000E+00 -0.45593999997E+02  0.45594000000E+02  0.51100000000E-03 0. -1.
         23    2    1    2    0    0  0.00000000000E+00  0.00000000000E+00  0.35527136788E-14  0.91188000000E+02  0.91188000000E+02 0.  0.
    9900012    2    3    3    0    0 -0.23900380389E+02  0.86045440343E+01 -0.26655496987E+02  0.54367056498E+02  0.39999936898E+02 0.  0.
        -12    1    3    3    0    0  0.23900380389E+02 -0.86045440343E+01  0.26655496987E+02  0.36820943502E+02  0.00000000000E+00 0.  1.
         11    1    4    4    0    0 -0.92620758105E+01 -0.11610870666E+02 -0.11133443145E+02  0.18562109861E+02  0.51100000000E-03 0. -1.
        -11    1    4    4    0    0 -0.53887713464E+01  0.42832459258E+01 -0.15955799513E+02  0.17377358564E+02  0.51100000000E-03 0.  1.
        -12    1    4    4    0    0 -0.92495332323E+01  0.15932168775E+02  0.43374567145E+00  0.18427588073E+02  0.00000000000E+00 0.  1.
</event>
<event>
 8    1  0.1290800E-006  0.9118800E+02  0.7816164E-02  0.1184000E+00
        -11   -1    0    0    0    0  0.00000000000E+00  0.00000000000E+00  0.45593999997E+02  0.45594000000E+02  0.51100000000E-03 0. -1.
         11   -1    0    0    0    0 -0.00000000000E+00 -0.00000000000E+00 -0.45593999997E+02  0.45594000000E+02  0.51100000000E-03 0.  1.
         23    2    1    2    0    0  0.35527136788E-14  0.00000000000E+00  0.00000000000E+00  0.91188000000E+02  0.91188000000E+02 0.  0.
    9900012    2    3    3    0    0 -0.27730889704E+02 -0.22595787781E+02  0.87296326908E+01  0.54367104354E+02  0.40000045997E+02 0.  0.
        -12    1    3    3    0    0  0.27730889704E+02  0.22595787781E+02 -0.87296326908E+01  0.36820895646E+02  0.00000000000E+00 0.  1.
         11    1    4    4    0    0 -0.17673815358E+02  0.51249721653E+01  0.47944475361E+00  0.18408122026E+02  0.51100000000E-03 0. -1.
        -11    1    4    4    0    0  0.32308350665E+01 -0.55762280591E+01  0.78156095096E+01  0.10129973685E+02  0.51100000000E-03 0.  1.
        -12    1    4    4    0    0 -0.13287909413E+02 -0.22144531887E+02  0.43457842751E+00  0.25829008643E+02  0.00000000000E+00 0.  1.
</event>
<event>
 8    1  0.1290800E-006  0.9118800E+02  0.7816164E-02  0.1184000E+00
        -11   -1    0    0    0    0  0.00000000000E+00  0.00000000000E+00  0.45593999997E+02  0.45594000000E+02  0.51100000000E-03 0.  1.
         11   -1    0    0    0    0 -0.00000000000E+00 -0.00000000000E+00 -0.45593999997E+02  0.45594000000E+02  0.51100000000E-03 0. -1.
         23    2    1    2    0    0  0.00000000000E+00 -0.32196467714E-14 -0.35527136788E-14  0.91188000000E+02  0.91188000000E+02 0.  0.
    9900012    2    3    3    0    0 -0.19248772987E+02  0.50307561532E+00  0.31384879298E+02  0.54367095678E+02  0.40000026217E+02 0.  0.
         12    1    3    3    0    0  0.19248772987E+02 -0.50307561532E+00 -0.31384879298E+02  0.36820904322E+02  0.00000000000E+00 0. -1.
         11    1    4    4    0    0 -0.12246402596E+02  0.31241109653E+01  0.61507848598E+01  0.14055838663E+02  0.51100000000E-03 0. -1.
        -11    1    4    4    0    0 -0.56928275597E+01  0.13815478437E+02  0.12364105401E+02  0.19394505219E+02  0.51100000000E-03 0.  1.
        -12    1    4    4    0    0 -0.13095428312E+01 -0.16436513787E+02  0.12869989036E+02  0.20916751796E+02  0.00000000000E+00 0.  1.
</event>
<event>
 8    1  0.1290800E-006  0.9118800E+02  0.7816164E-02  0.1184000E+00
        -11   -1    0    0    0    0  0.00000000000E+00  0.00000000000E+00  0.45593999997E+02  0.45594000000E+02  0.51100000000E-03 0.  1.
         11   -1    0    0    0    0 -0.00000000000E+00 -0.00000000000E+00 -0.45593999997E+02  0.45594000000E+02  0.51100000000E-03 0. -1.
         23    2    1    2    0    0  0.17763568394E-14  0.00000000000E+00  0.00000000000E+00  0.91188000000E+02  0.91188000000E+02 0.  0.
    9900012    2    3    3    0    0 -0.15544845754E+02 -0.63631228623E+01  0.32766572291E+02  0.54367084452E+02  0.40000000626E+02 0.  0.
         12    1    3    3    0    0  0.15544845754E+02  0.63631228623E+01 -0.32766572291E+02  0.36820915548E+02  0.00000000000E+00 0. -1.
         11    1    4    4    0    0  0.22682287837E+01 -0.64471143073E+01  0.24858828430E+02  0.25781223707E+02  0.51100000000E-03 0. -1.
        -11    1    4    4    0    0 -0.37553875367E+01 -0.21235242095E+01  0.12824276095E+02  0.13530496970E+02  0.51100000000E-03 0.  1.
         12    1    4    4    0    0 -0.14057687001E+02  0.22075156545E+01 -0.49165322343E+01  0.15055363775E+02  0.00000000000E+00 0. -1.
</event>
<event>
 8    1  0.1290800E-006  0.9118800E+02  0.7816164E-02  0.1184000E+00
        -11   -1    0    0    0    0  0.00000000000E+00  0.00000000000E+00  0.45593999997E+02  0.45594000000E+02  0.51100000000E-03 0.  1.
         11   -1    0    0    0    0 -0.00000000000E+00 -0.00000000000E+00 -0.45593999997E+02  0.45594000000E+02  0.51100000000E-03 0. -1.
         23    2    1    2    0    0 -0.17763568394E-14  0.00000000000E+00 -0.35527136788E-14  0.91188000000E+02  0.91188000000E+02 0.  0.
    9900012    2    3    3    0    0  0.92208540045E+01 -0.32436911870E+02  0.14785249278E+02  0.54367068501E+02  0.39999964263E+02 0.  0.
         12    1    3    3    0    0 -0.92208540045E+01  0.32436911870E+02 -0.14785249278E+02  0.36820931499E+02  0.00000000000E+00 0. -1.
         11    1    4    4    0    0  0.13494017392E+02 -0.39723153143E+01  0.17704361877E+01  0.14177525838E+02  0.51100000000E-03 0. -1.
        -11    1    4    4    0    0  0.86641006978E+01 -0.16305630072E+02  0.50642899765E+00  0.18471510050E+02  0.51100000000E-03 0.  1.
        -12    1    4    4    0    0 -0.12937264086E+02 -0.12158966484E+02  0.12508384093E+02  0.21718032613E+02  0.00000000000E+00 0.  1.
</event>
<event>
 8    1  0.1290800E-006  0.9118800E+02  0.7816164E-02  0.1184000E+00
        -11   -1    0    0    0    0  0.00000000000E+00  0.00000000000E+00  0.45593999997E+02  0.45594000000E+02  0.51100000000E-03 0.  1.
         11   -1    0    0    0    0 -0.00000000000E+00 -0.00000000000E+00 -0.45593999997E+02  0.45594000000E+02  0.51100000000E-03 0. -1.
         23    2    1    2    0    0 -0.35527136788E-14  0.00000000000E+00  0.00000000000E+00  0.91188000000E+02  0.91188000000E+02 0.  0.
    9900012    2    3    3    0    0  0.31866624514E+02  0.97594596077E+01 -0.15654090641E+02  0.54367090674E+02  0.40000014810E+02 0.  0.
        -12    1    3    3    0    0 -0.31866624514E+02 -0.97594596077E+01  0.15654090641E+02  0.36820909326E+02  0.00000000000E+00 0.  1.
         11    1    4    4    0    0  0.54543540066E+01 -0.16709111342E+01 -0.14403097131E+02  0.15491647068E+02  0.51100000000E-03 0. -1.
        -11    1    4    4    0    0  0.12799860708E+02 -0.71376154073E+01  0.41410574105E+01  0.15229259489E+02  0.51100000000E-03 0.  1.
         12    1    4    4    0    0  0.13612409799E+02  0.18567986149E+02 -0.53920509211E+01  0.23646184117E+02  0.00000000000E+00 0. -1.
</event>
<event>
 8    1  0.1290800E-006  0.9118800E+02  0.7816164E-02  0.1184000E+00
        -11   -1    0    0    0    0  0.00000000000E+00  0.00000000000E+00  0.45593999997E+02  0.45594000000E+02  0.51100000000E-03 0. -1.
         11   -1    0    0    0    0 -0.00000000000E+00 -0.00000000000E+00 -0.45593999997E+02  0.45594000000E+02  0.51100000000E-03 0.  1.
         23    2    1    2    0    0  0.00000000000E+00  0.00000000000E+00  0.33306690739E-15  0.91188000000E+02  0.91188000000E+02 0.  0.
    9900012    2    3    3    0    0  0.20176460269E+02 -0.30795961266E+02 -0.55682989498E+00  0.54366934850E+02  0.39999659575E+02 0.  0.
         12    1    3    3    0    0 -0.20176460269E+02  0.30795961266E+02  0.55682989498E+00  0.36821065150E+02  0.00000000000E+00 0. -1.
         11    1    4    4    0    0 -0.11936600410E+02 -0.86918543729E+01  0.12547050419E+01  0.14819077123E+02  0.51100000000E-03 0. -1.
        -11    1    4    4    0    0  0.13455479740E+02 -0.58141247109E+01  0.54254251101E+00  0.14667935567E+02  0.51100000000E-03 0.  1.
         12    1    4    4    0    0  0.18657580939E+02 -0.16289982183E+02 -0.23540774478E+01  0.24879922159E+02  0.00000000000E+00 0. -1.
</event>
<event>
 8    1  0.1290800E-006  0.9118800E+02  0.7816164E-02  0.1184000E+00
        -11   -1    0    0    0    0  0.00000000000E+00  0.00000000000E+00  0.45593999997E+02  0.45594000000E+02  0.51100000000E-03 0.  1.
         11   -1    0    0    0    0 -0.00000000000E+00 -0.00000000000E+00 -0.45593999997E+02  0.45594000000E+02  0.51100000000E-03 0. -1.
         23    2    1    2    0    0  0.00000000000E+00  0.00000000000E+00  0.17763568394E-14  0.91188000000E+02  0.91188000000E+02 0.  0.
    9900012    2    3    3    0    0  0.47290392771E+01 -0.36156785592E+02  0.51089500068E+01  0.54367104751E+02  0.40000046900E+02 0.  0.
        -12    1    3    3    0    0 -0.47290392771E+01  0.36156785592E+02 -0.51089500068E+01  0.36820895249E+02  0.00000000000E+00 0.  1.
         11    1    4    4    0    0  0.92349427029E+01 -0.18518504016E+02  0.10386522168E+02  0.23153811797E+02  0.51100000000E-03 0. -1.
        -11    1    4    4    0    0 -0.12957409465E+01  0.29993034027E+01  0.64716235400E+01  0.72495984031E+01  0.51100000000E-03 0.  1.
        -12    1    4    4    0    0 -0.32101624793E+01 -0.20637584979E+02 -0.11749195701E+02  0.23963694551E+02  0.00000000000E+00 0.  1.
</event>
<event>
 8    1  0.1290800E-006  0.9118800E+02  0.7816164E-02  0.1184000E+00
        -11   -1    0    0    0    0  0.00000000000E+00  0.00000000000E+00  0.45593999997E+02  0.45594000000E+02  0.51100000000E-03 0.  1.
         11   -1    0    0    0    0 -0.00000000000E+00 -0.00000000000E+00 -0.45593999997E+02  0.45594000000E+02  0.51100000000E-03 0. -1.
         23    2    1    2    0    0  0.00000000000E+00 -0.88817841970E-15  0.00000000000E+00  0.91188000000E+02  0.91188000000E+02 0.  0.
    9900012    2    3    3    0    0  0.62900430673E+01  0.54442022053E+01  0.35868817062E+02  0.54367136120E+02  0.40000118413E+02 0.  0.
         12    1    3    3    0    0 -0.62900430673E+01 -0.54442022053E+01 -0.35868817062E+02  0.36820863880E+02  0.00000000000E+00 0. -1.
         11    1    4    4    0    0  0.15544070984E+02 -0.91147782567E+00  0.78862303972E+01  0.17453984208E+02  0.51100000000E-03 0.  1.
        -11    1    4    4    0    0 -0.25627945135E+01  0.13497618655E+01 -0.33829225737E+01  0.44535309826E+01  0.51100000000E-03 0. -1.
         12    1    4    4    0    0 -0.66912334032E+01  0.50059181655E+01  0.31365509238E+02  0.32459620930E+02  0.00000000000E+00 0. -1.
</event>
<event>
 8    1  0.1290800E-006  0.9118800E+02  0.7816164E-02  0.1184000E+00
        -11   -1    0    0    0    0  0.00000000000E+00  0.00000000000E+00  0.45593999997E+02  0.45594000000E+02  0.51100000000E-03 0. -1.
         11   -1    0    0    0    0 -0.00000000000E+00 -0.00000000000E+00 -0.45593999997E+02  0.45594000000E+02  0.51100000000E-03 0.  1.
         23    2    1    2    0    0  0.00000000000E+00  0.00000000000E+00  0.00000000000E+00  0.91188000000E+02  0.91188000000E+02 0.  0.
    9900012    2    3    3    0    0 -0.12682667985E+02  0.32655549726E+02 -0.11337905119E+02  0.54367040105E+02  0.39999899527E+02 0.  0.
         12    1    3    3    0    0  0.12682667985E+02 -0.32655549726E+02  0.11337905119E+02  0.36820959895E+02  0.00000000000E+00 0. -1.
         11    1    4    4    0    0 -0.33132096300E+01  0.13126628121E+02  0.53222384769E+01  0.14546887865E+02  0.51100000000E-03 0. -1.
        -11    1    4    4    0    0 -0.34694173553E+01 -0.35231916401E+01  0.54355768066E+01  0.73481447727E+01  0.51100000000E-03 0.  1.
        -12    1    4    4    0    0 -0.59000409996E+01  0.23052113245E+02 -0.22095720402E+02  0.32472007467E+02  0.00000000000E+00 0.  1.
</event>
<event>
 8    1  0.1290800E-006  0.9118800E+02  0.7816164E-02  0.1184000E+00
        -11   -1    0    0    0    0  0.00000000000E+00  0.00000000000E+00  0.45593999997E+02  0.45594000000E+02  0.51100000000E-03 0. -1.
         11   -1    0    0    0    0 -0.00000000000E+00 -0.00000000000E+00 -0.45593999997E+02  0.45594000000E+02  0.51100000000E-03 0.  1.
         23    2    1    2    0    0  0.00000000000E+00 -0.35527136788E-14 -0.35527136788E-14  0.91188000000E+02  0.91188000000E+02 0.  0.
    9900012    2    3    3    0    0 -0.20547909379E+02  0.20730815182E+02  0.22445355775E+02  0.54367119051E+02  0.40000079501E+02 0.  0.
        -12    1    3    3    0    0  0.20547909379E+02 -0.20730815182E+02 -0.22445355775E+02  0.36820880949E+02  0.00000000000E+00 0.  1.
         11    1    4    4    0    0 -0.29177167747E-02  0.28862357342E+01  0.13497402231E+01  0.31862460918E+01  0.51100000000E-03 0. -1.
        -11    1    4    4    0    0 -0.10794836656E+02  0.18497916871E+02 -0.61113663684E+01  0.22272185033E+02  0.51100000000E-03 0.  1.
         12    1    4    4    0    0 -0.97501550065E+01 -0.65333742264E+00  0.27206981920E+02  0.28908687927E+02  0.00000000000E+00 0. -1.
</event>
<event>
 8    1  0.1290800E-006  0.9118800E+02  0.7816164E-02  0.1184000E+00
        -11   -1    0    0    0    0  0.00000000000E+00  0.00000000000E+00  0.45593999997E+02  0.45594000000E+02  0.51100000000E-03 0.  1.
         11   -1    0    0    0    0 -0.00000000000E+00 -0.00000000000E+00 -0.45593999997E+02  0.45594000000E+02  0.51100000000E-03 0. -1.
         23    2    1    2    0    0 -0.35527136788E-14  0.35527136788E-14  0.00000000000E+00  0.91188000000E+02  0.91188000000E+02 0.  0.
    9900012    2    3    3    0    0 -0.28679372641E+02 -0.17847782687E+02  0.14653702145E+02  0.54367071868E+02  0.39999971937E+02 0.  0.
         12    1    3    3    0    0  0.28679372641E+02  0.17847782687E+02 -0.14653702145E+02  0.36820928132E+02  0.00000000000E+00 0. -1.
         11    1    4    4    0    0 -0.25168155800E+02 -0.12598453126E+01  0.30069083665E+01  0.25378431291E+02  0.51100000000E-03 0. -1.
        -11    1    4    4    0    0 -0.75885977361E+01 -0.15184922431E+02  0.44036179112E+00  0.16981242699E+02  0.51100000000E-03 0.  1.
        -12    1    4    4    0    0  0.40773808954E+01 -0.14030149438E+01  0.11206431988E+02  0.12007397878E+02  0.00000000000E+00 0.  1.
</event>
<event>
 8    1  0.1290800E-006  0.9118800E+02  0.7816164E-02  0.1184000E+00
        -11   -1    0    0    0    0  0.00000000000E+00  0.00000000000E+00  0.45593999997E+02  0.45594000000E+02  0.51100000000E-03 0.  1.
         11   -1    0    0    0    0 -0.00000000000E+00 -0.00000000000E+00 -0.45593999997E+02  0.45594000000E+02  0.51100000000E-03 0. -1.
         23    2    1    2    0    0  0.11102230246E-14  0.00000000000E+00  0.00000000000E+00  0.91188000000E+02  0.91188000000E+02 0.  0.
    9900012    2    3    3    0    0  0.11072836328E+01  0.10178504772E+02  0.35368798672E+02  0.54367082631E+02  0.39999996474E+02 0.  0.
         12    1    3    3    0    0 -0.11072836328E+01 -0.10178504772E+02 -0.35368798672E+02  0.36820917369E+02  0.00000000000E+00 0. -1.
         11    1    4    4    0    0 -0.56676699232E+01 -0.80924718926E+01  0.11513239385E+02  0.15171198538E+02  0.51100000000E-03 0. -1.
        -11    1    4    4    0    0  0.20680782106E+01 -0.40402094218E+01 -0.17901600613E+01  0.48790278707E+01  0.51100000000E-03 0.  1.
         12    1    4    4    0    0  0.47068753454E+01  0.22311186086E+02  0.25645719348E+02  0.34316856222E+02  0.00000000000E+00 0. -1.
</event>
<event>
 8    1  0.1290800E-006  0.9118800E+02  0.7816164E-02  0.1184000E+00
        -11   -1    0    0    0    0  0.00000000000E+00  0.00000000000E+00  0.45593999997E+02  0.45594000000E+02  0.51100000000E-03 0.  1.
         11   -1    0    0    0    0 -0.00000000000E+00 -0.00000000000E+00 -0.45593999997E+02  0.45594000000E+02  0.51100000000E-03 0. -1.
         23    2    1    2    0    0  0.00000000000E+00  0.00000000000E+00 -0.71054273576E-14  0.91188000000E+02  0.91188000000E+02 0.  0.
    9900012    2    3    3    0    0  0.14274458901E+02  0.61235579178E+01 -0.33384465051E+02  0.54367073271E+02  0.39999975135E+02 0.  0.
        -12    1    3    3    0    0 -0.14274458901E+02 -0.61235579178E+01  0.33384465051E+02  0.36820926729E+02  0.00000000000E+00 0.  1.
         11    1    4    4    0    0  0.93795788043E+01  0.15063043628E+02 -0.74321765747E+01  0.19238217973E+02  0.51100000000E-03 0. -1.
        -11    1    4    4    0    0 -0.39152114803E+01  0.21250256297E+01  0.11122608160E+01  0.45914855163E+01  0.51100000000E-03 0.  1.
         12    1    4    4    0    0  0.88100915767E+01 -0.11064511340E+02 -0.27064549292E+02  0.30537369781E+02  0.00000000000E+00 0. -1.
</event>
<event>
 8    1  0.1290800E-006  0.9118800E+02  0.7816164E-02  0.1184000E+00
        -11   -1    0    0    0    0  0.00000000000E+00  0.00000000000E+00  0.45593999997E+02  0.45594000000E+02  0.51100000000E-03 0.  1.
         11   -1    0    0    0    0 -0.00000000000E+00 -0.00000000000E+00 -0.45593999997E+02  0.45594000000E+02  0.51100000000E-03 0. -1.
         23    2    1    2    0    0  0.88817841970E-15  0.00000000000E+00  0.00000000000E+00  0.91188000000E+02  0.91188000000E+02 0.  0.
    9900012    2    3    3    0    0 -0.48740646145E+01  0.12398540495E+02  0.34326367362E+02  0.54367084632E+02  0.40000001035E+02 0.  0.
         12    1    3    3    0    0  0.48740646145E+01 -0.12398540495E+02 -0.34326367362E+02  0.36820915368E+02  0.00000000000E+00 0. -1.
         11    1    4    4    0    0 -0.25918457810E+01  0.15046962973E+02 -0.12726129172E+00  0.15269084942E+02  0.51100000000E-03 0. -1.
        -11    1    4    4    0    0  0.79654121735E+01 -0.19810813607E+01  0.15759842009E+02  0.17769217621E+02  0.51100000000E-03 0.  1.
        -12    1    4    4    0    0 -0.10247631007E+02 -0.66734111748E+00  0.18693786645E+02  0.21328782069E+02  0.00000000000E+00 0.  1.
</event>
<event>
 8    1  0.1290800E-006  0.9118800E+02  0.7816164E-02  0.1184000E+00
        -11   -1    0    0    0    0  0.00000000000E+00  0.00000000000E+00  0.45593999997E+02  0.45594000000E+02  0.51100000000E-03 0.  1.
         11   -1    0    0    0    0 -0.00000000000E+00 -0.00000000000E+00 -0.45593999997E+02  0.45594000000E+02  0.51100000000E-03 0. -1.
         23    2    1    2    0    0  0.17763568394E-14  0.71054273576E-14  0.00000000000E+00  0.91188000000E+02  0.91188000000E+02 0.  0.
    9900012    2    3    3    0    0 -0.14665426575E+02 -0.33077225843E+02 -0.68266255665E+01  0.54367076292E+02  0.39999982022E+02 0.  0.
         12    1    3    3    0    0  0.14665426575E+02  0.33077225843E+02  0.68266255665E+01  0.36820923708E+02  0.00000000000E+00 0. -1.
         11    1    4    4    0    0 -0.26073966681E+02 -0.22193454978E+02 -0.75970556887E+01  0.35073015807E+02  0.51100000000E-03 0.  1.
        -11    1    4    4    0    0 -0.12610004527E+01 -0.37508410093E+01 -0.20911188731E+01  0.44756797050E+01  0.51100000000E-03 0. -1.
        -12    1    4    4    0    0  0.12669540559E+02 -0.71329298553E+01  0.28615489953E+01  0.14818380780E+02  0.00000000000E+00 0.  1.
</event>
<event>
 8    1  0.1290800E-006  0.9118800E+02  0.7816164E-02  0.1184000E+00
        -11   -1    0    0    0    0  0.00000000000E+00  0.00000000000E+00  0.45593999997E+02  0.45594000000E+02  0.51100000000E-03 0. -1.
         11   -1    0    0    0    0 -0.00000000000E+00 -0.00000000000E+00 -0.45593999997E+02  0.45594000000E+02  0.51100000000E-03 0.  1.
         23    2    1    2    0    0  0.35527136788E-14 -0.35527136788E-14  0.00000000000E+00  0.91188000000E+02  0.91188000000E+02 0.  0.
    9900012    2    3    3    0    0  0.31093358779E+02 -0.18573208719E+02 -0.66346893615E+01  0.54367080060E+02  0.39999990613E+02 0.  0.
         12    1    3    3    0    0 -0.31093358779E+02  0.18573208719E+02  0.66346893615E+01  0.36820919940E+02  0.00000000000E+00 0. -1.
         11    1    4    4    0    0  0.18384904301E+02 -0.25069500388E+02  0.19028982132E+01  0.31146517907E+02  0.51100000000E-03 0. -1.
        -11    1    4    4    0    0  0.14470498501E+02  0.87640990946E+01 -0.32841935892E+01  0.17233417757E+02  0.51100000000E-03 0.  1.
        -12    1    4    4    0    0 -0.17620440219E+01 -0.22678074256E+01 -0.52533939854E+01  0.59871443962E+01  0.00000000000E+00 0.  1.
</event>
<event>
 8    1  0.1290800E-006  0.9118800E+02  0.7816164E-02  0.1184000E+00
        -11   -1    0    0    0    0  0.00000000000E+00  0.00000000000E+00  0.45593999997E+02  0.45594000000E+02  0.51100000000E-03 0. -1.
         11   -1    0    0    0    0 -0.00000000000E+00 -0.00000000000E+00 -0.45593999997E+02  0.45594000000E+02  0.51100000000E-03 0.  1.
         23    2    1    2    0    0  0.00000000000E+00  0.00000000000E+00  0.00000000000E+00  0.91188000000E+02  0.91188000000E+02 0.  0.
    9900012    2    3    3    0    0  0.21203874270E+02 -0.17539604415E+02 -0.24465138889E+02  0.54367013756E+02  0.39999839459E+02 0.  0.
         12    1    3    3    0    0 -0.21203874270E+02  0.17539604415E+02  0.24465138889E+02  0.36820986244E+02  0.00000000000E+00 0. -1.
         11    1    4    4    0    0  0.11215619028E+02 -0.18796234835E+02 -0.55506285571E+00  0.21895128436E+02  0.51100000000E-03 0. -1.
        -11    1    4    4    0    0  0.84309525005E+01 -0.72008075159E+01 -0.20329866392E+02  0.23156771293E+02  0.51100000000E-03 0.  1.
         12    1    4    4    0    0  0.15573027417E+01  0.84574379359E+01 -0.35802096418E+01  0.93151140276E+01  0.00000000000E+00 0. -1.
</event>
<event>
 8    1  0.1290800E-006  0.9118800E+02  0.7816164E-02  0.1184000E+00
        -11   -1    0    0    0    0  0.00000000000E+00  0.00000000000E+00  0.45593999997E+02  0.45594000000E+02  0.51100000000E-03 0.  1.
         11   -1    0    0    0    0 -0.00000000000E+00 -0.00000000000E+00 -0.45593999997E+02  0.45594000000E+02  0.51100000000E-03 0. -1.
         23    2    1    2    0    0  0.00000000000E+00  0.00000000000E+00  0.00000000000E+00  0.91188000000E+02  0.91188000000E+02 0.  0.
    9900012    2    3    3    0    0  0.16127883465E+02 -0.33077584570E+02  0.12421418171E+01  0.54367107257E+02  0.40000052614E+02 0.  0.
         12    1    3    3    0    0 -0.16127883465E+02  0.33077584570E+02 -0.12421418171E+01  0.36820892743E+02  0.00000000000E+00 0. -1.
         11    1    4    4    0    0  0.85545544012E+01 -0.22173375102E+01  0.75877286811E+01  0.11647772896E+02  0.51100000000E-03 0. -1.
        -11    1    4    4    0    0  0.16034505197E+02 -0.10637730772E+02  0.18164775393E+01  0.19327862371E+02  0.51100000000E-03 0.  1.
         12    1    4    4    0    0 -0.84611761331E+01 -0.20222516288E+02 -0.81620644033E+01  0.23391471991E+02  0.00000000000E+00 0. -1.
</event>
<event>
 8    1  0.1290800E-006  0.9118800E+02  0.7816164E-02  0.1184000E+00
        -11   -1    0    0    0    0  0.00000000000E+00  0.00000000000E+00  0.45593999997E+02  0.45594000000E+02  0.51100000000E-03 0.  1.
         11   -1    0    0    0    0 -0.00000000000E+00 -0.00000000000E+00 -0.45593999997E+02  0.45594000000E+02  0.51100000000E-03 0. -1.
         23    2    1    2    0    0  0.17763568394E-14  0.17763568394E-14  0.00000000000E+00  0.91188000000E+02  0.91188000000E+02 0.  0.
    9900012    2    3    3    0    0 -0.94854891682E+01 -0.72622192739E+01  0.34829110965E+02  0.54367064323E+02  0.39999954737E+02 0.  0.
         12    1    3    3    0    0  0.94854891682E+01  0.72622192739E+01 -0.34829110965E+02  0.36820935677E+02  0.00000000000E+00 0. -1.
         11    1    4    4    0    0  0.24311347609E+01 -0.12569771869E+01  0.17468888712E+01  0.32468490670E+01  0.51100000000E-03 0. -1.
        -11    1    4    4    0    0  0.10567236729E+02 -0.11279233242E+02  0.96549241420E+01  0.18223752497E+02  0.51100000000E-03 0.  1.
         12    1    4    4    0    0 -0.22483860658E+02  0.52739911553E+01  0.23427297951E+02  0.32896462759E+02  0.00000000000E+00 0. -1.
</event>
<event>
 8    1  0.1290800E-006  0.9118800E+02  0.7816164E-02  0.1184000E+00
        -11   -1    0    0    0    0  0.00000000000E+00  0.00000000000E+00  0.45593999997E+02  0.45594000000E+02  0.51100000000E-03 0. -1.
         11   -1    0    0    0    0 -0.00000000000E+00 -0.00000000000E+00 -0.45593999997E+02  0.45594000000E+02  0.51100000000E-03 0.  1.
         23    2    1    2    0    0 -0.17763568394E-14 -0.71054273576E-14  0.17763568394E-14  0.91188000000E+02  0.91188000000E+02 0.  0.
    9900012    2    3    3    0    0  0.11965151521E+02  0.33886902924E+02 -0.80182914261E+01  0.54367081514E+02  0.39999993928E+02 0.  0.
         12    1    3    3    0    0 -0.11965151521E+02 -0.33886902924E+02  0.80182914261E+01  0.36820918486E+02  0.00000000000E+00 0. -1.
         11    1    4    4    0    0  0.52714751669E+01 -0.44666124021E+01  0.54319860260E+01  0.87889447167E+01  0.51100000000E-03 0. -1.
        -11    1    4    4    0    0 -0.39097433616E+01  0.17883174781E+01  0.16722179150E+01  0.46130776682E+01  0.51100000000E-03 0.  1.
        -12    1    4    4    0    0  0.10603419716E+02  0.36565197848E+02 -0.15122495367E+02  0.40965059130E+02  0.00000000000E+00 0.  1.
</event>
<event>
 8    1  0.1290800E-006  0.9118800E+02  0.7816164E-02  0.1184000E+00
        -11   -1    0    0    0    0  0.00000000000E+00  0.00000000000E+00  0.45593999997E+02  0.45594000000E+02  0.51100000000E-03 0.  1.
         11   -1    0    0    0    0 -0.00000000000E+00 -0.00000000000E+00 -0.45593999997E+02  0.45594000000E+02  0.51100000000E-03 0. -1.
         23    2    1    2    0    0  0.00000000000E+00 -0.88817841970E-15 -0.88817841970E-15  0.91188000000E+02  0.91188000000E+02 0.  0.
    9900012    2    3    3    0    0  0.35570787954E+02 -0.72407213619E+01  0.61701833451E+01  0.54367079805E+02  0.39999990031E+02 0.  0.
         12    1    3    3    0    0 -0.35570787954E+02  0.72407213619E+01 -0.61701833451E+01  0.36820920195E+02  0.00000000000E+00 0. -1.
         11    1    4    4    0    0  0.22262968633E+01  0.12028204760E+02 -0.31177306330E+01  0.12623563365E+02  0.51100000000E-03 0. -1.
        -11    1    4    4    0    0  0.15696572679E+02 -0.54631566221E+01  0.98692802006E+01  0.19329541280E+02  0.51100000000E-03 0.  1.
         12    1    4    4    0    0  0.17647918412E+02 -0.13805769500E+02 -0.58136622252E+00  0.22413975159E+02  0.00000000000E+00 0. -1.
</event>
<event>
 8    1  0.1290800E-006  0.9118800E+02  0.7816164E-02  0.1184000E+00
        -11   -1    0    0    0    0  0.00000000000E+00  0.00000000000E+00  0.45593999997E+02  0.45594000000E+02  0.51100000000E-03 0.  1.
         11   -1    0    0    0    0 -0.00000000000E+00 -0.00000000000E+00 -0.45593999997E+02  0.45594000000E+02  0.51100000000E-03 0. -1.
         23    2    1    2    0    0  0.00000000000E+00  0.00000000000E+00 -0.88817841970E-15  0.91188000000E+02  0.91188000000E+02 0.  0.
    9900012    2    3    3    0    0 -0.35675658421E+02  0.59366121147E+01 -0.69126159448E+01  0.54367078958E+02  0.39999988100E+02 0.  0.
        -12    1    3    3    0    0  0.35675658421E+02 -0.59366121147E+01  0.69126159448E+01  0.36820921042E+02  0.00000000000E+00 0.  1.
         11    1    4    4    0    0 -0.13471206931E+02 -0.24618245896E+01  0.47126324720E+01  0.14482503290E+02  0.51100000000E-03 0. -1.
        -11    1    4    4    0    0 -0.45723360530E+01  0.16022333881E+02  0.13292126757E+01  0.16714910906E+02  0.51100000000E-03 0.  1.
         12    1    4    4    0    0 -0.17632115438E+02 -0.76238971771E+01 -0.12954461093E+02  0.23169664762E+02  0.00000000000E+00 0. -1.
</event>
<event>
 8    1  0.1290800E-006  0.9118800E+02  0.7816164E-02  0.1184000E+00
        -11   -1    0    0    0    0  0.00000000000E+00  0.00000000000E+00  0.45593999997E+02  0.45594000000E+02  0.51100000000E-03 0.  1.
         11   -1    0    0    0    0 -0.00000000000E+00 -0.00000000000E+00 -0.45593999997E+02  0.45594000000E+02  0.51100000000E-03 0. -1.
         23    2    1    2    0    0 -0.35527136788E-14 -0.13322676296E-14  0.00000000000E+00  0.91188000000E+02  0.91188000000E+02 0.  0.
    9900012    2    3    3    0    0 -0.17880167172E+02  0.38069222017E+01 -0.31962124951E+02  0.54367211495E+02  0.40000290243E+02 0.  0.
        -12    1    3    3    0    0  0.17880167172E+02 -0.38069222017E+01  0.31962124951E+02  0.36820788505E+02  0.00000000000E+00 0.  1.
         11    1    4    4    0    0 -0.10771345520E+02 -0.93430995884E+01 -0.23362281413E+02  0.27369902946E+02  0.51100000000E-03 0. -1.
        -11    1    4    4    0    0 -0.95450598943E+01 -0.19669036253E+01 -0.70816787813E+00  0.97713039182E+01  0.51100000000E-03 0.  1.
        -12    1    4    4    0    0  0.24362382424E+01  0.15116925415E+02 -0.78916756606E+01  0.17226004630E+02  0.00000000000E+00 0.  1.
</event>
<event>
 8    1  0.1290800E-006  0.9118800E+02  0.7816164E-02  0.1184000E+00
        -11   -1    0    0    0    0  0.00000000000E+00  0.00000000000E+00  0.45593999997E+02  0.45594000000E+02  0.51100000000E-03 0. -1.
         11   -1    0    0    0    0 -0.00000000000E+00 -0.00000000000E+00 -0.45593999997E+02  0.45594000000E+02  0.51100000000E-03 0.  1.
         23    2    1    2    0    0 -0.44408920985E-15  0.00000000000E+00  0.44408920985E-15  0.91188000000E+02  0.91188000000E+02 0.  0.
    9900012    2    3    3    0    0  0.39718910130E+01  0.36439075775E+02 -0.34922668646E+01  0.54367107977E+02  0.40000054254E+02 0.  0.
         12    1    3    3    0    0 -0.39718910130E+01 -0.36439075775E+02  0.34922668646E+01  0.36820892023E+02  0.00000000000E+00 0. -1.
         11    1    4    4    0    0  0.47881423749E+01  0.31531124178E+02 -0.56526635326E+01  0.32389669720E+02  0.51100000000E-03 0. -1.
        -11    1    4    4    0    0  0.66127249797E+01  0.95679245894E+01 -0.27155321149E+01  0.11943509850E+02  0.51100000000E-03 0.  1.
         12    1    4    4    0    0 -0.74289763416E+01 -0.46599729922E+01  0.48759287830E+01  0.10033928407E+02  0.00000000000E+00 0. -1.
</event>
<event>
 8    1  0.1290800E-006  0.9118800E+02  0.7816164E-02  0.1184000E+00
        -11   -1    0    0    0    0  0.00000000000E+00  0.00000000000E+00  0.45593999997E+02  0.45594000000E+02  0.51100000000E-03 0.  1.
         11   -1    0    0    0    0 -0.00000000000E+00 -0.00000000000E+00 -0.45593999997E+02  0.45594000000E+02  0.51100000000E-03 0. -1.
         23    2    1    2    0    0  0.35527136788E-14  0.00000000000E+00  0.00000000000E+00  0.91188000000E+02  0.91188000000E+02 0.  0.
    9900012    2    3    3    0    0  0.20342755413E+02  0.28412992819E+02  0.11604098136E+02  0.54367069101E+02  0.39999965629E+02 0.  0.
         12    1    3    3    0    0 -0.20342755413E+02 -0.28412992819E+02 -0.11604098136E+02  0.36820930899E+02  0.00000000000E+00 0. -1.
         11    1    4    4    0    0 -0.29908436772E+01  0.19584465471E+02  0.62556180449E+01  0.20775687499E+02  0.51100000000E-03 0. -1.
        -11    1    4    4    0    0  0.44233622717E+01  0.11568237494E+02  0.73130060108E+01  0.14382986814E+02  0.51100000000E-03 0.  1.
         12    1    4    4    0    0  0.18910236819E+02 -0.27397101466E+01 -0.19645259195E+01  0.19208394788E+02  0.00000000000E+00 0. -1.
</event>
<event>
 8    1  0.1290800E-006  0.9118800E+02  0.7816164E-02  0.1184000E+00
        -11   -1    0    0    0    0  0.00000000000E+00  0.00000000000E+00  0.45593999997E+02  0.45594000000E+02  0.51100000000E-03 0. -1.
         11   -1    0    0    0    0 -0.00000000000E+00 -0.00000000000E+00 -0.45593999997E+02  0.45594000000E+02  0.51100000000E-03 0.  1.
         23    2    1    2    0    0  0.00000000000E+00 -0.49960036108E-15  0.00000000000E+00  0.91188000000E+02  0.91188000000E+02 0.  0.
    9900012    2    3    3    0    0 -0.12209411431E+02  0.21942924458E+00 -0.34737034500E+02  0.54367089602E+02  0.40000012366E+02 0.  0.
         12    1    3    3    0    0  0.12209411431E+02 -0.21942924458E+00  0.34737034500E+02  0.36820910398E+02  0.00000000000E+00 0. -1.
         11    1    4    4    0    0 -0.50137288341E+01  0.58274920018E+01  0.18568417677E+01  0.79085397808E+01  0.51100000000E-03 0. -1.
        -11    1    4    4    0    0 -0.15057997701E+02  0.25205313663E+01 -0.29189900141E+02  0.32941564074E+02  0.51100000000E-03 0.  1.
         12    1    4    4    0    0  0.78623151038E+01 -0.81285941235E+01 -0.74039761265E+01  0.13516985748E+02  0.00000000000E+00 0. -1.
</event>
<event>
 8    1  0.1290800E-006  0.9118800E+02  0.7816164E-02  0.1184000E+00
        -11   -1    0    0    0    0  0.00000000000E+00  0.00000000000E+00  0.45593999997E+02  0.45594000000E+02  0.51100000000E-03 0.  1.
         11   -1    0    0    0    0 -0.00000000000E+00 -0.00000000000E+00 -0.45593999997E+02  0.45594000000E+02  0.51100000000E-03 0. -1.
         23    2    1    2    0    0  0.00000000000E+00  0.00000000000E+00  0.00000000000E+00  0.91188000000E+02  0.91188000000E+02 0.  0.
    9900012    2    3    3    0    0  0.16608565764E+02 -0.20449873078E+02 -0.25724317523E+02  0.54367051103E+02  0.39999924599E+02 0.  0.
        -12    1    3    3    0    0 -0.16608565764E+02  0.20449873078E+02  0.25724317523E+02  0.36820948897E+02  0.00000000000E+00 0.  1.
         11    1    4    4    0    0 -0.24941818692E+01 -0.14685819163E+02 -0.10788178506E+02  0.18392363182E+02  0.51100000000E-03 0. -1.
        -11    1    4    4    0    0  0.14519527126E+02 -0.36413017274E+01  0.47076204683E+01  0.15691954530E+02  0.51100000000E-03 0.  1.
        -12    1    4    4    0    0  0.45832205066E+01 -0.21227521874E+01 -0.19643759486E+02  0.20282733391E+02  0.00000000000E+00 0.  1.
</event>
<event>
 8    1  0.1290800E-006  0.9118800E+02  0.7816164E-02  0.1184000E+00
        -11   -1    0    0    0    0  0.00000000000E+00  0.00000000000E+00  0.45593999997E+02  0.45594000000E+02  0.51100000000E-03 0.  1.
         11   -1    0    0    0    0 -0.00000000000E+00 -0.00000000000E+00 -0.45593999997E+02  0.45594000000E+02  0.51100000000E-03 0. -1.
         23    2    1    2    0    0  0.17763568394E-14  0.00000000000E+00 -0.35527136788E-14  0.91188000000E+02  0.91188000000E+02 0.  0.
    9900012    2    3    3    0    0 -0.43250733106E+01 -0.18400581361E+02  0.31598920818E+02  0.54367089495E+02  0.40000012122E+02 0.  0.
         12    1    3    3    0    0  0.43250733106E+01  0.18400581361E+02 -0.31598920818E+02  0.36820910505E+02  0.00000000000E+00 0. -1.
         11    1    4    4    0    0 -0.14545194761E+02 -0.40020636660E+01  0.10720205890E+02  0.18506810066E+02  0.51100000000E-03 0. -1.
        -11    1    4    4    0    0  0.12332315898E+02 -0.13226514023E+02  0.36317198944E+01  0.18444947228E+02  0.51100000000E-03 0.  1.
        -12    1    4    4    0    0 -0.21121944468E+01 -0.11720036726E+01  0.17246995034E+02  0.17415332201E+02  0.00000000000E+00 0.  1.
</event>
<event>
 8    1  0.1290800E-006  0.9118800E+02  0.7816164E-02  0.1184000E+00
        -11   -1    0    0    0    0  0.00000000000E+00  0.00000000000E+00  0.45593999997E+02  0.45594000000E+02  0.51100000000E-03 0. -1.
         11   -1    0    0    0    0 -0.00000000000E+00 -0.00000000000E+00 -0.45593999997E+02  0.45594000000E+02  0.51100000000E-03 0.  1.
         23    2    1    2    0    0  0.35527136788E-14  0.00000000000E+00  0.00000000000E+00  0.91188000000E+02  0.91188000000E+02 0.  0.
    9900012    2    3    3    0    0 -0.16882698554E+02 -0.16764870417E+02 -0.28101477388E+02  0.54367089881E+02  0.40000013002E+02 0.  0.
         12    1    3    3    0    0  0.16882698554E+02  0.16764870417E+02  0.28101477388E+02  0.36820910119E+02  0.00000000000E+00 0. -1.
         11    1    4    4    0    0  0.42051574850E+01  0.15129672370E+01 -0.46367604006E+01  0.64398731826E+01  0.51100000000E-03 0. -1.
        -11    1    4    4    0    0 -0.16112976214E+02 -0.10118151225E+02  0.34763119044E+01  0.19341399417E+02  0.51100000000E-03 0.  1.
        -12    1    4    4    0    0 -0.49748798247E+01 -0.81596864286E+01 -0.26941028892E+02  0.28585817282E+02  0.00000000000E+00 0.  1.
</event>
<event>
 8    1  0.1290800E-006  0.9118800E+02  0.7816164E-02  0.1184000E+00
        -11   -1    0    0    0    0  0.00000000000E+00  0.00000000000E+00  0.45593999997E+02  0.45594000000E+02  0.51100000000E-03 0.  1.
         11   -1    0    0    0    0 -0.00000000000E+00 -0.00000000000E+00 -0.45593999997E+02  0.45594000000E+02  0.51100000000E-03 0. -1.
         23    2    1    2    0    0  0.00000000000E+00  0.00000000000E+00  0.22204460493E-14  0.91188000000E+02  0.91188000000E+02 0.  0.
    9900012    2    3    3    0    0  0.34825207290E+02 -0.11339450440E+02 -0.37949508428E+01  0.54367084056E+02  0.39999999722E+02 0.  0.
        -12    1    3    3    0    0 -0.34825207290E+02  0.11339450440E+02  0.37949508428E+01  0.36820915944E+02  0.00000000000E+00 0.  1.
         11    1    4    4    0    0  0.91712983619E+01 -0.23135026418E+01 -0.16696478447E+02  0.19189512784E+02  0.51100000000E-03 0. -1.
        -11    1    4    4    0    0  0.68766845277E+01 -0.11030720065E+02  0.14172277979E+01  0.13075706869E+02  0.51100000000E-03 0.  1.
        -12    1    4    4    0    0  0.18777224400E+02  0.20047722659E+01  0.11484299806E+02  0.22101864402E+02  0.00000000000E+00 0.  1.
</event>
<event>
 8    1  0.1290800E-006  0.9118800E+02  0.7816164E-02  0.1184000E+00
        -11   -1    0    0    0    0  0.00000000000E+00  0.00000000000E+00  0.45593999997E+02  0.45594000000E+02  0.51100000000E-03 0. -1.
         11   -1    0    0    0    0 -0.00000000000E+00 -0.00000000000E+00 -0.45593999997E+02  0.45594000000E+02  0.51100000000E-03 0.  1.
         23    2    1    2    0    0  0.00000000000E+00  0.35527136788E-14  0.00000000000E+00  0.91188000000E+02  0.91188000000E+02 0.  0.
    9900012    2    3    3    0    0  0.20485589123E+02  0.24692758375E+02  0.18066239743E+02  0.54367072576E+02  0.39999973552E+02 0.  0.
         12    1    3    3    0    0 -0.20485589123E+02 -0.24692758375E+02 -0.18066239743E+02  0.36820927424E+02  0.00000000000E+00 0. -1.
         11    1    4    4    0    0  0.81543799553E+01  0.19557745208E+02  0.76305940053E+01  0.22521662355E+02  0.51100000000E-03 0. -1.
        -11    1    4    4    0    0  0.10568569408E+02 -0.43784781239E+01 -0.58908529560E+01  0.12867318246E+02  0.51100000000E-03 0.  1.
         12    1    4    4    0    0  0.17626397595E+01  0.95134912905E+01  0.16326498694E+02  0.18978091976E+02  0.00000000000E+00 0. -1.
</event>
<event>
 8    1  0.1290800E-006  0.9118800E+02  0.7816164E-02  0.1184000E+00
        -11   -1    0    0    0    0  0.00000000000E+00  0.00000000000E+00  0.45593999997E+02  0.45594000000E+02  0.51100000000E-03 0. -1.
         11   -1    0    0    0    0 -0.00000000000E+00 -0.00000000000E+00 -0.45593999997E+02  0.45594000000E+02  0.51100000000E-03 0.  1.
         23    2    1    2    0    0 -0.13322676296E-14 -0.35527136788E-14 -0.35527136788E-14  0.91188000000E+02  0.91188000000E+02 0.  0.
    9900012    2    3    3    0    0 -0.20650357493E+01 -0.20618703955E+02  0.30436568403E+02  0.54367081739E+02  0.39999994441E+02 0.  0.
        -12    1    3    3    0    0  0.20650357493E+01  0.20618703955E+02 -0.30436568403E+02  0.36820918261E+02  0.00000000000E+00 0.  1.
         11    1    4    4    0    0  0.21739744558E+01 -0.79127837171E+01  0.61803641548E+01  0.10273033264E+02  0.51100000000E-03 0. -1.
        -11    1    4    4    0    0 -0.10613316564E+02  0.61993614040E+01 -0.49733256503E+00  0.12301297096E+02  0.51100000000E-03 0.  1.
        -12    1    4    4    0    0  0.63743063590E+01 -0.18905281642E+02  0.24753536813E+02  0.31792751379E+02  0.00000000000E+00 0.  1.
</event>
<event>
 8    1  0.1290800E-006  0.9118800E+02  0.7816164E-02  0.1184000E+00
        -11   -1    0    0    0    0  0.00000000000E+00  0.00000000000E+00  0.45593999997E+02  0.45594000000E+02  0.51100000000E-03 0. -1.
         11   -1    0    0    0    0 -0.00000000000E+00 -0.00000000000E+00 -0.45593999997E+02  0.45594000000E+02  0.51100000000E-03 0.  1.
         23    2    1    2    0    0  0.35527136788E-14  0.00000000000E+00  0.00000000000E+00  0.91188000000E+02  0.91188000000E+02 0.  0.
    9900012    2    3    3    0    0 -0.92299849995E+01 -0.20644317958E+02 -0.29058500722E+02  0.54367123432E+02  0.40000089487E+02 0.  0.
         12    1    3    3    0    0  0.92299849995E+01  0.20644317958E+02  0.29058500722E+02  0.36820876568E+02  0.00000000000E+00 0. -1.
         11    1    4    4    0    0  0.45092667963E+01 -0.10414862720E+02 -0.12611724998E+01  0.11418993338E+02  0.51100000000E-03 0. -1.
        -11    1    4    4    0    0  0.43506941677E+01  0.21774757874E+01  0.25578780862E+01  0.54966063267E+01  0.51100000000E-03 0.  1.
        -12    1    4    4    0    0 -0.18089945963E+02 -0.12406931025E+02 -0.30355206309E+02  0.37451523767E+02  0.00000000000E+00 0.  1.
</event>
<event>
 8    1  0.1290800E-006  0.9118800E+02  0.7816164E-02  0.1184000E+00
        -11   -1    0    0    0    0  0.00000000000E+00  0.00000000000E+00  0.45593999997E+02  0.45594000000E+02  0.51100000000E-03 0.  1.
         11   -1    0    0    0    0 -0.00000000000E+00 -0.00000000000E+00 -0.45593999997E+02  0.45594000000E+02  0.51100000000E-03 0. -1.
         23    2    1    2    0    0  0.00000000000E+00  0.00000000000E+00  0.00000000000E+00  0.91188000000E+02  0.91188000000E+02 0.  0.
    9900012    2    3    3    0    0  0.15685745365E+02  0.22800400984E+02  0.24287373236E+02  0.54367117455E+02  0.40000075862E+02 0.  0.
         12    1    3    3    0    0 -0.15685745365E+02 -0.22800400984E+02 -0.24287373236E+02  0.36820882545E+02  0.00000000000E+00 0. -1.
         11    1    4    4    0    0  0.12067723749E+02 -0.64050307832E+00  0.78333342233E+01  0.14401434859E+02  0.51100000000E-03 0. -1.
        -11    1    4    4    0    0  0.36829148380E+01  0.13158975439E+02  0.23720619082E+02  0.27374993447E+02  0.51100000000E-03 0.  1.
        -12    1    4    4    0    0 -0.64893221968E-01  0.10281928623E+02 -0.72665800697E+01  0.12590689149E+02  0.00000000000E+00 0.  1.
</event>
<event>
 8    1  0.1290800E-006  0.9118800E+02  0.7816164E-02  0.1184000E+00
        -11   -1    0    0    0    0  0.00000000000E+00  0.00000000000E+00  0.45593999997E+02  0.45594000000E+02  0.51100000000E-03 0. -1.
         11   -1    0    0    0    0 -0.00000000000E+00 -0.00000000000E+00 -0.45593999997E+02  0.45594000000E+02  0.51100000000E-03 0.  1.
         23    2    1    2    0    0  0.35527136788E-14  0.00000000000E+00  0.00000000000E+00  0.91188000000E+02  0.91188000000E+02 0.  0.
    9900012    2    3    3    0    0  0.13833908462E+02 -0.33999741945E+02 -0.29018551908E+01  0.54367078784E+02  0.39999987703E+02 0.  0.
        -12    1    3    3    0    0 -0.13833908462E+02  0.33999741945E+02  0.29018551908E+01  0.36820921216E+02  0.00000000000E+00 0.  1.
         11    1    4    4    0    0  0.25551902622E+02 -0.26864093619E+02 -0.19442828353E+01  0.37126264148E+02  0.51100000000E-03 0. -1.
        -11    1    4    4    0    0 -0.59067269226E+01 -0.10832447157E+00  0.37309498769E+01  0.69872129189E+01  0.51100000000E-03 0.  1.
         12    1    4    4    0    0 -0.58112672368E+01 -0.70273238540E+01 -0.46885222325E+01  0.10253601717E+02  0.00000000000E+00 0. -1.
</event>
<event>
 8    1  0.1290800E-006  0.9118800E+02  0.7816164E-02  0.1184000E+00
        -11   -1    0    0    0    0  0.00000000000E+00  0.00000000000E+00  0.45593999997E+02  0.45594000000E+02  0.51100000000E-03 0. -1.
         11   -1    0    0    0    0 -0.00000000000E+00 -0.00000000000E+00 -0.45593999997E+02  0.45594000000E+02  0.51100000000E-03 0.  1.
         23    2    1    2    0    0  0.00000000000E+00 -0.88817841970E-15  0.88817841970E-15  0.91188000000E+02  0.91188000000E+02 0.  0.
    9900012    2    3    3    0    0 -0.35950319720E+02 -0.49449061579E+01 -0.62369838430E+01  0.54367115269E+02  0.40000070879E+02 0.  0.
         12    1    3    3    0    0  0.35950319720E+02  0.49449061579E+01  0.62369838430E+01  0.36820884731E+02  0.00000000000E+00 0. -1.
         11    1    4    4    0    0 -0.14020371414E+02 -0.10925741095E+02  0.12230758056E+02  0.21576238688E+02  0.51100000000E-03 0. -1.
        -11    1    4    4    0    0 -0.17300086828E+02 -0.17878446048E+01 -0.85881320710E+01  0.19397046304E+02  0.51100000000E-03 0.  1.
        -12    1    4    4    0    0 -0.46298614781E+01  0.77686795419E+01 -0.98796098277E+01  0.13393830277E+02  0.00000000000E+00 0.  1.
</event>
<event>
 8    1  0.1290800E-006  0.9118800E+02  0.7816164E-02  0.1184000E+00
        -11   -1    0    0    0    0  0.00000000000E+00  0.00000000000E+00  0.45593999997E+02  0.45594000000E+02  0.51100000000E-03 0.  1.
         11   -1    0    0    0    0 -0.00000000000E+00 -0.00000000000E+00 -0.45593999997E+02  0.45594000000E+02  0.51100000000E-03 0. -1.
         23    2    1    2    0    0 -0.71054273576E-14  0.35527136788E-14  0.15543122345E-14  0.91188000000E+02  0.91188000000E+02 0.  0.
    9900012    2    3    3    0    0 -0.25096603048E+02  0.26877892722E+02  0.18786887072E+01  0.54366945248E+02  0.39999683282E+02 0.  0.
         12    1    3    3    0    0  0.25096603048E+02 -0.26877892722E+02 -0.18786887072E+01  0.36821054752E+02  0.00000000000E+00 0. -1.
         11    1    4    4    0    0  0.17541925377E+01  0.16568587352E+01 -0.11157536629E+02  0.11415471791E+02  0.51100000000E-03 0. -1.
        -11    1    4    4    0    0 -0.68952147278E+01 -0.13138370179E+01 -0.63017889678E+00  0.70475016534E+01  0.51100000000E-03 0.  1.
        -12    1    4    4    0    0 -0.19955580858E+02  0.26534871005E+02  0.13666404233E+02  0.35903971804E+02  0.00000000000E+00 0.  1.
</event>
<event>
 8    1  0.1290800E-006  0.9118800E+02  0.7816164E-02  0.1184000E+00
        -11   -1    0    0    0    0  0.00000000000E+00  0.00000000000E+00  0.45593999997E+02  0.45594000000E+02  0.51100000000E-03 0.  1.
         11   -1    0    0    0    0 -0.00000000000E+00 -0.00000000000E+00 -0.45593999997E+02  0.45594000000E+02  0.51100000000E-03 0. -1.
         23    2    1    2    0    0 -0.17763568394E-14  0.00000000000E+00  0.00000000000E+00  0.91188000000E+02  0.91188000000E+02 0.  0.
    9900012    2    3    3    0    0  0.12765803328E+02  0.12528692286E+02  0.32184528934E+02  0.54367112345E+02  0.40000064213E+02 0.  0.
         12    1    3    3    0    0 -0.12765803328E+02 -0.12528692286E+02 -0.32184528934E+02  0.36820887655E+02  0.00000000000E+00 0. -1.
         11    1    4    4    0    0  0.55125871938E+01 -0.75191281013E+01 -0.21683877445E+01  0.95722416729E+01  0.51100000000E-03 0. -1.
        -11    1    4    4    0    0  0.49614199180E+01  0.10648646305E+02  0.32996880069E+02  0.35025754100E+02  0.51100000000E-03 0.  1.
         12    1    4    4    0    0  0.22917962162E+01  0.93991740819E+01  0.13560366092E+01  0.97691165723E+01  0.00000000000E+00 0. -1.
</event>
<event>
 8    1  0.1290800E-006  0.9118800E+02  0.7816164E-02  0.1184000E+00
        -11   -1    0    0    0    0  0.00000000000E+00  0.00000000000E+00  0.45593999997E+02  0.45594000000E+02  0.51100000000E-03 0.  1.
         11   -1    0    0    0    0 -0.00000000000E+00 -0.00000000000E+00 -0.45593999997E+02  0.45594000000E+02  0.51100000000E-03 0. -1.
         23    2    1    2    0    0  0.00000000000E+00  0.17763568394E-14 -0.17763568394E-14  0.91188000000E+02  0.91188000000E+02 0.  0.
    9900012    2    3    3    0    0  0.34061263008E+02  0.43175152631E+01  0.13302999422E+02  0.54367077016E+02  0.39999983674E+02 0.  0.
        -12    1    3    3    0    0 -0.34061263008E+02 -0.43175152631E+01 -0.13302999422E+02  0.36820922984E+02  0.00000000000E+00 0.  1.
         11    1    4    4    0    0  0.10846037615E+02  0.37548406916E+01  0.10370897404E+02  0.15469029504E+02  0.51100000000E-03 0. -1.
        -11    1    4    4    0    0  0.29106972230E+01 -0.82271427220E+01  0.12124859080E+02  0.14938883615E+02  0.51100000000E-03 0.  1.
        -12    1    4    4    0    0  0.20304528170E+02  0.87898172935E+01 -0.91927570616E+01  0.23959163897E+02  0.00000000000E+00 0.  1.
</event>
<event>
 8    1  0.1290800E-006  0.9118800E+02  0.7816164E-02  0.1184000E+00
        -11   -1    0    0    0    0  0.00000000000E+00  0.00000000000E+00  0.45593999997E+02  0.45594000000E+02  0.51100000000E-03 0. -1.
         11   -1    0    0    0    0 -0.00000000000E+00 -0.00000000000E+00 -0.45593999997E+02  0.45594000000E+02  0.51100000000E-03 0.  1.
         23    2    1    2    0    0  0.00000000000E+00  0.35527136788E-14  0.00000000000E+00  0.91188000000E+02  0.91188000000E+02 0.  0.
    9900012    2    3    3    0    0 -0.13764319313E+02 -0.26936745547E+02 -0.20993683162E+02  0.54367089100E+02  0.40000011220E+02 0.  0.
         12    1    3    3    0    0  0.13764319313E+02  0.26936745547E+02  0.20993683162E+02  0.36820910900E+02  0.00000000000E+00 0. -1.
         11    1    4    4    0    0  0.44677395226E+01 -0.19756288290E+01 -0.38583363591E+01  0.62249952155E+01  0.51100000000E-03 0. -1.
        -11    1    4    4    0    0  0.71073202165E+01 -0.16796543477E+02 -0.51878864356E+01  0.18961857487E+02  0.51100000000E-03 0.  1.
        -12    1    4    4    0    0 -0.25339379052E+02 -0.81645732419E+01 -0.11947460367E+02  0.29180236397E+02  0.00000000000E+00 0.  1.
</event>
<event>
 8    1  0.1290800E-006  0.9118800E+02  0.7816164E-02  0.1184000E+00
        -11   -1    0    0    0    0  0.00000000000E+00  0.00000000000E+00  0.45593999997E+02  0.45594000000E+02  0.51100000000E-03 0. -1.
         11   -1    0    0    0    0 -0.00000000000E+00 -0.00000000000E+00 -0.45593999997E+02  0.45594000000E+02  0.51100000000E-03 0.  1.
         23    2    1    2    0    0  0.00000000000E+00 -0.44408920985E-15 -0.71054273576E-14  0.91188000000E+02  0.91188000000E+02 0.  0.
    9900012    2    3    3    0    0  0.15809701847E+02  0.12821276981E+01  0.33229348744E+02  0.54367080105E+02  0.39999990716E+02 0.  0.
        -12    1    3    3    0    0 -0.15809701847E+02 -0.12821276981E+01 -0.33229348744E+02  0.36820919895E+02  0.00000000000E+00 0.  1.
         11    1    4    4    0    0 -0.76831786716E+01  0.43933630262E+01  0.17898252536E+02  0.19966980675E+02  0.51100000000E-03 0.  1.
        -11    1    4    4    0    0  0.10046344693E+02 -0.93017386769E+01  0.13928247017E+02  0.19530679695E+02  0.51100000000E-03 0. -1.
         12    1    4    4    0    0  0.13446535825E+02  0.61905033488E+01  0.14028491910E+01  0.14869419735E+02  0.00000000000E+00 0. -1.
</event>
<event>
 8    1  0.1290800E-006  0.9118800E+02  0.7816164E-02  0.1184000E+00
        -11   -1    0    0    0    0  0.00000000000E+00  0.00000000000E+00  0.45593999997E+02  0.45594000000E+02  0.51100000000E-03 0.  1.
         11   -1    0    0    0    0 -0.00000000000E+00 -0.00000000000E+00 -0.45593999997E+02  0.45594000000E+02  0.51100000000E-03 0. -1.
         23    2    1    2    0    0  0.00000000000E+00  0.00000000000E+00  0.00000000000E+00  0.91188000000E+02  0.91188000000E+02 0.  0.
    9900012    2    3    3    0    0  0.12422711043E+02  0.33546154002E+02  0.87241752991E+01  0.54367089736E+02  0.40000012671E+02 0.  0.
        -12    1    3    3    0    0 -0.12422711043E+02 -0.33546154002E+02 -0.87241752991E+01  0.36820910264E+02  0.00000000000E+00 0.  1.
         11    1    4    4    0    0  0.66136499673E+01  0.32106788027E+02 -0.54863282378E+01  0.33236816952E+02  0.51100000000E-03 0. -1.
        -11    1    4    4    0    0  0.54158741593E+01  0.36437542596E+01 -0.21592814950E+00  0.65310996961E+01  0.51100000000E-03 0.  1.
         12    1    4    4    0    0  0.39318691634E+00 -0.22043882840E+01  0.14426431686E+02  0.14599173088E+02  0.00000000000E+00 0. -1.
</event>
<event>
 8    1  0.1290800E-006  0.9118800E+02  0.7816164E-02  0.1184000E+00
        -11   -1    0    0    0    0  0.00000000000E+00  0.00000000000E+00  0.45593999997E+02  0.45594000000E+02  0.51100000000E-03 0.  1.
         11   -1    0    0    0    0 -0.00000000000E+00 -0.00000000000E+00 -0.45593999997E+02  0.45594000000E+02  0.51100000000E-03 0. -1.
         23    2    1    2    0    0  0.66613381478E-15  0.44408920985E-15  0.00000000000E+00  0.91188000000E+02  0.91188000000E+02 0.  0.
    9900012    2    3    3    0    0 -0.15401484602E+01 -0.19542498067E+01  0.36736743073E+02  0.54367089620E+02  0.40000012406E+02 0.  0.
         12    1    3    3    0    0  0.15401484602E+01  0.19542498067E+01 -0.36736743073E+02  0.36820910380E+02  0.00000000000E+00 0. -1.
         11    1    4    4    0    0 -0.53993716314E+01  0.10040642345E+01  0.18230068385E+02  0.19039347483E+02  0.51100000000E-03 0. -1.
        -11    1    4    4    0    0 -0.79534674964E+01  0.98551295904E+01  0.76834371307E+01  0.14812711800E+02  0.51100000000E-03 0.  1.
         12    1    4    4    0    0  0.11812690668E+02 -0.12813443632E+02  0.10823237558E+02  0.20515030337E+02  0.00000000000E+00 0. -1.
</event>
<event>
 8    1  0.1290800E-006  0.9118800E+02  0.7816164E-02  0.1184000E+00
        -11   -1    0    0    0    0  0.00000000000E+00  0.00000000000E+00  0.45593999997E+02  0.45594000000E+02  0.51100000000E-03 0.  1.
         11   -1    0    0    0    0 -0.00000000000E+00 -0.00000000000E+00 -0.45593999997E+02  0.45594000000E+02  0.51100000000E-03 0. -1.
         23    2    1    2    0    0  0.17763568394E-14 -0.35527136788E-14  0.00000000000E+00  0.91188000000E+02  0.91188000000E+02 0.  0.
    9900012    2    3    3    0    0  0.83522306806E+01 -0.31414625841E+02  0.17295632408E+02  0.54367117685E+02  0.40000076386E+02 0.  0.
         12    1    3    3    0    0 -0.83522306806E+01  0.31414625841E+02 -0.17295632408E+02  0.36820882315E+02  0.00000000000E+00 0. -1.
         11    1    4    4    0    0  0.15974758595E+02 -0.49334187588E+01 -0.32674516654E+01  0.17035485713E+02  0.51100000000E-03 0. -1.
        -11    1    4    4    0    0  0.42134570566E+00 -0.84150835258E+01  0.14282065891E+02  0.16582176254E+02  0.51100000000E-03 0.  1.
        -12    1    4    4    0    0 -0.80438736203E+01 -0.18066123556E+02  0.62810181827E+01  0.20749455718E+02  0.00000000000E+00 0.  1.
</event>
<event>
 8    1  0.1290800E-006  0.9118800E+02  0.7816164E-02  0.1184000E+00
        -11   -1    0    0    0    0  0.00000000000E+00  0.00000000000E+00  0.45593999997E+02  0.45594000000E+02  0.51100000000E-03 0.  1.
         11   -1    0    0    0    0 -0.00000000000E+00 -0.00000000000E+00 -0.45593999997E+02  0.45594000000E+02  0.51100000000E-03 0. -1.
         23    2    1    2    0    0  0.00000000000E+00  0.00000000000E+00  0.00000000000E+00  0.91188000000E+02  0.91188000000E+02 0.  0.
    9900012    2    3    3    0    0  0.16896888455E+02  0.20205895548E+02  0.25729309410E+02  0.54367076369E+02  0.39999982198E+02 0.  0.
         12    1    3    3    0    0 -0.16896888455E+02 -0.20205895548E+02 -0.25729309410E+02  0.36820923631E+02  0.00000000000E+00 0. -1.
         11    1    4    4    0    0  0.16757783594E+02 -0.53287247682E+01  0.42062817632E+01  0.18080692054E+02  0.51100000000E-03 0. -1.
        -11    1    4    4    0    0 -0.10185612331E+01 -0.14003057543E+01  0.33573490050E+01  0.37775806800E+01  0.51100000000E-03 0.  1.
         12    1    4    4    0    0  0.11576660939E+01  0.26934926071E+02  0.18165678642E+02  0.32508803634E+02  0.00000000000E+00 0. -1.
</event>
<event>
 8    1  0.1290800E-006  0.9118800E+02  0.7816164E-02  0.1184000E+00
        -11   -1    0    0    0    0  0.00000000000E+00  0.00000000000E+00  0.45593999997E+02  0.45594000000E+02  0.51100000000E-03 0. -1.
         11   -1    0    0    0    0 -0.00000000000E+00 -0.00000000000E+00 -0.45593999997E+02  0.45594000000E+02  0.51100000000E-03 0.  1.
         23    2    1    2    0    0  0.71054273576E-14 -0.35527136788E-14  0.35527136788E-14  0.91188000000E+02  0.91188000000E+02 0.  0.
    9900012    2    3    3    0    0 -0.24781229275E+02  0.10883457063E+02 -0.24964386376E+02  0.54367088154E+02  0.40000009064E+02 0.  0.
         12    1    3    3    0    0  0.24781229275E+02 -0.10883457063E+02  0.24964386376E+02  0.36820911846E+02  0.00000000000E+00 0. -1.
         11    1    4    4    0    0 -0.23895939686E+01 -0.54879991021E+01 -0.12107137177E+01  0.61068913079E+01  0.51100000000E-03 0. -1.
        -11    1    4    4    0    0 -0.10709218525E+02 -0.88998229766E+01 -0.55143289840E+01  0.14976716424E+02  0.51100000000E-03 0.  1.
        -12    1    4    4    0    0 -0.11682416782E+02  0.25271279142E+02 -0.18239343674E+02  0.33283480422E+02  0.00000000000E+00 0.  1.
</event>
<event>
 8    1  0.1290800E-006  0.9118800E+02  0.7816164E-02  0.1184000E+00
        -11   -1    0    0    0    0  0.00000000000E+00  0.00000000000E+00  0.45593999997E+02  0.45594000000E+02  0.51100000000E-03 0. -1.
         11   -1    0    0    0    0 -0.00000000000E+00 -0.00000000000E+00 -0.45593999997E+02  0.45594000000E+02  0.51100000000E-03 0.  1.
         23    2    1    2    0    0 -0.35527136788E-14  0.00000000000E+00  0.00000000000E+00  0.91188000000E+02  0.91188000000E+02 0.  0.
    9900012    2    3    3    0    0 -0.17498001819E+02 -0.34246196218E+01  0.32216035749E+02  0.54367067820E+02  0.39999962709E+02 0.  0.
        -12    1    3    3    0    0  0.17498001819E+02  0.34246196218E+01 -0.32216035749E+02  0.36820932180E+02  0.00000000000E+00 0.  1.
         11    1    4    4    0    0 -0.71925116539E+01  0.11956767590E+01  0.16748345874E+01  0.74811053969E+01  0.51100000000E-03 0. -1.
        -11    1    4    4    0    0 -0.19175362187E+02  0.56819723455E+00  0.57147649481E+01  0.20016890412E+02  0.51100000000E-03 0.  1.
         12    1    4    4    0    0  0.88698720217E+01 -0.51884936154E+01  0.24826436214E+02  0.26869072011E+02  0.00000000000E+00 0. -1.
</event>
<event>
 8    1  0.1290800E-006  0.9118800E+02  0.7816164E-02  0.1184000E+00
        -11   -1    0    0    0    0  0.00000000000E+00  0.00000000000E+00  0.45593999997E+02  0.45594000000E+02  0.51100000000E-03 0. -1.
         11   -1    0    0    0    0 -0.00000000000E+00 -0.00000000000E+00 -0.45593999997E+02  0.45594000000E+02  0.51100000000E-03 0.  1.
         23    2    1    2    0    0 -0.35527136788E-14  0.35527136788E-14 -0.88817841970E-15  0.91188000000E+02  0.91188000000E+02 0.  0.
    9900012    2    3    3    0    0  0.31648557026E+02 -0.18069575795E+02  0.52573579315E+01  0.54367074650E+02  0.39999978279E+02 0.  0.
         12    1    3    3    0    0 -0.31648557026E+02  0.18069575795E+02 -0.52573579315E+01  0.36820925350E+02  0.00000000000E+00 0. -1.
         11    1    4    4    0    0  0.32030735537E+01  0.51366106517E+01  0.11043616720E+02  0.12593884218E+02  0.51100000000E-03 0. -1.
        -11    1    4    4    0    0 -0.16576714178E+01 -0.68139319242E+01 -0.80667786796E-02  0.70126748200E+01  0.51100000000E-03 0.  1.
        -12    1    4    4    0    0  0.30103154890E+02 -0.16392254523E+02 -0.57781920098E+01  0.34760515612E+02  0.00000000000E+00 0.  1.
</event>
<event>
 8    1  0.1290800E-006  0.9118800E+02  0.7816164E-02  0.1184000E+00
        -11   -1    0    0    0    0  0.00000000000E+00  0.00000000000E+00  0.45593999997E+02  0.45594000000E+02  0.51100000000E-03 0.  1.
         11   -1    0    0    0    0 -0.00000000000E+00 -0.00000000000E+00 -0.45593999997E+02  0.45594000000E+02  0.51100000000E-03 0. -1.
         23    2    1    2    0    0  0.35527136788E-14 -0.88817841970E-15 -0.35527136788E-14  0.91188000000E+02  0.91188000000E+02 0.  0.
    9900012    2    3    3    0    0 -0.21324301475E+02  0.57594061140E+01  0.29459871404E+02  0.54367073676E+02  0.39999976060E+02 0.  0.
         12    1    3    3    0    0  0.21324301475E+02 -0.57594061140E+01 -0.29459871404E+02  0.36820926324E+02  0.00000000000E+00 0. -1.
         11    1    4    4    0    0 -0.11386647278E+02  0.27345168101E+01  0.49681135609E+01  0.12720671013E+02  0.51100000000E-03 0. -1.
        -11    1    4    4    0    0  0.15029596947E+01 -0.11620774998E+02  0.18902308511E+02  0.22239572089E+02  0.51100000000E-03 0.  1.
         12    1    4    4    0    0 -0.11440613892E+02  0.14645664302E+02  0.55894493323E+01  0.19406830574E+02  0.00000000000E+00 0. -1.
</event>
<event>
 8    1  0.1290800E-006  0.9118800E+02  0.7816164E-02  0.1184000E+00
        -11   -1    0    0    0    0  0.00000000000E+00  0.00000000000E+00  0.45593999997E+02  0.45594000000E+02  0.51100000000E-03 0.  1.
         11   -1    0    0    0    0 -0.00000000000E+00 -0.00000000000E+00 -0.45593999997E+02  0.45594000000E+02  0.51100000000E-03 0. -1.
         23    2    1    2    0    0  0.26645352591E-14  0.17763568394E-14  0.00000000000E+00  0.91188000000E+02  0.91188000000E+02 0.  0.
    9900012    2    3    3    0    0  0.33801345712E+01 -0.85311834458E+01 -0.35659123258E+02  0.54367089199E+02  0.40000011447E+02 0.  0.
        -12    1    3    3    0    0 -0.33801345712E+01  0.85311834458E+01  0.35659123258E+02  0.36820910801E+02  0.00000000000E+00 0.  1.
         11    1    4    4    0    0  0.62280940283E+01 -0.48251043954E+01 -0.17910429694E+02  0.19566662458E+02  0.51100000000E-03 0. -1.
        -11    1    4    4    0    0 -0.10929598514E+02 -0.13334226937E+02 -0.11807475666E+02  0.20896751268E+02  0.51100000000E-03 0.  1.
        -12    1    4    4    0    0  0.80816390569E+01  0.96281478863E+01 -0.59412178977E+01  0.13903675474E+02  0.00000000000E+00 0.  1.
</event>
<event>
 8    1  0.1290800E-006  0.9118800E+02  0.7816164E-02  0.1184000E+00
        -11   -1    0    0    0    0  0.00000000000E+00  0.00000000000E+00  0.45593999997E+02  0.45594000000E+02  0.51100000000E-03 0.  1.
         11   -1    0    0    0    0 -0.00000000000E+00 -0.00000000000E+00 -0.45593999997E+02  0.45594000000E+02  0.51100000000E-03 0. -1.
         23    2    1    2    0    0  0.00000000000E+00  0.00000000000E+00  0.00000000000E+00  0.91188000000E+02  0.91188000000E+02 0.  0.
    9900012    2    3    3    0    0  0.31053702769E+02 -0.10772062969E+02  0.16595485804E+02  0.54367082774E+02  0.39999996801E+02 0.  0.
         12    1    3    3    0    0 -0.31053702769E+02  0.10772062969E+02 -0.16595485804E+02  0.36820917226E+02  0.00000000000E+00 0. -1.
         11    1    4    4    0    0  0.59185092310E+01 -0.75848683683E+01 -0.57313489592E+01  0.11198541907E+02  0.51100000000E-03 0. -1.
        -11    1    4    4    0    0  0.33455584807E+01 -0.10065869432E+02  0.16453236502E+02  0.19576094621E+02  0.51100000000E-03 0.  1.
        -12    1    4    4    0    0  0.21789635057E+02  0.68786748318E+01  0.58735982617E+01  0.23592446247E+02  0.00000000000E+00 0.  1.
</event>
<event>
 8    1  0.1290800E-006  0.9118800E+02  0.7816164E-02  0.1184000E+00
        -11   -1    0    0    0    0  0.00000000000E+00  0.00000000000E+00  0.45593999997E+02  0.45594000000E+02  0.51100000000E-03 0. -1.
         11   -1    0    0    0    0 -0.00000000000E+00 -0.00000000000E+00 -0.45593999997E+02  0.45594000000E+02  0.51100000000E-03 0.  1.
         23    2    1    2    0    0 -0.35527136788E-14  0.17763568394E-14 -0.35527136788E-14  0.91188000000E+02  0.91188000000E+02 0.  0.
    9900012    2    3    3    0    0  0.31045916493E+02 -0.96212397055E+01  0.17301932138E+02  0.54367162964E+02  0.40000179608E+02 0.  0.
        -12    1    3    3    0    0 -0.31045916493E+02  0.96212397055E+01 -0.17301932138E+02  0.36820837036E+02  0.00000000000E+00 0.  1.
         11    1    4    4    0    0  0.22820450441E+02  0.16722368382E+01 -0.65113280892E+00  0.22890900126E+02  0.51100000000E-03 0. -1.
        -11    1    4    4    0    0 -0.30767592224E+01 -0.94324488089E+01 -0.30082649906E+00  0.99261288874E+01  0.51100000000E-03 0.  1.
         12    1    4    4    0    0  0.11302225274E+02 -0.18610277348E+01  0.18253891446E+02  0.21550133951E+02  0.00000000000E+00 0. -1.
</event>
<event>
 8    1  0.1290800E-006  0.9118800E+02  0.7816164E-02  0.1184000E+00
        -11   -1    0    0    0    0  0.00000000000E+00  0.00000000000E+00  0.45593999997E+02  0.45594000000E+02  0.51100000000E-03 0.  1.
         11   -1    0    0    0    0 -0.00000000000E+00 -0.00000000000E+00 -0.45593999997E+02  0.45594000000E+02  0.51100000000E-03 0. -1.
         23    2    1    2    0    0 -0.19984014443E-14  0.35527136788E-14  0.35527136788E-14  0.91188000000E+02  0.91188000000E+02 0.  0.
    9900012    2    3    3    0    0 -0.18136578103E+01 -0.23652159283E+02 -0.28161435011E+02  0.54367076393E+02  0.39999982252E+02 0.  0.
        -12    1    3    3    0    0  0.18136578103E+01  0.23652159283E+02  0.28161435011E+02  0.36820923607E+02  0.00000000000E+00 0.  1.
         11    1    4    4    0    0  0.73941529658E+00 -0.63441602099E+01 -0.29143113262E+01  0.70205636894E+01  0.51100000000E-03 0. -1.
        -11    1    4    4    0    0 -0.13192411249E+02 -0.16376796287E+02 -0.12342094819E+01  0.21065669808E+02  0.51100000000E-03 0.  1.
         12    1    4    4    0    0  0.10639338142E+02 -0.93120278638E+00 -0.24012914203E+02  0.26280842895E+02  0.00000000000E+00 0. -1.
</event>
<event>
 8    1  0.1290800E-006  0.9118800E+02  0.7816164E-02  0.1184000E+00
        -11   -1    0    0    0    0  0.00000000000E+00  0.00000000000E+00  0.45593999997E+02  0.45594000000E+02  0.51100000000E-03 0.  1.
         11   -1    0    0    0    0 -0.00000000000E+00 -0.00000000000E+00 -0.45593999997E+02  0.45594000000E+02  0.51100000000E-03 0. -1.
         23    2    1    2    0    0 -0.71054273576E-14  0.00000000000E+00  0.00000000000E+00  0.91188000000E+02  0.91188000000E+02 0.  0.
    9900012    2    3    3    0    0  0.33803616687E+02  0.57150160991E+01 -0.13432588970E+02  0.54367077190E+02  0.39999984071E+02 0.  0.
         12    1    3    3    0    0 -0.33803616687E+02 -0.57150160991E+01  0.13432588970E+02  0.36820922810E+02  0.00000000000E+00 0. -1.
         11    1    4    4    0    0 -0.15323037719E+01  0.11743787400E+02 -0.11216855611E+02  0.16312030757E+02  0.51100000000E-03 0. -1.
        -11    1    4    4    0    0  0.24382322527E+02  0.18556959818E+01 -0.22783497438E+01  0.24558748690E+02  0.51100000000E-03 0.  1.
         12    1    4    4    0    0  0.10953597932E+02 -0.78844672824E+01  0.62616385401E-01  0.13496297744E+02  0.00000000000E+00 0. -1.
</event>
<event>
 8    1  0.1290800E-006  0.9118800E+02  0.7816164E-02  0.1184000E+00
        -11   -1    0    0    0    0  0.00000000000E+00  0.00000000000E+00  0.45593999997E+02  0.45594000000E+02  0.51100000000E-03 0. -1.
         11   -1    0    0    0    0 -0.00000000000E+00 -0.00000000000E+00 -0.45593999997E+02  0.45594000000E+02  0.51100000000E-03 0.  1.
         23    2    1    2    0    0 -0.88817841970E-15  0.00000000000E+00 -0.14155343564E-14  0.91188000000E+02  0.91188000000E+02 0.  0.
    9900012    2    3    3    0    0 -0.75136431307E+01 -0.36046069926E+02  0.71318598826E-01  0.54367094572E+02  0.40000023695E+02 0.  0.
         12    1    3    3    0    0  0.75136431307E+01  0.36046069926E+02 -0.71318598826E-01  0.36820905428E+02  0.00000000000E+00 0. -1.
         11    1    4    4    0    0 -0.41693981232E+01 -0.27309628355E+02 -0.15411577914E+02  0.31634102100E+02  0.51100000000E-03 0. -1.
        -11    1    4    4    0    0 -0.26306305399E+00 -0.91271121447E+01  0.26184425834E+01  0.94989273129E+01  0.51100000000E-03 0.  1.
         12    1    4    4    0    0 -0.30811819535E+01  0.39067057385E+00  0.12864453929E+02  0.13234065159E+02  0.00000000000E+00 0. -1.
</event>
<event>
 8    1  0.1290800E-006  0.9118800E+02  0.7816164E-02  0.1184000E+00
        -11   -1    0    0    0    0  0.00000000000E+00  0.00000000000E+00  0.45593999997E+02  0.45594000000E+02  0.51100000000E-03 0. -1.
         11   -1    0    0    0    0 -0.00000000000E+00 -0.00000000000E+00 -0.45593999997E+02  0.45594000000E+02  0.51100000000E-03 0.  1.
         23    2    1    2    0    0  0.35527136788E-14 -0.88817841970E-15 -0.71054273576E-14  0.91188000000E+02  0.91188000000E+02 0.  0.
    9900012    2    3    3    0    0 -0.13773663920E+02 -0.40966708956E+01  0.33901080968E+02  0.54367084463E+02  0.40000000649E+02 0.  0.
        -12    1    3    3    0    0  0.13773663920E+02  0.40966708956E+01 -0.33901080968E+02  0.36820915537E+02  0.00000000000E+00 0.  1.
         11    1    4    4    0    0 -0.13431753189E+02 -0.48406526666E+01  0.25586765650E+02  0.29300622667E+02  0.51100000000E-03 0. -1.
        -11    1    4    4    0    0 -0.44096479242E+01  0.11395479971E+02  0.48956048502E+01  0.13163164730E+02  0.51100000000E-03 0.  1.
        -12    1    4    4    0    0  0.40677371934E+01 -0.10651498200E+02  0.34187104682E+01  0.11903297066E+02  0.00000000000E+00 0.  1.
</event>
<event>
 8    1  0.1290800E-006  0.9118800E+02  0.7816164E-02  0.1184000E+00
        -11   -1    0    0    0    0  0.00000000000E+00  0.00000000000E+00  0.45593999997E+02  0.45594000000E+02  0.51100000000E-03 0.  1.
         11   -1    0    0    0    0 -0.00000000000E+00 -0.00000000000E+00 -0.45593999997E+02  0.45594000000E+02  0.51100000000E-03 0. -1.
         23    2    1    2    0    0  0.26645352591E-14  0.00000000000E+00  0.35527136788E-14  0.91188000000E+02  0.91188000000E+02 0.  0.
    9900012    2    3    3    0    0 -0.78777263268E+01 -0.31326738129E+02 -0.17673601543E+02  0.54367091736E+02  0.40000017231E+02 0.  0.
        -12    1    3    3    0    0  0.78777263268E+01  0.31326738129E+02  0.17673601543E+02  0.36820908264E+02  0.00000000000E+00 0.  1.
         11    1    4    4    0    0  0.88613531853E+01 -0.21434564142E+02 -0.17688946345E+02  0.29169555075E+02  0.51100000000E-03 0. -1.
        -11    1    4    4    0    0 -0.50739301228E+01 -0.10770895680E+02  0.44163584313E+01  0.12698865410E+02  0.51100000000E-03 0.  1.
         12    1    4    4    0    0 -0.11665149389E+02  0.87872169283E+00 -0.44010136285E+01  0.12498671251E+02  0.00000000000E+00 0. -1.
</event>
<event>
 8    1  0.1290800E-006  0.9118800E+02  0.7816164E-02  0.1184000E+00
        -11   -1    0    0    0    0  0.00000000000E+00  0.00000000000E+00  0.45593999997E+02  0.45594000000E+02  0.51100000000E-03 0. -1.
         11   -1    0    0    0    0 -0.00000000000E+00 -0.00000000000E+00 -0.45593999997E+02  0.45594000000E+02  0.51100000000E-03 0.  1.
         23    2    1    2    0    0  0.00000000000E+00  0.00000000000E+00 -0.35527136788E-14  0.91188000000E+02  0.91188000000E+02 0.  0.
    9900012    2    3    3    0    0 -0.21811576476E+02 -0.24763540361E+02  0.16334124110E+02  0.54367062885E+02  0.39999951460E+02 0.  0.
        -12    1    3    3    0    0  0.21811576476E+02  0.24763540361E+02 -0.16334124110E+02  0.36820937115E+02  0.00000000000E+00 0.  1.
         11    1    4    4    0    0 -0.51409626801E+01 -0.11127636070E+01  0.69324294254E+01  0.87020869981E+01  0.51100000000E-03 0. -1.
        -11    1    4    4    0    0  0.90668340285E+01 -0.81671425774E+01 -0.39063201688E+01  0.12812846471E+02  0.51100000000E-03 0.  1.
         12    1    4    4    0    0 -0.25737447824E+02 -0.15483634177E+02  0.13308014853E+02  0.32852129416E+02  0.00000000000E+00 0. -1.
</event>
<event>
 8    1  0.1290800E-006  0.9118800E+02  0.7816164E-02  0.1184000E+00
        -11   -1    0    0    0    0  0.00000000000E+00  0.00000000000E+00  0.45593999997E+02  0.45594000000E+02  0.51100000000E-03 0. -1.
         11   -1    0    0    0    0 -0.00000000000E+00 -0.00000000000E+00 -0.45593999997E+02  0.45594000000E+02  0.51100000000E-03 0.  1.
         23    2    1    2    0    0  0.71054273576E-14  0.66613381478E-15  0.00000000000E+00  0.91188000000E+02  0.91188000000E+02 0.  0.
    9900012    2    3    3    0    0 -0.31756886278E+02 -0.18149976184E+01 -0.18546854375E+02  0.54367084074E+02  0.39999999763E+02 0.  0.
         12    1    3    3    0    0  0.31756886278E+02  0.18149976184E+01  0.18546854375E+02  0.36820915926E+02  0.00000000000E+00 0. -1.
         11    1    4    4    0    0 -0.21123914024E+02 -0.69848669425E+01  0.67520817164E+01  0.23250778862E+02  0.51100000000E-03 0. -1.
        -11    1    4    4    0    0 -0.78484333755E+01 -0.34637809854E+01 -0.15817518350E+02  0.17994153833E+02  0.51100000000E-03 0.  1.
        -12    1    4    4    0    0 -0.27845388783E+01  0.86336503095E+01 -0.94814177414E+01  0.13122151379E+02  0.00000000000E+00 0.  1.
</event>
<event>
 8    1  0.1290800E-006  0.9118800E+02  0.7816164E-02  0.1184000E+00
        -11   -1    0    0    0    0  0.00000000000E+00  0.00000000000E+00  0.45593999997E+02  0.45594000000E+02  0.51100000000E-03 0. -1.
         11   -1    0    0    0    0 -0.00000000000E+00 -0.00000000000E+00 -0.45593999997E+02  0.45594000000E+02  0.51100000000E-03 0.  1.
         23    2    1    2    0    0  0.00000000000E+00  0.00000000000E+00  0.00000000000E+00  0.91188000000E+02  0.91188000000E+02 0.  0.
    9900012    2    3    3    0    0 -0.76114920738E+01 -0.35035664319E+02  0.83873449476E+01  0.54367080116E+02  0.39999990741E+02 0.  0.
        -12    1    3    3    0    0  0.76114920738E+01  0.35035664319E+02 -0.83873449476E+01  0.36820919884E+02  0.00000000000E+00 0.  1.
         11    1    4    4    0    0 -0.10053707039E+02  0.24000423148E+01 -0.19723863880E+01  0.10522715271E+02  0.51100000000E-03 0. -1.
        -11    1    4    4    0    0 -0.71510565102E+01 -0.25992217347E+02  0.27880790621E+01  0.27101777745E+02  0.51100000000E-03 0.  1.
         12    1    4    4    0    0  0.95932714758E+01 -0.11443489286E+02  0.75716522735E+01  0.16742587100E+02  0.00000000000E+00 0. -1.
</event>
<event>
 8    1  0.1290800E-006  0.9118800E+02  0.7816164E-02  0.1184000E+00
        -11   -1    0    0    0    0  0.00000000000E+00  0.00000000000E+00  0.45593999997E+02  0.45594000000E+02  0.51100000000E-03 0. -1.
         11   -1    0    0    0    0 -0.00000000000E+00 -0.00000000000E+00 -0.45593999997E+02  0.45594000000E+02  0.51100000000E-03 0.  1.
         23    2    1    2    0    0  0.00000000000E+00  0.00000000000E+00 -0.35527136788E-14  0.91188000000E+02  0.91188000000E+02 0.  0.
    9900012    2    3    3    0    0  0.32340354077E+02  0.81095915079E+01 -0.15624130644E+02  0.54367116868E+02  0.40000074524E+02 0.  0.
        -12    1    3    3    0    0 -0.32340354077E+02 -0.81095915079E+01  0.15624130644E+02  0.36820883132E+02  0.00000000000E+00 0.  1.
         11    1    4    4    0    0  0.17489434152E+02  0.45417189267E+01  0.43630351009E+01  0.18588802902E+02  0.51100000000E-03 0. -1.
        -11    1    4    4    0    0 -0.58469095781E+01  0.65116291354E+01 -0.64608593754E+01  0.10877976362E+02  0.51100000000E-03 0.  1.
         12    1    4    4    0    0  0.20697829503E+02 -0.29437565542E+01 -0.13526306369E+02  0.24900337603E+02  0.00000000000E+00 0. -1.
</event>
<event>
 8    1  0.1290800E-006  0.9118800E+02  0.7816164E-02  0.1184000E+00
        -11   -1    0    0    0    0  0.00000000000E+00  0.00000000000E+00  0.45593999997E+02  0.45594000000E+02  0.51100000000E-03 0. -1.
         11   -1    0    0    0    0 -0.00000000000E+00 -0.00000000000E+00 -0.45593999997E+02  0.45594000000E+02  0.51100000000E-03 0.  1.
         23    2    1    2    0    0  0.35527136788E-14  0.17763568394E-14  0.35527136788E-14  0.91188000000E+02  0.91188000000E+02 0.  0.
    9900012    2    3    3    0    0  0.24095401746E+02 -0.92222556587E+01 -0.26270535310E+02  0.54367090041E+02  0.40000013367E+02 0.  0.
         12    1    3    3    0    0 -0.24095401746E+02  0.92222556587E+01  0.26270535310E+02  0.36820909959E+02  0.00000000000E+00 0. -1.
         11    1    4    4    0    0  0.22617816716E+02  0.90068639930E+01 -0.14105271256E+02  0.28136238367E+02  0.51100000000E-03 0. -1.
        -11    1    4    4    0    0 -0.53531923034E+01 -0.63458105300E+01 -0.88385643698E+01  0.12126260739E+02  0.51100000000E-03 0.  1.
         12    1    4    4    0    0  0.68307773331E+01 -0.11883309122E+02 -0.33266996842E+01  0.14104590935E+02  0.00000000000E+00 0. -1.
</event>
<event>
 8    1  0.1290800E-006  0.9118800E+02  0.7816164E-02  0.1184000E+00
        -11   -1    0    0    0    0  0.00000000000E+00  0.00000000000E+00  0.45593999997E+02  0.45594000000E+02  0.51100000000E-03 0.  1.
         11   -1    0    0    0    0 -0.00000000000E+00 -0.00000000000E+00 -0.45593999997E+02  0.45594000000E+02  0.51100000000E-03 0. -1.
         23    2    1    2    0    0  0.00000000000E+00  0.00000000000E+00  0.00000000000E+00  0.91188000000E+02  0.91188000000E+02 0.  0.
    9900012    2    3    3    0    0  0.22789093794E+02  0.18443602844E+02 -0.22277113619E+02  0.54367094620E+02  0.40000023806E+02 0.  0.
        -12    1    3    3    0    0 -0.22789093794E+02 -0.18443602844E+02  0.22277113619E+02  0.36820905380E+02  0.00000000000E+00 0.  1.
         11    1    4    4    0    0  0.28833513956E+02  0.64832132658E+01 -0.13839060988E+02  0.32633160904E+02  0.51100000000E-03 0. -1.
        -11    1    4    4    0    0 -0.87781802964E+01  0.32541487248E+01 -0.84326503030E-01  0.93623204634E+01  0.51100000000E-03 0.  1.
         12    1    4    4    0    0  0.27337601345E+01  0.87062408531E+01 -0.83537261282E+01  0.12371613253E+02  0.00000000000E+00 0. -1.
</event>
<event>
 8    1  0.1290800E-006  0.9118800E+02  0.7816164E-02  0.1184000E+00
        -11   -1    0    0    0    0  0.00000000000E+00  0.00000000000E+00  0.45593999997E+02  0.45594000000E+02  0.51100000000E-03 0.  1.
         11   -1    0    0    0    0 -0.00000000000E+00 -0.00000000000E+00 -0.45593999997E+02  0.45594000000E+02  0.51100000000E-03 0. -1.
         23    2    1    2    0    0  0.00000000000E+00  0.00000000000E+00  0.71054273576E-14  0.91188000000E+02  0.91188000000E+02 0.  0.
    9900012    2    3    3    0    0 -0.24578641040E+01  0.38229222470E+01 -0.36539340375E+02  0.54367092549E+02  0.40000019084E+02 0.  0.
        -12    1    3    3    0    0  0.24578641040E+01 -0.38229222470E+01  0.36539340375E+02  0.36820907451E+02  0.00000000000E+00 0.  1.
         11    1    4    4    0    0 -0.12215862684E+02  0.90257969134E+01 -0.53947912305E+01  0.16118191081E+02  0.51100000000E-03 0.  1.
        -11    1    4    4    0    0 -0.41438145289E+01  0.30160398507E+01 -0.34129664739E+01  0.61575998282E+01  0.51100000000E-03 0. -1.
        -12    1    4    4    0    0  0.13901813109E+02 -0.82189145171E+01 -0.27731582671E+02  0.32091301640E+02  0.00000000000E+00 0.  1.
</event>
<event>
 8    1  0.1290800E-006  0.9118800E+02  0.7816164E-02  0.1184000E+00
        -11   -1    0    0    0    0  0.00000000000E+00  0.00000000000E+00  0.45593999997E+02  0.45594000000E+02  0.51100000000E-03 0.  1.
         11   -1    0    0    0    0 -0.00000000000E+00 -0.00000000000E+00 -0.45593999997E+02  0.45594000000E+02  0.51100000000E-03 0. -1.
         23    2    1    2    0    0 -0.88817841970E-15 -0.71054273576E-14  0.00000000000E+00  0.91188000000E+02  0.91188000000E+02 0.  0.
    9900012    2    3    3    0    0  0.73848088441E+01  0.35654056118E+02  0.54803361276E+01  0.54367065691E+02  0.39999957855E+02 0.  0.
         12    1    3    3    0    0 -0.73848088441E+01 -0.35654056118E+02 -0.54803361276E+01  0.36820934309E+02  0.00000000000E+00 0. -1.
         11    1    4    4    0    0  0.14690265838E+02  0.97982365133E+01  0.24413787482E+00  0.17659811798E+02  0.51100000000E-03 0. -1.
        -11    1    4    4    0    0  0.66081512290E+01  0.84574295927E+01 -0.54067922435E+01  0.12017869221E+02  0.51100000000E-03 0.  1.
         12    1    4    4    0    0 -0.13913608223E+02  0.17398390012E+02  0.10642990496E+02  0.24689384672E+02  0.00000000000E+00 0. -1.
</event>
<event>
 8    1  0.1290800E-006  0.9118800E+02  0.7816164E-02  0.1184000E+00
        -11   -1    0    0    0    0  0.00000000000E+00  0.00000000000E+00  0.45593999997E+02  0.45594000000E+02  0.51100000000E-03 0. -1.
         11   -1    0    0    0    0 -0.00000000000E+00 -0.00000000000E+00 -0.45593999997E+02  0.45594000000E+02  0.51100000000E-03 0.  1.
         23    2    1    2    0    0  0.00000000000E+00  0.88817841970E-15  0.00000000000E+00  0.91188000000E+02  0.91188000000E+02 0.  0.
    9900012    2    3    3    0    0 -0.35828148685E+02  0.79949121158E+01  0.28644424439E+01  0.54367083546E+02  0.39999998561E+02 0.  0.
        -12    1    3    3    0    0  0.35828148685E+02 -0.79949121158E+01 -0.28644424439E+01  0.36820916454E+02  0.00000000000E+00 0.  1.
         11    1    4    4    0    0 -0.32179348412E+02  0.34521162693E+01 -0.41820264523E+01  0.32633064772E+02  0.51100000000E-03 0. -1.
        -11    1    4    4    0    0 -0.30362879101E+01  0.26553843464E+01 -0.67133085547E+01  0.78318977465E+01  0.51100000000E-03 0.  1.
        -12    1    4    4    0    0 -0.61251236372E+00  0.18874115001E+01  0.13759777451E+02  0.13902121028E+02  0.00000000000E+00 0.  1.
</event>
<event>
 8    1  0.1290800E-006  0.9118800E+02  0.7816164E-02  0.1184000E+00
        -11   -1    0    0    0    0  0.00000000000E+00  0.00000000000E+00  0.45593999997E+02  0.45594000000E+02  0.51100000000E-03 0. -1.
         11   -1    0    0    0    0 -0.00000000000E+00 -0.00000000000E+00 -0.45593999997E+02  0.45594000000E+02  0.51100000000E-03 0.  1.
         23    2    1    2    0    0  0.00000000000E+00  0.31641356202E-14  0.00000000000E+00  0.91188000000E+02  0.91188000000E+02 0.  0.
    9900012    2    3    3    0    0  0.36592461892E+02 -0.49203134427E+00  0.40655283637E+01  0.54367097200E+02  0.40000029686E+02 0.  0.
         12    1    3    3    0    0 -0.36592461892E+02  0.49203134427E+00 -0.40655283637E+01  0.36820902800E+02  0.00000000000E+00 0. -1.
         11    1    4    4    0    0  0.10600187370E+02  0.14907462659E+02  0.89075122930E+01  0.20345520164E+02  0.51100000000E-03 0. -1.
        -11    1    4    4    0    0  0.12071540669E+02  0.86172703844E+00 -0.33818961914E+01  0.12565901867E+02  0.51100000000E-03 0.  1.
         12    1    4    4    0    0  0.13920733853E+02 -0.16261221042E+02 -0.14600877380E+01  0.21455675169E+02  0.00000000000E+00 0. -1.
</event>
<event>
 8    1  0.1290800E-006  0.9118800E+02  0.7816164E-02  0.1184000E+00
        -11   -1    0    0    0    0  0.00000000000E+00  0.00000000000E+00  0.45593999997E+02  0.45594000000E+02  0.51100000000E-03 0.  1.
         11   -1    0    0    0    0 -0.00000000000E+00 -0.00000000000E+00 -0.45593999997E+02  0.45594000000E+02  0.51100000000E-03 0. -1.
         23    2    1    2    0    0  0.35527136788E-14 -0.88817841970E-15 -0.35527136788E-14  0.91188000000E+02  0.91188000000E+02 0.  0.
    9900012    2    3    3    0    0 -0.22897911675E+02  0.66586629542E+01  0.28055676274E+02  0.54367175422E+02  0.40000208009E+02 0.  0.
         12    1    3    3    0    0  0.22897911675E+02 -0.66586629542E+01 -0.28055676274E+02  0.36820824578E+02  0.00000000000E+00 0. -1.
         11    1    4    4    0    0 -0.96994680563E+01  0.58905746159E+00  0.17715290852E+01  0.98774989157E+01  0.51100000000E-03 0. -1.
        -11    1    4    4    0    0 -0.15919685169E+02 -0.61137580190E+01  0.19811454119E+01  0.17167974557E+02  0.51100000000E-03 0.  1.
        -12    1    4    4    0    0  0.27212415498E+01  0.12183363512E+02  0.24303001777E+02  0.27321701949E+02  0.00000000000E+00 0.  1.
</event>
<event>
 8    1  0.1290800E-006  0.9118800E+02  0.7816164E-02  0.1184000E+00
        -11   -1    0    0    0    0  0.00000000000E+00  0.00000000000E+00  0.45593999997E+02  0.45594000000E+02  0.51100000000E-03 0.  1.
         11   -1    0    0    0    0 -0.00000000000E+00 -0.00000000000E+00 -0.45593999997E+02  0.45594000000E+02  0.51100000000E-03 0. -1.
         23    2    1    2    0    0  0.00000000000E+00 -0.35527136788E-14  0.00000000000E+00  0.91188000000E+02  0.91188000000E+02 0.  0.
    9900012    2    3    3    0    0 -0.65383752657E+01  0.29326419926E+02 -0.21283536161E+02  0.54367106905E+02  0.40000051811E+02 0.  0.
        -12    1    3    3    0    0  0.65383752657E+01 -0.29326419926E+02  0.21283536161E+02  0.36820893095E+02  0.00000000000E+00 0.  1.
         11    1    4    4    0    0  0.21671023291E+01  0.29201516496E+02 -0.22445016410E+02  0.36894493627E+02  0.51100000000E-03 0. -1.
        -11    1    4    4    0    0 -0.12840934054E+02 -0.21993941148E+00  0.25561214652E+01  0.13094720995E+02  0.51100000000E-03 0.  1.
        -12    1    4    4    0    0  0.41354564594E+01  0.34484284192E+00 -0.13946412169E+01  0.43778922825E+01  0.00000000000E+00 0.  1.
</event>
<event>
 8    1  0.1290800E-006  0.9118800E+02  0.7816164E-02  0.1184000E+00
        -11   -1    0    0    0    0  0.00000000000E+00  0.00000000000E+00  0.45593999997E+02  0.45594000000E+02  0.51100000000E-03 0.  1.
         11   -1    0    0    0    0 -0.00000000000E+00 -0.00000000000E+00 -0.45593999997E+02  0.45594000000E+02  0.51100000000E-03 0. -1.
         23    2    1    2    0    0  0.00000000000E+00  0.35527136788E-14  0.00000000000E+00  0.91188000000E+02  0.91188000000E+02 0.  0.
    9900012    2    3    3    0    0 -0.24142438597E+02 -0.18109436488E+02 -0.21094347519E+02  0.54367074854E+02  0.39999978745E+02 0.  0.
        -12    1    3    3    0    0  0.24142438597E+02  0.18109436488E+02  0.21094347519E+02  0.36820925146E+02  0.00000000000E+00 0.  1.
         11    1    4    4    0    0 -0.13792446411E+02 -0.17191902096E+02 -0.34849227551E+01  0.22314519098E+02  0.51100000000E-03 0. -1.
        -11    1    4    4    0    0 -0.39583655460E+00 -0.11901821796E+02 -0.68755201572E+01  0.13750739119E+02  0.51100000000E-03 0.  1.
        -12    1    4    4    0    0 -0.99541556319E+01  0.10984287404E+02 -0.10733904607E+02  0.18301816637E+02  0.00000000000E+00 0.  1.
</event>
<event>
 8    1  0.1290800E-006  0.9118800E+02  0.7816164E-02  0.1184000E+00
        -11   -1    0    0    0    0  0.00000000000E+00  0.00000000000E+00  0.45593999997E+02  0.45594000000E+02  0.51100000000E-03 0. -1.
         11   -1    0    0    0    0 -0.00000000000E+00 -0.00000000000E+00 -0.45593999997E+02  0.45594000000E+02  0.51100000000E-03 0.  1.
         23    2    1    2    0    0  0.35527136788E-14 -0.88817841970E-15  0.00000000000E+00  0.91188000000E+02  0.91188000000E+02 0.  0.
    9900012    2    3    3    0    0 -0.23899321533E+02 -0.24041575384E+01 -0.27907097701E+02  0.54367304117E+02  0.40000501392E+02 0.  0.
         12    1    3    3    0    0  0.23899321533E+02  0.24041575384E+01  0.27907097701E+02  0.36820695883E+02  0.00000000000E+00 0. -1.
         11    1    4    4    0    0  0.25424751215E+01 -0.35461001166E+01  0.43447943020E+01  0.61576167117E+01  0.51100000000E-03 0. -1.
        -11    1    4    4    0    0 -0.11987191365E+02  0.53274942845E+01 -0.56370508348E+00  0.13129840663E+02  0.51100000000E-03 0.  1.
        -12    1    4    4    0    0 -0.14454605290E+02 -0.41855517063E+01 -0.31688186920E+02  0.35079846742E+02  0.00000000000E+00 0.  1.
</event>
<event>
 8    1  0.1290800E-006  0.9118800E+02  0.7816164E-02  0.1184000E+00
        -11   -1    0    0    0    0  0.00000000000E+00  0.00000000000E+00  0.45593999997E+02  0.45594000000E+02  0.51100000000E-03 0. -1.
         11   -1    0    0    0    0 -0.00000000000E+00 -0.00000000000E+00 -0.45593999997E+02  0.45594000000E+02  0.51100000000E-03 0.  1.
         23    2    1    2    0    0  0.17763568394E-14 -0.35527136788E-14  0.00000000000E+00  0.91188000000E+02  0.91188000000E+02 0.  0.
    9900012    2    3    3    0    0 -0.48641619767E+01  0.27480757192E+02  0.24019417197E+02  0.54367021061E+02  0.39999856112E+02 0.  0.
        -12    1    3    3    0    0  0.48641619767E+01 -0.27480757192E+02 -0.24019417197E+02  0.36820978939E+02  0.00000000000E+00 0.  1.
         11    1    4    4    0    0 -0.80843810222E+01  0.17851328006E+02 -0.37619184081E+01  0.19954427039E+02  0.51100000000E-03 0. -1.
        -11    1    4    4    0    0 -0.65467943535E+01  0.47763821322E+00  0.12343370326E+02  0.13980251995E+02  0.51100000000E-03 0.  1.
         12    1    4    4    0    0  0.97670133990E+01  0.91517909732E+01  0.15437965279E+02  0.20432342027E+02  0.00000000000E+00 0. -1.
</event>
<event>
 8    1  0.1290800E-006  0.9118800E+02  0.7816164E-02  0.1184000E+00
        -11   -1    0    0    0    0  0.00000000000E+00  0.00000000000E+00  0.45593999997E+02  0.45594000000E+02  0.51100000000E-03 0. -1.
         11   -1    0    0    0    0 -0.00000000000E+00 -0.00000000000E+00 -0.45593999997E+02  0.45594000000E+02  0.51100000000E-03 0.  1.
         23    2    1    2    0    0  0.88817841970E-15  0.00000000000E+00 -0.71054273576E-14  0.91188000000E+02  0.91188000000E+02 0.  0.
    9900012    2    3    3    0    0  0.46651777198E+01  0.11415351009E+02  0.34694468045E+02  0.54367078845E+02  0.39999987843E+02 0.  0.
        -12    1    3    3    0    0 -0.46651777198E+01 -0.11415351009E+02 -0.34694468045E+02  0.36820921155E+02  0.00000000000E+00 0.  1.
         11    1    4    4    0    0 -0.72142303837E+01  0.83653452289E+01  0.12135766073E+02  0.16410391198E+02  0.51100000000E-03 0. -1.
        -11    1    4    4    0    0  0.19440540208E+02 -0.65798149891E-01  0.75319350214E+01  0.20848716469E+02  0.51100000000E-03 0.  1.
        -12    1    4    4    0    0 -0.75611321048E+01  0.31158039297E+01  0.15026766950E+02  0.17107971178E+02  0.00000000000E+00 0.  1.
</event>
<event>
 8    1  0.1290800E-006  0.9118800E+02  0.7816164E-02  0.1184000E+00
        -11   -1    0    0    0    0  0.00000000000E+00  0.00000000000E+00  0.45593999997E+02  0.45594000000E+02  0.51100000000E-03 0. -1.
         11   -1    0    0    0    0 -0.00000000000E+00 -0.00000000000E+00 -0.45593999997E+02  0.45594000000E+02  0.51100000000E-03 0.  1.
         23    2    1    2    0    0 -0.10658141036E-13  0.35527136788E-14  0.44408920985E-15  0.91188000000E+02  0.91188000000E+02 0.  0.
    9900012    2    3    3    0    0 -0.29020576198E+02  0.22337154217E+02 -0.38259112617E+01  0.54367083412E+02  0.39999998255E+02 0.  0.
         12    1    3    3    0    0  0.29020576198E+02 -0.22337154217E+02  0.38259112617E+01  0.36820916588E+02  0.00000000000E+00 0. -1.
         11    1    4    4    0    0  0.51429974904E+01 -0.57250767433E-01 -0.21887182320E+01  0.55896501319E+01  0.51100000000E-03 0. -1.
        -11    1    4    4    0    0  0.33117125344E+01  0.47783823313E+01 -0.43776595905E+01  0.72776563099E+01  0.51100000000E-03 0.  1.
         12    1    4    4    0    0 -0.37475286223E+02  0.17616022653E+02  0.27404665608E+01  0.41499776970E+02  0.00000000000E+00 0. -1.
</event>
<event>
 8    1  0.1290800E-006  0.9118800E+02  0.7816164E-02  0.1184000E+00
        -11   -1    0    0    0    0  0.00000000000E+00  0.00000000000E+00  0.45593999997E+02  0.45594000000E+02  0.51100000000E-03 0.  1.
         11   -1    0    0    0    0 -0.00000000000E+00 -0.00000000000E+00 -0.45593999997E+02  0.45594000000E+02  0.51100000000E-03 0. -1.
         23    2    1    2    0    0  0.00000000000E+00  0.00000000000E+00 -0.44408920985E-15  0.91188000000E+02  0.91188000000E+02 0.  0.
    9900012    2    3    3    0    0 -0.29545577536E+02  0.21844229987E+02 -0.23828443909E+01  0.54366953260E+02  0.39999701546E+02 0.  0.
         12    1    3    3    0    0  0.29545577536E+02 -0.21844229987E+02  0.23828443909E+01  0.36821046740E+02  0.00000000000E+00 0. -1.
         11    1    4    4    0    0 -0.11486824082E+02 -0.14415801718E+01 -0.53571705015E+01  0.12756353590E+02  0.51100000000E-03 0. -1.
        -11    1    4    4    0    0  0.43984680224E+01  0.17631951161E+02  0.31978788255E+01  0.18451521670E+02  0.51100000000E-03 0.  1.
        -12    1    4    4    0    0 -0.22457221476E+02  0.56538589969E+01 -0.22355271499E+00  0.23159078000E+02  0.00000000000E+00 0.  1.
</event>
<event>
 8    1  0.1290800E-006  0.9118800E+02  0.7816164E-02  0.1184000E+00
        -11   -1    0    0    0    0  0.00000000000E+00  0.00000000000E+00  0.45593999997E+02  0.45594000000E+02  0.51100000000E-03 0. -1.
         11   -1    0    0    0    0 -0.00000000000E+00 -0.00000000000E+00 -0.45593999997E+02  0.45594000000E+02  0.51100000000E-03 0.  1.
         23    2    1    2    0    0  0.00000000000E+00  0.00000000000E+00 -0.35527136788E-14  0.91188000000E+02  0.91188000000E+02 0.  0.
    9900012    2    3    3    0    0 -0.11488376253E+02 -0.30587980418E+02  0.16975610009E+02  0.54367100090E+02  0.40000036276E+02 0.  0.
        -12    1    3    3    0    0  0.11488376253E+02  0.30587980418E+02 -0.16975610009E+02  0.36820899910E+02  0.00000000000E+00 0.  1.
         11    1    4    4    0    0 -0.59688273129E+01 -0.54845271032E+00 -0.37086429282E+01  0.70485269735E+01  0.51100000000E-03 0. -1.
        -11    1    4    4    0    0 -0.11978616334E+02 -0.29792341580E+02  0.80146949304E+01  0.33095410576E+02  0.51100000000E-03 0.  1.
         12    1    4    4    0    0  0.64590673934E+01 -0.24718612743E+00  0.12669558007E+02  0.14223162541E+02  0.00000000000E+00 0. -1.
</event>
<event>
 8    1  0.1290800E-006  0.9118800E+02  0.7816164E-02  0.1184000E+00
        -11   -1    0    0    0    0  0.00000000000E+00  0.00000000000E+00  0.45593999997E+02  0.45594000000E+02  0.51100000000E-03 0.  1.
         11   -1    0    0    0    0 -0.00000000000E+00 -0.00000000000E+00 -0.45593999997E+02  0.45594000000E+02  0.51100000000E-03 0. -1.
         23    2    1    2    0    0  0.88817841970E-15  0.88817841970E-15 -0.71054273576E-14  0.91188000000E+02  0.91188000000E+02 0.  0.
    9900012    2    3    3    0    0 -0.47024547519E+01 -0.34244804978E+01  0.36358509977E+02  0.54367063087E+02  0.39999951921E+02 0.  0.
         12    1    3    3    0    0  0.47024547519E+01  0.34244804978E+01 -0.36358509977E+02  0.36820936913E+02  0.00000000000E+00 0. -1.
         11    1    4    4    0    0 -0.83458177907E+01  0.79467142070E+00  0.83123176596E+01  0.11805879992E+02  0.51100000000E-03 0. -1.
        -11    1    4    4    0    0 -0.10813247760E+02 -0.29557502179E+01  0.25463009546E+02  0.27821352266E+02  0.51100000000E-03 0.  1.
         12    1    4    4    0    0  0.14456610799E+02 -0.12634017007E+01  0.25831827708E+01  0.14739830829E+02  0.00000000000E+00 0. -1.
</event>
<event>
 8    1  0.1290800E-006  0.9118800E+02  0.7816164E-02  0.1184000E+00
        -11   -1    0    0    0    0  0.00000000000E+00  0.00000000000E+00  0.45593999997E+02  0.45594000000E+02  0.51100000000E-03 0. -1.
         11   -1    0    0    0    0 -0.00000000000E+00 -0.00000000000E+00 -0.45593999997E+02  0.45594000000E+02  0.51100000000E-03 0.  1.
         23    2    1    2    0    0  0.17763568394E-14 -0.13322676296E-14  0.00000000000E+00  0.91188000000E+02  0.91188000000E+02 0.  0.
    9900012    2    3    3    0    0  0.13455057096E+02  0.14639467422E+01 -0.34243223178E+02  0.54367081555E+02  0.39999994020E+02 0.  0.
         12    1    3    3    0    0 -0.13455057096E+02 -0.14639467422E+01  0.34243223178E+02  0.36820918445E+02  0.00000000000E+00 0. -1.
         11    1    4    4    0    0 -0.94796374931E+01 -0.29884759152E+01 -0.14666146328E+02  0.17716951309E+02  0.51100000000E-03 0. -1.
        -11    1    4    4    0    0  0.21751085720E+02 -0.40376708196E+01 -0.11785940326E+02  0.25066330112E+02  0.51100000000E-03 0.  1.
        -12    1    4    4    0    0  0.11836088687E+01  0.84900934770E+01 -0.77911365245E+01  0.11583800134E+02  0.00000000000E+00 0.  1.
</event>
<event>
 8    1  0.1290800E-006  0.9118800E+02  0.7816164E-02  0.1184000E+00
        -11   -1    0    0    0    0  0.00000000000E+00  0.00000000000E+00  0.45593999997E+02  0.45594000000E+02  0.51100000000E-03 0.  1.
         11   -1    0    0    0    0 -0.00000000000E+00 -0.00000000000E+00 -0.45593999997E+02  0.45594000000E+02  0.51100000000E-03 0. -1.
         23    2    1    2    0    0  0.00000000000E+00  0.00000000000E+00  0.00000000000E+00  0.91188000000E+02  0.91188000000E+02 0.  0.
    9900012    2    3    3    0    0 -0.19493117414E+02 -0.22043417331E+02  0.22133361655E+02  0.54367087840E+02  0.40000008349E+02 0.  0.
         12    1    3    3    0    0  0.19493117414E+02  0.22043417331E+02 -0.22133361655E+02  0.36820912160E+02  0.00000000000E+00 0. -1.
         11    1    4    4    0    0  0.59161914419E+01 -0.83551393051E+01  0.40527340715E+01  0.11010646107E+02  0.51100000000E-03 0. -1.
        -11    1    4    4    0    0 -0.22170857222E+02 -0.21042198084E+02  0.17678974580E+02  0.35311006112E+02  0.51100000000E-03 0.  1.
         12    1    4    4    0    0 -0.32384516335E+01  0.73539200577E+01  0.40165300363E+00  0.80454356211E+01  0.00000000000E+00 0. -1.
</event>
<event>
 8    1  0.1290800E-006  0.9118800E+02  0.7816164E-02  0.1184000E+00
        -11   -1    0    0    0    0  0.00000000000E+00  0.00000000000E+00  0.45593999997E+02  0.45594000000E+02  0.51100000000E-03 0.  1.
         11   -1    0    0    0    0 -0.00000000000E+00 -0.00000000000E+00 -0.45593999997E+02  0.45594000000E+02  0.51100000000E-03 0. -1.
         23    2    1    2    0    0  0.00000000000E+00  0.00000000000E+00  0.35527136788E-14  0.91188000000E+02  0.91188000000E+02 0.  0.
    9900012    2    3    3    0    0  0.17096125436E+02 -0.87086466531E+01 -0.31427091106E+02  0.54367080854E+02  0.39999992422E+02 0.  0.
        -12    1    3    3    0    0 -0.17096125436E+02  0.87086466531E+01  0.31427091106E+02  0.36820919146E+02  0.00000000000E+00 0.  1.
         11    1    4    4    0    0  0.84442793815E+01 -0.58686634412E+01 -0.39143498547E+02  0.40471725237E+02  0.51100000000E-03 0. -1.
        -11    1    4    4    0    0  0.22418582669E+01  0.22318723012E+01  0.34290014786E+01  0.46653224818E+01  0.51100000000E-03 0.  1.
         12    1    4    4    0    0  0.64099877871E+01 -0.50718555131E+01  0.42874059633E+01  0.92300331348E+01  0.00000000000E+00 0. -1.
</event>
<event>
 8    1  0.1290800E-006  0.9118800E+02  0.7816164E-02  0.1184000E+00
        -11   -1    0    0    0    0  0.00000000000E+00  0.00000000000E+00  0.45593999997E+02  0.45594000000E+02  0.51100000000E-03 0. -1.
         11   -1    0    0    0    0 -0.00000000000E+00 -0.00000000000E+00 -0.45593999997E+02  0.45594000000E+02  0.51100000000E-03 0.  1.
         23    2    1    2    0    0  0.35527136788E-14  0.71054273576E-14  0.00000000000E+00  0.91188000000E+02  0.91188000000E+02 0.  0.
    9900012    2    3    3    0    0  0.20730316185E+02  0.28711298316E+02 -0.10084394081E+02  0.54367086593E+02  0.40000005507E+02 0.  0.
         12    1    3    3    0    0 -0.20730316185E+02 -0.28711298316E+02  0.10084394081E+02  0.36820913407E+02  0.00000000000E+00 0. -1.
         11    1    4    4    0    0 -0.19617329204E+01  0.21970420390E+01 -0.25838900955E+01  0.39181472738E+01  0.51100000000E-03 0. -1.
        -11    1    4    4    0    0  0.17014747345E+02  0.25392535073E+02 -0.20100886266E+02  0.36583166807E+02  0.51100000000E-03 0.  1.
         12    1    4    4    0    0  0.56773017604E+01  0.11217212033E+01  0.12600382281E+02  0.13865772512E+02  0.00000000000E+00 0. -1.
</event>
<event>
 8    1  0.1290800E-006  0.9118800E+02  0.7816164E-02  0.1184000E+00
        -11   -1    0    0    0    0  0.00000000000E+00  0.00000000000E+00  0.45593999997E+02  0.45594000000E+02  0.51100000000E-03 0.  1.
         11   -1    0    0    0    0 -0.00000000000E+00 -0.00000000000E+00 -0.45593999997E+02  0.45594000000E+02  0.51100000000E-03 0. -1.
         23    2    1    2    0    0 -0.71054273576E-14 -0.17763568394E-14  0.00000000000E+00  0.91188000000E+02  0.91188000000E+02 0.  0.
    9900012    2    3    3    0    0 -0.34385172488E+02 -0.10244169709E+02 -0.82761875295E+01  0.54367104030E+02  0.40000045256E+02 0.  0.
        -12    1    3    3    0    0  0.34385172488E+02  0.10244169709E+02  0.82761875295E+01  0.36820895970E+02  0.00000000000E+00 0.  1.
         11    1    4    4    0    0  0.81034450002E+00 -0.19174805174E+01 -0.14081623418E+02  0.14234658693E+02  0.51100000000E-03 0. -1.
        -11    1    4    4    0    0 -0.36212239652E+01  0.42153589918E+01 -0.49456768367E+00  0.55791676701E+01  0.51100000000E-03 0.  1.
        -12    1    4    4    0    0 -0.31574293023E+02 -0.12542048183E+02  0.63000035726E+01  0.34553277667E+02  0.00000000000E+00 0.  1.
</event>
<event>
 8    1  0.1290800E-006  0.9118800E+02  0.7816164E-02  0.1184000E+00
        -11   -1    0    0    0    0  0.00000000000E+00  0.00000000000E+00  0.45593999997E+02  0.45594000000E+02  0.51100000000E-03 0. -1.
         11   -1    0    0    0    0 -0.00000000000E+00 -0.00000000000E+00 -0.45593999997E+02  0.45594000000E+02  0.51100000000E-03 0.  1.
         23    2    1    2    0    0  0.00000000000E+00  0.00000000000E+00  0.00000000000E+00  0.91188000000E+02  0.91188000000E+02 0.  0.
    9900012    2    3    3    0    0  0.18411052863E+02  0.20372962398E+02 -0.24530767358E+02  0.54367041137E+02  0.39999901880E+02 0.  0.
         12    1    3    3    0    0 -0.18411052863E+02 -0.20372962398E+02  0.24530767358E+02  0.36820958863E+02  0.00000000000E+00 0. -1.
         11    1    4    4    0    0  0.11587507884E+02  0.83642563567E+00  0.76767409911E+01  0.13924880585E+02  0.51100000000E-03 0. -1.
        -11    1    4    4    0    0  0.63673603932E+01  0.23816748779E+01 -0.13104700676E+02  0.14763090248E+02  0.51100000000E-03 0.  1.
         12    1    4    4    0    0  0.45618458601E+00  0.17154861885E+02 -0.19102807673E+02  0.25679070304E+02  0.00000000000E+00 0. -1.
</event>
<event>
 8    1  0.1290800E-006  0.9118800E+02  0.7816164E-02  0.1184000E+00
        -11   -1    0    0    0    0  0.00000000000E+00  0.00000000000E+00  0.45593999997E+02  0.45594000000E+02  0.51100000000E-03 0. -1.
         11   -1    0    0    0    0 -0.00000000000E+00 -0.00000000000E+00 -0.45593999997E+02  0.45594000000E+02  0.51100000000E-03 0.  1.
         23    2    1    2    0    0  0.88817841970E-15  0.00000000000E+00  0.00000000000E+00  0.91188000000E+02  0.91188000000E+02 0.  0.
    9900012    2    3    3    0    0 -0.59875517711E+01  0.25861670862E+02 -0.25516727070E+02  0.54367079909E+02  0.39999990269E+02 0.  0.
         12    1    3    3    0    0  0.59875517711E+01 -0.25861670862E+02  0.25516727070E+02  0.36820920091E+02  0.00000000000E+00 0. -1.
         11    1    4    4    0    0  0.12156524924E+02  0.11601708590E+02 -0.50397348983E+01  0.17543650377E+02  0.51100000000E-03 0. -1.
        -11    1    4    4    0    0 -0.69521505676E+01  0.12808858293E+02 -0.13775351616E+01  0.14638881503E+02  0.51100000000E-03 0.  1.
        -12    1    4    4    0    0 -0.11191926128E+02  0.14511039791E+01 -0.19099457010E+02  0.22184548029E+02  0.00000000000E+00 0.  1.
</event>
<event>
 8    1  0.1290800E-006  0.9118800E+02  0.7816164E-02  0.1184000E+00
        -11   -1    0    0    0    0  0.00000000000E+00  0.00000000000E+00  0.45593999997E+02  0.45594000000E+02  0.51100000000E-03 0. -1.
         11   -1    0    0    0    0 -0.00000000000E+00 -0.00000000000E+00 -0.45593999997E+02  0.45594000000E+02  0.51100000000E-03 0.  1.
         23    2    1    2    0    0 -0.35527136788E-14 -0.35527136788E-14  0.00000000000E+00  0.91188000000E+02  0.91188000000E+02 0.  0.
    9900012    2    3    3    0    0 -0.26563592568E+02  0.23472154779E+02 -0.99608537271E+01  0.54367012683E+02  0.39999837012E+02 0.  0.
         12    1    3    3    0    0  0.26563592568E+02 -0.23472154779E+02  0.99608537271E+01  0.36820987317E+02  0.00000000000E+00 0. -1.
         11    1    4    4    0    0 -0.95875738111E+01  0.91680405586E+01  0.10354364848E+02  0.16828173131E+02  0.51100000000E-03 0. -1.
        -11    1    4    4    0    0 -0.71941164190E+01  0.18931282511E+02 -0.99901091566E+01  0.22582095780E+02  0.51100000000E-03 0.  1.
         12    1    4    4    0    0 -0.97819023375E+01 -0.46271682912E+01 -0.10325109419E+02  0.14956743772E+02  0.00000000000E+00 0. -1.
</event>
<event>
 8    1  0.1290800E-006  0.9118800E+02  0.7816164E-02  0.1184000E+00
        -11   -1    0    0    0    0  0.00000000000E+00  0.00000000000E+00  0.45593999997E+02  0.45594000000E+02  0.51100000000E-03 0.  1.
         11   -1    0    0    0    0 -0.00000000000E+00 -0.00000000000E+00 -0.45593999997E+02  0.45594000000E+02  0.51100000000E-03 0. -1.
         23    2    1    2    0    0  0.00000000000E+00  0.00000000000E+00 -0.71054273576E-14  0.91188000000E+02  0.91188000000E+02 0.  0.
    9900012    2    3    3    0    0  0.36561653157E+01  0.11316522193E+02  0.34847478582E+02  0.54367109423E+02  0.40000057553E+02 0.  0.
         12    1    3    3    0    0 -0.36561653157E+01 -0.11316522193E+02 -0.34847478582E+02  0.36820890577E+02  0.00000000000E+00 0. -1.
         11    1    4    4    0    0  0.72381050208E+01 -0.12382247422E+02  0.18089039005E+02  0.23085136947E+02  0.51100000000E-03 0. -1.
        -11    1    4    4    0    0  0.19930073936E+01  0.55223051803E+00  0.34065443465E+01  0.39851702174E+01  0.51100000000E-03 0.  1.
        -12    1    4    4    0    0 -0.55749470987E+01  0.23146539097E+02  0.13351895230E+02  0.27296802259E+02  0.00000000000E+00 0.  1.
</event>
<event>
 8    1  0.1290800E-006  0.9118800E+02  0.7816164E-02  0.1184000E+00
        -11   -1    0    0    0    0  0.00000000000E+00  0.00000000000E+00  0.45593999997E+02  0.45594000000E+02  0.51100000000E-03 0. -1.
         11   -1    0    0    0    0 -0.00000000000E+00 -0.00000000000E+00 -0.45593999997E+02  0.45594000000E+02  0.51100000000E-03 0.  1.
         23    2    1    2    0    0 -0.17763568394E-14 -0.71054273576E-14 -0.11102230246E-15  0.91188000000E+02  0.91188000000E+02 0.  0.
    9900012    2    3    3    0    0 -0.26379042538E+01 -0.36717857756E+02 -0.78754775462E+00  0.54367084089E+02  0.39999999798E+02 0.  0.
        -12    1    3    3    0    0  0.26379042538E+01  0.36717857756E+02  0.78754775462E+00  0.36820915911E+02  0.00000000000E+00 0.  1.
         11    1    4    4    0    0 -0.14843904540E+01 -0.19690723133E+02  0.21491791336E+01  0.19863206280E+02  0.51100000000E-03 0. -1.
        -11    1    4    4    0    0  0.12979859208E+02 -0.15382247279E+02 -0.10978390630E+01  0.20156773732E+02  0.51100000000E-03 0.  1.
         12    1    4    4    0    0 -0.14133373008E+02 -0.16448873445E+01 -0.18388878252E+01  0.14347104077E+02  0.00000000000E+00 0. -1.
</event>
<event>
 8    1  0.1290800E-006  0.9118800E+02  0.7816164E-02  0.1184000E+00
        -11   -1    0    0    0    0  0.00000000000E+00  0.00000000000E+00  0.45593999997E+02  0.45594000000E+02  0.51100000000E-03 0. -1.
         11   -1    0    0    0    0 -0.00000000000E+00 -0.00000000000E+00 -0.45593999997E+02  0.45594000000E+02  0.51100000000E-03 0.  1.
         23    2    1    2    0    0 -0.44408920985E-15 -0.88817841970E-15 -0.71054273576E-14  0.91188000000E+02  0.91188000000E+02 0.  0.
    9900012    2    3    3    0    0  0.22741438949E+01 -0.78152027597E+01  0.35910048352E+02  0.54367072564E+02  0.39999973524E+02 0.  0.
        -12    1    3    3    0    0 -0.22741438949E+01  0.78152027597E+01 -0.35910048352E+02  0.36820927436E+02  0.00000000000E+00 0.  1.
         11    1    4    4    0    0 -0.10820706297E+01 -0.23331555244E+02  0.15980537693E+02  0.28300352156E+02  0.51100000000E-03 0. -1.
        -11    1    4    4    0    0  0.23493538736E+01  0.42686237262E+01  0.30179253133E+01  0.57313598383E+01  0.51100000000E-03 0.  1.
         12    1    4    4    0    0  0.10068606510E+01  0.11247728758E+02  0.16911585345E+02  0.20335360569E+02  0.00000000000E+00 0. -1.
</event>
<event>
 8    1  0.1290800E-006  0.9118800E+02  0.7816164E-02  0.1184000E+00
        -11   -1    0    0    0    0  0.00000000000E+00  0.00000000000E+00  0.45593999997E+02  0.45594000000E+02  0.51100000000E-03 0.  1.
         11   -1    0    0    0    0 -0.00000000000E+00 -0.00000000000E+00 -0.45593999997E+02  0.45594000000E+02  0.51100000000E-03 0. -1.
         23    2    1    2    0    0  0.35527136788E-14 -0.35527136788E-14 -0.35527136788E-14  0.91188000000E+02  0.91188000000E+02 0.  0.
    9900012    2    3    3    0    0 -0.16861925917E+02 -0.25777604158E+02  0.20173525218E+02  0.54367074680E+02  0.39999978347E+02 0.  0.
        -12    1    3    3    0    0  0.16861925917E+02  0.25777604158E+02 -0.20173525218E+02  0.36820925320E+02  0.00000000000E+00 0.  1.
         11    1    4    4    0    0 -0.50773230596E+01  0.85386416342E+01  0.19413486846E+01  0.10122077128E+02  0.51100000000E-03 0. -1.
        -11    1    4    4    0    0 -0.91494377979E+00  0.17701553004E+01  0.29865432320E+01  0.35902663753E+01  0.51100000000E-03 0.  1.
         12    1    4    4    0    0 -0.10869659078E+02 -0.36086401092E+02  0.15245633301E+02  0.40654731176E+02  0.00000000000E+00 0. -1.
</event>
<event>
 8    1  0.1290800E-006  0.9118800E+02  0.7816164E-02  0.1184000E+00
        -11   -1    0    0    0    0  0.00000000000E+00  0.00000000000E+00  0.45593999997E+02  0.45594000000E+02  0.51100000000E-03 0.  1.
         11   -1    0    0    0    0 -0.00000000000E+00 -0.00000000000E+00 -0.45593999997E+02  0.45594000000E+02  0.51100000000E-03 0. -1.
         23    2    1    2    0    0 -0.35527136788E-14  0.88817841970E-15 -0.35527136788E-14  0.91188000000E+02  0.91188000000E+02 0.  0.
    9900012    2    3    3    0    0  0.28194915493E+02  0.45734120245E+01 -0.23235987413E+02  0.54367075673E+02  0.39999980612E+02 0.  0.
        -12    1    3    3    0    0 -0.28194915493E+02 -0.45734120245E+01  0.23235987413E+02  0.36820924327E+02  0.00000000000E+00 0.  1.
         11    1    4    4    0    0  0.83079524211E+01  0.14298301701E+02  0.15390550127E+01  0.16608196638E+02  0.51100000000E-03 0. -1.
        -11    1    4    4    0    0  0.43460151833E+01 -0.11525123530E+01 -0.18334884729E+02  0.18878138970E+02  0.51100000000E-03 0.  1.
        -12    1    4    4    0    0  0.15540947889E+02 -0.85723773234E+01 -0.64401576965E+01  0.18880740065E+02  0.00000000000E+00 0.  1.
</event>
<event>
 8    1  0.1290800E-006  0.9118800E+02  0.7816164E-02  0.1184000E+00
        -11   -1    0    0    0    0  0.00000000000E+00  0.00000000000E+00  0.45593999997E+02  0.45594000000E+02  0.51100000000E-03 0. -1.
         11   -1    0    0    0    0 -0.00000000000E+00 -0.00000000000E+00 -0.45593999997E+02  0.45594000000E+02  0.51100000000E-03 0.  1.
         23    2    1    2    0    0  0.00000000000E+00  0.00000000000E+00 -0.88817841970E-15  0.91188000000E+02  0.91188000000E+02 0.  0.
    9900012    2    3    3    0    0 -0.14369033755E+02  0.32981024118E+02  0.78458465520E+01  0.54367158197E+02  0.40000168741E+02 0.  0.
        -12    1    3    3    0    0  0.14369033755E+02 -0.32981024118E+02 -0.78458465520E+01  0.36820841803E+02  0.00000000000E+00 0.  1.
         11    1    4    4    0    0 -0.10749583509E+02  0.30317299454E+02  0.41673471191E+01  0.32435458592E+02  0.51100000000E-03 0. -1.
        -11    1    4    4    0    0 -0.54783222989E+01  0.16038831069E+01 -0.81283606269E+01  0.99325073860E+01  0.51100000000E-03 0.  1.
        -12    1    4    4    0    0  0.18588720522E+01  0.10598415575E+01  0.11806860060E+02  0.11999192219E+02  0.00000000000E+00 0.  1.
</event>
<event>
 8    1  0.1290800E-006  0.9118800E+02  0.7816164E-02  0.1184000E+00
        -11   -1    0    0    0    0  0.00000000000E+00  0.00000000000E+00  0.45593999997E+02  0.45594000000E+02  0.51100000000E-03 0.  1.
         11   -1    0    0    0    0 -0.00000000000E+00 -0.00000000000E+00 -0.45593999997E+02  0.45594000000E+02  0.51100000000E-03 0. -1.
         23    2    1    2    0    0  0.88817841970E-15  0.00000000000E+00  0.00000000000E+00  0.91188000000E+02  0.91188000000E+02 0.  0.
    9900012    2    3    3    0    0 -0.65966034202E+01 -0.29238635298E+02  0.21386050240E+02  0.54367134779E+02  0.40000115355E+02 0.  0.
         12    1    3    3    0    0  0.65966034202E+01  0.29238635298E+02 -0.21386050240E+02  0.36820865221E+02  0.00000000000E+00 0. -1.
         11    1    4    4    0    0  0.14451530885E+02 -0.14275372263E+02  0.14514455884E+02  0.24966025476E+02  0.51100000000E-03 0. -1.
        -11    1    4    4    0    0 -0.84459118882E+00 -0.66790260614E+01  0.11716594393E+01  0.68334112644E+01  0.51100000000E-03 0.  1.
         12    1    4    4    0    0 -0.20203543117E+02 -0.82842369738E+01  0.56999349162E+01  0.22567698038E+02  0.00000000000E+00 0. -1.
</event>
<event>
 8    1  0.1290800E-006  0.9118800E+02  0.7816164E-02  0.1184000E+00
        -11   -1    0    0    0    0  0.00000000000E+00  0.00000000000E+00  0.45593999997E+02  0.45594000000E+02  0.51100000000E-03 0.  1.
         11   -1    0    0    0    0 -0.00000000000E+00 -0.00000000000E+00 -0.45593999997E+02  0.45594000000E+02  0.51100000000E-03 0. -1.
         23    2    1    2    0    0  0.00000000000E+00  0.00000000000E+00  0.00000000000E+00  0.91188000000E+02  0.91188000000E+02 0.  0.
    9900012    2    3    3    0    0  0.68537931624E+01  0.32117281769E+02  0.16651848225E+02  0.54367104869E+02  0.40000047171E+02 0.  0.
        -12    1    3    3    0    0 -0.68537931624E+01 -0.32117281769E+02 -0.16651848225E+02  0.36820895131E+02  0.00000000000E+00 0.  1.
         11    1    4    4    0    0  0.78356384370E+01  0.18781986106E+02 -0.26236629812E+01  0.20519352805E+02  0.51100000000E-03 0. -1.
        -11    1    4    4    0    0  0.65569910760E+01  0.17372799043E+02  0.16544784147E+02  0.24870427444E+02  0.51100000000E-03 0.  1.
        -12    1    4    4    0    0 -0.75388363506E+01 -0.40375033804E+01  0.27307270593E+01  0.89773246205E+01  0.00000000000E+00 0.  1.
</event>
<event>
 8    1  0.1290800E-006  0.9118800E+02  0.7816164E-02  0.1184000E+00
        -11   -1    0    0    0    0  0.00000000000E+00  0.00000000000E+00  0.45593999997E+02  0.45594000000E+02  0.51100000000E-03 0. -1.
         11   -1    0    0    0    0 -0.00000000000E+00 -0.00000000000E+00 -0.45593999997E+02  0.45594000000E+02  0.51100000000E-03 0.  1.
         23    2    1    2    0    0  0.00000000000E+00 -0.88817841970E-15  0.00000000000E+00  0.91188000000E+02  0.91188000000E+02 0.  0.
    9900012    2    3    3    0    0 -0.60209287855E+01 -0.54225729846E+01  0.35918288779E+02  0.54367090858E+02  0.40000015229E+02 0.  0.
        -12    1    3    3    0    0  0.60209287855E+01  0.54225729846E+01 -0.35918288779E+02  0.36820909142E+02  0.00000000000E+00 0.  1.
         11    1    4    4    0    0 -0.12453874743E+02 -0.29153275711E+01  0.88950348930E+01  0.15579466517E+02  0.51100000000E-03 0. -1.
        -11    1    4    4    0    0  0.35137979681E+00  0.11917968715E+02  0.91608726083E+01  0.15036057770E+02  0.51100000000E-03 0.  1.
         12    1    4    4    0    0  0.60815661604E+01 -0.14425214129E+02  0.17862381278E+02  0.23751566570E+02  0.00000000000E+00 0. -1.
</event>
<event>
 8    1  0.1290800E-006  0.9118800E+02  0.7816164E-02  0.1184000E+00
        -11   -1    0    0    0    0  0.00000000000E+00  0.00000000000E+00  0.45593999997E+02  0.45594000000E+02  0.51100000000E-03 0.  1.
         11   -1    0    0    0    0 -0.00000000000E+00 -0.00000000000E+00 -0.45593999997E+02  0.45594000000E+02  0.51100000000E-03 0. -1.
         23    2    1    2    0    0 -0.17763568394E-14 -0.71054273576E-14  0.88817841970E-15  0.91188000000E+02  0.91188000000E+02 0.  0.
    9900012    2    3    3    0    0  0.61677035429E+01 -0.35696549000E+02  0.65947635518E+01  0.54367148791E+02  0.40000147298E+02 0.  0.
         12    1    3    3    0    0 -0.61677035429E+01  0.35696549000E+02 -0.65947635518E+01  0.36820851209E+02  0.00000000000E+00 0. -1.
         11    1    4    4    0    0  0.22672872403E+02 -0.14752081368E+02  0.22397957709E+01  0.27142213120E+02  0.51100000000E-03 0. -1.
        -11    1    4    4    0    0 -0.13342467812E+02 -0.14712916769E+02  0.37282513829E+01  0.20208691838E+02  0.51100000000E-03 0.  1.
         12    1    4    4    0    0 -0.31627010481E+01 -0.62315508627E+01  0.62671639803E+00  0.70162438325E+01  0.00000000000E+00 0. -1.
</event>
<event>
 8    1  0.1290800E-006  0.9118800E+02  0.7816164E-02  0.1184000E+00
        -11   -1    0    0    0    0  0.00000000000E+00  0.00000000000E+00  0.45593999997E+02  0.45594000000E+02  0.51100000000E-03 0.  1.
         11   -1    0    0    0    0 -0.00000000000E+00 -0.00000000000E+00 -0.45593999997E+02  0.45594000000E+02  0.51100000000E-03 0. -1.
         23    2    1    2    0    0  0.35527136788E-14  0.71054273576E-14  0.00000000000E+00  0.91188000000E+02  0.91188000000E+02 0.  0.
    9900012    2    3    3    0    0  0.11155977301E+02  0.33744842782E+02  0.96233755474E+01  0.54367087452E+02  0.40000007465E+02 0.  0.
        -12    1    3    3    0    0 -0.11155977301E+02 -0.33744842782E+02 -0.96233755474E+01  0.36820912548E+02  0.00000000000E+00 0.  1.
         11    1    4    4    0    0  0.78474777184E+01  0.28031834448E+02  0.15798081699E+02  0.33120175644E+02  0.51100000000E-03 0. -1.
        -11    1    4    4    0    0 -0.44212978132E+01  0.24735253979E+01 -0.10615134599E+02  0.11762112270E+02  0.51100000000E-03 0.  1.
         12    1    4    4    0    0  0.77297973963E+01  0.32394829353E+01  0.44404284475E+01  0.94847995378E+01  0.00000000000E+00 0. -1.
</event>
<event>
 8    1  0.1290800E-006  0.9118800E+02  0.7816164E-02  0.1184000E+00
        -11   -1    0    0    0    0  0.00000000000E+00  0.00000000000E+00  0.45593999997E+02  0.45594000000E+02  0.51100000000E-03 0. -1.
         11   -1    0    0    0    0 -0.00000000000E+00 -0.00000000000E+00 -0.45593999997E+02  0.45594000000E+02  0.51100000000E-03 0.  1.
         23    2    1    2    0    0  0.00000000000E+00 -0.49960036108E-15  0.17763568394E-14  0.91188000000E+02  0.91188000000E+02 0.  0.
    9900012    2    3    3    0    0 -0.34933696581E+02 -0.46242230655E+00 -0.11627559730E+02  0.54367120916E+02  0.40000083752E+02 0.  0.
         12    1    3    3    0    0  0.34933696581E+02  0.46242230655E+00  0.11627559730E+02  0.36820879084E+02  0.00000000000E+00 0. -1.
         11    1    4    4    0    0 -0.22297668182E+02 -0.32341890724E+01 -0.22129866844E+01  0.22639419066E+02  0.51100000000E-03 0. -1.
        -11    1    4    4    0    0  0.12877534045E+01 -0.56064436402E+01  0.67078978603E+01  0.88366516898E+01  0.51100000000E-03 0.  1.
        -12    1    4    4    0    0 -0.13923781804E+02  0.83782104061E+01 -0.16122470906E+02  0.22891050161E+02  0.00000000000E+00 0.  1.
</event>
<event>
 8    1  0.1290800E-006  0.9118800E+02  0.7816164E-02  0.1184000E+00
        -11   -1    0    0    0    0  0.00000000000E+00  0.00000000000E+00  0.45593999997E+02  0.45594000000E+02  0.51100000000E-03 0.  1.
         11   -1    0    0    0    0 -0.00000000000E+00 -0.00000000000E+00 -0.45593999997E+02  0.45594000000E+02  0.51100000000E-03 0. -1.
         23    2    1    2    0    0  0.66613381478E-15  0.00000000000E+00  0.00000000000E+00  0.91188000000E+02  0.91188000000E+02 0.  0.
    9900012    2    3    3    0    0  0.18366436940E+01 -0.35865344178E+02  0.81293020331E+01  0.54367058613E+02  0.39999941721E+02 0.  0.
         12    1    3    3    0    0 -0.18366436940E+01  0.35865344178E+02 -0.81293020331E+01  0.36820941387E+02  0.00000000000E+00 0. -1.
         11    1    4    4    0    0  0.41341794227E+01 -0.51981898863E+01  0.14429740591E+02  0.15884899476E+02  0.51100000000E-03 0. -1.
        -11    1    4    4    0    0  0.30522528615E+01  0.23035258022E+01  0.16217875800E+01  0.41536338149E+01  0.51100000000E-03 0.  1.
        -12    1    4    4    0    0 -0.53497885903E+01 -0.32970680094E+02 -0.79222261377E+01  0.34328525322E+02  0.00000000000E+00 0.  1.
</event>
<event>
 8    1  0.1290800E-006  0.9118800E+02  0.7816164E-02  0.1184000E+00
        -11   -1    0    0    0    0  0.00000000000E+00  0.00000000000E+00  0.45593999997E+02  0.45594000000E+02  0.51100000000E-03 0. -1.
         11   -1    0    0    0    0 -0.00000000000E+00 -0.00000000000E+00 -0.45593999997E+02  0.45594000000E+02  0.51100000000E-03 0.  1.
         23    2    1    2    0    0 -0.17763568394E-14  0.00000000000E+00  0.35527136788E-14  0.91188000000E+02  0.91188000000E+02 0.  0.
    9900012    2    3    3    0    0 -0.11982609385E+02 -0.28244485405E+02 -0.20357945359E+02  0.54367084440E+02  0.40000000597E+02 0.  0.
        -12    1    3    3    0    0  0.11982609385E+02  0.28244485405E+02  0.20357945359E+02  0.36820915560E+02  0.00000000000E+00 0.  1.
         11    1    4    4    0    0 -0.73171796020E+01 -0.16513667513E+02  0.51534794639E+01  0.18782989190E+02  0.51100000000E-03 0. -1.
        -11    1    4    4    0    0  0.64341077183E+01  0.19534550385E+00 -0.15711774676E+01  0.66260471544E+01  0.51100000000E-03 0.  1.
        -12    1    4    4    0    0 -0.11099537501E+02 -0.11926163396E+02 -0.23940247355E+02  0.28958048095E+02  0.00000000000E+00 0.  1.
</event>
<event>
 8    1  0.1290800E-006  0.9118800E+02  0.7816164E-02  0.1184000E+00
        -11   -1    0    0    0    0  0.00000000000E+00  0.00000000000E+00  0.45593999997E+02  0.45594000000E+02  0.51100000000E-03 0.  1.
         11   -1    0    0    0    0 -0.00000000000E+00 -0.00000000000E+00 -0.45593999997E+02  0.45594000000E+02  0.51100000000E-03 0. -1.
         23    2    1    2    0    0  0.00000000000E+00  0.13322676296E-14  0.00000000000E+00  0.91188000000E+02  0.91188000000E+02 0.  0.
    9900012    2    3    3    0    0 -0.44133774037E+01 -0.16411501539E+01  0.36518617176E+02  0.54367072874E+02  0.39999974231E+02 0.  0.
         12    1    3    3    0    0  0.44133774037E+01  0.16411501539E+01 -0.36518617176E+02  0.36820927126E+02  0.00000000000E+00 0. -1.
         11    1    4    4    0    0 -0.16637050548E+00 -0.11507982385E+02  0.14112314355E+02  0.18210402369E+02  0.51100000000E-03 0. -1.
        -11    1    4    4    0    0 -0.14783688183E+02  0.56852626012E+01  0.18045267639E+02  0.24010650378E+02  0.51100000000E-03 0.  1.
         12    1    4    4    0    0  0.10536681285E+02  0.41815696299E+01  0.43610351818E+01  0.12146020127E+02  0.00000000000E+00 0. -1.
</event>
<event>
 8    1  0.1290800E-006  0.9118800E+02  0.7816164E-02  0.1184000E+00
        -11   -1    0    0    0    0  0.00000000000E+00  0.00000000000E+00  0.45593999997E+02  0.45594000000E+02  0.51100000000E-03 0.  1.
         11   -1    0    0    0    0 -0.00000000000E+00 -0.00000000000E+00 -0.45593999997E+02  0.45594000000E+02  0.51100000000E-03 0. -1.
         23    2    1    2    0    0  0.35527136788E-14  0.17763568394E-14 -0.35527136788E-14  0.91188000000E+02  0.91188000000E+02 0.  0.
    9900012    2    3    3    0    0 -0.17082057723E+02 -0.91206017119E+01 -0.31317748550E+02  0.54367035240E+02  0.39999888435E+02 0.  0.
        -12    1    3    3    0    0  0.17082057723E+02  0.91206017119E+01  0.31317748550E+02  0.36820964760E+02  0.00000000000E+00 0.  1.
         11    1    4    4    0    0 -0.91003246709E+01  0.55301614466E+01 -0.34567242563E+02  0.36170331121E+02  0.51100000000E-03 0. -1.
        -11    1    4    4    0    0 -0.83849409942E+01 -0.13406016308E+02  0.13225229236E+01  0.15867500618E+02  0.51100000000E-03 0.  1.
         12    1    4    4    0    0  0.40320794261E+00 -0.12447468505E+01  0.19269710890E+01  0.23292035001E+01  0.00000000000E+00 0. -1.
</event>
<event>
 8    1  0.1290800E-006  0.9118800E+02  0.7816164E-02  0.1184000E+00
        -11   -1    0    0    0    0  0.00000000000E+00  0.00000000000E+00  0.45593999997E+02  0.45594000000E+02  0.51100000000E-03 0. -1.
         11   -1    0    0    0    0 -0.00000000000E+00 -0.00000000000E+00 -0.45593999997E+02  0.45594000000E+02  0.51100000000E-03 0.  1.
         23    2    1    2    0    0  0.00000000000E+00  0.88817841970E-15  0.17763568394E-14  0.91188000000E+02  0.91188000000E+02 0.  0.
    9900012    2    3    3    0    0  0.33589994353E+02 -0.42815502067E+01 -0.14462340644E+02  0.54367099824E+02  0.40000035670E+02 0.  0.
         12    1    3    3    0    0 -0.33589994353E+02  0.42815502067E+01  0.14462340644E+02  0.36820900176E+02  0.00000000000E+00 0. -1.
         11    1    4    4    0    0  0.10567856576E+02 -0.27418837763E+01  0.64758719930E+01  0.12693874018E+02  0.51100000000E-03 0. -1.
        -11    1    4    4    0    0  0.97121581106E+01 -0.13895654484E+02 -0.54593073971E+01  0.17810650360E+02  0.51100000000E-03 0.  1.
        -12    1    4    4    0    0  0.13309979667E+02  0.12355988054E+02 -0.15478905240E+02  0.23862575447E+02  0.00000000000E+00 0.  1.
</event>
<event>
 8    1  0.1290800E-006  0.9118800E+02  0.7816164E-02  0.1184000E+00
        -11   -1    0    0    0    0  0.00000000000E+00  0.00000000000E+00  0.45593999997E+02  0.45594000000E+02  0.51100000000E-03 0.  1.
         11   -1    0    0    0    0 -0.00000000000E+00 -0.00000000000E+00 -0.45593999997E+02  0.45594000000E+02  0.51100000000E-03 0. -1.
         23    2    1    2    0    0 -0.22204460493E-15  0.00000000000E+00 -0.55511151231E-15  0.91188000000E+02  0.91188000000E+02 0.  0.
    9900012    2    3    3    0    0  0.73824372503E+00 -0.36806568079E+02  0.71729739595E+00  0.54367041660E+02  0.39999903071E+02 0.  0.
         12    1    3    3    0    0 -0.73824372503E+00  0.36806568079E+02 -0.71729739595E+00  0.36820958340E+02  0.00000000000E+00 0. -1.
         11    1    4    4    0    0  0.74026584303E+01  0.72155295123E-01 -0.10568281674E+02  0.12903221924E+02  0.51100000000E-03 0. -1.
        -11    1    4    4    0    0  0.10013002803E+01 -0.93753857458E+01  0.86420443899E+01  0.12790050494E+02  0.51100000000E-03 0.  1.
         12    1    4    4    0    0 -0.76657149855E+01 -0.27503337628E+02  0.26435346797E+01  0.28673769242E+02  0.00000000000E+00 0. -1.
</event>
<event>
 8    1  0.1290800E-006  0.9118800E+02  0.7816164E-02  0.1184000E+00
        -11   -1    0    0    0    0  0.00000000000E+00  0.00000000000E+00  0.45593999997E+02  0.45594000000E+02  0.51100000000E-03 0. -1.
         11   -1    0    0    0    0 -0.00000000000E+00 -0.00000000000E+00 -0.45593999997E+02  0.45594000000E+02  0.51100000000E-03 0.  1.
         23    2    1    2    0    0  0.35527136788E-14  0.17763568394E-14 -0.71054273576E-14  0.91188000000E+02  0.91188000000E+02 0.  0.
    9900012    2    3    3    0    0  0.88452277506E+01  0.15121460469E+02 -0.32386455253E+02  0.54367094192E+02  0.40000022828E+02 0.  0.
         12    1    3    3    0    0 -0.88452277506E+01 -0.15121460469E+02  0.32386455253E+02  0.36820905808E+02  0.00000000000E+00 0. -1.
         11    1    4    4    0    0 -0.83333298136E+01  0.44471665260E+01 -0.29237798178E+01  0.98878796805E+01  0.51100000000E-03 0. -1.
        -11    1    4    4    0    0 -0.24687668688E+01  0.29223091363E+01  0.35953249403E+01  0.52498630676E+01  0.51100000000E-03 0.  1.
        -12    1    4    4    0    0  0.19647324433E+02  0.77519848065E+01 -0.33058000376E+02  0.39229351443E+02  0.00000000000E+00 0.  1.
</event>
<event>
 8    1  0.1290800E-006  0.9118800E+02  0.7816164E-02  0.1184000E+00
        -11   -1    0    0    0    0  0.00000000000E+00  0.00000000000E+00  0.45593999997E+02  0.45594000000E+02  0.51100000000E-03 0.  1.
         11   -1    0    0    0    0 -0.00000000000E+00 -0.00000000000E+00 -0.45593999997E+02  0.45594000000E+02  0.51100000000E-03 0. -1.
         23    2    1    2    0    0  0.00000000000E+00  0.35527136788E-14  0.11102230246E-14  0.91188000000E+02  0.91188000000E+02 0.  0.
    9900012    2    3    3    0    0 -0.28417394719E+02 -0.23353001628E+02  0.16939479369E+01  0.54367075687E+02  0.39999980644E+02 0.  0.
         12    1    3    3    0    0  0.28417394719E+02  0.23353001628E+02 -0.16939479369E+01  0.36820924313E+02  0.00000000000E+00 0. -1.
         11    1    4    4    0    0  0.62753450647E+01 -0.33330178097E+01  0.55744251669E+01  0.90312335593E+01  0.51100000000E-03 0. -1.
        -11    1    4    4    0    0 -0.58495238427E+01 -0.10553737947E+02  0.59142977294E+01  0.13437902803E+02  0.51100000000E-03 0.  1.
         12    1    4    4    0    0 -0.28843215941E+02 -0.94662458712E+01 -0.97947749594E+01  0.31897939325E+02  0.00000000000E+00 0. -1.
</event>
<event>
 8    1  0.1290800E-006  0.9118800E+02  0.7816164E-02  0.1184000E+00
        -11   -1    0    0    0    0  0.00000000000E+00  0.00000000000E+00  0.45593999997E+02  0.45594000000E+02  0.51100000000E-03 0. -1.
         11   -1    0    0    0    0 -0.00000000000E+00 -0.00000000000E+00 -0.45593999997E+02  0.45594000000E+02  0.51100000000E-03 0.  1.
         23    2    1    2    0    0 -0.71054273576E-14  0.00000000000E+00  0.00000000000E+00  0.91188000000E+02  0.91188000000E+02 0.  0.
    9900012    2    3    3    0    0  0.35206537167E+02 -0.49107102317E+01 -0.96002293603E+01  0.54367085589E+02  0.40000003218E+02 0.  0.
         12    1    3    3    0    0 -0.35206537167E+02  0.49107102317E+01  0.96002293603E+01  0.36820914411E+02  0.00000000000E+00 0. -1.
         11    1    4    4    0    0 -0.77882304530E+01 -0.44591945454E+00 -0.61312067555E+00  0.78250428096E+01  0.51100000000E-03 0. -1.
        -11    1    4    4    0    0  0.33885144315E+02  0.22547166632E+01 -0.40794877667E+01  0.34204224493E+02  0.51100000000E-03 0.  1.
         12    1    4    4    0    0  0.91096233050E+01 -0.67195074403E+01 -0.49076209180E+01  0.12337818287E+02  0.00000000000E+00 0. -1.
</event>
<event>
 8    1  0.1290800E-006  0.9118800E+02  0.7816164E-02  0.1184000E+00
        -11   -1    0    0    0    0  0.00000000000E+00  0.00000000000E+00  0.45593999997E+02  0.45594000000E+02  0.51100000000E-03 0.  1.
         11   -1    0    0    0    0 -0.00000000000E+00 -0.00000000000E+00 -0.45593999997E+02  0.45594000000E+02  0.51100000000E-03 0. -1.
         23    2    1    2    0    0  0.00000000000E+00  0.71054273576E-14  0.00000000000E+00  0.91188000000E+02  0.91188000000E+02 0.  0.
    9900012    2    3    3    0    0  0.18149134218E+02 -0.31786711552E+02  0.39992578137E+01  0.54367079761E+02  0.39999989932E+02 0.  0.
        -12    1    3    3    0    0 -0.18149134218E+02  0.31786711552E+02 -0.39992578137E+01  0.36820920239E+02  0.00000000000E+00 0.  1.
         11    1    4    4    0    0  0.61771740443E+01 -0.71966550347E+00  0.13437804311E+02  0.14807092306E+02  0.51100000000E-03 0.  1.
        -11    1    4    4    0    0 -0.24031906089E+01 -0.14429996491E+02  0.20176528196E+01  0.14767228819E+02  0.51100000000E-03 0. -1.
        -12    1    4    4    0    0  0.14375150783E+02 -0.16637049558E+02 -0.11456199317E+02  0.24792758636E+02  0.00000000000E+00 0.  1.
</event>
<event>
 8    1  0.1290800E-006  0.9118800E+02  0.7816164E-02  0.1184000E+00
        -11   -1    0    0    0    0  0.00000000000E+00  0.00000000000E+00  0.45593999997E+02  0.45594000000E+02  0.51100000000E-03 0. -1.
         11   -1    0    0    0    0 -0.00000000000E+00 -0.00000000000E+00 -0.45593999997E+02  0.45594000000E+02  0.51100000000E-03 0.  1.
         23    2    1    2    0    0  0.00000000000E+00  0.71054273576E-14  0.33306690739E-15  0.91188000000E+02  0.91188000000E+02 0.  0.
    9900012    2    3    3    0    0  0.20739112254E+02  0.30416920739E+02 -0.69110738038E+00  0.54367116337E+02  0.40000073313E+02 0.  0.
        -12    1    3    3    0    0 -0.20739112254E+02 -0.30416920739E+02  0.69110738038E+00  0.36820883663E+02  0.00000000000E+00 0.  1.
         11    1    4    4    0    0 -0.13488370391E+01  0.13676094793E+02  0.29551817349E+01  0.14056600922E+02  0.51100000000E-03 0. -1.
        -11    1    4    4    0    0  0.17056053846E+02  0.13577022392E+02 -0.15703946344E+02  0.26867423413E+02  0.51100000000E-03 0.  1.
        -12    1    4    4    0    0  0.50318954469E+01  0.31638035538E+01  0.12057657228E+02  0.13443092001E+02  0.00000000000E+00 0.  1.
</event>
<event>
 8    1  0.1290800E-006  0.9118800E+02  0.7816164E-02  0.1184000E+00
        -11   -1    0    0    0    0  0.00000000000E+00  0.00000000000E+00  0.45593999997E+02  0.45594000000E+02  0.51100000000E-03 0.  1.
         11   -1    0    0    0    0 -0.00000000000E+00 -0.00000000000E+00 -0.45593999997E+02  0.45594000000E+02  0.51100000000E-03 0. -1.
         23    2    1    2    0    0 -0.35527136788E-14 -0.35527136788E-14  0.00000000000E+00  0.91188000000E+02  0.91188000000E+02 0.  0.
    9900012    2    3    3    0    0  0.17060122424E+02  0.28374319945E+02 -0.16113033012E+02  0.54367086889E+02  0.40000006181E+02 0.  0.
        -12    1    3    3    0    0 -0.17060122424E+02 -0.28374319945E+02  0.16113033012E+02  0.36820913111E+02  0.00000000000E+00 0.  1.
         11    1    4    4    0    0  0.16938276122E+02  0.17614798647E+02 -0.12253620062E+02  0.27337474906E+02  0.51100000000E-03 0. -1.
        -11    1    4    4    0    0 -0.11117346866E+02  0.68130924264E+00 -0.42683585780E+01  0.11928053858E+02  0.51100000000E-03 0.  1.
        -12    1    4    4    0    0  0.11239193168E+02  0.10078212056E+02  0.40894562795E+00  0.15101558126E+02  0.00000000000E+00 0.  1.
</event>
<event>
 8    1  0.1290800E-006  0.9118800E+02  0.7816164E-02  0.1184000E+00
        -11   -1    0    0    0    0  0.00000000000E+00  0.00000000000E+00  0.45593999997E+02  0.45594000000E+02  0.51100000000E-03 0. -1.
         11   -1    0    0    0    0 -0.00000000000E+00 -0.00000000000E+00 -0.45593999997E+02  0.45594000000E+02  0.51100000000E-03 0.  1.
         23    2    1    2    0    0 -0.17763568394E-14  0.35527136788E-14 -0.71054273576E-14  0.91188000000E+02  0.91188000000E+02 0.  0.
    9900012    2    3    3    0    0  0.25528647223E+01 -0.75077114541E+01  0.35956800903E+02  0.54367158337E+02  0.40000169061E+02 0.  0.
        -12    1    3    3    0    0 -0.25528647223E+01  0.75077114541E+01 -0.35956800903E+02  0.36820841663E+02  0.00000000000E+00 0.  1.
         11    1    4    4    0    0  0.92420094462E-01  0.20634505164E+01  0.54310138357E+01  0.58105319079E+01  0.51100000000E-03 0. -1.
        -11    1    4    4    0    0 -0.47097404218E+01  0.12923978240E+02  0.14705687015E+02  0.20136238458E+02  0.51100000000E-03 0.  1.
        -12    1    4    4    0    0  0.71701850496E+01 -0.22495140211E+02  0.15820100053E+02  0.28420387971E+02  0.00000000000E+00 0.  1.
</event>
<event>
 8    1  0.1290800E-006  0.9118800E+02  0.7816164E-02  0.1184000E+00
        -11   -1    0    0    0    0  0.00000000000E+00  0.00000000000E+00  0.45593999997E+02  0.45594000000E+02  0.51100000000E-03 0.  1.
         11   -1    0    0    0    0 -0.00000000000E+00 -0.00000000000E+00 -0.45593999997E+02  0.45594000000E+02  0.51100000000E-03 0. -1.
         23    2    1    2    0    0  0.00000000000E+00  0.17763568394E-14  0.00000000000E+00  0.91188000000E+02  0.91188000000E+02 0.  0.
    9900012    2    3    3    0    0 -0.26900255836E+02  0.87093408617E+01 -0.23586088579E+02  0.54367082619E+02  0.39999996447E+02 0.  0.
        -12    1    3    3    0    0  0.26900255836E+02 -0.87093408617E+01  0.23586088579E+02  0.36820917381E+02  0.00000000000E+00 0.  1.
         11    1    4    4    0    0 -0.18267693723E+02  0.88977596475E+01 -0.86104432055E+01  0.22068495490E+02  0.51100000000E-03 0. -1.
        -11    1    4    4    0    0 -0.43954637335E+01 -0.35430648956E+01 -0.22408473776E+02  0.23108723624E+02  0.51100000000E-03 0.  1.
        -12    1    4    4    0    0 -0.42370983793E+01  0.33546461098E+01  0.74328284024E+01  0.91898635059E+01  0.00000000000E+00 0.  1.
</event>
<event>
 8    1  0.1290800E-006  0.9118800E+02  0.7816164E-02  0.1184000E+00
        -11   -1    0    0    0    0  0.00000000000E+00  0.00000000000E+00  0.45593999997E+02  0.45594000000E+02  0.51100000000E-03 0.  1.
         11   -1    0    0    0    0 -0.00000000000E+00 -0.00000000000E+00 -0.45593999997E+02  0.45594000000E+02  0.51100000000E-03 0. -1.
         23    2    1    2    0    0  0.00000000000E+00 -0.17763568394E-14 -0.35527136788E-14  0.91188000000E+02  0.91188000000E+02 0.  0.
    9900012    2    3    3    0    0 -0.18498371286E+02 -0.86656280285E+01 -0.30634903983E+02  0.54367079433E+02  0.39999989184E+02 0.  0.
        -12    1    3    3    0    0  0.18498371286E+02  0.86656280285E+01  0.30634903983E+02  0.36820920567E+02  0.00000000000E+00 0.  1.
         11    1    4    4    0    0 -0.12583984955E+00  0.62071225190E+01 -0.27678670495E+01  0.67974476017E+01  0.51100000000E-03 0. -1.
        -11    1    4    4    0    0 -0.27255400207E+01 -0.89050523849E+01  0.50819238522E+01  0.10609169462E+02  0.51100000000E-03 0.  1.
         12    1    4    4    0    0 -0.15646991415E+02 -0.59676981626E+01 -0.32948960785E+02  0.36960462369E+02  0.00000000000E+00 0. -1.
</event>
<event>
 8    1  0.1290800E-006  0.9118800E+02  0.7816164E-02  0.1184000E+00
        -11   -1    0    0    0    0  0.00000000000E+00  0.00000000000E+00  0.45593999997E+02  0.45594000000E+02  0.51100000000E-03 0.  1.
         11   -1    0    0    0    0 -0.00000000000E+00 -0.00000000000E+00 -0.45593999997E+02  0.45594000000E+02  0.51100000000E-03 0. -1.
         23    2    1    2    0    0 -0.35527136788E-14  0.00000000000E+00  0.00000000000E+00  0.91188000000E+02  0.91188000000E+02 0.  0.
    9900012    2    3    3    0    0  0.23289928047E+02 -0.21391088084E+02 -0.18862147126E+02  0.54367082140E+02  0.39999995355E+02 0.  0.
        -12    1    3    3    0    0 -0.23289928047E+02  0.21391088084E+02  0.18862147126E+02  0.36820917860E+02  0.00000000000E+00 0.  1.
         11    1    4    4    0    0  0.79084072496E+01 -0.94757178873E+01 -0.10983435613E+02  0.16521743032E+02  0.51100000000E-03 0. -1.
        -11    1    4    4    0    0  0.35382174791E+01 -0.55558118894E+01 -0.19182355355E+02  0.20281735279E+02  0.51100000000E-03 0.  1.
        -12    1    4    4    0    0  0.11843303318E+02 -0.63595583070E+01  0.11303643842E+02  0.17563603829E+02  0.00000000000E+00 0.  1.
</event>
<event>
 8    1  0.1290800E-006  0.9118800E+02  0.7816164E-02  0.1184000E+00
        -11   -1    0    0    0    0  0.00000000000E+00  0.00000000000E+00  0.45593999997E+02  0.45594000000E+02  0.51100000000E-03 0.  1.
         11   -1    0    0    0    0 -0.00000000000E+00 -0.00000000000E+00 -0.45593999997E+02  0.45594000000E+02  0.51100000000E-03 0. -1.
         23    2    1    2    0    0  0.35527136788E-14  0.00000000000E+00 -0.35527136788E-14  0.91188000000E+02  0.91188000000E+02 0.  0.
    9900012    2    3    3    0    0  0.31166913763E+02  0.28991702930E+01 -0.19390721902E+02  0.54367057620E+02  0.39999939456E+02 0.  0.
        -12    1    3    3    0    0 -0.31166913763E+02 -0.28991702930E+01  0.19390721902E+02  0.36820942380E+02  0.00000000000E+00 0.  1.
         11    1    4    4    0    0  0.23452892337E+01 -0.11438154129E+02 -0.77949430618E+01  0.14038977494E+02  0.51100000000E-03 0. -1.
        -11    1    4    4    0    0 -0.20475651372E+01  0.45783291010E+01  0.17475729078E+01  0.53110857344E+01  0.51100000000E-03 0.  1.
        -12    1    4    4    0    0  0.30869189666E+02  0.97589953214E+01 -0.13343351748E+02  0.35016994391E+02  0.00000000000E+00 0.  1.
</event>
<event>
 8    1  0.1290800E-006  0.9118800E+02  0.7816164E-02  0.1184000E+00
        -11   -1    0    0    0    0  0.00000000000E+00  0.00000000000E+00  0.45593999997E+02  0.45594000000E+02  0.51100000000E-03 0. -1.
         11   -1    0    0    0    0 -0.00000000000E+00 -0.00000000000E+00 -0.45593999997E+02  0.45594000000E+02  0.51100000000E-03 0.  1.
         23    2    1    2    0    0 -0.17763568394E-14  0.22204460493E-15  0.71054273576E-14  0.91188000000E+02  0.91188000000E+02 0.  0.
    9900012    2    3    3    0    0 -0.12554698309E+02  0.97723954497E+00  0.34600554423E+02  0.54367166045E+02  0.40000186633E+02 0.  0.
        -12    1    3    3    0    0  0.12554698309E+02 -0.97723954497E+00 -0.34600554423E+02  0.36820833955E+02  0.00000000000E+00 0.  1.
         11    1    4    4    0    0 -0.35997275018E+01 -0.34023465146E+01  0.42736202646E+01  0.65420050688E+01  0.51100000000E-03 0.  1.
        -11    1    4    4    0    0  0.82710036341E+01  0.40631867096E+01 -0.35047823315E+01  0.98591321527E+01  0.51100000000E-03 0. -1.
         12    1    4    4    0    0 -0.17225974441E+02  0.31639934994E+00  0.33831716490E+02  0.37966028824E+02  0.00000000000E+00 0. -1.
</event>
<event>
 8    1  0.1290800E-006  0.9118800E+02  0.7816164E-02  0.1184000E+00
        -11   -1    0    0    0    0  0.00000000000E+00  0.00000000000E+00  0.45593999997E+02  0.45594000000E+02  0.51100000000E-03 0. -1.
         11   -1    0    0    0    0 -0.00000000000E+00 -0.00000000000E+00 -0.45593999997E+02  0.45594000000E+02  0.51100000000E-03 0.  1.
         23    2    1    2    0    0  0.00000000000E+00 -0.35527136788E-14  0.00000000000E+00  0.91188000000E+02  0.91188000000E+02 0.  0.
    9900012    2    3    3    0    0 -0.27701263145E+02  0.12629923319E+02 -0.20710119632E+02  0.54367027742E+02  0.39999871343E+02 0.  0.
         12    1    3    3    0    0  0.27701263145E+02 -0.12629923319E+02  0.20710119632E+02  0.36820972258E+02  0.00000000000E+00 0. -1.
         11    1    4    4    0    0 -0.10264190258E+02  0.71713916667E+00  0.58528865568E+01  0.11837405609E+02  0.51100000000E-03 0. -1.
        -11    1    4    4    0    0 -0.56826962317E+01 -0.57133166790E+01  0.60111006011E+00  0.80806161585E+01  0.51100000000E-03 0.  1.
        -12    1    4    4    0    0 -0.11754376655E+02  0.17626100832E+02 -0.27164116249E+02  0.34449005975E+02  0.00000000000E+00 0.  1.
</event>
<event>
 8    1  0.1290800E-006  0.9118800E+02  0.7816164E-02  0.1184000E+00
        -11   -1    0    0    0    0  0.00000000000E+00  0.00000000000E+00  0.45593999997E+02  0.45594000000E+02  0.51100000000E-03 0.  1.
         11   -1    0    0    0    0 -0.00000000000E+00 -0.00000000000E+00 -0.45593999997E+02  0.45594000000E+02  0.51100000000E-03 0. -1.
         23    2    1    2    0    0 -0.88817841970E-15  0.00000000000E+00  0.00000000000E+00  0.91188000000E+02  0.91188000000E+02 0.  0.
    9900012    2    3    3    0    0 -0.53503795675E+01 -0.21908000168E+02 -0.29106653403E+02  0.54367023571E+02  0.39999861835E+02 0.  0.
        -12    1    3    3    0    0  0.53503795675E+01  0.21908000168E+02  0.29106653403E+02  0.36820976429E+02  0.00000000000E+00 0.  1.
         11    1    4    4    0    0  0.53663360779E+01 -0.15737303776E+02 -0.17784005072E+02  0.24346070108E+02  0.51100000000E-03 0. -1.
        -11    1    4    4    0    0 -0.54974368636E+01 -0.10563766952E+02  0.45469573236E+01  0.12747148914E+02  0.51100000000E-03 0.  1.
        -12    1    4    4    0    0 -0.52192787818E+01  0.43930705603E+01 -0.15869605655E+02  0.17273804549E+02  0.00000000000E+00 0.  1.
</event>
<event>
 8    1  0.1290800E-006  0.9118800E+02  0.7816164E-02  0.1184000E+00
        -11   -1    0    0    0    0  0.00000000000E+00  0.00000000000E+00  0.45593999997E+02  0.45594000000E+02  0.51100000000E-03 0.  1.
         11   -1    0    0    0    0 -0.00000000000E+00 -0.00000000000E+00 -0.45593999997E+02  0.45594000000E+02  0.51100000000E-03 0. -1.
         23    2    1    2    0    0  0.00000000000E+00  0.00000000000E+00  0.00000000000E+00  0.91188000000E+02  0.91188000000E+02 0.  0.
    9900012    2    3    3    0    0  0.27011323396E+02 -0.24906620316E+02  0.24141602348E+01  0.54367088865E+02  0.40000010685E+02 0.  0.
        -12    1    3    3    0    0 -0.27011323396E+02  0.24906620316E+02 -0.24141602348E+01  0.36820911135E+02  0.00000000000E+00 0.  1.
         11    1    4    4    0    0  0.18851305372E+02 -0.24682955702E+02  0.38389298967E+01  0.31294686441E+02  0.51100000000E-03 0. -1.
        -11    1    4    4    0    0 -0.53179086977E+01  0.13833253251E+01  0.55515798861E+01  0.78111318876E+01  0.51100000000E-03 0.  1.
        -12    1    4    4    0    0  0.13477926721E+02 -0.16069899399E+01 -0.69763495480E+01  0.15261270536E+02  0.00000000000E+00 0.  1.
</event>
<event>
 8    1  0.1290800E-006  0.9118800E+02  0.7816164E-02  0.1184000E+00
        -11   -1    0    0    0    0  0.00000000000E+00  0.00000000000E+00  0.45593999997E+02  0.45594000000E+02  0.51100000000E-03 0.  1.
         11   -1    0    0    0    0 -0.00000000000E+00 -0.00000000000E+00 -0.45593999997E+02  0.45594000000E+02  0.51100000000E-03 0. -1.
         23    2    1    2    0    0  0.00000000000E+00  0.35527136788E-14  0.00000000000E+00  0.91188000000E+02  0.91188000000E+02 0.  0.
    9900012    2    3    3    0    0 -0.11126949759E+02  0.27353153707E+02 -0.21994893543E+02  0.54367090578E+02  0.40000014591E+02 0.  0.
        -12    1    3    3    0    0  0.11126949759E+02 -0.27353153707E+02  0.21994893543E+02  0.36820909422E+02  0.00000000000E+00 0.  1.
         11    1    4    4    0    0 -0.43094624627E+01  0.17101716894E+02 -0.70698595242E+01  0.19000607922E+02  0.51100000000E-03 0. -1.
        -11    1    4    4    0    0  0.16580532288E+01  0.14829346356E+02  0.28101848547E+01  0.15184063786E+02  0.51100000000E-03 0.  1.
         12    1    4    4    0    0 -0.84755405248E+01 -0.45779095433E+01 -0.17735218874E+02  0.20182418871E+02  0.00000000000E+00 0. -1.
</event>
<event>
 8    1  0.1290800E-006  0.9118800E+02  0.7816164E-02  0.1184000E+00
        -11   -1    0    0    0    0  0.00000000000E+00  0.00000000000E+00  0.45593999997E+02  0.45594000000E+02  0.51100000000E-03 0. -1.
         11   -1    0    0    0    0 -0.00000000000E+00 -0.00000000000E+00 -0.45593999997E+02  0.45594000000E+02  0.51100000000E-03 0.  1.
         23    2    1    2    0    0  0.00000000000E+00  0.21094237468E-14  0.17763568394E-14  0.91188000000E+02  0.91188000000E+02 0.  0.
    9900012    2    3    3    0    0 -0.35528381778E+02  0.51506326653E+00 -0.96565712784E+01  0.54367074282E+02  0.39999977440E+02 0.  0.
         12    1    3    3    0    0  0.35528381778E+02 -0.51506326653E+00  0.96565712784E+01  0.36820925718E+02  0.00000000000E+00 0. -1.
         11    1    4    4    0    0 -0.67855909079E+01  0.15675677618E+02  0.57533004896E+01  0.18024194282E+02  0.51100000000E-03 0. -1.
        -11    1    4    4    0    0 -0.76623035853E+01 -0.15478335718E+01 -0.34404627830E+01  0.85406949028E+01  0.51100000000E-03 0.  1.
         12    1    4    4    0    0 -0.21080487284E+02 -0.13612780779E+02 -0.11969408985E+02  0.27802185097E+02  0.00000000000E+00 0. -1.
</event>
<event>
 8    1  0.1290800E-006  0.9118800E+02  0.7816164E-02  0.1184000E+00
        -11   -1    0    0    0    0  0.00000000000E+00  0.00000000000E+00  0.45593999997E+02  0.45594000000E+02  0.51100000000E-03 0.  1.
         11   -1    0    0    0    0 -0.00000000000E+00 -0.00000000000E+00 -0.45593999997E+02  0.45594000000E+02  0.51100000000E-03 0. -1.
         23    2    1    2    0    0 -0.17763568394E-14  0.88817841970E-15  0.00000000000E+00  0.91188000000E+02  0.91188000000E+02 0.  0.
    9900012    2    3    3    0    0  0.52637734191E+01 -0.74516727956E+01  0.35672753600E+02  0.54367080845E+02  0.39999992402E+02 0.  0.
         12    1    3    3    0    0 -0.52637734191E+01  0.74516727956E+01 -0.35672753600E+02  0.36820919155E+02  0.00000000000E+00 0. -1.
         11    1    4    4    0    0 -0.11760905029E+02 -0.96921971557E+01  0.27666161162E+01  0.15489084473E+02  0.51100000000E-03 0. -1.
        -11    1    4    4    0    0  0.10189887210E+01  0.39956723488E+01  0.37624505949E+01  0.55820937176E+01  0.51100000000E-03 0.  1.
         12    1    4    4    0    0  0.16005689727E+02 -0.17551479886E+01  0.29143686888E+02  0.33295902654E+02  0.00000000000E+00 0. -1.
</event>
<event>
 8    1  0.1290800E-006  0.9118800E+02  0.7816164E-02  0.1184000E+00
        -11   -1    0    0    0    0  0.00000000000E+00  0.00000000000E+00  0.45593999997E+02  0.45594000000E+02  0.51100000000E-03 0.  1.
         11   -1    0    0    0    0 -0.00000000000E+00 -0.00000000000E+00 -0.45593999997E+02  0.45594000000E+02  0.51100000000E-03 0. -1.
         23    2    1    2    0    0 -0.17763568394E-14 -0.35527136788E-14  0.00000000000E+00  0.91188000000E+02  0.91188000000E+02 0.  0.
    9900012    2    3    3    0    0 -0.97906063868E+01 -0.24364089937E+02  0.25813113456E+02  0.54367059244E+02  0.39999943159E+02 0.  0.
         12    1    3    3    0    0  0.97906063868E+01  0.24364089937E+02 -0.25813113456E+02  0.36820940756E+02  0.00000000000E+00 0. -1.
         11    1    4    4    0    0 -0.74555603061E+01 -0.32664381625E+01 -0.53266395349E+01  0.97276968879E+01  0.51100000000E-03 0. -1.
        -11    1    4    4    0    0  0.99766564485E+01 -0.69583597934E+01  0.18080184975E+02  0.21790950734E+02  0.51100000000E-03 0.  1.
         12    1    4    4    0    0 -0.12311702529E+02 -0.14139291981E+02  0.13059568016E+02  0.22848411622E+02  0.00000000000E+00 0. -1.
</event>
<event>
 8    1  0.1290800E-006  0.9118800E+02  0.7816164E-02  0.1184000E+00
        -11   -1    0    0    0    0  0.00000000000E+00  0.00000000000E+00  0.45593999997E+02  0.45594000000E+02  0.51100000000E-03 0. -1.
         11   -1    0    0    0    0 -0.00000000000E+00 -0.00000000000E+00 -0.45593999997E+02  0.45594000000E+02  0.51100000000E-03 0.  1.
         23    2    1    2    0    0  0.00000000000E+00  0.00000000000E+00 -0.19081958236E-15  0.91188000000E+02  0.91188000000E+02 0.  0.
    9900012    2    3    3    0    0 -0.24059002914E+02 -0.27873621986E+02 -0.17636605238E-01  0.54367153529E+02  0.40000158099E+02 0.  0.
        -12    1    3    3    0    0  0.24059002914E+02  0.27873621986E+02  0.17636605238E-01  0.36820846471E+02  0.00000000000E+00 0.  1.
         11    1    4    4    0    0 -0.77689846557E+01 -0.19971563975E+02  0.79866475099E+00  0.21444308238E+02  0.51100000000E-03 0. -1.
        -11    1    4    4    0    0  0.60036845029E+01 -0.75580652914E+01 -0.39073231217E+01  0.10413248907E+02  0.51100000000E-03 0.  1.
         12    1    4    4    0    0 -0.22293702761E+02 -0.34399271955E+00  0.30910217654E+01  0.22509596384E+02  0.00000000000E+00 0. -1.
</event>
<event>
 8    1  0.1290800E-006  0.9118800E+02  0.7816164E-02  0.1184000E+00
        -11   -1    0    0    0    0  0.00000000000E+00  0.00000000000E+00  0.45593999997E+02  0.45594000000E+02  0.51100000000E-03 0. -1.
         11   -1    0    0    0    0 -0.00000000000E+00 -0.00000000000E+00 -0.45593999997E+02  0.45594000000E+02  0.51100000000E-03 0.  1.
         23    2    1    2    0    0  0.71054273576E-14  0.00000000000E+00  0.17763568394E-14  0.91188000000E+02  0.91188000000E+02 0.  0.
    9900012    2    3    3    0    0  0.34066082149E+02  0.67064402076E+01  0.12259967727E+02  0.54367067069E+02  0.39999960996E+02 0.  0.
        -12    1    3    3    0    0 -0.34066082149E+02 -0.67064402076E+01 -0.12259967727E+02  0.36820932931E+02  0.00000000000E+00 0.  1.
         11    1    4    4    0    0  0.37675754331E+02  0.36644617770E+01  0.17956412014E+02  0.41896580734E+02  0.51100000000E-03 0. -1.
        -11    1    4    4    0    0  0.51806096342E+00 -0.30756553475E+01 -0.36721215622E+01  0.48179373187E+01  0.51100000000E-03 0.  1.
         12    1    4    4    0    0 -0.41277331446E+01  0.61176337781E+01 -0.20243227245E+01  0.76525490164E+01  0.00000000000E+00 0. -1.
</event>
<event>
 8    1  0.1290800E-006  0.9118800E+02  0.7816164E-02  0.1184000E+00
        -11   -1    0    0    0    0  0.00000000000E+00  0.00000000000E+00  0.45593999997E+02  0.45594000000E+02  0.51100000000E-03 0. -1.
         11   -1    0    0    0    0 -0.00000000000E+00 -0.00000000000E+00 -0.45593999997E+02  0.45594000000E+02  0.51100000000E-03 0.  1.
         23    2    1    2    0    0  0.00000000000E+00  0.00000000000E+00 -0.35527136788E-14  0.91188000000E+02  0.91188000000E+02 0.  0.
    9900012    2    3    3    0    0  0.24107237758E+02  0.20070905200E+02  0.19281545724E+02  0.54367107108E+02  0.40000052275E+02 0.  0.
        -12    1    3    3    0    0 -0.24107237758E+02 -0.20070905200E+02 -0.19281545724E+02  0.36820892892E+02  0.00000000000E+00 0.  1.
         11    1    4    4    0    0  0.43259811182E+01  0.24999624852E+02  0.32510564802E+01  0.25578598943E+02  0.51100000000E-03 0. -1.
        -11    1    4    4    0    0  0.12146830489E+02 -0.73098098912E+01  0.47308076902E+01  0.14945211716E+02  0.51100000000E-03 0.  1.
         12    1    4    4    0    0  0.76344261508E+01  0.23810902387E+01  0.11299681553E+02  0.13843296449E+02  0.00000000000E+00 0. -1.
</event>
<event>
 8    1  0.1290800E-006  0.9118800E+02  0.7816164E-02  0.1184000E+00
        -11   -1    0    0    0    0  0.00000000000E+00  0.00000000000E+00  0.45593999997E+02  0.45594000000E+02  0.51100000000E-03 0.  1.
         11   -1    0    0    0    0 -0.00000000000E+00 -0.00000000000E+00 -0.45593999997E+02  0.45594000000E+02  0.51100000000E-03 0. -1.
         23    2    1    2    0    0 -0.31086244690E-14  0.00000000000E+00  0.00000000000E+00  0.91188000000E+02  0.91188000000E+02 0.  0.
    9900012    2    3    3    0    0 -0.31721778366E+01  0.17674424443E+02 -0.32145492861E+02  0.54367072487E+02  0.39999973348E+02 0.  0.
        -12    1    3    3    0    0  0.31721778366E+01 -0.17674424443E+02  0.32145492861E+02  0.36820927513E+02  0.00000000000E+00 0.  1.
         11    1    4    4    0    0  0.48521320625E+01  0.13007075888E+02 -0.86600335878E+01  0.16362255062E+02  0.51100000000E-03 0. -1.
        -11    1    4    4    0    0 -0.17089321510E+02  0.66283206847E+01 -0.80991834921E+01  0.20039369208E+02  0.51100000000E-03 0.  1.
        -12    1    4    4    0    0  0.90650116108E+01 -0.19609721295E+01 -0.15386275781E+02  0.17965448216E+02  0.00000000000E+00 0.  1.
</event>
<event>
 8    1  0.1290800E-006  0.9118800E+02  0.7816164E-02  0.1184000E+00
        -11   -1    0    0    0    0  0.00000000000E+00  0.00000000000E+00  0.45593999997E+02  0.45594000000E+02  0.51100000000E-03 0.  1.
         11   -1    0    0    0    0 -0.00000000000E+00 -0.00000000000E+00 -0.45593999997E+02  0.45594000000E+02  0.51100000000E-03 0. -1.
         23    2    1    2    0    0 -0.88817841970E-15  0.71054273576E-14 -0.88817841970E-15  0.91188000000E+02  0.91188000000E+02 0.  0.
    9900012    2    3    3    0    0  0.50757448161E+01 -0.36000302468E+02  0.58303857442E+01  0.54367104287E+02  0.40000045842E+02 0.  0.
        -12    1    3    3    0    0 -0.50757448161E+01  0.36000302468E+02 -0.58303857442E+01  0.36820895713E+02  0.00000000000E+00 0.  1.
         11    1    4    4    0    0 -0.27657594085E+01 -0.45530526382E+01 -0.19775862371E+01  0.56824784222E+01  0.51100000000E-03 0. -1.
        -11    1    4    4    0    0  0.78982608865E+01  0.41121420274E+01  0.95822274273E+01  0.13080952558E+02  0.51100000000E-03 0.  1.
        -12    1    4    4    0    0 -0.56756661847E-01 -0.35559391857E+02 -0.17742554460E+01  0.35603673307E+02  0.00000000000E+00 0.  1.
</event>
<event>
 8    1  0.1290800E-006  0.9118800E+02  0.7816164E-02  0.1184000E+00
        -11   -1    0    0    0    0  0.00000000000E+00  0.00000000000E+00  0.45593999997E+02  0.45594000000E+02  0.51100000000E-03 0. -1.
         11   -1    0    0    0    0 -0.00000000000E+00 -0.00000000000E+00 -0.45593999997E+02  0.45594000000E+02  0.51100000000E-03 0.  1.
         23    2    1    2    0    0  0.00000000000E+00  0.00000000000E+00  0.35527136788E-14  0.91188000000E+02  0.91188000000E+02 0.  0.
    9900012    2    3    3    0    0  0.25988384952E+02  0.16028022128E+02 -0.20578816482E+02  0.54367063923E+02  0.39999953826E+02 0.  0.
         12    1    3    3    0    0 -0.25988384952E+02 -0.16028022128E+02  0.20578816482E+02  0.36820936077E+02  0.00000000000E+00 0. -1.
         11    1    4    4    0    0  0.14919309248E+02  0.78677923955E+01  0.51172641228E+01  0.17625956371E+02  0.51100000000E-03 0. -1.
        -11    1    4    4    0    0  0.17644621972E+02  0.50286691568E+01 -0.21759373135E+02  0.28462089128E+02  0.51100000000E-03 0.  1.
         12    1    4    4    0    0 -0.65755462683E+01  0.31315605762E+01 -0.39367074698E+01  0.82790184244E+01  0.00000000000E+00 0. -1.
</event>
<event>
 8    1  0.1290800E-006  0.9118800E+02  0.7816164E-02  0.1184000E+00
        -11   -1    0    0    0    0  0.00000000000E+00  0.00000000000E+00  0.45593999997E+02  0.45594000000E+02  0.51100000000E-03 0. -1.
         11   -1    0    0    0    0 -0.00000000000E+00 -0.00000000000E+00 -0.45593999997E+02  0.45594000000E+02  0.51100000000E-03 0.  1.
         23    2    1    2    0    0 -0.17763568394E-14  0.00000000000E+00  0.17763568394E-14  0.91188000000E+02  0.91188000000E+02 0.  0.
    9900012    2    3    3    0    0 -0.14598325462E+02  0.33509108403E+02 -0.44509519344E+01  0.54367049097E+02  0.39999920027E+02 0.  0.
         12    1    3    3    0    0  0.14598325462E+02 -0.33509108403E+02  0.44509519344E+01  0.36820950903E+02  0.00000000000E+00 0. -1.
         11    1    4    4    0    0 -0.48248612947E+01  0.17100835812E+02  0.14242269917E+02  0.22771915261E+02  0.51100000000E-03 0. -1.
        -11    1    4    4    0    0 -0.28963671875E+01  0.16401923723E+02 -0.18244038654E+02  0.24703380161E+02  0.51100000000E-03 0.  1.
        -12    1    4    4    0    0 -0.68770969796E+01  0.63488676149E-02 -0.44918319735E+00  0.68917536752E+01  0.00000000000E+00 0.  1.
</event>
<event>
 8    1  0.1290800E-006  0.9118800E+02  0.7816164E-02  0.1184000E+00
        -11   -1    0    0    0    0  0.00000000000E+00  0.00000000000E+00  0.45593999997E+02  0.45594000000E+02  0.51100000000E-03 0.  1.
         11   -1    0    0    0    0 -0.00000000000E+00 -0.00000000000E+00 -0.45593999997E+02  0.45594000000E+02  0.51100000000E-03 0. -1.
         23    2    1    2    0    0  0.00000000000E+00  0.00000000000E+00 -0.17763568394E-14  0.91188000000E+02  0.91188000000E+02 0.  0.
    9900012    2    3    3    0    0  0.23927633176E+02 -0.26403954063E+02  0.92779701208E+01  0.54367066428E+02  0.39999959535E+02 0.  0.
        -12    1    3    3    0    0 -0.23927633176E+02  0.26403954063E+02 -0.92779701208E+01  0.36820933572E+02  0.00000000000E+00 0.  1.
         11    1    4    4    0    0  0.17979568009E+02 -0.24453313674E+02 -0.10454379752E+02  0.32101767423E+02  0.51100000000E-03 0. -1.
        -11    1    4    4    0    0  0.69831546413E+01  0.54035533275E+00  0.10307209765E+02  0.12461741693E+02  0.51100000000E-03 0.  1.
         12    1    4    4    0    0 -0.10350894741E+01 -0.24909957215E+01  0.94251401080E+01  0.98035573115E+01  0.00000000000E+00 0. -1.
</event>
<event>
 8    1  0.1290800E-006  0.9118800E+02  0.7816164E-02  0.1184000E+00
        -11   -1    0    0    0    0  0.00000000000E+00  0.00000000000E+00  0.45593999997E+02  0.45594000000E+02  0.51100000000E-03 0. -1.
         11   -1    0    0    0    0 -0.00000000000E+00 -0.00000000000E+00 -0.45593999997E+02  0.45594000000E+02  0.51100000000E-03 0.  1.
         23    2    1    2    0    0  0.00000000000E+00 -0.35527136788E-14  0.00000000000E+00  0.91188000000E+02  0.91188000000E+02 0.  0.
    9900012    2    3    3    0    0  0.20335338595E+02 -0.26069720096E+02  0.16205861805E+02  0.54366997046E+02  0.39999801366E+02 0.  0.
        -12    1    3    3    0    0 -0.20335338595E+02  0.26069720096E+02 -0.16205861805E+02  0.36821002954E+02  0.00000000000E+00 0.  1.
         11    1    4    4    0    0 -0.27386878008E+01 -0.19787100965E+02  0.83137848266E+01  0.21636746379E+02  0.51100000000E-03 0. -1.
        -11    1    4    4    0    0  0.55444386727E+01 -0.12079213245E+02  0.28888843660E+01  0.13601244280E+02  0.51100000000E-03 0.  1.
        -12    1    4    4    0    0  0.17529587723E+02  0.57965941135E+01  0.50031926125E+01  0.19129006388E+02  0.00000000000E+00 0.  1.
</event>
<event>
 8    1  0.1290800E-006  0.9118800E+02  0.7816164E-02  0.1184000E+00
        -11   -1    0    0    0    0  0.00000000000E+00  0.00000000000E+00  0.45593999997E+02  0.45594000000E+02  0.51100000000E-03 0. -1.
         11   -1    0    0    0    0 -0.00000000000E+00 -0.00000000000E+00 -0.45593999997E+02  0.45594000000E+02  0.51100000000E-03 0.  1.
         23    2    1    2    0    0  0.00000000000E+00  0.00000000000E+00 -0.35527136788E-14  0.91188000000E+02  0.91188000000E+02 0.  0.
    9900012    2    3    3    0    0  0.13587916755E+02 -0.19152154044E+02 -0.28360977450E+02  0.54367061280E+02  0.39999947801E+02 0.  0.
         12    1    3    3    0    0 -0.13587916755E+02  0.19152154044E+02  0.28360977450E+02  0.36820938720E+02  0.00000000000E+00 0. -1.
         11    1    4    4    0    0  0.15566011689E+02 -0.99605749830E+01 -0.21734623982E+00  0.18481369363E+02  0.51100000000E-03 0. -1.
        -11    1    4    4    0    0 -0.19221892175E+01 -0.44136185507E+01  0.21106534413E+01  0.52563959430E+01  0.51100000000E-03 0.  1.
        -12    1    4    4    0    0 -0.55905716738E-01 -0.47779605107E+01 -0.30254284652E+02  0.30629295974E+02  0.00000000000E+00 0.  1.
</event>
<event>
 8    1  0.1290800E-006  0.9118800E+02  0.7816164E-02  0.1184000E+00
        -11   -1    0    0    0    0  0.00000000000E+00  0.00000000000E+00  0.45593999997E+02  0.45594000000E+02  0.51100000000E-03 0.  1.
         11   -1    0    0    0    0 -0.00000000000E+00 -0.00000000000E+00 -0.45593999997E+02  0.45594000000E+02  0.51100000000E-03 0. -1.
         23    2    1    2    0    0  0.88817841970E-15  0.17763568394E-14  0.71054273576E-14  0.91188000000E+02  0.91188000000E+02 0.  0.
    9900012    2    3    3    0    0 -0.23488913140E+01  0.82123122812E+01  0.35816471940E+02  0.54367095263E+02  0.40000025272E+02 0.  0.
         12    1    3    3    0    0  0.23488913140E+01 -0.82123122812E+01 -0.35816471940E+02  0.36820904737E+02  0.00000000000E+00 0. -1.
         11    1    4    4    0    0 -0.16942425294E+02  0.38057838616E+01  0.49414554818E+01  0.18054023047E+02  0.51100000000E-03 0. -1.
        -11    1    4    4    0    0  0.80091125554E+01  0.65954285162E+01  0.10383472686E+02  0.14678626179E+02  0.51100000000E-03 0.  1.
         12    1    4    4    0    0  0.65844214248E+01 -0.21889000965E+01  0.20491543772E+02  0.21634446036E+02  0.00000000000E+00 0. -1.
</event>
<event>
 8    1  0.1290800E-006  0.9118800E+02  0.7816164E-02  0.1184000E+00
        -11   -1    0    0    0    0  0.00000000000E+00  0.00000000000E+00  0.45593999997E+02  0.45594000000E+02  0.51100000000E-03 0.  1.
         11   -1    0    0    0    0 -0.00000000000E+00 -0.00000000000E+00 -0.45593999997E+02  0.45594000000E+02  0.51100000000E-03 0. -1.
         23    2    1    2    0    0  0.00000000000E+00  0.88817841970E-15 -0.35527136788E-14  0.91188000000E+02  0.91188000000E+02 0.  0.
    9900012    2    3    3    0    0  0.22646087685E+02  0.78858893716E+01 -0.27941859936E+02  0.54367081010E+02  0.39999992778E+02 0.  0.
        -12    1    3    3    0    0 -0.22646087685E+02 -0.78858893716E+01  0.27941859936E+02  0.36820918990E+02  0.00000000000E+00 0.  1.
         11    1    4    4    0    0 -0.19952640899E+00  0.76954427863E+01 -0.13644822571E+02  0.15666551430E+02  0.51100000000E-03 0. -1.
        -11    1    4    4    0    0  0.26961404227E+02 -0.47174426551E+01 -0.16461065569E+02  0.31939603364E+02  0.51100000000E-03 0.  1.
         12    1    4    4    0    0 -0.41157901336E+01  0.49078892404E+01  0.21640282041E+01  0.67609262153E+01  0.00000000000E+00 0. -1.
</event>
<event>
 8    1  0.1290800E-006  0.9118800E+02  0.7816164E-02  0.1184000E+00
        -11   -1    0    0    0    0  0.00000000000E+00  0.00000000000E+00  0.45593999997E+02  0.45594000000E+02  0.51100000000E-03 0. -1.
         11   -1    0    0    0    0 -0.00000000000E+00 -0.00000000000E+00 -0.45593999997E+02  0.45594000000E+02  0.51100000000E-03 0.  1.
         23    2    1    2    0    0 -0.71054273576E-14 -0.35527136788E-14 -0.66613381478E-15  0.91188000000E+02  0.91188000000E+02 0.  0.
    9900012    2    3    3    0    0  0.32536999741E+02  0.17146140527E+02 -0.17703778101E+01  0.54367072191E+02  0.39999972673E+02 0.  0.
        -12    1    3    3    0    0 -0.32536999741E+02 -0.17146140527E+02  0.17703778101E+01  0.36820927809E+02  0.00000000000E+00 0.  1.
         11    1    4    4    0    0  0.14647711374E+02  0.20982523973E+02  0.12478396755E+02  0.28469846269E+02  0.51100000000E-03 0. -1.
        -11    1    4    4    0    0  0.37995053630E+01  0.39340331465E+01 -0.27600501539E+01  0.61262333382E+01  0.51100000000E-03 0.  1.
         12    1    4    4    0    0  0.14089783004E+02 -0.77704165921E+01 -0.11488724411E+02  0.19770992583E+02  0.00000000000E+00 0. -1.
</event>
<event>
 8    1  0.1290800E-006  0.9118800E+02  0.7816164E-02  0.1184000E+00
        -11   -1    0    0    0    0  0.00000000000E+00  0.00000000000E+00  0.45593999997E+02  0.45594000000E+02  0.51100000000E-03 0. -1.
         11   -1    0    0    0    0 -0.00000000000E+00 -0.00000000000E+00 -0.45593999997E+02  0.45594000000E+02  0.51100000000E-03 0.  1.
         23    2    1    2    0    0 -0.51070259133E-14 -0.35527136788E-14  0.00000000000E+00  0.91188000000E+02  0.91188000000E+02 0.  0.
    9900012    2    3    3    0    0  0.42419252868E+00 -0.29423872664E+02 -0.22132189326E+02  0.54367108834E+02  0.40000056210E+02 0.  0.
         12    1    3    3    0    0 -0.42419252868E+00  0.29423872664E+02  0.22132189326E+02  0.36820891166E+02  0.00000000000E+00 0. -1.
         11    1    4    4    0    0 -0.15896055286E+02 -0.10159125454E+02 -0.46409799086E+01  0.19427586016E+02  0.51100000000E-03 0. -1.
        -11    1    4    4    0    0  0.17345604590E+02 -0.98755639485E+01 -0.78650722538E+01  0.21453580674E+02  0.51100000000E-03 0.  1.
         12    1    4    4    0    0 -0.10253567760E+01 -0.93891832618E+01 -0.96261371639E+01  0.13485942145E+02  0.00000000000E+00 0. -1.
</event>
<event>
 8    1  0.1290800E-006  0.9118800E+02  0.7816164E-02  0.1184000E+00
        -11   -1    0    0    0    0  0.00000000000E+00  0.00000000000E+00  0.45593999997E+02  0.45594000000E+02  0.51100000000E-03 0.  1.
         11   -1    0    0    0    0 -0.00000000000E+00 -0.00000000000E+00 -0.45593999997E+02  0.45594000000E+02  0.51100000000E-03 0. -1.
         23    2    1    2    0    0  0.17763568394E-14  0.00000000000E+00  0.00000000000E+00  0.91188000000E+02  0.91188000000E+02 0.  0.
    9900012    2    3    3    0    0  0.15696335752E+02 -0.24763770678E+02 -0.22274711186E+02  0.54367054159E+02  0.39999931566E+02 0.  0.
        -12    1    3    3    0    0 -0.15696335752E+02  0.24763770678E+02  0.22274711186E+02  0.36820945841E+02  0.00000000000E+00 0.  1.
         11    1    4    4    0    0  0.22247327939E+02 -0.26322620459E+02 -0.15041685170E+02  0.37604205101E+02  0.51100000000E-03 0. -1.
        -11    1    4    4    0    0 -0.52234892276E+01  0.75973568392E+00 -0.11266658134E+02  0.12441849693E+02  0.51100000000E-03 0.  1.
        -12    1    4    4    0    0 -0.13275029589E+01  0.79911409764E+00  0.40336321181E+01  0.43209993649E+01  0.00000000000E+00 0.  1.
</event>
<event>
 8    1  0.1290800E-006  0.9118800E+02  0.7816164E-02  0.1184000E+00
        -11   -1    0    0    0    0  0.00000000000E+00  0.00000000000E+00  0.45593999997E+02  0.45594000000E+02  0.51100000000E-03 0. -1.
         11   -1    0    0    0    0 -0.00000000000E+00 -0.00000000000E+00 -0.45593999997E+02  0.45594000000E+02  0.51100000000E-03 0.  1.
         23    2    1    2    0    0  0.00000000000E+00 -0.88817841970E-15 -0.35527136788E-14  0.91188000000E+02  0.91188000000E+02 0.  0.
    9900012    2    3    3    0    0  0.27815950899E+02  0.41756709360E+01 -0.23761657469E+02  0.54367085864E+02  0.40000003843E+02 0.  0.
         12    1    3    3    0    0 -0.27815950899E+02 -0.41756709360E+01  0.23761657469E+02  0.36820914136E+02  0.00000000000E+00 0. -1.
         11    1    4    4    0    0  0.19341719675E+02 -0.15970103727E+02 -0.11013745401E+02  0.27394322789E+02  0.51100000000E-03 0. -1.
        -11    1    4    4    0    0  0.84994169322E+01  0.81553125057E+01 -0.62307329748E+01  0.13325586063E+02  0.51100000000E-03 0.  1.
         12    1    4    4    0    0 -0.25185708184E-01  0.11990462158E+02 -0.65171790926E+01  0.13647177012E+02  0.00000000000E+00 0. -1.
</event>
<event>
 8    1  0.1290800E-006  0.9118800E+02  0.7816164E-02  0.1184000E+00
        -11   -1    0    0    0    0  0.00000000000E+00  0.00000000000E+00  0.45593999997E+02  0.45594000000E+02  0.51100000000E-03 0. -1.
         11   -1    0    0    0    0 -0.00000000000E+00 -0.00000000000E+00 -0.45593999997E+02  0.45594000000E+02  0.51100000000E-03 0.  1.
         23    2    1    2    0    0  0.35527136788E-14 -0.26645352591E-14  0.00000000000E+00  0.91188000000E+02  0.91188000000E+02 0.  0.
    9900012    2    3    3    0    0  0.23943240667E+02  0.37865801256E+01  0.27715759907E+02  0.54367077823E+02  0.39999985514E+02 0.  0.
        -12    1    3    3    0    0 -0.23943240667E+02 -0.37865801256E+01 -0.27715759907E+02  0.36820922177E+02  0.00000000000E+00 0.  1.
         11    1    4    4    0    0  0.34462714853E+00 -0.15644760535E+02  0.11877108351E+02  0.19645432118E+02  0.51100000000E-03 0. -1.
        -11    1    4    4    0    0  0.16940798123E+01  0.22583599590E+01  0.28646807443E+00  0.28376328750E+01  0.51100000000E-03 0.  1.
         12    1    4    4    0    0  0.21904533707E+02  0.17172980702E+02  0.15552183482E+02  0.31884012830E+02  0.00000000000E+00 0. -1.
</event>
<event>
 8    1  0.1290800E-006  0.9118800E+02  0.7816164E-02  0.1184000E+00
        -11   -1    0    0    0    0  0.00000000000E+00  0.00000000000E+00  0.45593999997E+02  0.45594000000E+02  0.51100000000E-03 0. -1.
         11   -1    0    0    0    0 -0.00000000000E+00 -0.00000000000E+00 -0.45593999997E+02  0.45594000000E+02  0.51100000000E-03 0.  1.
         23    2    1    2    0    0  0.22204460493E-15  0.00000000000E+00 -0.22204460493E-14  0.91188000000E+02  0.91188000000E+02 0.  0.
    9900012    2    3    3    0    0 -0.19395718965E+01  0.36667786968E+02 -0.27368684695E+01  0.54367095757E+02  0.40000026397E+02 0.  0.
        -12    1    3    3    0    0  0.19395718965E+01 -0.36667786968E+02  0.27368684695E+01  0.36820904243E+02  0.00000000000E+00 0.  1.
         11    1    4    4    0    0 -0.14542136938E+02  0.27372748361E+02  0.42011250470E+01  0.31279235148E+02  0.51100000000E-03 0. -1.
        -11    1    4    4    0    0 -0.35898162034E+00 -0.21870034976E+01  0.25211645468E+01  0.33568025017E+01  0.51100000000E-03 0.  1.
         12    1    4    4    0    0  0.12961546662E+02  0.11482042105E+02 -0.94591580634E+01  0.19731058107E+02  0.00000000000E+00 0. -1.
</event>
<event>
 8    1  0.1290800E-006  0.9118800E+02  0.7816164E-02  0.1184000E+00
        -11   -1    0    0    0    0  0.00000000000E+00  0.00000000000E+00  0.45593999997E+02  0.45594000000E+02  0.51100000000E-03 0. -1.
         11   -1    0    0    0    0 -0.00000000000E+00 -0.00000000000E+00 -0.45593999997E+02  0.45594000000E+02  0.51100000000E-03 0.  1.
         23    2    1    2    0    0  0.17763568394E-14  0.00000000000E+00  0.17763568394E-14  0.91188000000E+02  0.91188000000E+02 0.  0.
    9900012    2    3    3    0    0 -0.12837951342E+02 -0.31433470131E+02 -0.14244430720E+02  0.54367084128E+02  0.39999999886E+02 0.  0.
         12    1    3    3    0    0  0.12837951342E+02  0.31433470131E+02  0.14244430720E+02  0.36820915872E+02  0.00000000000E+00 0. -1.
         11    1    4    4    0    0 -0.11885648987E+02 -0.26525116920E+02 -0.19062608370E+02  0.34759653588E+02  0.51100000000E-03 0. -1.
        -11    1    4    4    0    0 -0.45396463217E+00 -0.40314813520E+01 -0.68147102508E+01  0.79309017043E+01  0.51100000000E-03 0.  1.
         12    1    4    4    0    0 -0.49833772259E+00 -0.87687185912E+00  0.11632887900E+02  0.11676528835E+02  0.00000000000E+00 0. -1.
</event>
<event>
 8    1  0.1290800E-006  0.9118800E+02  0.7816164E-02  0.1184000E+00
        -11   -1    0    0    0    0  0.00000000000E+00  0.00000000000E+00  0.45593999997E+02  0.45594000000E+02  0.51100000000E-03 0. -1.
         11   -1    0    0    0    0 -0.00000000000E+00 -0.00000000000E+00 -0.45593999997E+02  0.45594000000E+02  0.51100000000E-03 0.  1.
         23    2    1    2    0    0 -0.35527136788E-14  0.00000000000E+00 -0.17763568394E-14  0.91188000000E+02  0.91188000000E+02 0.  0.
    9900012    2    3    3    0    0 -0.30701384173E+02  0.17255564057E+02 -0.10745025533E+02  0.54367013392E+02  0.39999838630E+02 0.  0.
         12    1    3    3    0    0  0.30701384173E+02 -0.17255564057E+02  0.10745025533E+02  0.36820986608E+02  0.00000000000E+00 0. -1.
         11    1    4    4    0    0 -0.19705172743E+02 -0.20163262299E+01  0.53499929751E+01  0.20517841733E+02  0.51100000000E-03 0. -1.
        -11    1    4    4    0    0 -0.15698559960E+02  0.12961766527E+02 -0.16139463650E+02  0.25979500832E+02  0.51100000000E-03 0.  1.
        -12    1    4    4    0    0  0.47023485299E+01  0.63101237595E+01  0.44445141434E-01  0.78696708272E+01  0.00000000000E+00 0.  1.
</event>
<event>
 8    1  0.1290800E-006  0.9118800E+02  0.7816164E-02  0.1184000E+00
        -11   -1    0    0    0    0  0.00000000000E+00  0.00000000000E+00  0.45593999997E+02  0.45594000000E+02  0.51100000000E-03 0.  1.
         11   -1    0    0    0    0 -0.00000000000E+00 -0.00000000000E+00 -0.45593999997E+02  0.45594000000E+02  0.51100000000E-03 0. -1.
         23    2    1    2    0    0  0.00000000000E+00 -0.44408920985E-15 -0.71054273576E-14  0.91188000000E+02  0.91188000000E+02 0.  0.
    9900012    2    3    3    0    0 -0.16681944578E+02 -0.27410044672E+01 -0.32710609693E+02  0.54367022733E+02  0.39999859924E+02 0.  0.
        -12    1    3    3    0    0  0.16681944578E+02  0.27410044672E+01  0.32710609693E+02  0.36820977267E+02  0.00000000000E+00 0.  1.
         11    1    4    4    0    0 -0.16780678895E+01 -0.10039128397E+01  0.20393720825E+01  0.28253834401E+01  0.51100000000E-03 0. -1.
        -11    1    4    4    0    0 -0.15057294090E+02 -0.13316646310E+02 -0.66882698779E+01  0.21184620093E+02  0.51100000000E-03 0.  1.
         12    1    4    4    0    0  0.53417401528E-01  0.11579554683E+02 -0.28061711898E+02  0.30357019200E+02  0.00000000000E+00 0. -1.
</event>
<event>
 8    1  0.1290800E-006  0.9118800E+02  0.7816164E-02  0.1184000E+00
        -11   -1    0    0    0    0  0.00000000000E+00  0.00000000000E+00  0.45593999997E+02  0.45594000000E+02  0.51100000000E-03 0. -1.
         11   -1    0    0    0    0 -0.00000000000E+00 -0.00000000000E+00 -0.45593999997E+02  0.45594000000E+02  0.51100000000E-03 0.  1.
         23    2    1    2    0    0 -0.44408920985E-15  0.17763568394E-14  0.71054273576E-14  0.91188000000E+02  0.91188000000E+02 0.  0.
    9900012    2    3    3    0    0 -0.36190884388E+01  0.10154136896E+02  0.35207611453E+02  0.54367079296E+02  0.39999988872E+02 0.  0.
        -12    1    3    3    0    0  0.36190884388E+01 -0.10154136896E+02 -0.35207611453E+02  0.36820920704E+02  0.00000000000E+00 0.  1.
         11    1    4    4    0    0  0.89010415934E+01 -0.64347824034E+01  0.16906454980E+02  0.20160932178E+02  0.51100000000E-03 0.  1.
        -11    1    4    4    0    0 -0.26415408533E+01  0.12517613678E+02 -0.25258770623E+00  0.12795788021E+02  0.51100000000E-03 0. -1.
         12    1    4    4    0    0 -0.98785891789E+01  0.40713056214E+01  0.18553744179E+02  0.21410359098E+02  0.00000000000E+00 0. -1.
</event>
<event>
 8    1  0.1290800E-006  0.9118800E+02  0.7816164E-02  0.1184000E+00
        -11   -1    0    0    0    0  0.00000000000E+00  0.00000000000E+00  0.45593999997E+02  0.45594000000E+02  0.51100000000E-03 0.  1.
         11   -1    0    0    0    0 -0.00000000000E+00 -0.00000000000E+00 -0.45593999997E+02  0.45594000000E+02  0.51100000000E-03 0. -1.
         23    2    1    2    0    0  0.17763568394E-14 -0.35527136788E-14  0.00000000000E+00  0.91188000000E+02  0.91188000000E+02 0.  0.
    9900012    2    3    3    0    0 -0.90447286166E+01  0.29433716622E+02 -0.20189824747E+02  0.54367084568E+02  0.40000000890E+02 0.  0.
        -12    1    3    3    0    0  0.90447286166E+01 -0.29433716622E+02  0.20189824747E+02  0.36820915432E+02  0.00000000000E+00 0.  1.
         11    1    4    4    0    0 -0.29267196702E+01  0.20244873161E+01 -0.19034220980E+02  0.19364033813E+02  0.51100000000E-03 0. -1.
        -11    1    4    4    0    0  0.41296777998E+01  0.77603563409E+01  0.71558561382E+01  0.11335062708E+02  0.51100000000E-03 0.  1.
        -12    1    4    4    0    0 -0.10247686746E+02  0.19648872965E+02 -0.83114599048E+01  0.23667988047E+02  0.00000000000E+00 0.  1.
</event>
<event>
 8    1  0.1290800E-006  0.9118800E+02  0.7816164E-02  0.1184000E+00
        -11   -1    0    0    0    0  0.00000000000E+00  0.00000000000E+00  0.45593999997E+02  0.45594000000E+02  0.51100000000E-03 0. -1.
         11   -1    0    0    0    0 -0.00000000000E+00 -0.00000000000E+00 -0.45593999997E+02  0.45594000000E+02  0.51100000000E-03 0.  1.
         23    2    1    2    0    0  0.17763568394E-14  0.35527136788E-14  0.00000000000E+00  0.91188000000E+02  0.91188000000E+02 0.  0.
    9900012    2    3    3    0    0 -0.83321380505E+01  0.24458511211E+02  0.26232387868E+02  0.54367062092E+02  0.39999949652E+02 0.  0.
        -12    1    3    3    0    0  0.83321380505E+01 -0.24458511211E+02 -0.26232387868E+02  0.36820937908E+02  0.00000000000E+00 0.  1.
         11    1    4    4    0    0  0.13937680720E+02  0.10365233969E+02  0.19639963044E+02  0.26218794169E+02  0.51100000000E-03 0. -1.
        -11    1    4    4    0    0 -0.16114741122E+02  0.12311008646E+02  0.76100008447E+01  0.21660053750E+02  0.51100000000E-03 0.  1.
         12    1    4    4    0    0 -0.61550776482E+01  0.17822685956E+01 -0.10175760204E+01  0.64882141734E+01  0.00000000000E+00 0. -1.
</event>
<event>
 8    1  0.1290800E-006  0.9118800E+02  0.7816164E-02  0.1184000E+00
        -11   -1    0    0    0    0  0.00000000000E+00  0.00000000000E+00  0.45593999997E+02  0.45594000000E+02  0.51100000000E-03 0.  1.
         11   -1    0    0    0    0 -0.00000000000E+00 -0.00000000000E+00 -0.45593999997E+02  0.45594000000E+02  0.51100000000E-03 0. -1.
         23    2    1    2    0    0  0.00000000000E+00  0.88817841970E-15  0.00000000000E+00  0.91188000000E+02  0.91188000000E+02 0.  0.
    9900012    2    3    3    0    0 -0.17753344549E+02  0.79139431409E+00 -0.32248604974E+02  0.54367081076E+02  0.39999992928E+02 0.  0.
        -12    1    3    3    0    0  0.17753344549E+02 -0.79139431409E+00  0.32248604974E+02  0.36820918924E+02  0.00000000000E+00 0.  1.
         11    1    4    4    0    0 -0.16238185888E+02 -0.58005328173E+01 -0.15146957306E+02  0.22951147636E+02  0.51100000000E-03 0. -1.
        -11    1    4    4    0    0 -0.54197211444E+01 -0.71206712930E+01 -0.14325139615E+02  0.16890439965E+02  0.51100000000E-03 0.  1.
        -12    1    4    4    0    0  0.39045624836E+01  0.13712598424E+02 -0.27765080532E+01  0.14525493475E+02  0.00000000000E+00 0.  1.
</event>
<event>
 8    1  0.1290800E-006  0.9118800E+02  0.7816164E-02  0.1184000E+00
        -11   -1    0    0    0    0  0.00000000000E+00  0.00000000000E+00  0.45593999997E+02  0.45594000000E+02  0.51100000000E-03 0.  1.
         11   -1    0    0    0    0 -0.00000000000E+00 -0.00000000000E+00 -0.45593999997E+02  0.45594000000E+02  0.51100000000E-03 0. -1.
         23    2    1    2    0    0  0.00000000000E+00  0.88817841970E-15  0.00000000000E+00  0.91188000000E+02  0.91188000000E+02 0.  0.
    9900012    2    3    3    0    0 -0.13665874239E+02 -0.53198429119E+01  0.33774598224E+02  0.54367077517E+02  0.39999984816E+02 0.  0.
         12    1    3    3    0    0  0.13665874239E+02  0.53198429119E+01 -0.33774598224E+02  0.36820922483E+02  0.00000000000E+00 0. -1.
         11    1    4    4    0    0  0.61563991220E+01 -0.43449258088E+01  0.27869853218E+02  0.28870544663E+02  0.51100000000E-03 0. -1.
        -11    1    4    4    0    0 -0.19320796040E+01 -0.16535077338E+01  0.71118334978E+01  0.75528269796E+01  0.51100000000E-03 0.  1.
        -12    1    4    4    0    0 -0.17890193757E+02  0.67859063065E+00 -0.12070884927E+01  0.17943705875E+02  0.00000000000E+00 0.  1.
</event>
<event>
 8    1  0.1290800E-006  0.9118800E+02  0.7816164E-02  0.1184000E+00
        -11   -1    0    0    0    0  0.00000000000E+00  0.00000000000E+00  0.45593999997E+02  0.45594000000E+02  0.51100000000E-03 0.  1.
         11   -1    0    0    0    0 -0.00000000000E+00 -0.00000000000E+00 -0.45593999997E+02  0.45594000000E+02  0.51100000000E-03 0. -1.
         23    2    1    2    0    0  0.35527136788E-14  0.00000000000E+00  0.00000000000E+00  0.91188000000E+02  0.91188000000E+02 0.  0.
    9900012    2    3    3    0    0  0.15012219387E+02 -0.30520813285E+02  0.14102963634E+02  0.54367077174E+02  0.39999984033E+02 0.  0.
         12    1    3    3    0    0 -0.15012219387E+02  0.30520813285E+02 -0.14102963634E+02  0.36820922826E+02  0.00000000000E+00 0. -1.
         11    1    4    4    0    0  0.43110026895E+01  0.34289993622E+01 -0.60878640849E+01  0.82100469056E+01  0.51100000000E-03 0. -1.
        -11    1    4    4    0    0 -0.29047237993E+01 -0.17798475562E+02  0.17028648171E+02  0.24803185511E+02  0.51100000000E-03 0.  1.
        -12    1    4    4    0    0  0.13605940496E+02 -0.16151337085E+02  0.31621795477E+01  0.21353844757E+02  0.00000000000E+00 0.  1.
</event>
<event>
 8    1  0.1290800E-006  0.9118800E+02  0.7816164E-02  0.1184000E+00
        -11   -1    0    0    0    0  0.00000000000E+00  0.00000000000E+00  0.45593999997E+02  0.45594000000E+02  0.51100000000E-03 0.  1.
         11   -1    0    0    0    0 -0.00000000000E+00 -0.00000000000E+00 -0.45593999997E+02  0.45594000000E+02  0.51100000000E-03 0. -1.
         23    2    1    2    0    0 -0.71054273576E-14  0.00000000000E+00  0.88817841970E-15  0.91188000000E+02  0.91188000000E+02 0.  0.
    9900012    2    3    3    0    0  0.35555288279E+02 -0.82959007673E+01  0.47727929538E+01  0.54367081398E+02  0.39999993662E+02 0.  0.
         12    1    3    3    0    0 -0.35555288279E+02  0.82959007673E+01 -0.47727929538E+01  0.36820918602E+02  0.00000000000E+00 0. -1.
         11    1    4    4    0    0 -0.32953294243E+01 -0.91868809150E+00 -0.78978635942E+00  0.35109751607E+01  0.51100000000E-03 0. -1.
        -11    1    4    4    0    0  0.43299356238E+02 -0.35184898649E+01  0.10806457197E+01  0.43455515381E+02  0.51100000000E-03 0.  1.
        -12    1    4    4    0    0 -0.44487385348E+01 -0.38587228108E+01  0.44819335936E+01  0.74005908561E+01  0.00000000000E+00 0.  1.
</event>
<event>
 8    1  0.1290800E-006  0.9118800E+02  0.7816164E-02  0.1184000E+00
        -11   -1    0    0    0    0  0.00000000000E+00  0.00000000000E+00  0.45593999997E+02  0.45594000000E+02  0.51100000000E-03 0. -1.
         11   -1    0    0    0    0 -0.00000000000E+00 -0.00000000000E+00 -0.45593999997E+02  0.45594000000E+02  0.51100000000E-03 0.  1.
         23    2    1    2    0    0  0.17763568394E-14 -0.17763568394E-14  0.00000000000E+00  0.91188000000E+02  0.91188000000E+02 0.  0.
    9900012    2    3    3    0    0 -0.10364058610E+02  0.91458646742E+01  0.34127968337E+02  0.54367098676E+02  0.40000033051E+02 0.  0.
        -12    1    3    3    0    0  0.10364058610E+02 -0.91458646742E+01 -0.34127968337E+02  0.36820901324E+02  0.00000000000E+00 0.  1.
         11    1    4    4    0    0 -0.34894968643E+01 -0.46096713689E+01  0.57375853231E+01  0.81452774107E+01  0.51100000000E-03 0. -1.
        -11    1    4    4    0    0  0.61152830575E+01  0.15703787676E+01  0.27686649276E+02  0.28397417572E+02  0.51100000000E-03 0.  1.
        -12    1    4    4    0    0 -0.12989844803E+02  0.12185157276E+02  0.70373373773E+00  0.17824403693E+02  0.00000000000E+00 0.  1.
</event>
<event>
 8    1  0.1290800E-006  0.9118800E+02  0.7816164E-02  0.1184000E+00
        -11   -1    0    0    0    0  0.00000000000E+00  0.00000000000E+00  0.45593999997E+02  0.45594000000E+02  0.51100000000E-03 0.  1.
         11   -1    0    0    0    0 -0.00000000000E+00 -0.00000000000E+00 -0.45593999997E+02  0.45594000000E+02  0.51100000000E-03 0. -1.
         23    2    1    2    0    0  0.00000000000E+00  0.35527136788E-14 -0.35527136788E-14  0.91188000000E+02  0.91188000000E+02 0.  0.
    9900012    2    3    3    0    0  0.70809978287E+01 -0.27304854805E+02  0.23666064828E+02  0.54367105787E+02  0.40000049262E+02 0.  0.
         12    1    3    3    0    0 -0.70809978287E+01  0.27304854805E+02 -0.23666064828E+02  0.36820894213E+02  0.00000000000E+00 0. -1.
         11    1    4    4    0    0 -0.58525749997E+01 -0.30635231182E+01 -0.67132574660E+01  0.94183668483E+01  0.51100000000E-03 0. -1.
        -11    1    4    4    0    0 -0.12275610080E+01 -0.94567165200E+01  0.19634852779E+02  0.21828051614E+02  0.51100000000E-03 0.  1.
         12    1    4    4    0    0  0.14161133836E+02 -0.14784615167E+02  0.10744469516E+02  0.23120687324E+02  0.00000000000E+00 0. -1.
</event>
<event>
 8    1  0.1290800E-006  0.9118800E+02  0.7816164E-02  0.1184000E+00
        -11   -1    0    0    0    0  0.00000000000E+00  0.00000000000E+00  0.45593999997E+02  0.45594000000E+02  0.51100000000E-03 0.  1.
         11   -1    0    0    0    0 -0.00000000000E+00 -0.00000000000E+00 -0.45593999997E+02  0.45594000000E+02  0.51100000000E-03 0. -1.
         23    2    1    2    0    0  0.35527136788E-14 -0.35527136788E-14  0.00000000000E+00  0.91188000000E+02  0.91188000000E+02 0.  0.
    9900012    2    3    3    0    0  0.25174563733E+02 -0.24292103190E+02 -0.11485423072E+02  0.54367083666E+02  0.39999998832E+02 0.  0.
        -12    1    3    3    0    0 -0.25174563733E+02  0.24292103190E+02  0.11485423072E+02  0.36820916334E+02  0.00000000000E+00 0.  1.
         11    1    4    4    0    0  0.79286580937E+01 -0.73012791219E+01 -0.14938775360E+02  0.18421164608E+02  0.51100000000E-03 0. -1.
        -11    1    4    4    0    0  0.17806496494E+02 -0.87369330113E+01  0.12689590912E+02  0.23546359243E+02  0.51100000000E-03 0.  1.
        -12    1    4    4    0    0 -0.56059085443E+00 -0.82538910570E+01 -0.92362386238E+01  0.12399559815E+02  0.00000000000E+00 0.  1.
</event>
<event>
 8    1  0.1290800E-006  0.9118800E+02  0.7816164E-02  0.1184000E+00
        -11   -1    0    0    0    0  0.00000000000E+00  0.00000000000E+00  0.45593999997E+02  0.45594000000E+02  0.51100000000E-03 0.  1.
         11   -1    0    0    0    0 -0.00000000000E+00 -0.00000000000E+00 -0.45593999997E+02  0.45594000000E+02  0.51100000000E-03 0. -1.
         23    2    1    2    0    0  0.00000000000E+00  0.00000000000E+00  0.00000000000E+00  0.91188000000E+02  0.91188000000E+02 0.  0.
    9900012    2    3    3    0    0 -0.21147519782E+02 -0.29048762905E+02 -0.80456264383E+01  0.54367077632E+02  0.39999985077E+02 0.  0.
        -12    1    3    3    0    0  0.21147519782E+02  0.29048762905E+02  0.80456264383E+01  0.36820922368E+02  0.00000000000E+00 0.  1.
         11    1    4    4    0    0  0.14248975570E+01 -0.69926135269E+01 -0.38634897555E+01  0.81150188131E+01  0.51100000000E-03 0. -1.
        -11    1    4    4    0    0 -0.25661989032E+02 -0.24725102888E+02  0.52070394218E+01  0.36013631498E+02  0.51100000000E-03 0.  1.
        -12    1    4    4    0    0  0.30895716924E+01  0.26689535092E+01 -0.93891761046E+01  0.10238427321E+02  0.00000000000E+00 0.  1.
</event>
<event>
 8    1  0.1290800E-006  0.9118800E+02  0.7816164E-02  0.1184000E+00
        -11   -1    0    0    0    0  0.00000000000E+00  0.00000000000E+00  0.45593999997E+02  0.45594000000E+02  0.51100000000E-03 0.  1.
         11   -1    0    0    0    0 -0.00000000000E+00 -0.00000000000E+00 -0.45593999997E+02  0.45594000000E+02  0.51100000000E-03 0. -1.
         23    2    1    2    0    0 -0.28865798640E-14  0.88817841970E-15  0.00000000000E+00  0.91188000000E+02  0.91188000000E+02 0.  0.
    9900012    2    3    3    0    0  0.11841248238E+01 -0.25887112459E+01 -0.36710716667E+02  0.54367078016E+02  0.39999985953E+02 0.  0.
        -12    1    3    3    0    0 -0.11841248238E+01  0.25887112459E+01  0.36710716667E+02  0.36820921984E+02  0.00000000000E+00 0.  1.
         11    1    4    4    0    0 -0.56124680744E+00  0.38166509218E+01 -0.51330403718E+01  0.64210533371E+01  0.51100000000E-03 0. -1.
        -11    1    4    4    0    0  0.16224441376E+02 -0.42898347271E+01 -0.28375857122E+02  0.32967020605E+02  0.51100000000E-03 0.  1.
        -12    1    4    4    0    0 -0.14479069744E+02 -0.21155274406E+01 -0.32018191739E+01  0.14979004074E+02  0.00000000000E+00 0.  1.
</event>
<event>
 8    1  0.1290800E-006  0.9118800E+02  0.7816164E-02  0.1184000E+00
        -11   -1    0    0    0    0  0.00000000000E+00  0.00000000000E+00  0.45593999997E+02  0.45594000000E+02  0.51100000000E-03 0. -1.
         11   -1    0    0    0    0 -0.00000000000E+00 -0.00000000000E+00 -0.45593999997E+02  0.45594000000E+02  0.51100000000E-03 0.  1.
         23    2    1    2    0    0  0.00000000000E+00  0.00000000000E+00 -0.35527136788E-14  0.91188000000E+02  0.91188000000E+02 0.  0.
    9900012    2    3    3    0    0 -0.90688564432E+01  0.16508555767E+02 -0.31638662059E+02  0.54367061560E+02  0.39999948439E+02 0.  0.
         12    1    3    3    0    0  0.90688564432E+01 -0.16508555767E+02  0.31638662059E+02  0.36820938440E+02  0.00000000000E+00 0. -1.
         11    1    4    4    0    0  0.11262605844E+02  0.15493438859E+02 -0.80719998443E+01  0.20785815351E+02  0.51100000000E-03 0. -1.
        -11    1    4    4    0    0 -0.61072741067E+01  0.51371132675E+01 -0.36852033850E+01  0.87903045446E+01  0.51100000000E-03 0.  1.
         12    1    4    4    0    0 -0.14224188181E+02 -0.41219963592E+01 -0.19881458830E+02  0.24790941664E+02  0.00000000000E+00 0. -1.
</event>
<event>
 8    1  0.1290800E-006  0.9118800E+02  0.7816164E-02  0.1184000E+00
        -11   -1    0    0    0    0  0.00000000000E+00  0.00000000000E+00  0.45593999997E+02  0.45594000000E+02  0.51100000000E-03 0.  1.
         11   -1    0    0    0    0 -0.00000000000E+00 -0.00000000000E+00 -0.45593999997E+02  0.45594000000E+02  0.51100000000E-03 0. -1.
         23    2    1    2    0    0  0.00000000000E+00  0.00000000000E+00  0.00000000000E+00  0.91188000000E+02  0.91188000000E+02 0.  0.
    9900012    2    3    3    0    0 -0.10483590564E+02  0.22088038398E+02  0.27531658945E+02  0.54367090782E+02  0.40000015055E+02 0.  0.
         12    1    3    3    0    0  0.10483590564E+02 -0.22088038398E+02 -0.27531658945E+02  0.36820909218E+02  0.00000000000E+00 0. -1.
         11    1    4    4    0    0  0.11663228881E+02  0.94737001230E+01  0.46668224004E+01  0.15734075553E+02  0.51100000000E-03 0. -1.
        -11    1    4    4    0    0 -0.10527711976E+02  0.14578961441E+02  0.19167551405E+02  0.26282577181E+02  0.51100000000E-03 0.  1.
         12    1    4    4    0    0 -0.11619107469E+02 -0.19646231664E+01  0.36972851400E+01  0.12350438048E+02  0.00000000000E+00 0. -1.
</event>
<event>
 8    1  0.1290800E-006  0.9118800E+02  0.7816164E-02  0.1184000E+00
        -11   -1    0    0    0    0  0.00000000000E+00  0.00000000000E+00  0.45593999997E+02  0.45594000000E+02  0.51100000000E-03 0. -1.
         11   -1    0    0    0    0 -0.00000000000E+00 -0.00000000000E+00 -0.45593999997E+02  0.45594000000E+02  0.51100000000E-03 0.  1.
         23    2    1    2    0    0  0.35527136788E-14  0.00000000000E+00  0.00000000000E+00  0.91188000000E+02  0.91188000000E+02 0.  0.
    9900012    2    3    3    0    0 -0.28020356633E+02  0.93703485890E+01  0.21973522465E+02  0.54367088712E+02  0.40000010337E+02 0.  0.
        -12    1    3    3    0    0  0.28020356633E+02 -0.93703485890E+01 -0.21973522465E+02  0.36820911288E+02  0.00000000000E+00 0.  1.
         11    1    4    4    0    0 -0.12100625761E+02 -0.67853327342E+01 -0.13108601299E+01  0.13935000490E+02  0.51100000000E-03 0. -1.
        -11    1    4    4    0    0 -0.83864828453E+01 -0.16622614003E+01  0.18684583597E+02  0.20547746152E+02  0.51100000000E-03 0.  1.
        -12    1    4    4    0    0 -0.75332480274E+01  0.17817942723E+02  0.45997989983E+01  0.19884342070E+02  0.00000000000E+00 0.  1.
</event>
<event>
 8    1  0.1290800E-006  0.9118800E+02  0.7816164E-02  0.1184000E+00
        -11   -1    0    0    0    0  0.00000000000E+00  0.00000000000E+00  0.45593999997E+02  0.45594000000E+02  0.51100000000E-03 0. -1.
         11   -1    0    0    0    0 -0.00000000000E+00 -0.00000000000E+00 -0.45593999997E+02  0.45594000000E+02  0.51100000000E-03 0.  1.
         23    2    1    2    0    0 -0.35527136788E-14  0.44408920985E-15 -0.35527136788E-14  0.91188000000E+02  0.91188000000E+02 0.  0.
    9900012    2    3    3    0    0 -0.21792727253E+02  0.18870333674E+01 -0.29619178348E+02  0.54367087707E+02  0.40000008046E+02 0.  0.
         12    1    3    3    0    0  0.21792727253E+02 -0.18870333674E+01  0.29619178348E+02  0.36820912293E+02  0.00000000000E+00 0. -1.
         11    1    4    4    0    0  0.75495779834E+01 -0.38129940264E+01  0.32982240546E+01  0.90781789665E+01  0.51100000000E-03 0. -1.
        -11    1    4    4    0    0 -0.13428650467E+02 -0.13579204627E+01 -0.11862581362E+02  0.17969235882E+02  0.51100000000E-03 0.  1.
         12    1    4    4    0    0 -0.15913654769E+02  0.70579478565E+01 -0.21054821041E+02  0.27319672859E+02  0.00000000000E+00 0. -1.
</event>
<event>
 8    1  0.1290800E-006  0.9118800E+02  0.7816164E-02  0.1184000E+00
        -11   -1    0    0    0    0  0.00000000000E+00  0.00000000000E+00  0.45593999997E+02  0.45594000000E+02  0.51100000000E-03 0.  1.
         11   -1    0    0    0    0 -0.00000000000E+00 -0.00000000000E+00 -0.45593999997E+02  0.45594000000E+02  0.51100000000E-03 0. -1.
         23    2    1    2    0    0 -0.12212453271E-14  0.00000000000E+00  0.35527136788E-14  0.91188000000E+02  0.91188000000E+02 0.  0.
    9900012    2    3    3    0    0 -0.78421156999E+00  0.32059506851E+02  0.18092907524E+02  0.54367078366E+02  0.39999986750E+02 0.  0.
         12    1    3    3    0    0  0.78421156999E+00 -0.32059506851E+02 -0.18092907524E+02  0.36820921634E+02  0.00000000000E+00 0. -1.
         11    1    4    4    0    0  0.19327143446E+01  0.15213529030E+02  0.20567547003E+02  0.25655620052E+02  0.51100000000E-03 0. -1.
        -11    1    4    4    0    0  0.93683486128E+01  0.69078918168E+01 -0.53371217572E+01  0.12805069074E+02  0.51100000000E-03 0.  1.
         12    1    4    4    0    0 -0.12085274527E+02  0.99380860049E+01  0.28624822785E+01  0.15906389239E+02  0.00000000000E+00 0. -1.
</event>
<event>
 8    1  0.1290800E-006  0.9118800E+02  0.7816164E-02  0.1184000E+00
        -11   -1    0    0    0    0  0.00000000000E+00  0.00000000000E+00  0.45593999997E+02  0.45594000000E+02  0.51100000000E-03 0. -1.
         11   -1    0    0    0    0 -0.00000000000E+00 -0.00000000000E+00 -0.45593999997E+02  0.45594000000E+02  0.51100000000E-03 0.  1.
         23    2    1    2    0    0 -0.71054273576E-14  0.15543122345E-14  0.13322676296E-14  0.91188000000E+02  0.91188000000E+02 0.  0.
    9900012    2    3    3    0    0  0.36707476137E+02  0.18333894780E+01  0.22315792537E+01  0.54367081118E+02  0.39999993025E+02 0.  0.
        -12    1    3    3    0    0 -0.36707476137E+02 -0.18333894780E+01 -0.22315792537E+01  0.36820918882E+02  0.00000000000E+00 0.  1.
         11    1    4    4    0    0  0.10535270704E+02 -0.33087092078E+01  0.11106510985E+01  0.11098334630E+02  0.51100000000E-03 0. -1.
        -11    1    4    4    0    0 -0.17188658142E+00  0.10973432213E+02  0.10016381300E+02  0.14858453962E+02  0.51100000000E-03 0.  1.
        -12    1    4    4    0    0  0.26344092014E+02 -0.58313335277E+01 -0.88954531446E+01  0.28410292526E+02  0.00000000000E+00 0.  1.
</event>
<event>
 8    1  0.1290800E-006  0.9118800E+02  0.7816164E-02  0.1184000E+00
        -11   -1    0    0    0    0  0.00000000000E+00  0.00000000000E+00  0.45593999997E+02  0.45594000000E+02  0.51100000000E-03 0.  1.
         11   -1    0    0    0    0 -0.00000000000E+00 -0.00000000000E+00 -0.45593999997E+02  0.45594000000E+02  0.51100000000E-03 0. -1.
         23    2    1    2    0    0 -0.35527136788E-14 -0.35527136788E-14  0.17763568394E-14  0.91188000000E+02  0.91188000000E+02 0.  0.
    9900012    2    3    3    0    0  0.24868587960E+02  0.26155240270E+02 -0.72963420282E+01  0.54367083828E+02  0.39999999203E+02 0.  0.
         12    1    3    3    0    0 -0.24868587960E+02 -0.26155240270E+02  0.72963420282E+01  0.36820916172E+02  0.00000000000E+00 0. -1.
         11    1    4    4    0    0  0.21340556471E+01  0.96413275109E+01 -0.47495471784E+01  0.10957535687E+02  0.51100000000E-03 0. -1.
        -11    1    4    4    0    0  0.11379133537E+02  0.13879530094E+02  0.14282604753E+02  0.22937280451E+02  0.51100000000E-03 0.  1.
        -12    1    4    4    0    0  0.11355398776E+02  0.26343826658E+01 -0.16829399603E+02  0.20472267690E+02  0.00000000000E+00 0.  1.
</event>
<event>
 8    1  0.1290800E-006  0.9118800E+02  0.7816164E-02  0.1184000E+00
        -11   -1    0    0    0    0  0.00000000000E+00  0.00000000000E+00  0.45593999997E+02  0.45594000000E+02  0.51100000000E-03 0.  1.
         11   -1    0    0    0    0 -0.00000000000E+00 -0.00000000000E+00 -0.45593999997E+02  0.45594000000E+02  0.51100000000E-03 0. -1.
         23    2    1    2    0    0  0.00000000000E+00 -0.44408920985E-15  0.71054273576E-14  0.91188000000E+02  0.91188000000E+02 0.  0.
    9900012    2    3    3    0    0 -0.23153399437E+01 -0.25551487297E+01 -0.36659108144E+02  0.54367084830E+02  0.40000001486E+02 0.  0.
        -12    1    3    3    0    0  0.23153399437E+01  0.25551487297E+01  0.36659108144E+02  0.36820915170E+02  0.00000000000E+00 0.  1.
         11    1    4    4    0    0 -0.12637329611E+01 -0.14029423442E+02 -0.36433217174E+02  0.39061503517E+02  0.51100000000E-03 0. -1.
        -11    1    4    4    0    0 -0.38973070842E+01  0.43990070555E+01 -0.36795120817E+01  0.69339076287E+01  0.51100000000E-03 0.  1.
         12    1    4    4    0    0  0.28457001016E+01  0.70752676565E+01  0.34536211122E+01  0.83716736837E+01  0.00000000000E+00 0. -1.
</event>
<event>
 8    1  0.1290800E-006  0.9118800E+02  0.7816164E-02  0.1184000E+00
        -11   -1    0    0    0    0  0.00000000000E+00  0.00000000000E+00  0.45593999997E+02  0.45594000000E+02  0.51100000000E-03 0.  1.
         11   -1    0    0    0    0 -0.00000000000E+00 -0.00000000000E+00 -0.45593999997E+02  0.45594000000E+02  0.51100000000E-03 0. -1.
         23    2    1    2    0    0  0.00000000000E+00  0.66613381478E-15  0.35527136788E-14  0.91188000000E+02  0.91188000000E+02 0.  0.
    9900012    2    3    3    0    0 -0.29050846074E+02 -0.16091957534E+01 -0.22566316234E+02  0.54367084789E+02  0.40000001394E+02 0.  0.
        -12    1    3    3    0    0  0.29050846074E+02  0.16091957534E+01  0.22566316234E+02  0.36820915211E+02  0.00000000000E+00 0.  1.
         11    1    4    4    0    0 -0.22051361284E+02 -0.46439872224E+01 -0.29634013695E+02  0.37229073582E+02  0.51100000000E-03 0. -1.
        -11    1    4    4    0    0  0.12365100377E+01 -0.43087139035E+01  0.12000092758E+01  0.46404735856E+01  0.51100000000E-03 0.  1.
         12    1    4    4    0    0 -0.82359948279E+01  0.73435053725E+01  0.58676881859E+01  0.12497537622E+02  0.00000000000E+00 0. -1.
</event>
<event>
 8    1  0.1290800E-006  0.9118800E+02  0.7816164E-02  0.1184000E+00
        -11   -1    0    0    0    0  0.00000000000E+00  0.00000000000E+00  0.45593999997E+02  0.45594000000E+02  0.51100000000E-03 0.  1.
         11   -1    0    0    0    0 -0.00000000000E+00 -0.00000000000E+00 -0.45593999997E+02  0.45594000000E+02  0.51100000000E-03 0. -1.
         23    2    1    2    0    0  0.00000000000E+00 -0.17763568394E-14 -0.35527136788E-14  0.91188000000E+02  0.91188000000E+02 0.  0.
    9900012    2    3    3    0    0 -0.15249023650E+02  0.15270910300E+02  0.29833643152E+02  0.54367086277E+02  0.40000004786E+02 0.  0.
         12    1    3    3    0    0  0.15249023650E+02 -0.15270910300E+02 -0.29833643152E+02  0.36820913723E+02  0.00000000000E+00 0. -1.
         11    1    4    4    0    0  0.41418629118E+00 -0.65488272223E+01  0.10123131259E+01  0.66395381162E+01  0.51100000000E-03 0. -1.
        -11    1    4    4    0    0  0.62345200685E+01  0.99529036422E+01  0.15608350602E+02  0.19533308480E+02  0.51100000000E-03 0.  1.
        -12    1    4    4    0    0 -0.21897730010E+02  0.11866833880E+02  0.13212979424E+02  0.28194239681E+02  0.00000000000E+00 0.  1.
</event>
<event>
 8    1  0.1290800E-006  0.9118800E+02  0.7816164E-02  0.1184000E+00
        -11   -1    0    0    0    0  0.00000000000E+00  0.00000000000E+00  0.45593999997E+02  0.45594000000E+02  0.51100000000E-03 0.  1.
         11   -1    0    0    0    0 -0.00000000000E+00 -0.00000000000E+00 -0.45593999997E+02  0.45594000000E+02  0.51100000000E-03 0. -1.
         23    2    1    2    0    0  0.00000000000E+00  0.88817841970E-15 -0.35527136788E-14  0.91188000000E+02  0.91188000000E+02 0.  0.
    9900012    2    3    3    0    0 -0.19505489408E+02 -0.75798184578E+01  0.30296221933E+02  0.54367097942E+02  0.40000031379E+02 0.  0.
         12    1    3    3    0    0  0.19505489408E+02  0.75798184578E+01 -0.30296221933E+02  0.36820902058E+02  0.00000000000E+00 0. -1.
         11    1    4    4    0    0  0.76501221148E+01 -0.57811139304E+01  0.35462789406E+01  0.10223587493E+02  0.51100000000E-03 0. -1.
        -11    1    4    4    0    0 -0.19220986091E+02  0.30318755454E+01  0.28677745453E+02  0.34656192234E+02  0.51100000000E-03 0.  1.
         12    1    4    4    0    0 -0.79346254317E+01 -0.48305800728E+01 -0.19278024602E+01  0.94873182147E+01  0.00000000000E+00 0. -1.
</event>
<event>
 8    1  0.1290800E-006  0.9118800E+02  0.7816164E-02  0.1184000E+00
        -11   -1    0    0    0    0  0.00000000000E+00  0.00000000000E+00  0.45593999997E+02  0.45594000000E+02  0.51100000000E-03 0. -1.
         11   -1    0    0    0    0 -0.00000000000E+00 -0.00000000000E+00 -0.45593999997E+02  0.45594000000E+02  0.51100000000E-03 0.  1.
         23    2    1    2    0    0 -0.17763568394E-14  0.35527136788E-14 -0.35527136788E-14  0.91188000000E+02  0.91188000000E+02 0.  0.
    9900012    2    3    3    0    0  0.15341311488E+02 -0.24640116330E+02  0.22655846274E+02  0.54367101840E+02  0.40000040264E+02 0.  0.
        -12    1    3    3    0    0 -0.15341311488E+02  0.24640116330E+02 -0.22655846274E+02  0.36820898160E+02  0.00000000000E+00 0.  1.
         11    1    4    4    0    0  0.33527625066E+01 -0.37849874441E+01  0.65406139151E+00  0.50985236042E+01  0.51100000000E-03 0. -1.
        -11    1    4    4    0    0 -0.26212039018E+01 -0.26638936365E+02  0.20030609559E+02  0.33432453696E+02  0.51100000000E-03 0.  1.
        -12    1    4    4    0    0  0.14609752884E+02  0.57838074791E+01  0.19711753237E+01  0.15836124540E+02  0.00000000000E+00 0.  1.
</event>
<event>
 8    1  0.1290800E-006  0.9118800E+02  0.7816164E-02  0.1184000E+00
        -11   -1    0    0    0    0  0.00000000000E+00  0.00000000000E+00  0.45593999997E+02  0.45594000000E+02  0.51100000000E-03 0.  1.
         11   -1    0    0    0    0 -0.00000000000E+00 -0.00000000000E+00 -0.45593999997E+02  0.45594000000E+02  0.51100000000E-03 0. -1.
         23    2    1    2    0    0  0.35527136788E-14  0.35527136788E-14  0.88817841970E-15  0.91188000000E+02  0.91188000000E+02 0.  0.
    9900012    2    3    3    0    0  0.27195644778E+02  0.24623196056E+02 -0.31422346221E+01  0.54367102165E+02  0.40000041007E+02 0.  0.
        -12    1    3    3    0    0 -0.27195644778E+02 -0.24623196056E+02  0.31422346221E+01  0.36820897835E+02  0.00000000000E+00 0.  1.
         11    1    4    4    0    0  0.45696507856E+01  0.14597884299E+01  0.71976763844E+01  0.86498113365E+01  0.51100000000E-03 0. -1.
        -11    1    4    4    0    0  0.21690507539E+02  0.13742371801E+02  0.64203534130E+01  0.26467939818E+02  0.51100000000E-03 0.  1.
        -12    1    4    4    0    0  0.93548645398E+00  0.94210358245E+01 -0.16760264420E+02  0.19249351010E+02  0.00000000000E+00 0.  1.
</event>
<event>
 8    1  0.1290800E-006  0.9118800E+02  0.7816164E-02  0.1184000E+00
        -11   -1    0    0    0    0  0.00000000000E+00  0.00000000000E+00  0.45593999997E+02  0.45594000000E+02  0.51100000000E-03 0. -1.
         11   -1    0    0    0    0 -0.00000000000E+00 -0.00000000000E+00 -0.45593999997E+02  0.45594000000E+02  0.51100000000E-03 0.  1.
         23    2    1    2    0    0 -0.71054273576E-14  0.00000000000E+00  0.17763568394E-14  0.91188000000E+02  0.91188000000E+02 0.  0.
    9900012    2    3    3    0    0 -0.36378933810E+02 -0.36204153867E+00  0.56764967118E+01  0.54367075051E+02  0.39999979193E+02 0.  0.
        -12    1    3    3    0    0  0.36378933810E+02  0.36204153867E+00 -0.56764967118E+01  0.36820924949E+02  0.00000000000E+00 0.  1.
         11    1    4    4    0    0 -0.23878233916E+02 -0.58674801235E+01 -0.76593815872E+00  0.24600488602E+02  0.51100000000E-03 0. -1.
        -11    1    4    4    0    0 -0.69118453117E+01 -0.37910560640E+00 -0.95722585093E+01  0.11812936125E+02  0.51100000000E-03 0.  1.
         12    1    4    4    0    0 -0.55888545817E+01  0.58845441912E+01  0.16014693380E+02  0.17953650323E+02  0.00000000000E+00 0. -1.
</event>
<event>
 8    1  0.1290800E-006  0.9118800E+02  0.7816164E-02  0.1184000E+00
        -11   -1    0    0    0    0  0.00000000000E+00  0.00000000000E+00  0.45593999997E+02  0.45594000000E+02  0.51100000000E-03 0.  1.
         11   -1    0    0    0    0 -0.00000000000E+00 -0.00000000000E+00 -0.45593999997E+02  0.45594000000E+02  0.51100000000E-03 0. -1.
         23    2    1    2    0    0 -0.35527136788E-14 -0.35527136788E-14 -0.35527136788E-14  0.91188000000E+02  0.91188000000E+02 0.  0.
    9900012    2    3    3    0    0  0.16163067192E+02 -0.15893509082E+02 -0.29016058432E+02  0.54367081775E+02  0.39999994523E+02 0.  0.
        -12    1    3    3    0    0 -0.16163067192E+02  0.15893509082E+02  0.29016058432E+02  0.36820918225E+02  0.00000000000E+00 0.  1.
         11    1    4    4    0    0 -0.59531917659E-01  0.93506697647E+01 -0.71305217026E+00  0.93780068648E+01  0.51100000000E-03 0. -1.
        -11    1    4    4    0    0  0.49052796064E+01 -0.12659084346E+02 -0.20168540940E+01  0.13725228056E+02  0.51100000000E-03 0.  1.
         12    1    4    4    0    0  0.11317319503E+02 -0.12585094501E+02 -0.26286152168E+02  0.31263846854E+02  0.00000000000E+00 0. -1.
</event>
<event>
 8    1  0.1290800E-006  0.9118800E+02  0.7816164E-02  0.1184000E+00
        -11   -1    0    0    0    0  0.00000000000E+00  0.00000000000E+00  0.45593999997E+02  0.45594000000E+02  0.51100000000E-03 0.  1.
         11   -1    0    0    0    0 -0.00000000000E+00 -0.00000000000E+00 -0.45593999997E+02  0.45594000000E+02  0.51100000000E-03 0. -1.
         23    2    1    2    0    0  0.00000000000E+00 -0.35527136788E-14  0.00000000000E+00  0.91188000000E+02  0.91188000000E+02 0.  0.
    9900012    2    3    3    0    0 -0.19135318249E+02 -0.16604362077E+02  0.26719308548E+02  0.54366991136E+02  0.39999787892E+02 0.  0.
         12    1    3    3    0    0  0.19135318249E+02  0.16604362077E+02 -0.26719308548E+02  0.36821008864E+02  0.00000000000E+00 0. -1.
         11    1    4    4    0    0 -0.32422906593E+01  0.81383777555E+01 -0.42647915183E+01  0.97434125524E+01  0.51100000000E-03 0. -1.
        -11    1    4    4    0    0 -0.14071015147E+02 -0.10019991649E+02  0.16320343094E+02  0.23764412445E+02  0.51100000000E-03 0.  1.
         12    1    4    4    0    0 -0.18220124429E+01 -0.14722748183E+02  0.14663756973E+02  0.20859166138E+02  0.00000000000E+00 0. -1.
</event>
<event>
 8    1  0.1290800E-006  0.9118800E+02  0.7816164E-02  0.1184000E+00
        -11   -1    0    0    0    0  0.00000000000E+00  0.00000000000E+00  0.45593999997E+02  0.45594000000E+02  0.51100000000E-03 0.  1.
         11   -1    0    0    0    0 -0.00000000000E+00 -0.00000000000E+00 -0.45593999997E+02  0.45594000000E+02  0.51100000000E-03 0. -1.
         23    2    1    2    0    0  0.88817841970E-15  0.17763568394E-14  0.71054273576E-14  0.91188000000E+02  0.91188000000E+02 0.  0.
    9900012    2    3    3    0    0  0.46914005457E+01  0.10813301686E+02 -0.34883270824E+02  0.54367091323E+02  0.40000016289E+02 0.  0.
        -12    1    3    3    0    0 -0.46914005457E+01 -0.10813301686E+02  0.34883270824E+02  0.36820908677E+02  0.00000000000E+00 0.  1.
         11    1    4    4    0    0  0.84648700094E+00  0.19143646182E+02 -0.17153410140E+02  0.25718382707E+02  0.51100000000E-03 0. -1.
        -11    1    4    4    0    0 -0.77395176467E+01 -0.34208125763E+01 -0.23579075725E+01  0.87841801249E+01  0.51100000000E-03 0.  1.
         12    1    4    4    0    0  0.11584431191E+02 -0.49095319197E+01 -0.15371953111E+02  0.19864528491E+02  0.00000000000E+00 0. -1.
</event>
<event>
 8    1  0.1290800E-006  0.9118800E+02  0.7816164E-02  0.1184000E+00
        -11   -1    0    0    0    0  0.00000000000E+00  0.00000000000E+00  0.45593999997E+02  0.45594000000E+02  0.51100000000E-03 0.  1.
         11   -1    0    0    0    0 -0.00000000000E+00 -0.00000000000E+00 -0.45593999997E+02  0.45594000000E+02  0.51100000000E-03 0. -1.
         23    2    1    2    0    0 -0.14710455076E-14 -0.35527136788E-14 -0.35527136788E-14  0.91188000000E+02  0.91188000000E+02 0.  0.
    9900012    2    3    3    0    0  0.22969563295E+00  0.31461656732E+02  0.19128257852E+02  0.54367097609E+02  0.40000030620E+02 0.  0.
         12    1    3    3    0    0 -0.22969563295E+00 -0.31461656732E+02 -0.19128257852E+02  0.36820902391E+02  0.00000000000E+00 0. -1.
         11    1    4    4    0    0 -0.19605972137E+01  0.26610410912E+02  0.88735693514E+01  0.28119355320E+02  0.51100000000E-03 0. -1.
        -11    1    4    4    0    0 -0.74757722729E+01 -0.26575943138E+01 -0.27421835582E+01  0.83946143176E+01  0.51100000000E-03 0.  1.
        -12    1    4    4    0    0  0.96660651195E+01  0.75088401342E+01  0.12996872059E+02  0.17853127972E+02  0.00000000000E+00 0.  1.
</event>
<event>
 8    1  0.1290800E-006  0.9118800E+02  0.7816164E-02  0.1184000E+00
        -11   -1    0    0    0    0  0.00000000000E+00  0.00000000000E+00  0.45593999997E+02  0.45594000000E+02  0.51100000000E-03 0. -1.
         11   -1    0    0    0    0 -0.00000000000E+00 -0.00000000000E+00 -0.45593999997E+02  0.45594000000E+02  0.51100000000E-03 0.  1.
         23    2    1    2    0    0  0.00000000000E+00  0.17763568394E-14 -0.17763568394E-14  0.91188000000E+02  0.91188000000E+02 0.  0.
    9900012    2    3    3    0    0  0.34360951685E+02 -0.89585468543E+01 -0.97390930575E+01  0.54367075297E+02  0.39999979754E+02 0.  0.
         12    1    3    3    0    0 -0.34360951685E+02  0.89585468543E+01  0.97390930575E+01  0.36820924703E+02  0.00000000000E+00 0. -1.
         11    1    4    4    0    0  0.42745369128E+01 -0.73444670006E+01  0.10926251430E+02  0.13841814618E+02  0.51100000000E-03 0. -1.
        -11    1    4    4    0    0 -0.14993392974E+01 -0.28558060172E+01 -0.14828285746E+01  0.35499897436E+01  0.51100000000E-03 0.  1.
         12    1    4    4    0    0  0.31585754069E+02  0.12417261635E+01 -0.19182515913E+02  0.36975270935E+02  0.00000000000E+00 0. -1.
</event>
<event>
 8    1  0.1290800E-006  0.9118800E+02  0.7816164E-02  0.1184000E+00
        -11   -1    0    0    0    0  0.00000000000E+00  0.00000000000E+00  0.45593999997E+02  0.45594000000E+02  0.51100000000E-03 0.  1.
         11   -1    0    0    0    0 -0.00000000000E+00 -0.00000000000E+00 -0.45593999997E+02  0.45594000000E+02  0.51100000000E-03 0. -1.
         23    2    1    2    0    0  0.00000000000E+00  0.00000000000E+00  0.00000000000E+00  0.91188000000E+02  0.91188000000E+02 0.  0.
    9900012    2    3    3    0    0  0.88037421499E+01 -0.41056256150E+01  0.35516467693E+02  0.54367061461E+02  0.39999948212E+02 0.  0.
         12    1    3    3    0    0 -0.88037421499E+01  0.41056256150E+01 -0.35516467693E+02  0.36820938539E+02  0.00000000000E+00 0. -1.
         11    1    4    4    0    0  0.11944222717E+02 -0.11110259593E+02  0.22984066596E+01  0.16473766964E+02  0.51100000000E-03 0. -1.
        -11    1    4    4    0    0  0.47913104180E+01 -0.14900703683E+00  0.25738062741E+01  0.54408949279E+01  0.51100000000E-03 0.  1.
         12    1    4    4    0    0 -0.79317909855E+01  0.71536410152E+01  0.30644254759E+02  0.32452399569E+02  0.00000000000E+00 0. -1.
</event>
<event>
 8    1  0.1290800E-006  0.9118800E+02  0.7816164E-02  0.1184000E+00
        -11   -1    0    0    0    0  0.00000000000E+00  0.00000000000E+00  0.45593999997E+02  0.45594000000E+02  0.51100000000E-03 0.  1.
         11   -1    0    0    0    0 -0.00000000000E+00 -0.00000000000E+00 -0.45593999997E+02  0.45594000000E+02  0.51100000000E-03 0. -1.
         23    2    1    2    0    0  0.00000000000E+00  0.88817841970E-15  0.00000000000E+00  0.91188000000E+02  0.91188000000E+02 0.  0.
    9900012    2    3    3    0    0  0.21905000948E+02  0.47853301829E+01 -0.29207145970E+02  0.54367002903E+02  0.39999814717E+02 0.  0.
        -12    1    3    3    0    0 -0.21905000948E+02 -0.47853301829E+01  0.29207145970E+02  0.36820997097E+02  0.00000000000E+00 0.  1.
         11    1    4    4    0    0  0.21564548200E+02  0.63746493962E+01 -0.35657081685E+02  0.42155585259E+02  0.51100000000E-03 0. -1.
        -11    1    4    4    0    0  0.21716608539E+01 -0.53953363970E+01  0.21958158343E+01  0.62167011462E+01  0.51100000000E-03 0.  1.
        -12    1    4    4    0    0 -0.18312081060E+01  0.38060171837E+01  0.42541198800E+01  0.59947164974E+01  0.00000000000E+00 0.  1.
</event>
<event>
 8    1  0.1290800E-006  0.9118800E+02  0.7816164E-02  0.1184000E+00
        -11   -1    0    0    0    0  0.00000000000E+00  0.00000000000E+00  0.45593999997E+02  0.45594000000E+02  0.51100000000E-03 0. -1.
         11   -1    0    0    0    0 -0.00000000000E+00 -0.00000000000E+00 -0.45593999997E+02  0.45594000000E+02  0.51100000000E-03 0.  1.
         23    2    1    2    0    0  0.35527136788E-14  0.00000000000E+00 -0.35527136788E-14  0.91188000000E+02  0.91188000000E+02 0.  0.
    9900012    2    3    3    0    0 -0.24721413173E+02 -0.10282300341E+02  0.25276614391E+02  0.54367065674E+02  0.39999957817E+02 0.  0.
        -12    1    3    3    0    0  0.24721413173E+02  0.10282300341E+02 -0.25276614391E+02  0.36820934326E+02  0.00000000000E+00 0.  1.
         11    1    4    4    0    0 -0.27113243665E+02 -0.18026424137E+02  0.24838123706E+02  0.40951341109E+02  0.51100000000E-03 0. -1.
        -11    1    4    4    0    0 -0.27079876784E+01  0.76676545612E+01 -0.78815300616E+00  0.81699026407E+01  0.51100000000E-03 0.  1.
         12    1    4    4    0    0  0.50998181700E+01  0.76469233926E-01  0.12266436911E+01  0.52458219238E+01  0.00000000000E+00 0. -1.
</event>
<event>
 8    1  0.1290800E-006  0.9118800E+02  0.7816164E-02  0.1184000E+00
        -11   -1    0    0    0    0  0.00000000000E+00  0.00000000000E+00  0.45593999997E+02  0.45594000000E+02  0.51100000000E-03 0.  1.
         11   -1    0    0    0    0 -0.00000000000E+00 -0.00000000000E+00 -0.45593999997E+02  0.45594000000E+02  0.51100000000E-03 0. -1.
         23    2    1    2    0    0  0.00000000000E+00  0.88817841970E-15  0.00000000000E+00  0.91188000000E+02  0.91188000000E+02 0.  0.
    9900012    2    3    3    0    0 -0.35497873274E+02 -0.52272668429E+01  0.82677809226E+01  0.54367088455E+02  0.40000009750E+02 0.  0.
        -12    1    3    3    0    0  0.35497873274E+02  0.52272668429E+01 -0.82677809226E+01  0.36820911545E+02  0.00000000000E+00 0.  1.
         11    1    4    4    0    0 -0.60877267414E+01  0.68338589262E+01  0.54841160081E+01  0.10669469216E+02  0.51100000000E-03 0.  1.
        -11    1    4    4    0    0 -0.15962157785E+02  0.73404170833E+01  0.83368356425E+01  0.19446722934E+02  0.51100000000E-03 0. -1.
        -12    1    4    4    0    0 -0.13447988748E+02 -0.19401542852E+02 -0.55531707280E+01  0.24250896304E+02  0.00000000000E+00 0.  1.
</event>
<event>
 8    1  0.1290800E-006  0.9118800E+02  0.7816164E-02  0.1184000E+00
        -11   -1    0    0    0    0  0.00000000000E+00  0.00000000000E+00  0.45593999997E+02  0.45594000000E+02  0.51100000000E-03 0. -1.
         11   -1    0    0    0    0 -0.00000000000E+00 -0.00000000000E+00 -0.45593999997E+02  0.45594000000E+02  0.51100000000E-03 0.  1.
         23    2    1    2    0    0  0.71054273576E-14  0.66613381478E-15 -0.22204460493E-15  0.91188000000E+02  0.91188000000E+02 0.  0.
    9900012    2    3    3    0    0 -0.36772103955E+02 -0.93154523651E+00 -0.16503358075E+01  0.54367095420E+02  0.40000025630E+02 0.  0.
        -12    1    3    3    0    0  0.36772103955E+02  0.93154523651E+00  0.16503358075E+01  0.36820904580E+02  0.00000000000E+00 0.  1.
         11    1    4    4    0    0 -0.25416533799E+02 -0.40717089184E+01  0.92605942543E+01  0.27355760090E+02  0.51100000000E-03 0. -1.
        -11    1    4    4    0    0 -0.89169485762E+01 -0.87700313709E+01 -0.47152986261E+01  0.13366355657E+02  0.51100000000E-03 0.  1.
        -12    1    4    4    0    0 -0.24386215794E+01  0.11910195053E+02 -0.61956314357E+01  0.13644979673E+02  0.00000000000E+00 0.  1.
</event>
<event>
 8    1  0.1290800E-006  0.9118800E+02  0.7816164E-02  0.1184000E+00
        -11   -1    0    0    0    0  0.00000000000E+00  0.00000000000E+00  0.45593999997E+02  0.45594000000E+02  0.51100000000E-03 0.  1.
         11   -1    0    0    0    0 -0.00000000000E+00 -0.00000000000E+00 -0.45593999997E+02  0.45594000000E+02  0.51100000000E-03 0. -1.
         23    2    1    2    0    0  0.00000000000E+00 -0.26645352591E-14  0.00000000000E+00  0.91188000000E+02  0.91188000000E+02 0.  0.
    9900012    2    3    3    0    0  0.31836383242E+02  0.47505118100E+01  0.17878952850E+02  0.54367087254E+02  0.40000007014E+02 0.  0.
         12    1    3    3    0    0 -0.31836383242E+02 -0.47505118100E+01 -0.17878952850E+02  0.36820912746E+02  0.00000000000E+00 0. -1.
         11    1    4    4    0    0 -0.53640201354E+01 -0.35832902919E+01  0.10157967538E+01  0.65302775313E+01  0.51100000000E-03 0. -1.
        -11    1    4    4    0    0  0.21493353147E+02  0.14761667183E+02  0.16509834593E+02  0.30861718780E+02  0.51100000000E-03 0.  1.
        -12    1    4    4    0    0  0.15707050231E+02 -0.64278650806E+01  0.35332150332E+00  0.16975090943E+02  0.00000000000E+00 0.  1.
</event>
<event>
 8    1  0.1290800E-006  0.9118800E+02  0.7816164E-02  0.1184000E+00
        -11   -1    0    0    0    0  0.00000000000E+00  0.00000000000E+00  0.45593999997E+02  0.45594000000E+02  0.51100000000E-03 0.  1.
         11   -1    0    0    0    0 -0.00000000000E+00 -0.00000000000E+00 -0.45593999997E+02  0.45594000000E+02  0.51100000000E-03 0. -1.
         23    2    1    2    0    0  0.00000000000E+00  0.00000000000E+00  0.35527136788E-14  0.91188000000E+02  0.91188000000E+02 0.  0.
    9900012    2    3    3    0    0  0.96972531531E+01 -0.18966393810E+02 -0.30033628560E+02  0.54367086685E+02  0.40000005715E+02 0.  0.
        -12    1    3    3    0    0 -0.96972531531E+01  0.18966393810E+02  0.30033628560E+02  0.36820913315E+02  0.00000000000E+00 0.  1.
         11    1    4    4    0    0  0.70684681617E+01 -0.36147395745E+01 -0.33259152958E+01  0.86076301710E+01  0.51100000000E-03 0. -1.
        -11    1    4    4    0    0 -0.83069084447E+00 -0.14232815745E+02  0.40235026122E+01  0.14813901067E+02  0.51100000000E-03 0.  1.
        -12    1    4    4    0    0  0.34594758358E+01 -0.11188384904E+01 -0.30731215877E+02  0.30945555446E+02  0.00000000000E+00 0.  1.
</event>
<event>
 8    1  0.1290800E-006  0.9118800E+02  0.7816164E-02  0.1184000E+00
        -11   -1    0    0    0    0  0.00000000000E+00  0.00000000000E+00  0.45593999997E+02  0.45594000000E+02  0.51100000000E-03 0. -1.
         11   -1    0    0    0    0 -0.00000000000E+00 -0.00000000000E+00 -0.45593999997E+02  0.45594000000E+02  0.51100000000E-03 0.  1.
         23    2    1    2    0    0  0.00000000000E+00  0.00000000000E+00  0.44408920985E-15  0.91188000000E+02  0.91188000000E+02 0.  0.
    9900012    2    3    3    0    0 -0.34836963435E+02  0.11833077101E+02  0.14640789508E+01  0.54367092050E+02  0.40000017947E+02 0.  0.
        -12    1    3    3    0    0  0.34836963435E+02 -0.11833077101E+02 -0.14640789508E+01  0.36820907950E+02  0.00000000000E+00 0.  1.
         11    1    4    4    0    0 -0.35632704054E+02  0.64847554513E+01  0.76078788315E+01  0.37008397318E+02  0.51100000000E-03 0. -1.
        -11    1    4    4    0    0 -0.43701814035E+01  0.15707112351E+01 -0.91705024021E+01  0.10279286641E+02  0.51100000000E-03 0.  1.
        -12    1    4    4    0    0  0.51659220219E+01  0.37776104142E+01  0.30267025213E+01  0.70794080918E+01  0.00000000000E+00 0.  1.
</event>
<event>
 8    1  0.1290800E-006  0.9118800E+02  0.7816164E-02  0.1184000E+00
        -11   -1    0    0    0    0  0.00000000000E+00  0.00000000000E+00  0.45593999997E+02  0.45594000000E+02  0.51100000000E-03 0.  1.
         11   -1    0    0    0    0 -0.00000000000E+00 -0.00000000000E+00 -0.45593999997E+02  0.45594000000E+02  0.51100000000E-03 0. -1.
         23    2    1    2    0    0  0.88817841970E-15  0.00000000000E+00  0.00000000000E+00  0.91188000000E+02  0.91188000000E+02 0.  0.
    9900012    2    3    3    0    0 -0.54633299831E+01  0.34856044824E+02 -0.10535116792E+02  0.54367074956E+02  0.39999978978E+02 0.  0.
         12    1    3    3    0    0  0.54633299831E+01 -0.34856044824E+02  0.10535116792E+02  0.36820925044E+02  0.00000000000E+00 0. -1.
         11    1    4    4    0    0  0.32822979745E+01 -0.41349978806E+01 -0.77803259768E+01  0.94024018225E+01  0.51100000000E-03 0. -1.
        -11    1    4    4    0    0  0.36435555479E+00  0.18462491958E+02 -0.10457224495E+02  0.21221449260E+02  0.51100000000E-03 0.  1.
        -12    1    4    4    0    0 -0.91099835123E+01  0.20528550746E+02  0.77024336801E+01  0.23743223874E+02  0.00000000000E+00 0.  1.
</event>
<event>
 8    1  0.1290800E-006  0.9118800E+02  0.7816164E-02  0.1184000E+00
        -11   -1    0    0    0    0  0.00000000000E+00  0.00000000000E+00  0.45593999997E+02  0.45594000000E+02  0.51100000000E-03 0.  1.
         11   -1    0    0    0    0 -0.00000000000E+00 -0.00000000000E+00 -0.45593999997E+02  0.45594000000E+02  0.51100000000E-03 0. -1.
         23    2    1    2    0    0  0.00000000000E+00  0.35527136788E-14  0.35527136788E-14  0.91188000000E+02  0.91188000000E+02 0.  0.
    9900012    2    3    3    0    0  0.15659627147E+02 -0.30157041628E+02 -0.14181316610E+02  0.54367070857E+02  0.39999969632E+02 0.  0.
        -12    1    3    3    0    0 -0.15659627147E+02  0.30157041628E+02  0.14181316610E+02  0.36820929143E+02  0.00000000000E+00 0.  1.
         11    1    4    4    0    0  0.90663306904E+01 -0.28917451210E+02 -0.67276708958E+01  0.31043177875E+02  0.51100000000E-03 0. -1.
        -11    1    4    4    0    0  0.61183535530E+00  0.13609826732E+01  0.71636712440E+01  0.73174313998E+01  0.51100000000E-03 0.  1.
         12    1    4    4    0    0  0.59814611016E+01 -0.26005730918E+01 -0.14617316958E+02  0.16006461582E+02  0.00000000000E+00 0. -1.
</event>
<event>
 8    1  0.1290800E-006  0.9118800E+02  0.7816164E-02  0.1184000E+00
        -11   -1    0    0    0    0  0.00000000000E+00  0.00000000000E+00  0.45593999997E+02  0.45594000000E+02  0.51100000000E-03 0.  1.
         11   -1    0    0    0    0 -0.00000000000E+00 -0.00000000000E+00 -0.45593999997E+02  0.45594000000E+02  0.51100000000E-03 0. -1.
         23    2    1    2    0    0  0.35527136788E-14  0.00000000000E+00  0.35527136788E-14  0.91188000000E+02  0.91188000000E+02 0.  0.
    9900012    2    3    3    0    0 -0.30606841141E+02  0.89283487897E+01 -0.18419700998E+02  0.54367088529E+02  0.40000009919E+02 0.  0.
        -12    1    3    3    0    0  0.30606841141E+02 -0.89283487897E+01  0.18419700998E+02  0.36820911471E+02  0.00000000000E+00 0.  1.
         11    1    4    4    0    0 -0.12788858683E+01  0.16697486051E+02 -0.11299806365E+02  0.20202158638E+02  0.51100000000E-03 0. -1.
        -11    1    4    4    0    0 -0.88841716555E+01  0.35305403037E+01 -0.47825695623E+01  0.10689536600E+02  0.51100000000E-03 0.  1.
        -12    1    4    4    0    0 -0.20443783617E+02 -0.11299677566E+02 -0.23373250716E+01  0.23475393291E+02  0.00000000000E+00 0.  1.
</event>
<event>
 8    1  0.1290800E-006  0.9118800E+02  0.7816164E-02  0.1184000E+00
        -11   -1    0    0    0    0  0.00000000000E+00  0.00000000000E+00  0.45593999997E+02  0.45594000000E+02  0.51100000000E-03 0. -1.
         11   -1    0    0    0    0 -0.00000000000E+00 -0.00000000000E+00 -0.45593999997E+02  0.45594000000E+02  0.51100000000E-03 0.  1.
         23    2    1    2    0    0 -0.17763568394E-14  0.88817841970E-15  0.00000000000E+00  0.91188000000E+02  0.91188000000E+02 0.  0.
    9900012    2    3    3    0    0  0.12153721893E+02  0.76500264272E+01  0.33904932089E+02  0.54367078228E+02  0.39999986436E+02 0.  0.
        -12    1    3    3    0    0 -0.12153721893E+02 -0.76500264272E+01 -0.33904932089E+02  0.36820921772E+02  0.00000000000E+00 0.  1.
         11    1    4    4    0    0  0.82435633750E+01  0.19064183059E+01 -0.60004131845E+00  0.84823827855E+01  0.51100000000E-03 0. -1.
        -11    1    4    4    0    0  0.11078016309E+02  0.13746945019E+02  0.28639292231E+02  0.33643870206E+02  0.51100000000E-03 0.  1.
        -12    1    4    4    0    0 -0.71678577909E+01 -0.80033368976E+01  0.58656811770E+01  0.12240825237E+02  0.00000000000E+00 0.  1.
</event>
<event>
 8    1  0.1290800E-006  0.9118800E+02  0.7816164E-02  0.1184000E+00
        -11   -1    0    0    0    0  0.00000000000E+00  0.00000000000E+00  0.45593999997E+02  0.45594000000E+02  0.51100000000E-03 0.  1.
         11   -1    0    0    0    0 -0.00000000000E+00 -0.00000000000E+00 -0.45593999997E+02  0.45594000000E+02  0.51100000000E-03 0. -1.
         23    2    1    2    0    0  0.35527136788E-14  0.00000000000E+00  0.00000000000E+00  0.91188000000E+02  0.91188000000E+02 0.  0.
    9900012    2    3    3    0    0 -0.22082349098E+02  0.55602184685E+01  0.28934998553E+02  0.54367077790E+02  0.39999985438E+02 0.  0.
         12    1    3    3    0    0  0.22082349098E+02 -0.55602184685E+01 -0.28934998553E+02  0.36820922210E+02  0.00000000000E+00 0. -1.
         11    1    4    4    0    0 -0.29609878885E+02 -0.56175942121E+01  0.16122353906E+02  0.34179417608E+02  0.51100000000E-03 0. -1.
        -11    1    4    4    0    0  0.31863523799E+01  0.35090142195E+01  0.97801853726E+01  0.10868212754E+02  0.51100000000E-03 0.  1.
        -12    1    4    4    0    0  0.43411774070E+01  0.76687984610E+01  0.30324592752E+01  0.93194474284E+01  0.00000000000E+00 0.  1.
</event>
<event>
 8    1  0.1290800E-006  0.9118800E+02  0.7816164E-02  0.1184000E+00
        -11   -1    0    0    0    0  0.00000000000E+00  0.00000000000E+00  0.45593999997E+02  0.45594000000E+02  0.51100000000E-03 0.  1.
         11   -1    0    0    0    0 -0.00000000000E+00 -0.00000000000E+00 -0.45593999997E+02  0.45594000000E+02  0.51100000000E-03 0. -1.
         23    2    1    2    0    0 -0.71054273576E-14 -0.22204460493E-15  0.00000000000E+00  0.91188000000E+02  0.91188000000E+02 0.  0.
    9900012    2    3    3    0    0 -0.36570559582E+02 -0.18385943498E+01 -0.38720780051E+01  0.54367092279E+02  0.40000018469E+02 0.  0.
         12    1    3    3    0    0  0.36570559582E+02  0.18385943498E+01  0.38720780051E+01  0.36820907721E+02  0.00000000000E+00 0. -1.
         11    1    4    4    0    0  0.11750115479E+01  0.13198982258E+01 -0.28100100432E-01  0.17673633867E+01  0.51100000000E-03 0. -1.
        -11    1    4    4    0    0 -0.22213342124E+02  0.10949975109E+02  0.10793518544E+02  0.27015450506E+02  0.51100000000E-03 0.  1.
         12    1    4    4    0    0 -0.15532229005E+02 -0.14108467685E+02 -0.14637496449E+02  0.25584278387E+02  0.00000000000E+00 0. -1.
</event>
<event>
 8    1  0.1290800E-006  0.9118800E+02  0.7816164E-02  0.1184000E+00
        -11   -1    0    0    0    0  0.00000000000E+00  0.00000000000E+00  0.45593999997E+02  0.45594000000E+02  0.51100000000E-03 0.  1.
         11   -1    0    0    0    0 -0.00000000000E+00 -0.00000000000E+00 -0.45593999997E+02  0.45594000000E+02  0.51100000000E-03 0. -1.
         23    2    1    2    0    0  0.35527136788E-14  0.00000000000E+00 -0.33306690739E-15  0.91188000000E+02  0.91188000000E+02 0.  0.
    9900012    2    3    3    0    0 -0.27793611825E+02  0.24144188573E+02 -0.59406248813E+00  0.54367087323E+02  0.40000007170E+02 0.  0.
        -12    1    3    3    0    0  0.27793611825E+02 -0.24144188573E+02  0.59406248813E+00  0.36820912677E+02  0.00000000000E+00 0.  1.
         11    1    4    4    0    0 -0.83533584452E+01 -0.89818211007E+00  0.13914741706E+02  0.16254395265E+02  0.51100000000E-03 0.  1.
        -11    1    4    4    0    0 -0.13869057698E+02  0.54982478986E+01 -0.59865219719E+01  0.16075445156E+02  0.51100000000E-03 0. -1.
         12    1    4    4    0    0 -0.55711956822E+01  0.19544122784E+02 -0.85222822226E+01  0.22037246902E+02  0.00000000000E+00 0. -1.
</event>
<event>
 8    1  0.1290800E-006  0.9118800E+02  0.7816164E-02  0.1184000E+00
        -11   -1    0    0    0    0  0.00000000000E+00  0.00000000000E+00  0.45593999997E+02  0.45594000000E+02  0.51100000000E-03 0. -1.
         11   -1    0    0    0    0 -0.00000000000E+00 -0.00000000000E+00 -0.45593999997E+02  0.45594000000E+02  0.51100000000E-03 0.  1.
         23    2    1    2    0    0  0.00000000000E+00 -0.17763568394E-14  0.00000000000E+00  0.91188000000E+02  0.91188000000E+02 0.  0.
    9900012    2    3    3    0    0 -0.28713385196E+02 -0.10055727882E+02 -0.20741392114E+02  0.54367061671E+02  0.39999948691E+02 0.  0.
         12    1    3    3    0    0  0.28713385196E+02  0.10055727882E+02  0.20741392114E+02  0.36820938329E+02  0.00000000000E+00 0. -1.
         11    1    4    4    0    0 -0.21466355962E+02 -0.12928367566E+01 -0.13446013033E+02  0.25362790302E+02  0.51100000000E-03 0. -1.
        -11    1    4    4    0    0 -0.61951933656E+01  0.22161019971E+01 -0.14436378563E+02  0.15865073438E+02  0.51100000000E-03 0.  1.
         12    1    4    4    0    0 -0.10518358682E+01 -0.10978993122E+02  0.71409994827E+01  0.13139197931E+02  0.00000000000E+00 0. -1.
</event>
<event>
 8    1  0.1290800E-006  0.9118800E+02  0.7816164E-02  0.1184000E+00
        -11   -1    0    0    0    0  0.00000000000E+00  0.00000000000E+00  0.45593999997E+02  0.45594000000E+02  0.51100000000E-03 0.  1.
         11   -1    0    0    0    0 -0.00000000000E+00 -0.00000000000E+00 -0.45593999997E+02  0.45594000000E+02  0.51100000000E-03 0. -1.
         23    2    1    2    0    0  0.00000000000E+00  0.71054273576E-14  0.00000000000E+00  0.91188000000E+02  0.91188000000E+02 0.  0.
    9900012    2    3    3    0    0  0.13951549125E+02 -0.32542659503E+02  0.10104943718E+02  0.54367077985E+02  0.39999985882E+02 0.  0.
         12    1    3    3    0    0 -0.13951549125E+02  0.32542659503E+02 -0.10104943718E+02  0.36820922015E+02  0.00000000000E+00 0. -1.
         11    1    4    4    0    0 -0.58697245200E+00 -0.16857727443E+02  0.80368429584E+01  0.18684709154E+02  0.51100000000E-03 0. -1.
        -11    1    4    4    0    0  0.17768000428E+01 -0.21479836036E+02  0.29814778341E+00  0.21555260771E+02  0.51100000000E-03 0.  1.
         12    1    4    4    0    0  0.12761721534E+02  0.57949039757E+01  0.17699529761E+01  0.14127108060E+02  0.00000000000E+00 0. -1.
</event>
<event>
 8    1  0.1290800E-006  0.9118800E+02  0.7816164E-02  0.1184000E+00
        -11   -1    0    0    0    0  0.00000000000E+00  0.00000000000E+00  0.45593999997E+02  0.45594000000E+02  0.51100000000E-03 0.  1.
         11   -1    0    0    0    0 -0.00000000000E+00 -0.00000000000E+00 -0.45593999997E+02  0.45594000000E+02  0.51100000000E-03 0. -1.
         23    2    1    2    0    0  0.00000000000E+00  0.00000000000E+00  0.17763568394E-14  0.91188000000E+02  0.91188000000E+02 0.  0.
    9900012    2    3    3    0    0  0.91384305384E+01 -0.32659211513E+02  0.14340237764E+02  0.54367116951E+02  0.40000074714E+02 0.  0.
         12    1    3    3    0    0 -0.91384305384E+01  0.32659211513E+02 -0.14340237764E+02  0.36820883049E+02  0.00000000000E+00 0. -1.
         11    1    4    4    0    0  0.46319247752E+01 -0.78733148881E+01 -0.11112555007E+02  0.14385155317E+02  0.51100000000E-03 0. -1.
        -11    1    4    4    0    0  0.36770916415E+01  0.61433182194E+00  0.89095259379E+01  0.96580567004E+01  0.51100000000E-03 0.  1.
         12    1    4    4    0    0  0.82941412169E+00 -0.25400228447E+02  0.16543266833E+02  0.30323904934E+02  0.00000000000E+00 0. -1.
</event>
<event>
 8    1  0.1290800E-006  0.9118800E+02  0.7816164E-02  0.1184000E+00
        -11   -1    0    0    0    0  0.00000000000E+00  0.00000000000E+00  0.45593999997E+02  0.45594000000E+02  0.51100000000E-03 0. -1.
         11   -1    0    0    0    0 -0.00000000000E+00 -0.00000000000E+00 -0.45593999997E+02  0.45594000000E+02  0.51100000000E-03 0.  1.
         23    2    1    2    0    0 -0.44408920985E-15  0.00000000000E+00 -0.71054273576E-14  0.91188000000E+02  0.91188000000E+02 0.  0.
    9900012    2    3    3    0    0 -0.25004782853E+01  0.15063803017E+02 -0.33505376150E+02  0.54367071387E+02  0.39999970841E+02 0.  0.
         12    1    3    3    0    0  0.25004782853E+01 -0.15063803017E+02  0.33505376150E+02  0.36820928613E+02  0.00000000000E+00 0. -1.
         11    1    4    4    0    0 -0.41020202257E+01  0.83535142634E+01 -0.22260468643E+01  0.95688586249E+01  0.51100000000E-03 0. -1.
        -11    1    4    4    0    0 -0.12184099825E+02 -0.43524017771E+01 -0.68344177347E+01  0.14632325714E+02  0.51100000000E-03 0.  1.
        -12    1    4    4    0    0  0.13785641766E+02  0.11062690530E+02 -0.24444911551E+02  0.30165887048E+02  0.00000000000E+00 0.  1.
</event>
<event>
 8    1  0.1290800E-006  0.9118800E+02  0.7816164E-02  0.1184000E+00
        -11   -1    0    0    0    0  0.00000000000E+00  0.00000000000E+00  0.45593999997E+02  0.45594000000E+02  0.51100000000E-03 0.  1.
         11   -1    0    0    0    0 -0.00000000000E+00 -0.00000000000E+00 -0.45593999997E+02  0.45594000000E+02  0.51100000000E-03 0. -1.
         23    2    1    2    0    0  0.00000000000E+00  0.00000000000E+00  0.00000000000E+00  0.91188000000E+02  0.91188000000E+02 0.  0.
    9900012    2    3    3    0    0 -0.32290656832E+02 -0.16192976315E+02 -0.71330835783E+01  0.54367083635E+02  0.39999998764E+02 0.  0.
         12    1    3    3    0    0  0.32290656832E+02  0.16192976315E+02  0.71330835783E+01  0.36820916365E+02  0.00000000000E+00 0. -1.
         11    1    4    4    0    0 -0.27987765020E+01  0.22528194471E+01 -0.50003652570E-01  0.35931665694E+01  0.51100000000E-03 0. -1.
        -11    1    4    4    0    0  0.53988709726E+01 -0.13232052180E+02 -0.59424667820E+01  0.15477335830E+02  0.51100000000E-03 0.  1.
        -12    1    4    4    0    0 -0.34890751303E+02 -0.52137435816E+01 -0.11406131437E+01  0.35296581236E+02  0.00000000000E+00 0.  1.
</event>
<event>
 8    1  0.1290800E-006  0.9118800E+02  0.7816164E-02  0.1184000E+00
        -11   -1    0    0    0    0  0.00000000000E+00  0.00000000000E+00  0.45593999997E+02  0.45594000000E+02  0.51100000000E-03 0.  1.
         11   -1    0    0    0    0 -0.00000000000E+00 -0.00000000000E+00 -0.45593999997E+02  0.45594000000E+02  0.51100000000E-03 0. -1.
         23    2    1    2    0    0  0.00000000000E+00  0.00000000000E+00  0.35527136788E-14  0.91188000000E+02  0.91188000000E+02 0.  0.
    9900012    2    3    3    0    0 -0.18277618559E+02  0.19829607673E+02  0.25069798345E+02  0.54367089233E+02  0.40000011524E+02 0.  0.
        -12    1    3    3    0    0  0.18277618559E+02 -0.19829607673E+02 -0.25069798345E+02  0.36820910767E+02  0.00000000000E+00 0.  1.
         11    1    4    4    0    0  0.41252493262E+01  0.15329146901E+02  0.39900635357E+01  0.16368293558E+02  0.51100000000E-03 0. -1.
        -11    1    4    4    0    0 -0.11106635559E+02  0.20745560691E+01 -0.26504191692E+01  0.11605423661E+02  0.51100000000E-03 0.  1.
        -12    1    4    4    0    0 -0.11296232326E+02  0.24259047029E+01  0.23730153979E+02  0.26393372014E+02  0.00000000000E+00 0.  1.
</event>
<event>
 8    1  0.1290800E-006  0.9118800E+02  0.7816164E-02  0.1184000E+00
        -11   -1    0    0    0    0  0.00000000000E+00  0.00000000000E+00  0.45593999997E+02  0.45594000000E+02  0.51100000000E-03 0.  1.
         11   -1    0    0    0    0 -0.00000000000E+00 -0.00000000000E+00 -0.45593999997E+02  0.45594000000E+02  0.51100000000E-03 0. -1.
         23    2    1    2    0    0  0.00000000000E+00  0.00000000000E+00 -0.35527136788E-14  0.91188000000E+02  0.91188000000E+02 0.  0.
    9900012    2    3    3    0    0 -0.18864395740E+02  0.25074066991E+02 -0.19266702255E+02  0.54367080974E+02  0.39999992697E+02 0.  0.
        -12    1    3    3    0    0  0.18864395740E+02 -0.25074066991E+02  0.19266702255E+02  0.36820919026E+02  0.00000000000E+00 0.  1.
         11    1    4    4    0    0  0.42100912566E+01 -0.14893827702E+01 -0.15481285648E+02  0.16112521063E+02  0.51100000000E-03 0. -1.
        -11    1    4    4    0    0 -0.24451376110E+01  0.73475321848E+00  0.35711646098E+01  0.43899632300E+01  0.51100000000E-03 0.  1.
        -12    1    4    4    0    0 -0.20629349386E+02  0.25828696543E+02 -0.73565812168E+01  0.33864596681E+02  0.00000000000E+00 0.  1.
</event>
<event>
 8    1  0.1290800E-006  0.9118800E+02  0.7816164E-02  0.1184000E+00
        -11   -1    0    0    0    0  0.00000000000E+00  0.00000000000E+00  0.45593999997E+02  0.45594000000E+02  0.51100000000E-03 0.  1.
         11   -1    0    0    0    0 -0.00000000000E+00 -0.00000000000E+00 -0.45593999997E+02  0.45594000000E+02  0.51100000000E-03 0. -1.
         23    2    1    2    0    0  0.00000000000E+00  0.00000000000E+00  0.44408920985E-15  0.91188000000E+02  0.91188000000E+02 0.  0.
    9900012    2    3    3    0    0 -0.35252782936E+02  0.98579684740E+01 -0.39805583473E+01  0.54367040046E+02  0.39999899392E+02 0.  0.
        -12    1    3    3    0    0  0.35252782936E+02 -0.98579684740E+01  0.39805583473E+01  0.36820959954E+02  0.00000000000E+00 0.  1.
         11    1    4    4    0    0 -0.46148079468E+01 -0.55967057140E+01 -0.62607539868E+01  0.95820983077E+01  0.51100000000E-03 0. -1.
        -11    1    4    4    0    0  0.22403038150E+01  0.72500905951E+01 -0.62618478193E+01  0.98383694377E+01  0.51100000000E-03 0.  1.
        -12    1    4    4    0    0 -0.32878278805E+02  0.82045835929E+01  0.85420434589E+01  0.34946572300E+02  0.00000000000E+00 0.  1.
</event>
<event>
 8    1  0.1290800E-006  0.9118800E+02  0.7816164E-02  0.1184000E+00
        -11   -1    0    0    0    0  0.00000000000E+00  0.00000000000E+00  0.45593999997E+02  0.45594000000E+02  0.51100000000E-03 0.  1.
         11   -1    0    0    0    0 -0.00000000000E+00 -0.00000000000E+00 -0.45593999997E+02  0.45594000000E+02  0.51100000000E-03 0. -1.
         23    2    1    2    0    0 -0.35527136788E-14  0.00000000000E+00 -0.17763568394E-14  0.91188000000E+02  0.91188000000E+02 0.  0.
    9900012    2    3    3    0    0 -0.31253434589E+02  0.11893568440E+02  0.15412511532E+02  0.54367086709E+02  0.40000005770E+02 0.  0.
         12    1    3    3    0    0  0.31253434589E+02 -0.11893568440E+02 -0.15412511532E+02  0.36820913291E+02  0.00000000000E+00 0. -1.
         11    1    4    4    0    0 -0.54131647496E+01 -0.50470353272E+01  0.12899618859E+02  0.14871956333E+02  0.51100000000E-03 0. -1.
        -11    1    4    4    0    0 -0.14410548821E+01  0.14850968897E+02  0.12816254775E+01  0.14975662940E+02  0.51100000000E-03 0.  1.
        -12    1    4    4    0    0 -0.24399214958E+02  0.20896348701E+01  0.12312671954E+01  0.24519467436E+02  0.00000000000E+00 0.  1.
</event>
<event>
 8    1  0.1290800E-006  0.9118800E+02  0.7816164E-02  0.1184000E+00
        -11   -1    0    0    0    0  0.00000000000E+00  0.00000000000E+00  0.45593999997E+02  0.45594000000E+02  0.51100000000E-03 0. -1.
         11   -1    0    0    0    0 -0.00000000000E+00 -0.00000000000E+00 -0.45593999997E+02  0.45594000000E+02  0.51100000000E-03 0.  1.
         23    2    1    2    0    0 -0.17763568394E-14  0.71054273576E-14  0.00000000000E+00  0.91188000000E+02  0.91188000000E+02 0.  0.
    9900012    2    3    3    0    0 -0.15007127503E+02  0.32806844351E+02  0.73674138681E+01  0.54367058957E+02  0.39999942505E+02 0.  0.
        -12    1    3    3    0    0  0.15007127503E+02 -0.32806844351E+02 -0.73674138681E+01  0.36820941043E+02  0.00000000000E+00 0.  1.
         11    1    4    4    0    0 -0.10709022739E+02  0.25822394480E+01  0.78460891616E+01  0.13524505314E+02  0.51100000000E-03 0. -1.
        -11    1    4    4    0    0 -0.72514451806E+01  0.27542165366E+00  0.67296721147E+01  0.98968581543E+01  0.51100000000E-03 0.  1.
        -12    1    4    4    0    0  0.29533404170E+01  0.29949183250E+02 -0.72083474083E+01  0.30945695489E+02  0.00000000000E+00 0.  1.
</event>
<event>
 8    1  0.1290800E-006  0.9118800E+02  0.7816164E-02  0.1184000E+00
        -11   -1    0    0    0    0  0.00000000000E+00  0.00000000000E+00  0.45593999997E+02  0.45594000000E+02  0.51100000000E-03 0. -1.
         11   -1    0    0    0    0 -0.00000000000E+00 -0.00000000000E+00 -0.45593999997E+02  0.45594000000E+02  0.51100000000E-03 0.  1.
         23    2    1    2    0    0  0.35527136788E-14 -0.71054273576E-14  0.00000000000E+00  0.91188000000E+02  0.91188000000E+02 0.  0.
    9900012    2    3    3    0    0 -0.19613238744E+02  0.24775144960E+02  0.18902194821E+02  0.54367083242E+02  0.39999997867E+02 0.  0.
        -12    1    3    3    0    0  0.19613238744E+02 -0.24775144960E+02 -0.18902194821E+02  0.36820916758E+02  0.00000000000E+00 0.  1.
         11    1    4    4    0    0 -0.57287466121E+01 -0.28902891333E+01  0.13323995769E+02  0.14788548696E+02  0.51100000000E-03 0. -1.
        -11    1    4    4    0    0 -0.15939679948E+02  0.54206913712E+01  0.20066031828E+01  0.16955345717E+02  0.51100000000E-03 0.  1.
        -12    1    4    4    0    0  0.20551878162E+01  0.22244742722E+02  0.35715958693E+01  0.22623188829E+02  0.00000000000E+00 0.  1.
</event>
<event>
 8    1  0.1290800E-006  0.9118800E+02  0.7816164E-02  0.1184000E+00
        -11   -1    0    0    0    0  0.00000000000E+00  0.00000000000E+00  0.45593999997E+02  0.45594000000E+02  0.51100000000E-03 0.  1.
         11   -1    0    0    0    0 -0.00000000000E+00 -0.00000000000E+00 -0.45593999997E+02  0.45594000000E+02  0.51100000000E-03 0. -1.
         23    2    1    2    0    0  0.00000000000E+00  0.17763568394E-14  0.00000000000E+00  0.91188000000E+02  0.91188000000E+02 0.  0.
    9900012    2    3    3    0    0  0.14717970125E+02  0.12706649743E+02 -0.31268246834E+02  0.54367070458E+02  0.39999968723E+02 0.  0.
        -12    1    3    3    0    0 -0.14717970125E+02 -0.12706649743E+02  0.31268246834E+02  0.36820929542E+02  0.00000000000E+00 0.  1.
         11    1    4    4    0    0  0.25699763812E+01  0.14126847900E+02  0.97651160008E+00  0.14391879146E+02  0.51100000000E-03 0. -1.
        -11    1    4    4    0    0 -0.43850897316E+01 -0.46592600034E+01 -0.12320790042E+02  0.13883068222E+02  0.51100000000E-03 0.  1.
         12    1    4    4    0    0  0.16533083476E+02  0.32390618462E+01 -0.19923968391E+02  0.26092123090E+02  0.00000000000E+00 0. -1.
</event>
<event>
 8    1  0.1290800E-006  0.9118800E+02  0.7816164E-02  0.1184000E+00
        -11   -1    0    0    0    0  0.00000000000E+00  0.00000000000E+00  0.45593999997E+02  0.45594000000E+02  0.51100000000E-03 0.  1.
         11   -1    0    0    0    0 -0.00000000000E+00 -0.00000000000E+00 -0.45593999997E+02  0.45594000000E+02  0.51100000000E-03 0. -1.
         23    2    1    2    0    0  0.71054273576E-14  0.35527136788E-14  0.00000000000E+00  0.91188000000E+02  0.91188000000E+02 0.  0.
    9900012    2    3    3    0    0 -0.30355262225E+02 -0.19776508101E+02 -0.65745940497E+01  0.54367115921E+02  0.40000072364E+02 0.  0.
        -12    1    3    3    0    0  0.30355262225E+02  0.19776508101E+02  0.65745940497E+01  0.36820884079E+02  0.00000000000E+00 0.  1.
         11    1    4    4    0    0 -0.11929150758E+02  0.57740263135E+01 -0.71437046261E+01  0.15055780741E+02  0.51100000000E-03 0. -1.
        -11    1    4    4    0    0 -0.12264757534E+02 -0.14632119872E+02  0.11829265506E+02  0.22460069724E+02  0.51100000000E-03 0.  1.
         12    1    4    4    0    0 -0.61613539330E+01 -0.10918414543E+02 -0.11260154930E+02  0.16851265456E+02  0.00000000000E+00 0. -1.
</event>
<event>
 8    1  0.1290800E-006  0.9118800E+02  0.7816164E-02  0.1184000E+00
        -11   -1    0    0    0    0  0.00000000000E+00  0.00000000000E+00  0.45593999997E+02  0.45594000000E+02  0.51100000000E-03 0. -1.
         11   -1    0    0    0    0 -0.00000000000E+00 -0.00000000000E+00 -0.45593999997E+02  0.45594000000E+02  0.51100000000E-03 0.  1.
         23    2    1    2    0    0 -0.88817841970E-15  0.00000000000E+00  0.00000000000E+00  0.91188000000E+02  0.91188000000E+02 0.  0.
    9900012    2    3    3    0    0 -0.44305681223E+01 -0.10276826759E+01  0.36538933016E+02  0.54367086221E+02  0.40000004658E+02 0.  0.
        -12    1    3    3    0    0  0.44305681223E+01  0.10276826759E+01 -0.36538933016E+02  0.36820913779E+02  0.00000000000E+00 0.  1.
         11    1    4    4    0    0 -0.94789716572E+01  0.27756025922E+01  0.42484826266E+02  0.43617832781E+02  0.51100000000E-03 0. -1.
        -11    1    4    4    0    0  0.46754664739E+01 -0.31449357707E+01 -0.97181704107E+00  0.57179573602E+01  0.51100000000E-03 0.  1.
         12    1    4    4    0    0  0.37293706105E+00 -0.65834949742E+00 -0.49740762087E+01  0.50312960797E+01  0.00000000000E+00 0. -1.
</event>
<event>
 8    1  0.1290800E-006  0.9118800E+02  0.7816164E-02  0.1184000E+00
        -11   -1    0    0    0    0  0.00000000000E+00  0.00000000000E+00  0.45593999997E+02  0.45594000000E+02  0.51100000000E-03 0. -1.
         11   -1    0    0    0    0 -0.00000000000E+00 -0.00000000000E+00 -0.45593999997E+02  0.45594000000E+02  0.51100000000E-03 0.  1.
         23    2    1    2    0    0  0.00000000000E+00 -0.17763568394E-14  0.71054273576E-14  0.91188000000E+02  0.91188000000E+02 0.  0.
    9900012    2    3    3    0    0 -0.94735459109E+01  0.15229707830E+02 -0.32157258055E+02  0.54367064130E+02  0.39999954298E+02 0.  0.
         12    1    3    3    0    0  0.94735459109E+01 -0.15229707830E+02  0.32157258055E+02  0.36820935870E+02  0.00000000000E+00 0. -1.
         11    1    4    4    0    0 -0.88101069530E+01  0.20077198231E+01 -0.28158161528E+01  0.94645519851E+01  0.51100000000E-03 0. -1.
        -11    1    4    4    0    0 -0.15386155235E+02  0.11054551226E+02 -0.14236844893E+02  0.23698620814E+02  0.51100000000E-03 0.  1.
         12    1    4    4    0    0  0.14722716277E+02  0.21674367810E+01 -0.15104597009E+02  0.21203891331E+02  0.00000000000E+00 0. -1.
</event>
<event>
 8    1  0.1290800E-006  0.9118800E+02  0.7816164E-02  0.1184000E+00
        -11   -1    0    0    0    0  0.00000000000E+00  0.00000000000E+00  0.45593999997E+02  0.45594000000E+02  0.51100000000E-03 0. -1.
         11   -1    0    0    0    0 -0.00000000000E+00 -0.00000000000E+00 -0.45593999997E+02  0.45594000000E+02  0.51100000000E-03 0.  1.
         23    2    1    2    0    0 -0.35527136788E-14  0.35527136788E-14  0.88817841970E-15  0.91188000000E+02  0.91188000000E+02 0.  0.
    9900012    2    3    3    0    0  0.29581006396E+02 -0.21511284559E+02 -0.42435388647E+01  0.54367096631E+02  0.40000028390E+02 0.  0.
         12    1    3    3    0    0 -0.29581006396E+02  0.21511284559E+02  0.42435388647E+01  0.36820903369E+02  0.00000000000E+00 0. -1.
         11    1    4    4    0    0  0.13337316977E+01  0.91860973656E+01 -0.48672125603E+01  0.10481077398E+02  0.51100000000E-03 0. -1.
        -11    1    4    4    0    0  0.76435564351E+01 -0.14949855369E+02 -0.46502719042E+01  0.17422604844E+02  0.51100000000E-03 0.  1.
        -12    1    4    4    0    0  0.20603718264E+02 -0.15747526556E+02  0.52739455998E+01  0.26463414389E+02  0.00000000000E+00 0.  1.
</event>
<event>
 8    1  0.1290800E-006  0.9118800E+02  0.7816164E-02  0.1184000E+00
        -11   -1    0    0    0    0  0.00000000000E+00  0.00000000000E+00  0.45593999997E+02  0.45594000000E+02  0.51100000000E-03 0.  1.
         11   -1    0    0    0    0 -0.00000000000E+00 -0.00000000000E+00 -0.45593999997E+02  0.45594000000E+02  0.51100000000E-03 0. -1.
         23    2    1    2    0    0 -0.71054273576E-14 -0.17763568394E-14 -0.88817841970E-15  0.91188000000E+02  0.91188000000E+02 0.  0.
    9900012    2    3    3    0    0 -0.35592761329E+02 -0.93164384459E+01  0.14628158891E+01  0.54367075043E+02  0.39999979176E+02 0.  0.
         12    1    3    3    0    0  0.35592761329E+02  0.93164384459E+01 -0.14628158891E+01  0.36820924957E+02  0.00000000000E+00 0. -1.
         11    1    4    4    0    0 -0.17334074775E+01 -0.14255290184E+02 -0.23758902560E+01  0.14555509421E+02  0.51100000000E-03 0. -1.
        -11    1    4    4    0    0 -0.93040246772E+01  0.41709273211E+01  0.10212270997E+02  0.14430938608E+02  0.51100000000E-03 0.  1.
        -12    1    4    4    0    0 -0.24555329174E+02  0.76792441747E+00 -0.63735648521E+01  0.25380627015E+02  0.00000000000E+00 0.  1.
</event>
<event>
 8    1  0.1290800E-006  0.9118800E+02  0.7816164E-02  0.1184000E+00
        -11   -1    0    0    0    0  0.00000000000E+00  0.00000000000E+00  0.45593999997E+02  0.45594000000E+02  0.51100000000E-03 0.  1.
         11   -1    0    0    0    0 -0.00000000000E+00 -0.00000000000E+00 -0.45593999997E+02  0.45594000000E+02  0.51100000000E-03 0. -1.
         23    2    1    2    0    0  0.00000000000E+00  0.00000000000E+00  0.00000000000E+00  0.91188000000E+02  0.91188000000E+02 0.  0.
    9900012    2    3    3    0    0  0.46211940757E+01  0.26218975582E+02  0.25435967750E+02  0.54367101442E+02  0.40000039357E+02 0.  0.
         12    1    3    3    0    0 -0.46211940757E+01 -0.26218975582E+02 -0.25435967750E+02  0.36820898558E+02  0.00000000000E+00 0. -1.
         11    1    4    4    0    0  0.39443950032E+01  0.18812414816E+02  0.11287084012E+02  0.22290434471E+02  0.51100000000E-03 0. -1.
        -11    1    4    4    0    0  0.10198540613E+02  0.11298459567E+02  0.15474208572E+02  0.21705219427E+02  0.51100000000E-03 0.  1.
         12    1    4    4    0    0 -0.95217415402E+01 -0.38918988006E+01 -0.13253248336E+01  0.10371447544E+02  0.00000000000E+00 0. -1.
</event>
<event>
 8    1  0.1290800E-006  0.9118800E+02  0.7816164E-02  0.1184000E+00
        -11   -1    0    0    0    0  0.00000000000E+00  0.00000000000E+00  0.45593999997E+02  0.45594000000E+02  0.51100000000E-03 0.  1.
         11   -1    0    0    0    0 -0.00000000000E+00 -0.00000000000E+00 -0.45593999997E+02  0.45594000000E+02  0.51100000000E-03 0. -1.
         23    2    1    2    0    0  0.35527136788E-14  0.00000000000E+00  0.00000000000E+00  0.91188000000E+02  0.91188000000E+02 0.  0.
    9900012    2    3    3    0    0  0.16201316570E+02 -0.22248032746E+02  0.24460621188E+02  0.54367087347E+02  0.40000007225E+02 0.  0.
         12    1    3    3    0    0 -0.16201316570E+02  0.22248032746E+02 -0.24460621188E+02  0.36820912653E+02  0.00000000000E+00 0. -1.
         11    1    4    4    0    0 -0.78147058992E+01 -0.24843388208E+01 -0.31359182587E+01  0.87792682641E+01  0.51100000000E-03 0. -1.
        -11    1    4    4    0    0  0.57870919317E+01  0.27125113079E+01  0.95217355022E+01  0.11467850621E+02  0.51100000000E-03 0.  1.
        -12    1    4    4    0    0  0.18228930538E+02 -0.22476205233E+02  0.18074803944E+02  0.34119968462E+02  0.00000000000E+00 0.  1.
</event>
<event>
 8    1  0.1290800E-006  0.9118800E+02  0.7816164E-02  0.1184000E+00
        -11   -1    0    0    0    0  0.00000000000E+00  0.00000000000E+00  0.45593999997E+02  0.45594000000E+02  0.51100000000E-03 0.  1.
         11   -1    0    0    0    0 -0.00000000000E+00 -0.00000000000E+00 -0.45593999997E+02  0.45594000000E+02  0.51100000000E-03 0. -1.
         23    2    1    2    0    0  0.00000000000E+00  0.53290705182E-14  0.00000000000E+00  0.91188000000E+02  0.91188000000E+02 0.  0.
    9900012    2    3    3    0    0  0.34014180506E+02 -0.94382143085E+01  0.10475466192E+02  0.54367085335E+02  0.40000002638E+02 0.  0.
        -12    1    3    3    0    0 -0.34014180506E+02  0.94382143085E+01 -0.10475466192E+02  0.36820914665E+02  0.00000000000E+00 0.  1.
         11    1    4    4    0    0  0.18962613221E+02  0.88337585355E+01  0.82019089786E+01  0.22469697399E+02  0.51100000000E-03 0. -1.
        -11    1    4    4    0    0  0.18404010144E+02 -0.20676512887E+02  0.17112220698E+01  0.27733626805E+02  0.51100000000E-03 0.  1.
         12    1    4    4    0    0 -0.33524428591E+01  0.24045400430E+01  0.56233514320E+00  0.41637611309E+01  0.00000000000E+00 0. -1.
</event>
<event>
 8    1  0.1290800E-006  0.9118800E+02  0.7816164E-02  0.1184000E+00
        -11   -1    0    0    0    0  0.00000000000E+00  0.00000000000E+00  0.45593999997E+02  0.45594000000E+02  0.51100000000E-03 0.  1.
         11   -1    0    0    0    0 -0.00000000000E+00 -0.00000000000E+00 -0.45593999997E+02  0.45594000000E+02  0.51100000000E-03 0. -1.
         23    2    1    2    0    0 -0.35527136788E-14  0.00000000000E+00 -0.88817841970E-15  0.91188000000E+02  0.91188000000E+02 0.  0.
    9900012    2    3    3    0    0 -0.29845493611E+02  0.21534714206E+02  0.11326504998E+01  0.54367077931E+02  0.39999985760E+02 0.  0.
        -12    1    3    3    0    0  0.29845493611E+02 -0.21534714206E+02 -0.11326504998E+01  0.36820922069E+02  0.00000000000E+00 0.  1.
         11    1    4    4    0    0 -0.93495590622E+01  0.35747282677E+01 -0.31539862893E+01  0.10494787593E+02  0.51100000000E-03 0. -1.
        -11    1    4    4    0    0 -0.23866661468E+02  0.43657807147E+00 -0.39896940175E+01  0.24201772428E+02  0.51100000000E-03 0.  1.
        -12    1    4    4    0    0  0.33707269191E+01  0.17523407867E+02  0.82763308065E+01  0.19670517910E+02  0.00000000000E+00 0.  1.
</event>
<event>
 8    1  0.1290800E-006  0.9118800E+02  0.7816164E-02  0.1184000E+00
        -11   -1    0    0    0    0  0.00000000000E+00  0.00000000000E+00  0.45593999997E+02  0.45594000000E+02  0.51100000000E-03 0.  1.
         11   -1    0    0    0    0 -0.00000000000E+00 -0.00000000000E+00 -0.45593999997E+02  0.45594000000E+02  0.51100000000E-03 0. -1.
         23    2    1    2    0    0  0.00000000000E+00 -0.35527136788E-14  0.17763568394E-14  0.91188000000E+02  0.91188000000E+02 0.  0.
    9900012    2    3    3    0    0  0.28913195513E+02  0.16630585519E+02  0.15595826890E+02  0.54367094717E+02  0.40000024026E+02 0.  0.
        -12    1    3    3    0    0 -0.28913195513E+02 -0.16630585519E+02 -0.15595826890E+02  0.36820905283E+02  0.00000000000E+00 0.  1.
         11    1    4    4    0    0  0.92278946160E+01 -0.32584108762E+01 -0.37229172177E+01  0.10470501103E+02  0.51100000000E-03 0. -1.
        -11    1    4    4    0    0 -0.45653701836E+01  0.13244713011E+01 -0.33898802454E+01  0.58385030171E+01  0.51100000000E-03 0.  1.
         12    1    4    4    0    0  0.24250671081E+02  0.18564525094E+02  0.22708624353E+02  0.38058090597E+02  0.00000000000E+00 0. -1.
</event>
<event>
 8    1  0.1290800E-006  0.9118800E+02  0.7816164E-02  0.1184000E+00
        -11   -1    0    0    0    0  0.00000000000E+00  0.00000000000E+00  0.45593999997E+02  0.45594000000E+02  0.51100000000E-03 0.  1.
         11   -1    0    0    0    0 -0.00000000000E+00 -0.00000000000E+00 -0.45593999997E+02  0.45594000000E+02  0.51100000000E-03 0. -1.
         23    2    1    2    0    0  0.00000000000E+00  0.00000000000E+00  0.35527136788E-14  0.91188000000E+02  0.91188000000E+02 0.  0.
    9900012    2    3    3    0    0 -0.21729106566E+02 -0.13860885407E+02  0.26296447730E+02  0.54367063298E+02  0.39999952400E+02 0.  0.
         12    1    3    3    0    0  0.21729106566E+02  0.13860885407E+02 -0.26296447730E+02  0.36820936702E+02  0.00000000000E+00 0. -1.
         11    1    4    4    0    0 -0.20026406385E+02 -0.43266257157E+01  0.28077103690E+02  0.34757738630E+02  0.51100000000E-03 0. -1.
        -11    1    4    4    0    0 -0.69858582967E+01 -0.10426204046E+02  0.24442801093E+01  0.12786025671E+02  0.51100000000E-03 0.  1.
         12    1    4    4    0    0  0.52831581156E+01  0.89194435482E+00 -0.42249360693E+01  0.68232989966E+01  0.00000000000E+00 0. -1.
</event>
<event>
 8    1  0.1290800E-006  0.9118800E+02  0.7816164E-02  0.1184000E+00
        -11   -1    0    0    0    0  0.00000000000E+00  0.00000000000E+00  0.45593999997E+02  0.45594000000E+02  0.51100000000E-03 0. -1.
         11   -1    0    0    0    0 -0.00000000000E+00 -0.00000000000E+00 -0.45593999997E+02  0.45594000000E+02  0.51100000000E-03 0.  1.
         23    2    1    2    0    0  0.00000000000E+00  0.00000000000E+00  0.66613381478E-15  0.91188000000E+02  0.91188000000E+02 0.  0.
    9900012    2    3    3    0    0 -0.23694143951E+02 -0.28183038626E+02  0.28872578766E+00  0.54367089007E+02  0.40000011008E+02 0.  0.
        -12    1    3    3    0    0  0.23694143951E+02  0.28183038626E+02 -0.28872578766E+00  0.36820910993E+02  0.00000000000E+00 0.  1.
         11    1    4    4    0    0 -0.23568703531E+02 -0.16247384768E+01  0.74701361901E+01  0.24777540157E+02  0.51100000000E-03 0. -1.
        -11    1    4    4    0    0 -0.40174713173E+01 -0.87247355944E+01  0.85945101197E+00  0.96436374507E+01  0.51100000000E-03 0.  1.
        -12    1    4    4    0    0  0.38920308975E+01 -0.17833564555E+02 -0.80408614144E+01  0.19945911399E+02  0.00000000000E+00 0.  1.
</event>
<event>
 8    1  0.1290800E-006  0.9118800E+02  0.7816164E-02  0.1184000E+00
        -11   -1    0    0    0    0  0.00000000000E+00  0.00000000000E+00  0.45593999997E+02  0.45594000000E+02  0.51100000000E-03 0.  1.
         11   -1    0    0    0    0 -0.00000000000E+00 -0.00000000000E+00 -0.45593999997E+02  0.45594000000E+02  0.51100000000E-03 0. -1.
         23    2    1    2    0    0  0.17763568394E-14 -0.35527136788E-14  0.00000000000E+00  0.91188000000E+02  0.91188000000E+02 0.  0.
    9900012    2    3    3    0    0  0.12830428228E+02 -0.30270231531E+02 -0.16579303237E+02  0.54367080657E+02  0.39999991973E+02 0.  0.
         12    1    3    3    0    0 -0.12830428228E+02  0.30270231531E+02  0.16579303237E+02  0.36820919343E+02  0.00000000000E+00 0. -1.
         11    1    4    4    0    0  0.45675653051E+01  0.59412799247E+00 -0.94171920689E+01  0.10483279430E+02  0.51100000000E-03 0. -1.
        -11    1    4    4    0    0  0.12294053664E+02 -0.28005848983E+02  0.47826298154E+01  0.30957145879E+02  0.51100000000E-03 0.  1.
        -12    1    4    4    0    0 -0.40311907417E+01 -0.28585105403E+01 -0.11944740984E+02  0.12926655348E+02  0.00000000000E+00 0.  1.
</event>
<event>
 8    1  0.1290800E-006  0.9118800E+02  0.7816164E-02  0.1184000E+00
        -11   -1    0    0    0    0  0.00000000000E+00  0.00000000000E+00  0.45593999997E+02  0.45594000000E+02  0.51100000000E-03 0.  1.
         11   -1    0    0    0    0 -0.00000000000E+00 -0.00000000000E+00 -0.45593999997E+02  0.45594000000E+02  0.51100000000E-03 0. -1.
         23    2    1    2    0    0  0.17763568394E-14  0.00000000000E+00 -0.11032841307E-14  0.91188000000E+02  0.91188000000E+02 0.  0.
    9900012    2    3    3    0    0 -0.14222117748E+02  0.33963343739E+02 -0.38555117802E-01  0.54367097816E+02  0.40000031091E+02 0.  0.
        -12    1    3    3    0    0  0.14222117748E+02 -0.33963343739E+02  0.38555117802E-01  0.36820902184E+02  0.00000000000E+00 0.  1.
         11    1    4    4    0    0 -0.19815557646E+01  0.13550649514E+01  0.65754682452E+01  0.69999676553E+01  0.51100000000E-03 0. -1.
        -11    1    4    4    0    0  0.32450365795E+00  0.17338035711E+02  0.11288830558E+02  0.20691797422E+02  0.51100000000E-03 0.  1.
         12    1    4    4    0    0 -0.12565065642E+02  0.15270243076E+02 -0.17902853921E+02  0.26675332738E+02  0.00000000000E+00 0. -1.
</event>
<event>
 8    1  0.1290800E-006  0.9118800E+02  0.7816164E-02  0.1184000E+00
        -11   -1    0    0    0    0  0.00000000000E+00  0.00000000000E+00  0.45593999997E+02  0.45594000000E+02  0.51100000000E-03 0. -1.
         11   -1    0    0    0    0 -0.00000000000E+00 -0.00000000000E+00 -0.45593999997E+02  0.45594000000E+02  0.51100000000E-03 0.  1.
         23    2    1    2    0    0 -0.88817841970E-15  0.71054273576E-14  0.00000000000E+00  0.91188000000E+02  0.91188000000E+02 0.  0.
    9900012    2    3    3    0    0 -0.66885357887E+01  0.32442748603E+02  0.16078285691E+02  0.54367085852E+02  0.40000003818E+02 0.  0.
        -12    1    3    3    0    0  0.66885357887E+01 -0.32442748603E+02 -0.16078285691E+02  0.36820914148E+02  0.00000000000E+00 0.  1.
         11    1    4    4    0    0 -0.70059756543E+01  0.23152546974E+02  0.10282324710E+02  0.26284031806E+02  0.51100000000E-03 0. -1.
        -11    1    4    4    0    0 -0.23614954598E+01  0.48546844133E+01 -0.10051729634E+02  0.11409727887E+02  0.51100000000E-03 0.  1.
         12    1    4    4    0    0  0.26789353254E+01  0.44355172157E+01  0.15847690614E+02  0.16673326160E+02  0.00000000000E+00 0. -1.
</event>
<event>
 8    1  0.1290800E-006  0.9118800E+02  0.7816164E-02  0.1184000E+00
        -11   -1    0    0    0    0  0.00000000000E+00  0.00000000000E+00  0.45593999997E+02  0.45594000000E+02  0.51100000000E-03 0. -1.
         11   -1    0    0    0    0 -0.00000000000E+00 -0.00000000000E+00 -0.45593999997E+02  0.45594000000E+02  0.51100000000E-03 0.  1.
         23    2    1    2    0    0 -0.88817841970E-15  0.71054273576E-14  0.88817841970E-15  0.91188000000E+02  0.91188000000E+02 0.  0.
    9900012    2    3    3    0    0 -0.58683685302E+01  0.36237109122E+02  0.28659073679E+01  0.54367092193E+02  0.40000018271E+02 0.  0.
         12    1    3    3    0    0  0.58683685302E+01 -0.36237109122E+02 -0.28659073679E+01  0.36820907807E+02  0.00000000000E+00 0. -1.
         11    1    4    4    0    0  0.47550035064E+01  0.19170129051E+02  0.16048289118E+02  0.25448997820E+02  0.51100000000E-03 0. -1.
        -11    1    4    4    0    0  0.18876824652E+01  0.45047590761E+01 -0.96850078154E+01  0.10846915509E+02  0.51100000000E-03 0.  1.
        -12    1    4    4    0    0 -0.12511054502E+02  0.12562220995E+02 -0.34973739343E+01  0.18071178863E+02  0.00000000000E+00 0.  1.
</event>
<event>
 8    1  0.1290800E-006  0.9118800E+02  0.7816164E-02  0.1184000E+00
        -11   -1    0    0    0    0  0.00000000000E+00  0.00000000000E+00  0.45593999997E+02  0.45594000000E+02  0.51100000000E-03 0.  1.
         11   -1    0    0    0    0 -0.00000000000E+00 -0.00000000000E+00 -0.45593999997E+02  0.45594000000E+02  0.51100000000E-03 0. -1.
         23    2    1    2    0    0  0.00000000000E+00 -0.88817841970E-15 -0.88817841970E-15  0.91188000000E+02  0.91188000000E+02 0.  0.
    9900012    2    3    3    0    0  0.35998264333E+02  0.29221300206E+01  0.71669728912E+01  0.54367090461E+02  0.40000014325E+02 0.  0.
        -12    1    3    3    0    0 -0.35998264333E+02 -0.29221300206E+01 -0.71669728912E+01  0.36820909539E+02  0.00000000000E+00 0.  1.
         11    1    4    4    0    0  0.49761536642E+01  0.83526238799E+01 -0.10955076903E+02  0.14647257121E+02  0.51100000000E-03 0. -1.
        -11    1    4    4    0    0  0.27812781657E+02 -0.57984751733E+01  0.86291372712E+01  0.29692341574E+02  0.51100000000E-03 0.  1.
         12    1    4    4    0    0  0.32093290117E+01  0.36798131400E+00  0.94929125229E+01  0.10027491766E+02  0.00000000000E+00 0. -1.
</event>
<event>
 8    1  0.1290800E-006  0.9118800E+02  0.7816164E-02  0.1184000E+00
        -11   -1    0    0    0    0  0.00000000000E+00  0.00000000000E+00  0.45593999997E+02  0.45594000000E+02  0.51100000000E-03 0.  1.
         11   -1    0    0    0    0 -0.00000000000E+00 -0.00000000000E+00 -0.45593999997E+02  0.45594000000E+02  0.51100000000E-03 0. -1.
         23    2    1    2    0    0 -0.71054273576E-14 -0.17763568394E-14 -0.88817841970E-15  0.91188000000E+02  0.91188000000E+02 0.  0.
    9900012    2    3    3    0    0 -0.34424894045E+02 -0.10630511711E+02 -0.75959439855E+01  0.54367089171E+02  0.40000011384E+02 0.  0.
        -12    1    3    3    0    0  0.34424894045E+02  0.10630511711E+02  0.75959439855E+01  0.36820910829E+02  0.00000000000E+00 0.  1.
         11    1    4    4    0    0 -0.19122424261E+02 -0.74621174208E+01 -0.27704121343E+01  0.20712930494E+02  0.51100000000E-03 0. -1.
        -11    1    4    4    0    0 -0.69238775603E+01 -0.32702625774E+01  0.12357113240E+02  0.14537294992E+02  0.51100000000E-03 0.  1.
         12    1    4    4    0    0 -0.83785922234E+01  0.10186828751E+00 -0.17182645092E+02  0.19116863685E+02  0.00000000000E+00 0. -1.
</event>
<event>
 8    1  0.1290800E-006  0.9118800E+02  0.7816164E-02  0.1184000E+00
        -11   -1    0    0    0    0  0.00000000000E+00  0.00000000000E+00  0.45593999997E+02  0.45594000000E+02  0.51100000000E-03 0.  1.
         11   -1    0    0    0    0 -0.00000000000E+00 -0.00000000000E+00 -0.45593999997E+02  0.45594000000E+02  0.51100000000E-03 0. -1.
         23    2    1    2    0    0 -0.35527136788E-14  0.00000000000E+00  0.00000000000E+00  0.91188000000E+02  0.91188000000E+02 0.  0.
    9900012    2    3    3    0    0  0.26966881508E+02 -0.13801924903E+02 -0.20930204967E+02  0.54367091412E+02  0.40000016493E+02 0.  0.
        -12    1    3    3    0    0 -0.26966881508E+02  0.13801924903E+02  0.20930204967E+02  0.36820908588E+02  0.00000000000E+00 0.  1.
         11    1    4    4    0    0  0.34953913298E+02 -0.13149723513E+02 -0.94047432925E+01  0.38511562939E+02  0.51100000000E-03 0. -1.
        -11    1    4    4    0    0 -0.45854830640E+00  0.26299053387E+01 -0.26004200444E+01  0.37267751888E+01  0.51100000000E-03 0.  1.
         12    1    4    4    0    0 -0.75284834842E+01 -0.32821067287E+01 -0.89250416297E+01  0.12128753285E+02  0.00000000000E+00 0. -1.
</event>
<event>
 8    1  0.1290800E-006  0.9118800E+02  0.7816164E-02  0.1184000E+00
        -11   -1    0    0    0    0  0.00000000000E+00  0.00000000000E+00  0.45593999997E+02  0.45594000000E+02  0.51100000000E-03 0.  1.
         11   -1    0    0    0    0 -0.00000000000E+00 -0.00000000000E+00 -0.45593999997E+02  0.45594000000E+02  0.51100000000E-03 0. -1.
         23    2    1    2    0    0  0.44408920985E-15 -0.17763568394E-14  0.71054273576E-14  0.91188000000E+02  0.91188000000E+02 0.  0.
    9900012    2    3    3    0    0 -0.29148086462E+00 -0.12369105059E+02  0.34679965795E+02  0.54367085446E+02  0.40000002890E+02 0.  0.
         12    1    3    3    0    0  0.29148086462E+00  0.12369105059E+02 -0.34679965795E+02  0.36820914554E+02  0.00000000000E+00 0. -1.
         11    1    4    4    0    0  0.56752426481E+01 -0.20423962617E+02  0.32539521862E+02  0.38835127287E+02  0.51100000000E-03 0. -1.
        -11    1    4    4    0    0 -0.16670339871E+01 -0.26564929479E+01  0.24592292323E+01  0.39854442380E+01  0.51100000000E-03 0.  1.
         12    1    4    4    0    0 -0.42996895256E+01  0.10711350505E+02 -0.31878529919E+00  0.11546513921E+02  0.00000000000E+00 0. -1.
</event>
<event>
 8    1  0.1290800E-006  0.9118800E+02  0.7816164E-02  0.1184000E+00
        -11   -1    0    0    0    0  0.00000000000E+00  0.00000000000E+00  0.45593999997E+02  0.45594000000E+02  0.51100000000E-03 0.  1.
         11   -1    0    0    0    0 -0.00000000000E+00 -0.00000000000E+00 -0.45593999997E+02  0.45594000000E+02  0.51100000000E-03 0. -1.
         23    2    1    2    0    0 -0.35527136788E-14  0.00000000000E+00  0.17763568394E-14  0.91188000000E+02  0.91188000000E+02 0.  0.
    9900012    2    3    3    0    0  0.27989144635E+02 -0.21626657256E+02 -0.10231095539E+02  0.54367084240E+02  0.40000000142E+02 0.  0.
        -12    1    3    3    0    0 -0.27989144635E+02  0.21626657256E+02  0.10231095539E+02  0.36820915760E+02  0.00000000000E+00 0.  1.
         11    1    4    4    0    0 -0.12800791013E+01 -0.82414184824E+01  0.12297589960E+02  0.14859014106E+02  0.51100000000E-03 0.  1.
        -11    1    4    4    0    0  0.23349589851E+02 -0.11796312648E+02 -0.16611434378E+02  0.30988644544E+02  0.51100000000E-03 0. -1.
        -12    1    4    4    0    0  0.59196338851E+01 -0.15889261261E+01 -0.59172511204E+01  0.85194255904E+01  0.00000000000E+00 0.  1.
</event>
<event>
 8    1  0.1290800E-006  0.9118800E+02  0.7816164E-02  0.1184000E+00
        -11   -1    0    0    0    0  0.00000000000E+00  0.00000000000E+00  0.45593999997E+02  0.45594000000E+02  0.51100000000E-03 0. -1.
         11   -1    0    0    0    0 -0.00000000000E+00 -0.00000000000E+00 -0.45593999997E+02  0.45594000000E+02  0.51100000000E-03 0.  1.
         23    2    1    2    0    0  0.00000000000E+00  0.00000000000E+00  0.00000000000E+00  0.91188000000E+02  0.91188000000E+02 0.  0.
    9900012    2    3    3    0    0  0.12371586392E+02  0.30360363316E+02  0.16762226712E+02  0.54367081287E+02  0.39999993409E+02 0.  0.
        -12    1    3    3    0    0 -0.12371586392E+02 -0.30360363316E+02 -0.16762226712E+02  0.36820918713E+02  0.00000000000E+00 0.  1.
         11    1    4    4    0    0 -0.51393155787E+01  0.18250289633E+02  0.83540835714E+01  0.20718985228E+02  0.51100000000E-03 0. -1.
        -11    1    4    4    0    0  0.17605353942E+02  0.18797758445E+02  0.79063549881E+01  0.26940947634E+02  0.51100000000E-03 0.  1.
        -12    1    4    4    0    0 -0.94451970766E-01 -0.66876847611E+01  0.50178815244E+00  0.67071484245E+01  0.00000000000E+00 0.  1.
</event>
<event>
 8    1  0.1290800E-006  0.9118800E+02  0.7816164E-02  0.1184000E+00
        -11   -1    0    0    0    0  0.00000000000E+00  0.00000000000E+00  0.45593999997E+02  0.45594000000E+02  0.51100000000E-03 0.  1.
         11   -1    0    0    0    0 -0.00000000000E+00 -0.00000000000E+00 -0.45593999997E+02  0.45594000000E+02  0.51100000000E-03 0. -1.
         23    2    1    2    0    0  0.00000000000E+00  0.00000000000E+00  0.00000000000E+00  0.91188000000E+02  0.91188000000E+02 0.  0.
    9900012    2    3    3    0    0  0.26044195255E+02  0.24720456329E+02  0.81473593000E+01  0.54367074820E+02  0.39999978666E+02 0.  0.
        -12    1    3    3    0    0 -0.26044195255E+02 -0.24720456329E+02 -0.81473593000E+01  0.36820925180E+02  0.00000000000E+00 0.  1.
         11    1    4    4    0    0  0.31049363323E+02  0.15738805960E+02 -0.19857968073E+01  0.34867124416E+02  0.51100000000E-03 0. -1.
        -11    1    4    4    0    0  0.26642073847E+01 -0.10139144985E+01  0.52767931595E+01  0.59975469909E+01  0.51100000000E-03 0.  1.
        -12    1    4    4    0    0 -0.76693754526E+01  0.99955648666E+01  0.48563629478E+01  0.13502403413E+02  0.00000000000E+00 0.  1.
</event>
<event>
 8    1  0.1290800E-006  0.9118800E+02  0.7816164E-02  0.1184000E+00
        -11   -1    0    0    0    0  0.00000000000E+00  0.00000000000E+00  0.45593999997E+02  0.45594000000E+02  0.51100000000E-03 0.  1.
         11   -1    0    0    0    0 -0.00000000000E+00 -0.00000000000E+00 -0.45593999997E+02  0.45594000000E+02  0.51100000000E-03 0. -1.
         23    2    1    2    0    0 -0.35527136788E-14  0.12212453271E-14 -0.35527136788E-14  0.91188000000E+02  0.91188000000E+02 0.  0.
    9900012    2    3    3    0    0 -0.21392511937E+02  0.37330925175E+00 -0.29966670413E+02  0.54367078468E+02  0.39999986984E+02 0.  0.
        -12    1    3    3    0    0  0.21392511937E+02 -0.37330925175E+00  0.29966670413E+02  0.36820921532E+02  0.00000000000E+00 0.  1.
         11    1    4    4    0    0 -0.32257093245E+01  0.16993091728E+01 -0.19630346780E+02  0.19966055376E+02  0.51100000000E-03 0. -1.
        -11    1    4    4    0    0  0.86210683640E+00  0.88213473526E+01 -0.92458843880E+01  0.12808035591E+02  0.51100000000E-03 0.  1.
         12    1    4    4    0    0 -0.19028909449E+02 -0.10147347274E+02 -0.10904392456E+01  0.21592987502E+02  0.00000000000E+00 0. -1.
</event>
<event>
 8    1  0.1290800E-006  0.9118800E+02  0.7816164E-02  0.1184000E+00
        -11   -1    0    0    0    0  0.00000000000E+00  0.00000000000E+00  0.45593999997E+02  0.45594000000E+02  0.51100000000E-03 0.  1.
         11   -1    0    0    0    0 -0.00000000000E+00 -0.00000000000E+00 -0.45593999997E+02  0.45594000000E+02  0.51100000000E-03 0. -1.
         23    2    1    2    0    0  0.00000000000E+00  0.17763568394E-14  0.17763568394E-14  0.91188000000E+02  0.91188000000E+02 0.  0.
    9900012    2    3    3    0    0 -0.34155556478E+02 -0.11515549315E+02 -0.75213185720E+01  0.54367080031E+02  0.39999990546E+02 0.  0.
         12    1    3    3    0    0  0.34155556478E+02  0.11515549315E+02  0.75213185720E+01  0.36820919969E+02  0.00000000000E+00 0. -1.
         11    1    4    4    0    0 -0.69063671217E+01 -0.11932110197E+02 -0.88234874286E+01  0.16368478587E+02  0.51100000000E-03 0. -1.
        -11    1    4    4    0    0 -0.22130280390E+02 -0.11497604473E+02  0.19516481747E+01  0.25015058457E+02  0.51100000000E-03 0.  1.
        -12    1    4    4    0    0 -0.51189089654E+01  0.11914165355E+02 -0.64947931817E+00  0.12983542987E+02  0.00000000000E+00 0.  1.
</event>
<event>
 8    1  0.1290800E-006  0.9118800E+02  0.7816164E-02  0.1184000E+00
        -11   -1    0    0    0    0  0.00000000000E+00  0.00000000000E+00  0.45593999997E+02  0.45594000000E+02  0.51100000000E-03 0. -1.
         11   -1    0    0    0    0 -0.00000000000E+00 -0.00000000000E+00 -0.45593999997E+02  0.45594000000E+02  0.51100000000E-03 0.  1.
         23    2    1    2    0    0  0.00000000000E+00  0.00000000000E+00  0.00000000000E+00  0.91188000000E+02  0.91188000000E+02 0.  0.
    9900012    2    3    3    0    0  0.26758481639E+02  0.12435647127E+02 -0.22025410289E+02  0.54367077178E+02  0.39999984042E+02 0.  0.
         12    1    3    3    0    0 -0.26758481639E+02 -0.12435647127E+02  0.22025410289E+02  0.36820922822E+02  0.00000000000E+00 0. -1.
         11    1    4    4    0    0  0.26035643177E+02  0.24496870786E+01 -0.70160689426E+01  0.27075466868E+02  0.51100000000E-03 0. -1.
        -11    1    4    4    0    0  0.33491104227E+01 -0.44749195214E+01  0.86742648360E+00  0.56563127841E+01  0.51100000000E-03 0.  1.
        -12    1    4    4    0    0 -0.26262719604E+01  0.14460879570E+02 -0.15876767829E+02  0.21635297526E+02  0.00000000000E+00 0.  1.
</event>
<event>
 8    1  0.1290800E-006  0.9118800E+02  0.7816164E-02  0.1184000E+00
        -11   -1    0    0    0    0  0.00000000000E+00  0.00000000000E+00  0.45593999997E+02  0.45594000000E+02  0.51100000000E-03 0. -1.
         11   -1    0    0    0    0 -0.00000000000E+00 -0.00000000000E+00 -0.45593999997E+02  0.45594000000E+02  0.51100000000E-03 0.  1.
         23    2    1    2    0    0  0.00000000000E+00 -0.44408920985E-15 -0.17763568394E-14  0.91188000000E+02  0.91188000000E+02 0.  0.
    9900012    2    3    3    0    0  0.34840004054E+02 -0.34759619666E+01  0.11396117138E+02  0.54367086379E+02  0.40000005018E+02 0.  0.
        -12    1    3    3    0    0 -0.34840004054E+02  0.34759619666E+01 -0.11396117138E+02  0.36820913621E+02  0.00000000000E+00 0.  1.
         11    1    4    4    0    0  0.12980640465E+02  0.14039924915E+02  0.58411620486E+01  0.19993391229E+02  0.51100000000E-03 0. -1.
        -11    1    4    4    0    0  0.14596761354E+01  0.11681073249E+01  0.64306426115E+01  0.66968868738E+01  0.51100000000E-03 0.  1.
        -12    1    4    4    0    0  0.20399687453E+02 -0.18683994207E+02 -0.87568752188E+00  0.27676808276E+02  0.00000000000E+00 0.  1.
</event>
<event>
 8    1  0.1290800E-006  0.9118800E+02  0.7816164E-02  0.1184000E+00
        -11   -1    0    0    0    0  0.00000000000E+00  0.00000000000E+00  0.45593999997E+02  0.45594000000E+02  0.51100000000E-03 0.  1.
         11   -1    0    0    0    0 -0.00000000000E+00 -0.00000000000E+00 -0.45593999997E+02  0.45594000000E+02  0.51100000000E-03 0. -1.
         23    2    1    2    0    0  0.00000000000E+00 -0.35527136788E-14  0.00000000000E+00  0.91188000000E+02  0.91188000000E+02 0.  0.
    9900012    2    3    3    0    0 -0.18593665244E+02 -0.19331790507E+02 -0.25225616087E+02  0.54367160542E+02  0.40000174087E+02 0.  0.
        -12    1    3    3    0    0  0.18593665244E+02  0.19331790507E+02  0.25225616087E+02  0.36820839458E+02  0.00000000000E+00 0.  1.
         11    1    4    4    0    0  0.47442782251E+01 -0.42248350733E+01 -0.75591805955E+01  0.98741388896E+01  0.51100000000E-03 0. -1.
        -11    1    4    4    0    0  0.15457597512E+01  0.58993958371E+01 -0.88643945916E+01  0.10759634575E+02  0.51100000000E-03 0.  1.
         12    1    4    4    0    0 -0.24883703221E+02 -0.21006351271E+02 -0.88020409002E+01  0.33733387077E+02  0.00000000000E+00 0. -1.
</event>
<event>
 8    1  0.1290800E-006  0.9118800E+02  0.7816164E-02  0.1184000E+00
        -11   -1    0    0    0    0  0.00000000000E+00  0.00000000000E+00  0.45593999997E+02  0.45594000000E+02  0.51100000000E-03 0. -1.
         11   -1    0    0    0    0 -0.00000000000E+00 -0.00000000000E+00 -0.45593999997E+02  0.45594000000E+02  0.51100000000E-03 0.  1.
         23    2    1    2    0    0  0.35527136788E-14  0.00000000000E+00  0.00000000000E+00  0.91188000000E+02  0.91188000000E+02 0.  0.
    9900012    2    3    3    0    0  0.24176841019E+02 -0.21419866528E+02 -0.17676250110E+02  0.54367080108E+02  0.39999990722E+02 0.  0.
         12    1    3    3    0    0 -0.24176841019E+02  0.21419866528E+02  0.17676250110E+02  0.36820919892E+02  0.00000000000E+00 0. -1.
         11    1    4    4    0    0  0.24323886360E+02 -0.97404527227E+01 -0.15955778847E+01  0.26250214017E+02  0.51100000000E-03 0. -1.
        -11    1    4    4    0    0 -0.34921727585E+01  0.49625532960E+01 -0.37068618655E+01  0.71107686604E+01  0.51100000000E-03 0.  1.
        -12    1    4    4    0    0  0.33451274173E+01 -0.16641967101E+02 -0.12373810360E+02  0.21006097430E+02  0.00000000000E+00 0.  1.
</event>
<event>
 8    1  0.1290800E-006  0.9118800E+02  0.7816164E-02  0.1184000E+00
        -11   -1    0    0    0    0  0.00000000000E+00  0.00000000000E+00  0.45593999997E+02  0.45594000000E+02  0.51100000000E-03 0.  1.
         11   -1    0    0    0    0 -0.00000000000E+00 -0.00000000000E+00 -0.45593999997E+02  0.45594000000E+02  0.51100000000E-03 0. -1.
         23    2    1    2    0    0  0.88817841970E-15  0.35527136788E-14  0.00000000000E+00  0.91188000000E+02  0.91188000000E+02 0.  0.
    9900012    2    3    3    0    0 -0.40165797676E+01 -0.31459249008E+02  0.18707353905E+02  0.54367050103E+02  0.39999922320E+02 0.  0.
         12    1    3    3    0    0  0.40165797676E+01  0.31459249008E+02 -0.18707353905E+02  0.36820949897E+02  0.00000000000E+00 0. -1.
         11    1    4    4    0    0 -0.13347541712E+02 -0.16023154729E+02  0.56361312252E+01  0.21602414973E+02  0.51100000000E-03 0. -1.
        -11    1    4    4    0    0 -0.53600096215E+01 -0.45643690994E+01  0.12657660892E+02  0.14483768430E+02  0.51100000000E-03 0.  1.
         12    1    4    4    0    0  0.14690971566E+02 -0.10871725180E+02  0.41356178686E+00  0.18280866700E+02  0.00000000000E+00 0. -1.
</event>
<event>
 8    1  0.1290800E-006  0.9118800E+02  0.7816164E-02  0.1184000E+00
        -11   -1    0    0    0    0  0.00000000000E+00  0.00000000000E+00  0.45593999997E+02  0.45594000000E+02  0.51100000000E-03 0.  1.
         11   -1    0    0    0    0 -0.00000000000E+00 -0.00000000000E+00 -0.45593999997E+02  0.45594000000E+02  0.51100000000E-03 0. -1.
         23    2    1    2    0    0 -0.35527136788E-14  0.35527136788E-14  0.00000000000E+00  0.91188000000E+02  0.91188000000E+02 0.  0.
    9900012    2    3    3    0    0 -0.12231608888E+02  0.28470888124E+02 -0.19889103895E+02  0.54367079584E+02  0.39999989528E+02 0.  0.
        -12    1    3    3    0    0  0.12231608888E+02 -0.28470888124E+02  0.19889103895E+02  0.36820920416E+02  0.00000000000E+00 0.  1.
         11    1    4    4    0    0 -0.75937776360E+01  0.11229785909E+02 -0.26071148311E+02  0.29385001699E+02  0.51100000000E-03 0. -1.
        -11    1    4    4    0    0  0.17020009372E+01  0.10424149738E+02  0.10344909347E+02  0.14784344917E+02  0.51100000000E-03 0.  1.
        -12    1    4    4    0    0 -0.63398321889E+01  0.68169524769E+01 -0.41628649308E+01  0.10197732968E+02  0.00000000000E+00 0.  1.
</event>
<event>
 8    1  0.1290800E-006  0.9118800E+02  0.7816164E-02  0.1184000E+00
        -11   -1    0    0    0    0  0.00000000000E+00  0.00000000000E+00  0.45593999997E+02  0.45594000000E+02  0.51100000000E-03 0.  1.
         11   -1    0    0    0    0 -0.00000000000E+00 -0.00000000000E+00 -0.45593999997E+02  0.45594000000E+02  0.51100000000E-03 0. -1.
         23    2    1    2    0    0  0.00000000000E+00  0.00000000000E+00  0.00000000000E+00  0.91188000000E+02  0.91188000000E+02 0.  0.
    9900012    2    3    3    0    0  0.33170751849E+02  0.11010739469E+02 -0.11586406475E+02  0.54367082346E+02  0.39999995825E+02 0.  0.
         12    1    3    3    0    0 -0.33170751849E+02 -0.11010739469E+02  0.11586406475E+02  0.36820917654E+02  0.00000000000E+00 0. -1.
         11    1    4    4    0    0 -0.58769286003E+00  0.85558595840E+01  0.22661139491E+01  0.88703657653E+01  0.51100000000E-03 0. -1.
        -11    1    4    4    0    0  0.13054964123E+02  0.51589486377E+01  0.72599324518E+01  0.15803590059E+02  0.51100000000E-03 0.  1.
        -12    1    4    4    0    0  0.20703480586E+02 -0.27040687529E+01 -0.21112452876E+02  0.29693126522E+02  0.00000000000E+00 0.  1.
</event>
<event>
 8    1  0.1290800E-006  0.9118800E+02  0.7816164E-02  0.1184000E+00
        -11   -1    0    0    0    0  0.00000000000E+00  0.00000000000E+00  0.45593999997E+02  0.45594000000E+02  0.51100000000E-03 0. -1.
         11   -1    0    0    0    0 -0.00000000000E+00 -0.00000000000E+00 -0.45593999997E+02  0.45594000000E+02  0.51100000000E-03 0.  1.
         23    2    1    2    0    0  0.35527136788E-14 -0.44408920985E-15  0.00000000000E+00  0.91188000000E+02  0.91188000000E+02 0.  0.
    9900012    2    3    3    0    0  0.15262984262E+02  0.57346895253E+00 -0.33503617494E+02  0.54367082841E+02  0.39999996953E+02 0.  0.
         12    1    3    3    0    0 -0.15262984262E+02 -0.57346895253E+00  0.33503617494E+02  0.36820917159E+02  0.00000000000E+00 0. -1.
         11    1    4    4    0    0  0.24776509098E+02  0.33766153532E+01 -0.19158834490E+02  0.31501394788E+02  0.51100000000E-03 0. -1.
        -11    1    4    4    0    0 -0.12891796519E+02  0.62849287274E+00 -0.94295746780E+01  0.15984689538E+02  0.51100000000E-03 0.  1.
         12    1    4    4    0    0  0.33782716826E+01 -0.34316392734E+01 -0.49152083263E+01  0.68809985144E+01  0.00000000000E+00 0. -1.
</event>
<event>
 8    1  0.1290800E-006  0.9118800E+02  0.7816164E-02  0.1184000E+00
        -11   -1    0    0    0    0  0.00000000000E+00  0.00000000000E+00  0.45593999997E+02  0.45594000000E+02  0.51100000000E-03 0. -1.
         11   -1    0    0    0    0 -0.00000000000E+00 -0.00000000000E+00 -0.45593999997E+02  0.45594000000E+02  0.51100000000E-03 0.  1.
         23    2    1    2    0    0 -0.13322676296E-14  0.00000000000E+00  0.35527136788E-14  0.91188000000E+02  0.91188000000E+02 0.  0.
    9900012    2    3    3    0    0 -0.14025002643E+01 -0.18505541517E+02  0.31801858367E+02  0.54367078373E+02  0.39999986768E+02 0.  0.
        -12    1    3    3    0    0  0.14025002643E+01  0.18505541517E+02 -0.31801858367E+02  0.36820921627E+02  0.00000000000E+00 0.  1.
         11    1    4    4    0    0 -0.62497114110E+01 -0.62040716629E+01  0.15905383642E+02  0.18180501285E+02  0.51100000000E-03 0. -1.
        -11    1    4    4    0    0 -0.77104665658E+01 -0.15900521279E+02  0.31786900832E+01  0.17954997703E+02  0.51100000000E-03 0.  1.
        -12    1    4    4    0    0  0.12557677712E+02  0.35990514249E+01  0.12717784642E+02  0.18231579386E+02  0.00000000000E+00 0.  1.
</event>
<event>
 8    1  0.1290800E-006  0.9118800E+02  0.7816164E-02  0.1184000E+00
        -11   -1    0    0    0    0  0.00000000000E+00  0.00000000000E+00  0.45593999997E+02  0.45594000000E+02  0.51100000000E-03 0.  1.
         11   -1    0    0    0    0 -0.00000000000E+00 -0.00000000000E+00 -0.45593999997E+02  0.45594000000E+02  0.51100000000E-03 0. -1.
         23    2    1    2    0    0  0.35527136788E-14  0.00000000000E+00  0.00000000000E+00  0.91188000000E+02  0.91188000000E+02 0.  0.
    9900012    2    3    3    0    0 -0.16914957394E+02  0.22834016886E+02  0.23415187255E+02  0.54367094186E+02  0.40000022815E+02 0.  0.
         12    1    3    3    0    0  0.16914957394E+02 -0.22834016886E+02 -0.23415187255E+02  0.36820905814E+02  0.00000000000E+00 0. -1.
         11    1    4    4    0    0  0.58519310288E+01 -0.64342482433E+00 -0.58420117363E+00  0.59161121983E+01  0.51100000000E-03 0. -1.
        -11    1    4    4    0    0 -0.26430677902E+02  0.12596216612E+02  0.22387093292E+02  0.36856849480E+02  0.51100000000E-03 0.  1.
        -12    1    4    4    0    0  0.36637894788E+01  0.10881225098E+02  0.16122951368E+01  0.11594132507E+02  0.00000000000E+00 0.  1.
</event>
<event>
 8    1  0.1290800E-006  0.9118800E+02  0.7816164E-02  0.1184000E+00
        -11   -1    0    0    0    0  0.00000000000E+00  0.00000000000E+00  0.45593999997E+02  0.45594000000E+02  0.51100000000E-03 0. -1.
         11   -1    0    0    0    0 -0.00000000000E+00 -0.00000000000E+00 -0.45593999997E+02  0.45594000000E+02  0.51100000000E-03 0.  1.
         23    2    1    2    0    0  0.00000000000E+00 -0.17763568394E-14  0.00000000000E+00  0.91188000000E+02  0.91188000000E+02 0.  0.
    9900012    2    3    3    0    0 -0.21042318126E+01 -0.13644414609E+02 -0.34134769855E+02  0.54367077217E+02  0.39999984131E+02 0.  0.
         12    1    3    3    0    0  0.21042318126E+01  0.13644414609E+02  0.34134769855E+02  0.36820922783E+02  0.00000000000E+00 0. -1.
         11    1    4    4    0    0 -0.19981671597E+01 -0.13308450877E+02  0.36034443161E+01  0.13931702981E+02  0.51100000000E-03 0. -1.
        -11    1    4    4    0    0 -0.22513208179E+01 -0.55828699420E+01 -0.72437621361E+01  0.94185440679E+01  0.51100000000E-03 0.  1.
        -12    1    4    4    0    0  0.21452561649E+01  0.52469062097E+01 -0.30494452035E+02  0.31016830169E+02  0.00000000000E+00 0.  1.
</event>
<event>
 8    1  0.1290800E-006  0.9118800E+02  0.7816164E-02  0.1184000E+00
        -11   -1    0    0    0    0  0.00000000000E+00  0.00000000000E+00  0.45593999997E+02  0.45594000000E+02  0.51100000000E-03 0. -1.
         11   -1    0    0    0    0 -0.00000000000E+00 -0.00000000000E+00 -0.45593999997E+02  0.45594000000E+02  0.51100000000E-03 0.  1.
         23    2    1    2    0    0  0.00000000000E+00  0.00000000000E+00  0.35527136788E-14  0.91188000000E+02  0.91188000000E+02 0.  0.
    9900012    2    3    3    0    0  0.25440384004E+02  0.13671733667E+02 -0.22839683114E+02  0.54367074367E+02  0.39999977635E+02 0.  0.
         12    1    3    3    0    0 -0.25440384004E+02 -0.13671733667E+02  0.22839683114E+02  0.36820925633E+02  0.00000000000E+00 0. -1.
         11    1    4    4    0    0 -0.70485241062E+01  0.67112670076E+01 -0.53728445087E+01  0.11117115422E+02  0.51100000000E-03 0. -1.
        -11    1    4    4    0    0  0.82563140296E+01 -0.45470656959E+01 -0.12995342975E+02  0.16053705712E+02  0.51100000000E-03 0.  1.
         12    1    4    4    0    0  0.24232594080E+02  0.11507532355E+02 -0.44714956299E+01  0.27196253233E+02  0.00000000000E+00 0. -1.
</event>
<event>
 8    1  0.1290800E-006  0.9118800E+02  0.7816164E-02  0.1184000E+00
        -11   -1    0    0    0    0  0.00000000000E+00  0.00000000000E+00  0.45593999997E+02  0.45594000000E+02  0.51100000000E-03 0.  1.
         11   -1    0    0    0    0 -0.00000000000E+00 -0.00000000000E+00 -0.45593999997E+02  0.45594000000E+02  0.51100000000E-03 0. -1.
         23    2    1    2    0    0  0.44408920985E-15 -0.88817841970E-15  0.00000000000E+00  0.91188000000E+02  0.91188000000E+02 0.  0.
    9900012    2    3    3    0    0  0.24507352178E+01  0.42896315947E+01  0.36487981955E+02  0.54367083805E+02  0.39999999150E+02 0.  0.
         12    1    3    3    0    0 -0.24507352178E+01 -0.42896315947E+01 -0.36487981955E+02  0.36820916195E+02  0.00000000000E+00 0. -1.
         11    1    4    4    0    0  0.12258846497E+02  0.10279805204E+02  0.12390366136E+02  0.20235485803E+02  0.51100000000E-03 0. -1.
        -11    1    4    4    0    0  0.60807381495E+01 -0.49437571413E+01  0.51314216805E+01  0.93673688856E+01  0.51100000000E-03 0.  1.
         12    1    4    4    0    0 -0.15888849429E+02 -0.10464164677E+01  0.18966194139E+02  0.24764229116E+02  0.00000000000E+00 0. -1.
</event>
<event>
 8    1  0.1290800E-006  0.9118800E+02  0.7816164E-02  0.1184000E+00
        -11   -1    0    0    0    0  0.00000000000E+00  0.00000000000E+00  0.45593999997E+02  0.45594000000E+02  0.51100000000E-03 0. -1.
         11   -1    0    0    0    0 -0.00000000000E+00 -0.00000000000E+00 -0.45593999997E+02  0.45594000000E+02  0.51100000000E-03 0.  1.
         23    2    1    2    0    0  0.00000000000E+00  0.00000000000E+00  0.00000000000E+00  0.91188000000E+02  0.91188000000E+02 0.  0.
    9900012    2    3    3    0    0 -0.21466058192E+02  0.19911431287E+02  0.22327512443E+02  0.54367155875E+02  0.40000163448E+02 0.  0.
        -12    1    3    3    0    0  0.21466058192E+02 -0.19911431287E+02 -0.22327512443E+02  0.36820844125E+02  0.00000000000E+00 0.  1.
         11    1    4    4    0    0 -0.12159209169E+02  0.23382281614E+02 -0.25460236749E+01  0.26477531945E+02  0.51100000000E-03 0. -1.
        -11    1    4    4    0    0 -0.35517461413E+01 -0.50643902351E+01  0.16361606426E+02  0.17491858512E+02  0.51100000000E-03 0.  1.
         12    1    4    4    0    0 -0.57551028811E+01  0.15935399080E+01  0.85119296914E+01  0.10397765418E+02  0.00000000000E+00 0. -1.
</event>
<event>
 8    1  0.1290800E-006  0.9118800E+02  0.7816164E-02  0.1184000E+00
        -11   -1    0    0    0    0  0.00000000000E+00  0.00000000000E+00  0.45593999997E+02  0.45594000000E+02  0.51100000000E-03 0. -1.
         11   -1    0    0    0    0 -0.00000000000E+00 -0.00000000000E+00 -0.45593999997E+02  0.45594000000E+02  0.51100000000E-03 0.  1.
         23    2    1    2    0    0 -0.44408920985E-15 -0.17763568394E-14  0.00000000000E+00  0.91188000000E+02  0.91188000000E+02 0.  0.
    9900012    2    3    3    0    0 -0.39445165184E+01  0.59114396102E+01  0.36128587907E+02  0.54367092991E+02  0.40000020092E+02 0.  0.
        -12    1    3    3    0    0  0.39445165184E+01 -0.59114396102E+01 -0.36128587907E+02  0.36820907009E+02  0.00000000000E+00 0.  1.
         11    1    4    4    0    0  0.27221555407E+01 -0.56135751366E+01  0.17514419993E+02  0.18592398031E+02  0.51100000000E-03 0. -1.
        -11    1    4    4    0    0 -0.11305154077E+02 -0.54545665206E+01  0.49552582955E+01  0.13494939409E+02  0.51100000000E-03 0.  1.
         12    1    4    4    0    0  0.46384820177E+01  0.16979581267E+02  0.13658909618E+02  0.22279755551E+02  0.00000000000E+00 0. -1.
</event>
<event>
 8    1  0.1290800E-006  0.9118800E+02  0.7816164E-02  0.1184000E+00
        -11   -1    0    0    0    0  0.00000000000E+00  0.00000000000E+00  0.45593999997E+02  0.45594000000E+02  0.51100000000E-03 0.  1.
         11   -1    0    0    0    0 -0.00000000000E+00 -0.00000000000E+00 -0.45593999997E+02  0.45594000000E+02  0.51100000000E-03 0. -1.
         23    2    1    2    0    0  0.00000000000E+00  0.00000000000E+00 -0.88817841970E-15  0.91188000000E+02  0.91188000000E+02 0.  0.
    9900012    2    3    3    0    0  0.35422732983E+02  0.79617524895E+01 -0.61335900627E+01  0.54367076034E+02  0.39999981434E+02 0.  0.
        -12    1    3    3    0    0 -0.35422732983E+02 -0.79617524895E+01  0.61335900627E+01  0.36820923966E+02  0.00000000000E+00 0.  1.
         11    1    4    4    0    0  0.96979902845E+01  0.14741843381E+02 -0.65105859871E+01  0.18808527109E+02  0.51100000000E-03 0. -1.
        -11    1    4    4    0    0  0.19137383687E+02  0.34610711750E+01 -0.77322845721E+01  0.20928609438E+02  0.51100000000E-03 0.  1.
        -12    1    4    4    0    0  0.65873590115E+01 -0.10241162067E+02  0.81092804964E+01  0.14629939487E+02  0.00000000000E+00 0.  1.
</event>
<event>
 8    1  0.1290800E-006  0.9118800E+02  0.7816164E-02  0.1184000E+00
        -11   -1    0    0    0    0  0.00000000000E+00  0.00000000000E+00  0.45593999997E+02  0.45594000000E+02  0.51100000000E-03 0.  1.
         11   -1    0    0    0    0 -0.00000000000E+00 -0.00000000000E+00 -0.45593999997E+02  0.45594000000E+02  0.51100000000E-03 0. -1.
         23    2    1    2    0    0  0.00000000000E+00  0.00000000000E+00  0.35527136788E-14  0.91188000000E+02  0.91188000000E+02 0.  0.
    9900012    2    3    3    0    0 -0.16806527893E+02 -0.26579620332E+02 -0.19153185800E+02  0.54367080361E+02  0.39999991299E+02 0.  0.
        -12    1    3    3    0    0  0.16806527893E+02  0.26579620332E+02  0.19153185800E+02  0.36820919639E+02  0.00000000000E+00 0.  1.
         11    1    4    4    0    0  0.62652948130E+01 -0.87616119337E+01 -0.58314448838E+01  0.12248490212E+02  0.51100000000E-03 0. -1.
        -11    1    4    4    0    0  0.33024555257E+01 -0.21874495574E+01 -0.10628247528E+02  0.11342433330E+02  0.51100000000E-03 0.  1.
         12    1    4    4    0    0 -0.26374278232E+02 -0.15630558840E+02 -0.26934933878E+01  0.30776156819E+02  0.00000000000E+00 0. -1.
</event>
<event>
 8    1  0.1290800E-006  0.9118800E+02  0.7816164E-02  0.1184000E+00
        -11   -1    0    0    0    0  0.00000000000E+00  0.00000000000E+00  0.45593999997E+02  0.45594000000E+02  0.51100000000E-03 0.  1.
         11   -1    0    0    0    0 -0.00000000000E+00 -0.00000000000E+00 -0.45593999997E+02  0.45594000000E+02  0.51100000000E-03 0. -1.
         23    2    1    2    0    0 -0.88817841970E-15 -0.35527136788E-14  0.00000000000E+00  0.91188000000E+02  0.91188000000E+02 0.  0.
    9900012    2    3    3    0    0  0.26761785633E+01 -0.10103010893E+02 -0.35306471592E+02  0.54367086145E+02  0.40000004486E+02 0.  0.
        -12    1    3    3    0    0 -0.26761785633E+01  0.10103010893E+02  0.35306471592E+02  0.36820913855E+02  0.00000000000E+00 0.  1.
         11    1    4    4    0    0  0.82278717112E+01 -0.12388768303E+02 -0.99200960867E+01  0.17877017637E+02  0.51100000000E-03 0. -1.
        -11    1    4    4    0    0  0.35033765157E+01  0.76182290098E+01 -0.24556671796E+02  0.25948818667E+02  0.51100000000E-03 0.  1.
        -12    1    4    4    0    0 -0.90550696636E+01 -0.53324716005E+01 -0.82970370954E+00  0.10541249842E+02  0.00000000000E+00 0.  1.
</event>
<event>
 8    1  0.1290800E-006  0.9118800E+02  0.7816164E-02  0.1184000E+00
        -11   -1    0    0    0    0  0.00000000000E+00  0.00000000000E+00  0.45593999997E+02  0.45594000000E+02  0.51100000000E-03 0. -1.
         11   -1    0    0    0    0 -0.00000000000E+00 -0.00000000000E+00 -0.45593999997E+02  0.45594000000E+02  0.51100000000E-03 0.  1.
         23    2    1    2    0    0 -0.17763568394E-14  0.00000000000E+00  0.00000000000E+00  0.91188000000E+02  0.91188000000E+02 0.  0.
    9900012    2    3    3    0    0  0.13710360712E+02 -0.27761320400E+02  0.19927726168E+02  0.54367093283E+02  0.40000020757E+02 0.  0.
         12    1    3    3    0    0 -0.13710360712E+02  0.27761320400E+02 -0.19927726168E+02  0.36820906717E+02  0.00000000000E+00 0. -1.
         11    1    4    4    0    0  0.93352991026E+01  0.22389194694E+01 -0.49438272964E+01  0.10798240520E+02  0.51100000000E-03 0. -1.
        -11    1    4    4    0    0 -0.12372883536E+01 -0.26658924755E+02  0.12265811103E+02  0.29371402313E+02  0.51100000000E-03 0.  1.
        -12    1    4    4    0    0  0.56123499632E+01 -0.33413151151E+01  0.12605742362E+02  0.14197450451E+02  0.00000000000E+00 0.  1.
</event>
<event>
 8    1  0.1290800E-006  0.9118800E+02  0.7816164E-02  0.1184000E+00
        -11   -1    0    0    0    0  0.00000000000E+00  0.00000000000E+00  0.45593999997E+02  0.45594000000E+02  0.51100000000E-03 0.  1.
         11   -1    0    0    0    0 -0.00000000000E+00 -0.00000000000E+00 -0.45593999997E+02  0.45594000000E+02  0.51100000000E-03 0. -1.
         23    2    1    2    0    0  0.71054273576E-14 -0.35527136788E-14 -0.17763568394E-14  0.91188000000E+02  0.91188000000E+02 0.  0.
    9900012    2    3    3    0    0  0.28650683708E+02 -0.22760162197E+02 -0.41102984118E+01  0.54367065558E+02  0.39999957552E+02 0.  0.
         12    1    3    3    0    0 -0.28650683708E+02  0.22760162197E+02  0.41102984118E+01  0.36820934442E+02  0.00000000000E+00 0. -1.
         11    1    4    4    0    0  0.11367760697E+02 -0.14597964393E+02  0.10830216547E+02  0.21438753192E+02  0.51100000000E-03 0. -1.
        -11    1    4    4    0    0  0.14495286287E+02 -0.87895162569E+01  0.76089692847E+00  0.16969027225E+02  0.51100000000E-03 0.  1.
         12    1    4    4    0    0  0.27876367230E+01  0.62731845228E+00 -0.15701411887E+02  0.15959285141E+02  0.00000000000E+00 0. -1.
</event>
<event>
 8    1  0.1290800E-006  0.9118800E+02  0.7816164E-02  0.1184000E+00
        -11   -1    0    0    0    0  0.00000000000E+00  0.00000000000E+00  0.45593999997E+02  0.45594000000E+02  0.51100000000E-03 0. -1.
         11   -1    0    0    0    0 -0.00000000000E+00 -0.00000000000E+00 -0.45593999997E+02  0.45594000000E+02  0.51100000000E-03 0.  1.
         23    2    1    2    0    0  0.00000000000E+00  0.35527136788E-14 -0.17763568394E-14  0.91188000000E+02  0.91188000000E+02 0.  0.
    9900012    2    3    3    0    0 -0.27330546659E+02 -0.22995616357E+02  0.89456013418E+01  0.54367069326E+02  0.39999966142E+02 0.  0.
        -12    1    3    3    0    0  0.27330546659E+02  0.22995616357E+02 -0.89456013418E+01  0.36820930674E+02  0.00000000000E+00 0.  1.
         11    1    4    4    0    0 -0.32992559389E-01 -0.22139300705E+01  0.61136508238E+01  0.65022535726E+01  0.51100000000E-03 0. -1.
        -11    1    4    4    0    0 -0.13816254768E+02 -0.26508904623E+02  0.10047374697E+02  0.31536655795E+02  0.51100000000E-03 0.  1.
        -12    1    4    4    0    0 -0.13481299332E+02  0.57272183366E+01 -0.72154241794E+01  0.16328159959E+02  0.00000000000E+00 0.  1.
</event>
<event>
 8    1  0.1290800E-006  0.9118800E+02  0.7816164E-02  0.1184000E+00
        -11   -1    0    0    0    0  0.00000000000E+00  0.00000000000E+00  0.45593999997E+02  0.45594000000E+02  0.51100000000E-03 0.  1.
         11   -1    0    0    0    0 -0.00000000000E+00 -0.00000000000E+00 -0.45593999997E+02  0.45594000000E+02  0.51100000000E-03 0. -1.
         23    2    1    2    0    0  0.00000000000E+00  0.00000000000E+00  0.22204460493E-15  0.91188000000E+02  0.91188000000E+02 0.  0.
    9900012    2    3    3    0    0  0.34821965368E+02 -0.11864549303E+02  0.15631331428E+01  0.54367079487E+02  0.39999989306E+02 0.  0.
         12    1    3    3    0    0 -0.34821965368E+02  0.11864549303E+02 -0.15631331428E+01  0.36820920513E+02  0.00000000000E+00 0. -1.
         11    1    4    4    0    0 -0.53558846381E+01 -0.88508177984E+01  0.51195100929E-01  0.10345293479E+02  0.51100000000E-03 0. -1.
        -11    1    4    4    0    0  0.88139413422E+01 -0.59496184055E+00 -0.71823932732E+01  0.11385355285E+02  0.51100000000E-03 0.  1.
        -12    1    4    4    0    0  0.31363908664E+02 -0.24187696637E+01  0.86943313150E+01  0.32636430723E+02  0.00000000000E+00 0.  1.
</event>
<event>
 8    1  0.1290800E-006  0.9118800E+02  0.7816164E-02  0.1184000E+00
        -11   -1    0    0    0    0  0.00000000000E+00  0.00000000000E+00  0.45593999997E+02  0.45594000000E+02  0.51100000000E-03 0. -1.
         11   -1    0    0    0    0 -0.00000000000E+00 -0.00000000000E+00 -0.45593999997E+02  0.45594000000E+02  0.51100000000E-03 0.  1.
         23    2    1    2    0    0  0.00000000000E+00 -0.26645352591E-14 -0.71054273576E-14  0.91188000000E+02  0.91188000000E+02 0.  0.
    9900012    2    3    3    0    0 -0.22075209048E+01 -0.79545200365E+01 -0.35883525118E+02  0.54367151117E+02  0.40000152601E+02 0.  0.
         12    1    3    3    0    0  0.22075209048E+01  0.79545200365E+01  0.35883525118E+02  0.36820848883E+02  0.00000000000E+00 0. -1.
         11    1    4    4    0    0  0.57089753700E+01 -0.22190699617E+02 -0.14250118468E+02  0.26983058127E+02  0.51100000000E-03 0. -1.
        -11    1    4    4    0    0 -0.26101604927E+01  0.65381210606E+01 -0.64220378938E+01  0.95290364556E+01  0.51100000000E-03 0.  1.
         12    1    4    4    0    0 -0.53063357821E+01  0.76980585197E+01 -0.15211368756E+02  0.17855056534E+02  0.00000000000E+00 0. -1.
</event>
<event>
 8    1  0.1290800E-006  0.9118800E+02  0.7816164E-02  0.1184000E+00
        -11   -1    0    0    0    0  0.00000000000E+00  0.00000000000E+00  0.45593999997E+02  0.45594000000E+02  0.51100000000E-03 0.  1.
         11   -1    0    0    0    0 -0.00000000000E+00 -0.00000000000E+00 -0.45593999997E+02  0.45594000000E+02  0.51100000000E-03 0. -1.
         23    2    1    2    0    0  0.00000000000E+00  0.61062266354E-15  0.00000000000E+00  0.91188000000E+02  0.91188000000E+02 0.  0.
    9900012    2    3    3    0    0  0.20234571069E+02 -0.27889095589E+00 -0.30761411577E+02  0.54367080828E+02  0.39999992363E+02 0.  0.
        -12    1    3    3    0    0 -0.20234571069E+02  0.27889095589E+00  0.30761411577E+02  0.36820919172E+02  0.00000000000E+00 0.  1.
         11    1    4    4    0    0  0.33288574699E+01 -0.84123174276E+01 -0.28068772076E+01  0.94724303364E+01  0.51100000000E-03 0. -1.
        -11    1    4    4    0    0  0.20865695476E+02  0.15938666736E+02 -0.22527228816E+02  0.34596161397E+02  0.51100000000E-03 0.  1.
        -12    1    4    4    0    0 -0.39599818774E+01 -0.78052402642E+01 -0.54273055529E+01  0.10298489094E+02  0.00000000000E+00 0.  1.
</event>
<event>
 8    1  0.1290800E-006  0.9118800E+02  0.7816164E-02  0.1184000E+00
        -11   -1    0    0    0    0  0.00000000000E+00  0.00000000000E+00  0.45593999997E+02  0.45594000000E+02  0.51100000000E-03 0.  1.
         11   -1    0    0    0    0 -0.00000000000E+00 -0.00000000000E+00 -0.45593999997E+02  0.45594000000E+02  0.51100000000E-03 0. -1.
         23    2    1    2    0    0  0.00000000000E+00  0.00000000000E+00  0.00000000000E+00  0.91188000000E+02  0.91188000000E+02 0.  0.
    9900012    2    3    3    0    0  0.20815014870E+02 -0.20045419656E+02 -0.22818775314E+02  0.54367079316E+02  0.39999988916E+02 0.  0.
        -12    1    3    3    0    0 -0.20815014870E+02  0.20045419656E+02  0.22818775314E+02  0.36820920684E+02  0.00000000000E+00 0.  1.
         11    1    4    4    0    0 -0.91384010239E+00 -0.25187788085E+02 -0.11898954667E+02  0.27871937406E+02  0.51100000000E-03 0. -1.
        -11    1    4    4    0    0  0.52254540495E+01  0.19305300445E+01  0.12878841100E+01  0.57176010720E+01  0.51100000000E-03 0.  1.
        -12    1    4    4    0    0  0.16503400923E+02  0.32118383842E+01 -0.12207704756E+02  0.20777540837E+02  0.00000000000E+00 0.  1.
</event>
<event>
 8    1  0.1290800E-006  0.9118800E+02  0.7816164E-02  0.1184000E+00
        -11   -1    0    0    0    0  0.00000000000E+00  0.00000000000E+00  0.45593999997E+02  0.45594000000E+02  0.51100000000E-03 0.  1.
         11   -1    0    0    0    0 -0.00000000000E+00 -0.00000000000E+00 -0.45593999997E+02  0.45594000000E+02  0.51100000000E-03 0. -1.
         23    2    1    2    0    0  0.00000000000E+00  0.00000000000E+00  0.00000000000E+00  0.91188000000E+02  0.91188000000E+02 0.  0.
    9900012    2    3    3    0    0  0.35255077222E+02 -0.62770187174E+01  0.85707894447E+01  0.54367083857E+02  0.39999999269E+02 0.  0.
         12    1    3    3    0    0 -0.35255077222E+02  0.62770187174E+01 -0.85707894447E+01  0.36820916143E+02  0.00000000000E+00 0. -1.
         11    1    4    4    0    0  0.28266042761E+02 -0.19605687773E+01 -0.71755482733E+01  0.29228436438E+02  0.51100000000E-03 0. -1.
        -11    1    4    4    0    0  0.42586847248E+01 -0.42133452805E+01 -0.26427138399E+01  0.65477179795E+01  0.51100000000E-03 0.  1.
        -12    1    4    4    0    0  0.27303497359E+01 -0.10310465959E+00  0.18389051558E+02  0.18590929440E+02  0.00000000000E+00 0.  1.
</event>
<event>
 8    1  0.1290800E-006  0.9118800E+02  0.7816164E-02  0.1184000E+00
        -11   -1    0    0    0    0  0.00000000000E+00  0.00000000000E+00  0.45593999997E+02  0.45594000000E+02  0.51100000000E-03 0.  1.
         11   -1    0    0    0    0 -0.00000000000E+00 -0.00000000000E+00 -0.45593999997E+02  0.45594000000E+02  0.51100000000E-03 0. -1.
         23    2    1    2    0    0 -0.71054273576E-14  0.35527136788E-14  0.35527136788E-14  0.91188000000E+02  0.91188000000E+02 0.  0.
    9900012    2    3    3    0    0 -0.32519870057E+02  0.14024095015E+02  0.10077707757E+02  0.54367117567E+02  0.40000076116E+02 0.  0.
         12    1    3    3    0    0  0.32519870057E+02 -0.14024095015E+02 -0.10077707757E+02  0.36820882433E+02  0.00000000000E+00 0. -1.
         11    1    4    4    0    0 -0.75804654574E+01  0.15747380046E+01 -0.16871853431E+01  0.79240047311E+01  0.51100000000E-03 0.  1.
        -11    1    4    4    0    0 -0.34333856263E+01  0.20137136507E+02  0.11826547722E+02  0.23604229172E+02  0.51100000000E-03 0. -1.
         12    1    4    4    0    0 -0.21506018974E+02 -0.76877794966E+01 -0.61654621270E-01  0.22838883663E+02  0.00000000000E+00 0. -1.
</event>
<event>
 8    1  0.1290800E-006  0.9118800E+02  0.7816164E-02  0.1184000E+00
        -11   -1    0    0    0    0  0.00000000000E+00  0.00000000000E+00  0.45593999997E+02  0.45594000000E+02  0.51100000000E-03 0. -1.
         11   -1    0    0    0    0 -0.00000000000E+00 -0.00000000000E+00 -0.45593999997E+02  0.45594000000E+02  0.51100000000E-03 0.  1.
         23    2    1    2    0    0  0.13322676296E-14  0.88817841970E-15 -0.71054273576E-14  0.91188000000E+02  0.91188000000E+02 0.  0.
    9900012    2    3    3    0    0  0.90548266582E+00 -0.60828047647E+01  0.36303625220E+02  0.54367168712E+02  0.40000192711E+02 0.  0.
        -12    1    3    3    0    0 -0.90548266582E+00  0.60828047647E+01 -0.36303625220E+02  0.36820831288E+02  0.00000000000E+00 0.  1.
         11    1    4    4    0    0 -0.87700898560E+01 -0.76052480538E+01  0.13078136006E+02  0.17486906979E+02  0.51100000000E-03 0. -1.
        -11    1    4    4    0    0 -0.84463299979E+01 -0.13009461861E+01  0.13870060925E+02  0.16291456096E+02  0.51100000000E-03 0.  1.
        -12    1    4    4    0    0  0.18121902520E+02  0.28233894752E+01  0.93554282887E+01  0.20588805636E+02  0.00000000000E+00 0.  1.
</event>
<event>
 8    1  0.1290800E-006  0.9118800E+02  0.7816164E-02  0.1184000E+00
        -11   -1    0    0    0    0  0.00000000000E+00  0.00000000000E+00  0.45593999997E+02  0.45594000000E+02  0.51100000000E-03 0. -1.
         11   -1    0    0    0    0 -0.00000000000E+00 -0.00000000000E+00 -0.45593999997E+02  0.45594000000E+02  0.51100000000E-03 0.  1.
         23    2    1    2    0    0  0.00000000000E+00 -0.71054273576E-14  0.00000000000E+00  0.91188000000E+02  0.91188000000E+02 0.  0.
    9900012    2    3    3    0    0 -0.17403902119E+02  0.23959084337E+02 -0.21882561856E+02  0.54367081426E+02  0.39999993727E+02 0.  0.
         12    1    3    3    0    0  0.17403902119E+02 -0.23959084337E+02  0.21882561856E+02  0.36820918574E+02  0.00000000000E+00 0. -1.
         11    1    4    4    0    0  0.40298110812E+01  0.44466692454E+01  0.73885197917E+01  0.95185329595E+01  0.51100000000E-03 0. -1.
        -11    1    4    4    0    0 -0.60232669700E+01 -0.10913169661E+01 -0.33881663379E+00  0.61307026257E+01  0.51100000000E-03 0.  1.
        -12    1    4    4    0    0 -0.15410446230E+02  0.20603732058E+02 -0.28932265014E+02  0.38717845841E+02  0.00000000000E+00 0.  1.
</event>
<event>
 8    1  0.1290800E-006  0.9118800E+02  0.7816164E-02  0.1184000E+00
        -11   -1    0    0    0    0  0.00000000000E+00  0.00000000000E+00  0.45593999997E+02  0.45594000000E+02  0.51100000000E-03 0.  1.
         11   -1    0    0    0    0 -0.00000000000E+00 -0.00000000000E+00 -0.45593999997E+02  0.45594000000E+02  0.51100000000E-03 0. -1.
         23    2    1    2    0    0 -0.17763568394E-14  0.00000000000E+00 -0.88817841970E-15  0.91188000000E+02  0.91188000000E+02 0.  0.
    9900012    2    3    3    0    0 -0.14959460521E+02  0.33312189420E+02 -0.47212800386E+01  0.54367110437E+02  0.40000059863E+02 0.  0.
        -12    1    3    3    0    0  0.14959460521E+02 -0.33312189420E+02  0.47212800386E+01  0.36820889563E+02  0.00000000000E+00 0.  1.
         11    1    4    4    0    0  0.31459813380E+01 -0.57643495044E+00  0.46580510235E+01  0.56503907325E+01  0.51100000000E-03 0.  1.
        -11    1    4    4    0    0 -0.20465859401E+02  0.90391357739E+01 -0.78434667999E+01  0.23708170496E+02  0.51100000000E-03 0. -1.
        -12    1    4    4    0    0  0.23604175423E+01  0.24849488596E+02 -0.15358642621E+01  0.25008549208E+02  0.00000000000E+00 0.  1.
</event>
<event>
 8    1  0.1290800E-006  0.9118800E+02  0.7816164E-02  0.1184000E+00
        -11   -1    0    0    0    0  0.00000000000E+00  0.00000000000E+00  0.45593999997E+02  0.45594000000E+02  0.51100000000E-03 0. -1.
         11   -1    0    0    0    0 -0.00000000000E+00 -0.00000000000E+00 -0.45593999997E+02  0.45594000000E+02  0.51100000000E-03 0.  1.
         23    2    1    2    0    0  0.35527136788E-14  0.00000000000E+00 -0.71054273576E-14  0.91188000000E+02  0.91188000000E+02 0.  0.
    9900012    2    3    3    0    0 -0.11967765503E+02 -0.28668643323E+01  0.34703500536E+02  0.54367091922E+02  0.40000017654E+02 0.  0.
        -12    1    3    3    0    0  0.11967765503E+02  0.28668643323E+01 -0.34703500536E+02  0.36820908078E+02  0.00000000000E+00 0.  1.
         11    1    4    4    0    0  0.28621944138E+01 -0.11273016249E+01  0.19941991479E+02  0.20177858911E+02  0.51100000000E-03 0. -1.
        -11    1    4    4    0    0 -0.89065505832E+01 -0.47332076134E+01  0.22101142606E+02  0.24293834657E+02  0.51100000000E-03 0.  1.
        -12    1    4    4    0    0 -0.59234093333E+01  0.29936449060E+01 -0.73396335485E+01  0.98953983538E+01  0.00000000000E+00 0.  1.
</event>
<event>
 8    1  0.1290800E-006  0.9118800E+02  0.7816164E-02  0.1184000E+00
        -11   -1    0    0    0    0  0.00000000000E+00  0.00000000000E+00  0.45593999997E+02  0.45594000000E+02  0.51100000000E-03 0.  1.
         11   -1    0    0    0    0 -0.00000000000E+00 -0.00000000000E+00 -0.45593999997E+02  0.45594000000E+02  0.51100000000E-03 0. -1.
         23    2    1    2    0    0 -0.88817841970E-15  0.00000000000E+00  0.00000000000E+00  0.91188000000E+02  0.91188000000E+02 0.  0.
    9900012    2    3    3    0    0 -0.35917440169E+01  0.35626802238E+02  0.85797533388E+01  0.54367057180E+02  0.39999938454E+02 0.  0.
         12    1    3    3    0    0  0.35917440169E+01 -0.35626802238E+02 -0.85797533388E+01  0.36820942820E+02  0.00000000000E+00 0. -1.
         11    1    4    4    0    0  0.49611622399E+01  0.13139149229E+02  0.11408465186E+02  0.18094293338E+02  0.51100000000E-03 0. -1.
        -11    1    4    4    0    0  0.23723844210E+01  0.24817379793E+02 -0.97897313054E+00  0.24949728181E+02  0.51100000000E-03 0.  1.
         12    1    4    4    0    0 -0.10925290678E+02 -0.23297267839E+01 -0.18497387169E+01  0.11323035662E+02  0.00000000000E+00 0. -1.
</event>
<event>
 8    1  0.1290800E-006  0.9118800E+02  0.7816164E-02  0.1184000E+00
        -11   -1    0    0    0    0  0.00000000000E+00  0.00000000000E+00  0.45593999997E+02  0.45594000000E+02  0.51100000000E-03 0. -1.
         11   -1    0    0    0    0 -0.00000000000E+00 -0.00000000000E+00 -0.45593999997E+02  0.45594000000E+02  0.51100000000E-03 0.  1.
         23    2    1    2    0    0  0.00000000000E+00  0.00000000000E+00 -0.88817841970E-15  0.91188000000E+02  0.91188000000E+02 0.  0.
    9900012    2    3    3    0    0  0.29896802260E+02 -0.21411594960E+02  0.18724756272E+01  0.54367063712E+02  0.39999953345E+02 0.  0.
        -12    1    3    3    0    0 -0.29896802260E+02  0.21411594960E+02 -0.18724756272E+01  0.36820936288E+02  0.00000000000E+00 0.  1.
         11    1    4    4    0    0  0.65452337521E+00 -0.22143655821E+02  0.33021529201E+01  0.22398082689E+02  0.51100000000E-03 0. -1.
        -11    1    4    4    0    0  0.86659784718E+01  0.26453202349E+00 -0.64233768136E+01  0.10790223817E+02  0.51100000000E-03 0.  1.
         12    1    4    4    0    0  0.20576300413E+02  0.46752883743E+00  0.49936995208E+01  0.21178757207E+02  0.00000000000E+00 0. -1.
</event>
<event>
 8    1  0.1290800E-006  0.9118800E+02  0.7816164E-02  0.1184000E+00
        -11   -1    0    0    0    0  0.00000000000E+00  0.00000000000E+00  0.45593999997E+02  0.45594000000E+02  0.51100000000E-03 0.  1.
         11   -1    0    0    0    0 -0.00000000000E+00 -0.00000000000E+00 -0.45593999997E+02  0.45594000000E+02  0.51100000000E-03 0. -1.
         23    2    1    2    0    0  0.17763568394E-14 -0.71054273576E-14  0.88817841970E-15  0.91188000000E+02  0.91188000000E+02 0.  0.
    9900012    2    3    3    0    0 -0.13549749481E+02 -0.34019056812E+02 -0.38589825565E+01  0.54367032010E+02  0.39999881073E+02 0.  0.
         12    1    3    3    0    0  0.13549749481E+02  0.34019056812E+02  0.38589825565E+01  0.36820967990E+02  0.00000000000E+00 0. -1.
         11    1    4    4    0    0 -0.87883815118E+01 -0.13309273572E+01 -0.14272601602E+02  0.16814106398E+02  0.51100000000E-03 0. -1.
        -11    1    4    4    0    0 -0.18875983807E+01 -0.23144474212E+02  0.11571922993E+00  0.23221608587E+02  0.51100000000E-03 0.  1.
         12    1    4    4    0    0 -0.28737695885E+01 -0.95436552426E+01  0.10297899816E+02  0.14331317024E+02  0.00000000000E+00 0. -1.
</event>
<event>
 8    1  0.1290800E-006  0.9118800E+02  0.7816164E-02  0.1184000E+00
        -11   -1    0    0    0    0  0.00000000000E+00  0.00000000000E+00  0.45593999997E+02  0.45594000000E+02  0.51100000000E-03 0. -1.
         11   -1    0    0    0    0 -0.00000000000E+00 -0.00000000000E+00 -0.45593999997E+02  0.45594000000E+02  0.51100000000E-03 0.  1.
         23    2    1    2    0    0  0.00000000000E+00 -0.35527136788E-14 -0.17763568394E-14  0.91188000000E+02  0.91188000000E+02 0.  0.
    9900012    2    3    3    0    0  0.28379326961E+02 -0.18720552189E+02 -0.14139703324E+02  0.54367129789E+02  0.40000103979E+02 0.  0.
        -12    1    3    3    0    0 -0.28379326961E+02  0.18720552189E+02  0.14139703324E+02  0.36820870211E+02  0.00000000000E+00 0.  1.
         11    1    4    4    0    0  0.27729218686E+02 -0.17461488565E+02 -0.18045222258E+00  0.32769585214E+02  0.51100000000E-03 0. -1.
        -11    1    4    4    0    0  0.71072300470E+01  0.10819870568E+01 -0.14605645866E+01  0.73359841947E+01  0.51100000000E-03 0.  1.
         12    1    4    4    0    0 -0.64571217720E+01 -0.23410506813E+01 -0.12498686515E+02  0.14261560380E+02  0.00000000000E+00 0. -1.
</event>
<event>
 8    1  0.1290800E-006  0.9118800E+02  0.7816164E-02  0.1184000E+00
        -11   -1    0    0    0    0  0.00000000000E+00  0.00000000000E+00  0.45593999997E+02  0.45594000000E+02  0.51100000000E-03 0. -1.
         11   -1    0    0    0    0 -0.00000000000E+00 -0.00000000000E+00 -0.45593999997E+02  0.45594000000E+02  0.51100000000E-03 0.  1.
         23    2    1    2    0    0 -0.35527136788E-14  0.00000000000E+00  0.35527136788E-14  0.91188000000E+02  0.91188000000E+02 0.  0.
    9900012    2    3    3    0    0  0.27600198665E+02 -0.92865982587E+01 -0.22533713190E+02  0.54367080624E+02  0.39999991899E+02 0.  0.
         12    1    3    3    0    0 -0.27600198665E+02  0.92865982587E+01  0.22533713190E+02  0.36820919376E+02  0.00000000000E+00 0. -1.
         11    1    4    4    0    0  0.16543064451E+02 -0.76736289237E+01  0.22549092365E+01  0.18375042265E+02  0.51100000000E-03 0. -1.
        -11    1    4    4    0    0  0.14875661341E+02  0.25625186032E+01 -0.57873228961E+01  0.16166165547E+02  0.51100000000E-03 0.  1.
         12    1    4    4    0    0 -0.38185271272E+01 -0.41754879382E+01 -0.19001299530E+02  0.19825872813E+02  0.00000000000E+00 0. -1.
</event>
<event>
 8    1  0.1290800E-006  0.9118800E+02  0.7816164E-02  0.1184000E+00
        -11   -1    0    0    0    0  0.00000000000E+00  0.00000000000E+00  0.45593999997E+02  0.45594000000E+02  0.51100000000E-03 0.  1.
         11   -1    0    0    0    0 -0.00000000000E+00 -0.00000000000E+00 -0.45593999997E+02  0.45594000000E+02  0.51100000000E-03 0. -1.
         23    2    1    2    0    0 -0.17763568394E-14 -0.17763568394E-14  0.71054273576E-14  0.91188000000E+02  0.91188000000E+02 0.  0.
    9900012    2    3    3    0    0 -0.12965067945E+02 -0.11934235504E+02  0.32330480499E+02  0.54367096519E+02  0.40000028134E+02 0.  0.
         12    1    3    3    0    0  0.12965067945E+02  0.11934235504E+02 -0.32330480499E+02  0.36820903481E+02  0.00000000000E+00 0. -1.
         11    1    4    4    0    0 -0.14012881412E+02  0.65007152600E+01  0.87749694016E+01  0.17765703831E+02  0.51100000000E-03 0. -1.
        -11    1    4    4    0    0 -0.48695236024E+01 -0.13438285707E+02  0.24928827785E+02  0.28735800630E+02  0.51100000000E-03 0.  1.
        -12    1    4    4    0    0  0.59173370700E+01 -0.49966650573E+01 -0.13733166874E+01  0.78655920577E+01  0.00000000000E+00 0.  1.
</event>
<event>
 8    1  0.1290800E-006  0.9118800E+02  0.7816164E-02  0.1184000E+00
        -11   -1    0    0    0    0  0.00000000000E+00  0.00000000000E+00  0.45593999997E+02  0.45594000000E+02  0.51100000000E-03 0.  1.
         11   -1    0    0    0    0 -0.00000000000E+00 -0.00000000000E+00 -0.45593999997E+02  0.45594000000E+02  0.51100000000E-03 0. -1.
         23    2    1    2    0    0  0.88817841970E-15 -0.35527136788E-14 -0.35527136788E-14  0.91188000000E+02  0.91188000000E+02 0.  0.
    9900012    2    3    3    0    0 -0.44910349493E+01  0.27153742864E+02  0.24459857382E+02  0.54367085161E+02  0.40000002241E+02 0.  0.
         12    1    3    3    0    0  0.44910349493E+01 -0.27153742864E+02 -0.24459857382E+02  0.36820914839E+02  0.00000000000E+00 0. -1.
         11    1    4    4    0    0 -0.34347386875E+01 -0.19002894198E+01 -0.43188897163E+01  0.58362092468E+01  0.51100000000E-03 0. -1.
        -11    1    4    4    0    0 -0.54269989437E+01 -0.25490906952E+01  0.95623984678E+01  0.11286702159E+02  0.51100000000E-03 0.  1.
         12    1    4    4    0    0  0.43707026819E+01  0.31603122979E+02  0.19216348630E+02  0.37244173755E+02  0.00000000000E+00 0. -1.
</event>
<event>
 8    1  0.1290800E-006  0.9118800E+02  0.7816164E-02  0.1184000E+00
        -11   -1    0    0    0    0  0.00000000000E+00  0.00000000000E+00  0.45593999997E+02  0.45594000000E+02  0.51100000000E-03 0.  1.
         11   -1    0    0    0    0 -0.00000000000E+00 -0.00000000000E+00 -0.45593999997E+02  0.45594000000E+02  0.51100000000E-03 0. -1.
         23    2    1    2    0    0 -0.88817841970E-15 -0.35527136788E-14  0.00000000000E+00  0.91188000000E+02  0.91188000000E+02 0.  0.
    9900012    2    3    3    0    0  0.46501380572E+01  0.28704884826E+02  0.22587277144E+02  0.54367091733E+02  0.40000017223E+02 0.  0.
         12    1    3    3    0    0 -0.46501380572E+01 -0.28704884826E+02 -0.22587277144E+02  0.36820908267E+02  0.00000000000E+00 0. -1.
         11    1    4    4    0    0 -0.14398752162E+01  0.18393546909E+02 -0.18427114453E+01  0.18541612504E+02  0.51100000000E-03 0. -1.
        -11    1    4    4    0    0 -0.75808329173E+01  0.55200631947E+01  0.17303588224E+02  0.19681318327E+02  0.51100000000E-03 0.  1.
        -12    1    4    4    0    0  0.13670846191E+02  0.47912747227E+01  0.71264003652E+01  0.16144160901E+02  0.00000000000E+00 0.  1.
</event>
<event>
 8    1  0.1290800E-006  0.9118800E+02  0.7816164E-02  0.1184000E+00
        -11   -1    0    0    0    0  0.00000000000E+00  0.00000000000E+00  0.45593999997E+02  0.45594000000E+02  0.51100000000E-03 0. -1.
         11   -1    0    0    0    0 -0.00000000000E+00 -0.00000000000E+00 -0.45593999997E+02  0.45594000000E+02  0.51100000000E-03 0.  1.
         23    2    1    2    0    0  0.00000000000E+00 -0.55511151231E-15  0.00000000000E+00  0.91188000000E+02  0.91188000000E+02 0.  0.
    9900012    2    3    3    0    0  0.23085636717E+02 -0.78585618111E+00  0.28674292495E+02  0.54367092317E+02  0.40000018554E+02 0.  0.
        -12    1    3    3    0    0 -0.23085636717E+02  0.78585618111E+00 -0.28674292495E+02  0.36820907683E+02  0.00000000000E+00 0.  1.
         11    1    4    4    0    0  0.13144717210E+02  0.41112299093E+01  0.73561610214E+01  0.15614061199E+02  0.51100000000E-03 0. -1.
        -11    1    4    4    0    0  0.94436151605E+01  0.93599985361E+01  0.23670795457E+00  0.13298401062E+02  0.51100000000E-03 0.  1.
         12    1    4    4    0    0  0.49730434602E+00 -0.14257084626E+02  0.21081423519E+02  0.25454630055E+02  0.00000000000E+00 0. -1.
</event>
<event>
 8    1  0.1290800E-006  0.9118800E+02  0.7816164E-02  0.1184000E+00
        -11   -1    0    0    0    0  0.00000000000E+00  0.00000000000E+00  0.45593999997E+02  0.45594000000E+02  0.51100000000E-03 0. -1.
         11   -1    0    0    0    0 -0.00000000000E+00 -0.00000000000E+00 -0.45593999997E+02  0.45594000000E+02  0.51100000000E-03 0.  1.
         23    2    1    2    0    0  0.00000000000E+00  0.00000000000E+00  0.88817841970E-15  0.91188000000E+02  0.91188000000E+02 0.  0.
    9900012    2    3    3    0    0  0.90286476302E+01  0.35413022244E+02 -0.44923315008E+01  0.54367086584E+02  0.40000005485E+02 0.  0.
         12    1    3    3    0    0 -0.90286476302E+01 -0.35413022244E+02  0.44923315008E+01  0.36820913416E+02  0.00000000000E+00 0. -1.
         11    1    4    4    0    0 -0.21155901619E+01  0.25062470424E+01  0.28566301937E+01  0.43494059704E+01  0.51100000000E-03 0. -1.
        -11    1    4    4    0    0  0.34380449355E+01  0.16756004289E+02  0.14040535950E+02  0.22129629069E+02  0.51100000000E-03 0.  1.
        -12    1    4    4    0    0  0.77061928567E+01  0.16150770913E+02 -0.21389497645E+02  0.27888051544E+02  0.00000000000E+00 0.  1.
</event>
<event>
 8    1  0.1290800E-006  0.9118800E+02  0.7816164E-02  0.1184000E+00
        -11   -1    0    0    0    0  0.00000000000E+00  0.00000000000E+00  0.45593999997E+02  0.45594000000E+02  0.51100000000E-03 0.  1.
         11   -1    0    0    0    0 -0.00000000000E+00 -0.00000000000E+00 -0.45593999997E+02  0.45594000000E+02  0.51100000000E-03 0. -1.
         23    2    1    2    0    0  0.00000000000E+00  0.00000000000E+00 -0.35527136788E-14  0.91188000000E+02  0.91188000000E+02 0.  0.
    9900012    2    3    3    0    0  0.18510581910E+02 -0.28893413971E+02  0.13353247521E+02  0.54367078870E+02  0.39999987899E+02 0.  0.
         12    1    3    3    0    0 -0.18510581910E+02  0.28893413971E+02 -0.13353247521E+02  0.36820921130E+02  0.00000000000E+00 0. -1.
         11    1    4    4    0    0 -0.25020990944E+01 -0.10021392868E+01 -0.38630375641E+01  0.47103972774E+01  0.51100000000E-03 0. -1.
        -11    1    4    4    0    0  0.23194906458E+01 -0.25824670782E+02  0.16702435291E+02  0.30842584243E+02  0.51100000000E-03 0.  1.
         12    1    4    4    0    0  0.18693190358E+02 -0.20666039017E+01  0.51384979381E+00  0.18814097349E+02  0.00000000000E+00 0. -1.
</event>
<event>
 8    1  0.1290800E-006  0.9118800E+02  0.7816164E-02  0.1184000E+00
        -11   -1    0    0    0    0  0.00000000000E+00  0.00000000000E+00  0.45593999997E+02  0.45594000000E+02  0.51100000000E-03 0.  1.
         11   -1    0    0    0    0 -0.00000000000E+00 -0.00000000000E+00 -0.45593999997E+02  0.45594000000E+02  0.51100000000E-03 0. -1.
         23    2    1    2    0    0 -0.35527136788E-14  0.00000000000E+00  0.88817841970E-15  0.91188000000E+02  0.91188000000E+02 0.  0.
    9900012    2    3    3    0    0  0.18589463009E+02 -0.31609597288E+02 -0.33232413461E+01  0.54367099566E+02  0.40000035082E+02 0.  0.
        -12    1    3    3    0    0 -0.18589463009E+02  0.31609597288E+02  0.33232413461E+01  0.36820900434E+02  0.00000000000E+00 0.  1.
         11    1    4    4    0    0  0.15787613342E+02 -0.64233742178E+01 -0.59055402118E+01  0.18038400063E+02  0.51100000000E-03 0. -1.
        -11    1    4    4    0    0  0.25339229969E+01  0.52337803926E+01  0.33099612925E+00  0.58243267122E+01  0.51100000000E-03 0.  1.
        -12    1    4    4    0    0  0.26792667059E+00 -0.30420003463E+02  0.22513027365E+01  0.30504372791E+02  0.00000000000E+00 0.  1.
</event>
<event>
 8    1  0.1290800E-006  0.9118800E+02  0.7816164E-02  0.1184000E+00
        -11   -1    0    0    0    0  0.00000000000E+00  0.00000000000E+00  0.45593999997E+02  0.45594000000E+02  0.51100000000E-03 0. -1.
         11   -1    0    0    0    0 -0.00000000000E+00 -0.00000000000E+00 -0.45593999997E+02  0.45594000000E+02  0.51100000000E-03 0.  1.
         23    2    1    2    0    0  0.17763568394E-14  0.00000000000E+00  0.00000000000E+00  0.91188000000E+02  0.91188000000E+02 0.  0.
    9900012    2    3    3    0    0  0.14154320665E+02  0.78534606897E+01  0.33072025346E+02  0.54367075259E+02  0.39999979669E+02 0.  0.
        -12    1    3    3    0    0 -0.14154320665E+02 -0.78534606897E+01 -0.33072025346E+02  0.36820924741E+02  0.00000000000E+00 0.  1.
         11    1    4    4    0    0 -0.64860536231E+01 -0.67411096665E+01  0.13300770934E+02  0.16261056511E+02  0.51100000000E-03 0. -1.
        -11    1    4    4    0    0 -0.38989320897E+01 -0.91531615336E-01  0.32636521686E+01  0.50854178997E+01  0.51100000000E-03 0.  1.
        -12    1    4    4    0    0  0.24539306378E+02  0.14686101972E+02  0.16507602243E+02  0.33020600849E+02  0.00000000000E+00 0.  1.
</event>
<event>
 8    1  0.1290800E-006  0.9118800E+02  0.7816164E-02  0.1184000E+00
        -11   -1    0    0    0    0  0.00000000000E+00  0.00000000000E+00  0.45593999997E+02  0.45594000000E+02  0.51100000000E-03 0.  1.
         11   -1    0    0    0    0 -0.00000000000E+00 -0.00000000000E+00 -0.45593999997E+02  0.45594000000E+02  0.51100000000E-03 0. -1.
         23    2    1    2    0    0  0.00000000000E+00 -0.35527136788E-14  0.35527136788E-14  0.91188000000E+02  0.91188000000E+02 0.  0.
    9900012    2    3    3    0    0 -0.21329141448E+02 -0.26404364238E+02  0.14270834289E+02  0.54367089677E+02  0.40000012536E+02 0.  0.
         12    1    3    3    0    0  0.21329141448E+02  0.26404364238E+02 -0.14270834289E+02  0.36820910323E+02  0.00000000000E+00 0. -1.
         11    1    4    4    0    0 -0.26989787322E+01 -0.14827013561E+02 -0.18773546158E+01  0.15187141863E+02  0.51100000000E-03 0. -1.
        -11    1    4    4    0    0 -0.11011170505E+01  0.22100244271E+01 -0.67673270960E+01  0.72037061998E+01  0.51100000000E-03 0.  1.
        -12    1    4    4    0    0 -0.17529045665E+02 -0.13787375104E+02  0.22915516001E+02  0.31976241614E+02  0.00000000000E+00 0.  1.
</event>
<event>
 8    1  0.1290800E-006  0.9118800E+02  0.7816164E-02  0.1184000E+00
        -11   -1    0    0    0    0  0.00000000000E+00  0.00000000000E+00  0.45593999997E+02  0.45594000000E+02  0.51100000000E-03 0. -1.
         11   -1    0    0    0    0 -0.00000000000E+00 -0.00000000000E+00 -0.45593999997E+02  0.45594000000E+02  0.51100000000E-03 0.  1.
         23    2    1    2    0    0  0.88817841970E-15  0.17763568394E-14  0.00000000000E+00  0.91188000000E+02  0.91188000000E+02 0.  0.
    9900012    2    3    3    0    0  0.58729524871E+01 -0.80655924815E+01  0.35443398404E+02  0.54367084159E+02  0.39999999957E+02 0.  0.
        -12    1    3    3    0    0 -0.58729524871E+01  0.80655924815E+01 -0.35443398404E+02  0.36820915841E+02  0.00000000000E+00 0.  1.
         11    1    4    4    0    0 -0.68513333138E+01 -0.10093083082E+01  0.70376612286E+01  0.98736086243E+01  0.51100000000E-03 0. -1.
        -11    1    4    4    0    0  0.22246807207E+02 -0.30382198625E+00  0.21448362171E+02  0.30903802011E+02  0.51100000000E-03 0.  1.
        -12    1    4    4    0    0 -0.95225214058E+01 -0.67524621870E+01  0.69573750044E+01  0.13589673523E+02  0.00000000000E+00 0.  1.
</event>
<event>
 8    1  0.1290800E-006  0.9118800E+02  0.7816164E-02  0.1184000E+00
        -11   -1    0    0    0    0  0.00000000000E+00  0.00000000000E+00  0.45593999997E+02  0.45594000000E+02  0.51100000000E-03 0. -1.
         11   -1    0    0    0    0 -0.00000000000E+00 -0.00000000000E+00 -0.45593999997E+02  0.45594000000E+02  0.51100000000E-03 0.  1.
         23    2    1    2    0    0  0.00000000000E+00 -0.71054273576E-14 -0.17763568394E-14  0.91188000000E+02  0.91188000000E+02 0.  0.
    9900012    2    3    3    0    0 -0.13841489122E+02  0.33656448425E+02  0.56069023918E+01  0.54367072579E+02  0.39999973559E+02 0.  0.
        -12    1    3    3    0    0  0.13841489122E+02 -0.33656448425E+02 -0.56069023918E+01  0.36820927421E+02  0.00000000000E+00 0.  1.
         11    1    4    4    0    0  0.12930541310E+01  0.11965625875E+01 -0.71737081588E+01  0.73868694330E+01  0.51100000000E-03 0. -1.
        -11    1    4    4    0    0  0.43949791123E+01  0.16141474884E+02  0.13535612599E+02  0.21519197511E+02  0.51100000000E-03 0.  1.
         12    1    4    4    0    0 -0.19529522365E+02  0.16318410954E+02 -0.75500204865E+00  0.25461005635E+02  0.00000000000E+00 0. -1.
</event>
<event>
 8    1  0.1290800E-006  0.9118800E+02  0.7816164E-02  0.1184000E+00
        -11   -1    0    0    0    0  0.00000000000E+00  0.00000000000E+00  0.45593999997E+02  0.45594000000E+02  0.51100000000E-03 0.  1.
         11   -1    0    0    0    0 -0.00000000000E+00 -0.00000000000E+00 -0.45593999997E+02  0.45594000000E+02  0.51100000000E-03 0. -1.
         23    2    1    2    0    0  0.35527136788E-14 -0.88817841970E-15  0.00000000000E+00  0.91188000000E+02  0.91188000000E+02 0.  0.
    9900012    2    3    3    0    0 -0.20575735752E+02  0.58176589514E+01  0.29976191455E+02  0.54367107676E+02  0.40000053568E+02 0.  0.
         12    1    3    3    0    0  0.20575735752E+02 -0.58176589514E+01 -0.29976191455E+02  0.36820892324E+02  0.00000000000E+00 0. -1.
         11    1    4    4    0    0 -0.56419924197E+01  0.96413282313E+01 -0.10504874426E+01  0.11220107515E+02  0.51100000000E-03 0. -1.
        -11    1    4    4    0    0 -0.83270314108E+01  0.31733358207E+01  0.32238806792E+02  0.33447723032E+02  0.51100000000E-03 0.  1.
        -12    1    4    4    0    0 -0.66067119210E+01 -0.69970051006E+01 -0.12121278941E+01  0.96992771286E+01  0.00000000000E+00 0.  1.
</event>
<event>
 8    1  0.1290800E-006  0.9118800E+02  0.7816164E-02  0.1184000E+00
        -11   -1    0    0    0    0  0.00000000000E+00  0.00000000000E+00  0.45593999997E+02  0.45594000000E+02  0.51100000000E-03 0.  1.
         11   -1    0    0    0    0 -0.00000000000E+00 -0.00000000000E+00 -0.45593999997E+02  0.45594000000E+02  0.51100000000E-03 0. -1.
         23    2    1    2    0    0 -0.20539125956E-14  0.00000000000E+00  0.71054273576E-14  0.91188000000E+02  0.91188000000E+02 0.  0.
    9900012    2    3    3    0    0 -0.25742662379E+00  0.61581896305E+01 -0.36301382360E+02  0.54367082993E+02  0.39999997300E+02 0.  0.
        -12    1    3    3    0    0  0.25742662379E+00 -0.61581896305E+01  0.36301382360E+02  0.36820917007E+02  0.00000000000E+00 0.  1.
         11    1    4    4    0    0  0.10831389415E+02 -0.21420756945E+01 -0.36825335671E+01  0.11639095268E+02  0.51100000000E-03 0. -1.
        -11    1    4    4    0    0  0.68634861094E+01  0.46620328190E+01 -0.53301490259E+01  0.98616672261E+01  0.51100000000E-03 0.  1.
         12    1    4    4    0    0 -0.17952302148E+02  0.36382325060E+01 -0.27288699767E+02  0.32866320499E+02  0.00000000000E+00 0. -1.
</event>
<event>
 8    1  0.1290800E-006  0.9118800E+02  0.7816164E-02  0.1184000E+00
        -11   -1    0    0    0    0  0.00000000000E+00  0.00000000000E+00  0.45593999997E+02  0.45594000000E+02  0.51100000000E-03 0. -1.
         11   -1    0    0    0    0 -0.00000000000E+00 -0.00000000000E+00 -0.45593999997E+02  0.45594000000E+02  0.51100000000E-03 0.  1.
         23    2    1    2    0    0  0.00000000000E+00  0.00000000000E+00  0.00000000000E+00  0.91188000000E+02  0.91188000000E+02 0.  0.
    9900012    2    3    3    0    0 -0.10113488719E+02  0.28247346143E+02 -0.21344426646E+02  0.54367085196E+02  0.40000002321E+02 0.  0.
         12    1    3    3    0    0  0.10113488719E+02 -0.28247346143E+02  0.21344426646E+02  0.36820914804E+02  0.00000000000E+00 0. -1.
         11    1    4    4    0    0  0.67183767190E+01 -0.22464025140E+01 -0.11911127065E+02  0.13858494082E+02  0.51100000000E-03 0. -1.
        -11    1    4    4    0    0 -0.32064009561E+01  0.39862024616E+00 -0.66036452251E+01  0.73517369180E+01  0.51100000000E-03 0.  1.
        -12    1    4    4    0    0 -0.13625464482E+02  0.30095128410E+02 -0.28296543553E+01  0.33156854196E+02  0.00000000000E+00 0.  1.
</event>
<event>
 8    1  0.1290800E-006  0.9118800E+02  0.7816164E-02  0.1184000E+00
        -11   -1    0    0    0    0  0.00000000000E+00  0.00000000000E+00  0.45593999997E+02  0.45594000000E+02  0.51100000000E-03 0. -1.
         11   -1    0    0    0    0 -0.00000000000E+00 -0.00000000000E+00 -0.45593999997E+02  0.45594000000E+02  0.51100000000E-03 0.  1.
         23    2    1    2    0    0 -0.35527136788E-14  0.22204460493E-15  0.00000000000E+00  0.91188000000E+02  0.91188000000E+02 0.  0.
    9900012    2    3    3    0    0 -0.13672859834E+02  0.14179431170E+01  0.34158810142E+02  0.54367055295E+02  0.39999934155E+02 0.  0.
        -12    1    3    3    0    0  0.13672859834E+02 -0.14179431170E+01 -0.34158810142E+02  0.36820944705E+02  0.00000000000E+00 0.  1.
         11    1    4    4    0    0 -0.17441265290E+02  0.13086832435E-01  0.26897657653E+02  0.32057477969E+02  0.51100000000E-03 0. -1.
        -11    1    4    4    0    0 -0.50739514827E+00  0.35439446925E+01 -0.66759068201E+01  0.75752706850E+01  0.51100000000E-03 0.  1.
        -12    1    4    4    0    0  0.42758006050E+01 -0.21390884079E+01  0.13937059308E+02  0.14734306641E+02  0.00000000000E+00 0.  1.
</event>
<event>
 8    1  0.1290800E-006  0.9118800E+02  0.7816164E-02  0.1184000E+00
        -11   -1    0    0    0    0  0.00000000000E+00  0.00000000000E+00  0.45593999997E+02  0.45594000000E+02  0.51100000000E-03 0. -1.
         11   -1    0    0    0    0 -0.00000000000E+00 -0.00000000000E+00 -0.45593999997E+02  0.45594000000E+02  0.51100000000E-03 0.  1.
         23    2    1    2    0    0  0.00000000000E+00  0.00000000000E+00  0.17763568394E-14  0.91188000000E+02  0.91188000000E+02 0.  0.
    9900012    2    3    3    0    0 -0.29666043558E+02 -0.18756394391E+02 -0.11131176134E+02  0.54367088101E+02  0.40000008944E+02 0.  0.
        -12    1    3    3    0    0  0.29666043558E+02  0.18756394391E+02  0.11131176134E+02  0.36820911899E+02  0.00000000000E+00 0.  1.
         11    1    4    4    0    0 -0.32446651115E+01 -0.75788294678E+01  0.97684654811E+01  0.12782387332E+02  0.51100000000E-03 0. -1.
        -11    1    4    4    0    0  0.17416092801E+01 -0.15268605211E+01  0.27271167136E+01  0.35779423928E+01  0.51100000000E-03 0.  1.
        -12    1    4    4    0    0 -0.28162987727E+02 -0.96507044021E+01 -0.23626758329E+02  0.38006758376E+02  0.00000000000E+00 0.  1.
</event>
<event>
 8    1  0.1290800E-006  0.9118800E+02  0.7816164E-02  0.1184000E+00
        -11   -1    0    0    0    0  0.00000000000E+00  0.00000000000E+00  0.45593999997E+02  0.45594000000E+02  0.51100000000E-03 0. -1.
         11   -1    0    0    0    0 -0.00000000000E+00 -0.00000000000E+00 -0.45593999997E+02  0.45594000000E+02  0.51100000000E-03 0.  1.
         23    2    1    2    0    0  0.00000000000E+00  0.00000000000E+00  0.00000000000E+00  0.91188000000E+02  0.91188000000E+02 0.  0.
    9900012    2    3    3    0    0  0.22029002978E+02 -0.25145880387E+02 -0.15433310905E+02  0.54367090748E+02  0.40000014978E+02 0.  0.
         12    1    3    3    0    0 -0.22029002978E+02  0.25145880387E+02  0.15433310905E+02  0.36820909252E+02  0.00000000000E+00 0. -1.
         11    1    4    4    0    0  0.10914627788E+02  0.43438265032E+01 -0.42226621673E+01  0.12483140810E+02  0.51100000000E-03 0.  1.
        -11    1    4    4    0    0  0.15487229054E+02 -0.12622177632E+02  0.19114245278E+01  0.20070554949E+02  0.51100000000E-03 0. -1.
         12    1    4    4    0    0 -0.43728538636E+01 -0.16867529258E+02 -0.13122073266E+02  0.21813394990E+02  0.00000000000E+00 0. -1.
</event>
<event>
 8    1  0.1290800E-006  0.9118800E+02  0.7816164E-02  0.1184000E+00
        -11   -1    0    0    0    0  0.00000000000E+00  0.00000000000E+00  0.45593999997E+02  0.45594000000E+02  0.51100000000E-03 0. -1.
         11   -1    0    0    0    0 -0.00000000000E+00 -0.00000000000E+00 -0.45593999997E+02  0.45594000000E+02  0.51100000000E-03 0.  1.
         23    2    1    2    0    0  0.00000000000E+00 -0.88817841970E-15  0.00000000000E+00  0.91188000000E+02  0.91188000000E+02 0.  0.
    9900012    2    3    3    0    0 -0.19203190573E+02  0.61657942089E+01  0.30805857425E+02  0.54367076626E+02  0.39999982785E+02 0.  0.
        -12    1    3    3    0    0  0.19203190573E+02 -0.61657942089E+01 -0.30805857425E+02  0.36820923374E+02  0.00000000000E+00 0.  1.
         11    1    4    4    0    0 -0.12103783062E+02 -0.11017160177E+02  0.49906452712E+01  0.17110988378E+02  0.51100000000E-03 0. -1.
        -11    1    4    4    0    0 -0.74058777405E+01 -0.83700447515E+00  0.26595548988E+01  0.79133326810E+01  0.51100000000E-03 0.  1.
         12    1    4    4    0    0  0.30647022943E+00  0.18019958861E+02  0.23155657255E+02  0.29342755567E+02  0.00000000000E+00 0. -1.
</event>
<event>
 8    1  0.1290800E-006  0.9118800E+02  0.7816164E-02  0.1184000E+00
        -11   -1    0    0    0    0  0.00000000000E+00  0.00000000000E+00  0.45593999997E+02  0.45594000000E+02  0.51100000000E-03 0.  1.
         11   -1    0    0    0    0 -0.00000000000E+00 -0.00000000000E+00 -0.45593999997E+02  0.45594000000E+02  0.51100000000E-03 0. -1.
         23    2    1    2    0    0  0.00000000000E+00  0.17763568394E-14  0.17763568394E-14  0.91188000000E+02  0.91188000000E+02 0.  0.
    9900012    2    3    3    0    0  0.31948746577E+02  0.15192614597E+02  0.10209906254E+02  0.54367080241E+02  0.39999991026E+02 0.  0.
         12    1    3    3    0    0 -0.31948746577E+02 -0.15192614597E+02 -0.10209906254E+02  0.36820919759E+02  0.00000000000E+00 0. -1.
         11    1    4    4    0    0 -0.37336951308E+01 -0.55228224107E+01 -0.33203069236E+01  0.74475824962E+01  0.51100000000E-03 0. -1.
        -11    1    4    4    0    0  0.12982990500E+02  0.72356661991E+01  0.14136616343E+02  0.20512357971E+02  0.51100000000E-03 0.  1.
        -12    1    4    4    0    0  0.22699451208E+02  0.13479770809E+02 -0.60640316549E+00  0.26407139774E+02  0.00000000000E+00 0.  1.
</event>
<event>
 8    1  0.1290800E-006  0.9118800E+02  0.7816164E-02  0.1184000E+00
        -11   -1    0    0    0    0  0.00000000000E+00  0.00000000000E+00  0.45593999997E+02  0.45594000000E+02  0.51100000000E-03 0.  1.
         11   -1    0    0    0    0 -0.00000000000E+00 -0.00000000000E+00 -0.45593999997E+02  0.45594000000E+02  0.51100000000E-03 0. -1.
         23    2    1    2    0    0  0.00000000000E+00  0.00000000000E+00  0.00000000000E+00  0.91188000000E+02  0.91188000000E+02 0.  0.
    9900012    2    3    3    0    0  0.85564485565E+01 -0.30509334293E+02 -0.18754918278E+02  0.54367092209E+02  0.40000018309E+02 0.  0.
        -12    1    3    3    0    0 -0.85564485565E+01  0.30509334293E+02  0.18754918278E+02  0.36820907791E+02  0.00000000000E+00 0.  1.
         11    1    4    4    0    0  0.59121645401E+01  0.17251424711E+00  0.71336387046E+00  0.59575447114E+01  0.51100000000E-03 0. -1.
        -11    1    4    4    0    0 -0.53586227787E+01 -0.70235300118E+01  0.75465446924E+01  0.11618741281E+02  0.51100000000E-03 0.  1.
        -12    1    4    4    0    0  0.80029067950E+01 -0.23658318529E+02 -0.27014826841E+02  0.36790806216E+02  0.00000000000E+00 0.  1.
</event>
<event>
 8    1  0.1290800E-006  0.9118800E+02  0.7816164E-02  0.1184000E+00
        -11   -1    0    0    0    0  0.00000000000E+00  0.00000000000E+00  0.45593999997E+02  0.45594000000E+02  0.51100000000E-03 0.  1.
         11   -1    0    0    0    0 -0.00000000000E+00 -0.00000000000E+00 -0.45593999997E+02  0.45594000000E+02  0.51100000000E-03 0. -1.
         23    2    1    2    0    0  0.00000000000E+00  0.00000000000E+00  0.00000000000E+00  0.91188000000E+02  0.91188000000E+02 0.  0.
    9900012    2    3    3    0    0 -0.68448254872E+01 -0.32445699800E+02 -0.16006443460E+02  0.54367064329E+02  0.39999954750E+02 0.  0.
        -12    1    3    3    0    0  0.68448254872E+01  0.32445699800E+02  0.16006443460E+02  0.36820935671E+02  0.00000000000E+00 0.  1.
         11    1    4    4    0    0 -0.83908428279E+01 -0.98661896375E+01 -0.20881566574E+01  0.13119006815E+02  0.51100000000E-03 0. -1.
        -11    1    4    4    0    0  0.49836828820E+01 -0.12886248292E+02 -0.23455197102E+02  0.27222027137E+02  0.51100000000E-03 0.  1.
        -12    1    4    4    0    0 -0.34376655413E+01 -0.96932618710E+01  0.95369102994E+01  0.14026030377E+02  0.00000000000E+00 0.  1.
</event>
<event>
 8    1  0.1290800E-006  0.9118800E+02  0.7816164E-02  0.1184000E+00
        -11   -1    0    0    0    0  0.00000000000E+00  0.00000000000E+00  0.45593999997E+02  0.45594000000E+02  0.51100000000E-03 0.  1.
         11   -1    0    0    0    0 -0.00000000000E+00 -0.00000000000E+00 -0.45593999997E+02  0.45594000000E+02  0.51100000000E-03 0. -1.
         23    2    1    2    0    0 -0.35527136788E-14 -0.35527136788E-14 -0.17763568394E-14  0.91188000000E+02  0.91188000000E+02 0.  0.
    9900012    2    3    3    0    0  0.28640335888E+02  0.21428535102E+02  0.87368067468E+01  0.54367044709E+02  0.39999910023E+02 0.  0.
         12    1    3    3    0    0 -0.28640335888E+02 -0.21428535102E+02 -0.87368067468E+01  0.36820955291E+02  0.00000000000E+00 0. -1.
         11    1    4    4    0    0  0.12394354739E+02  0.17564097362E+02  0.24830238213E+00  0.21498353423E+02  0.51100000000E-03 0. -1.
        -11    1    4    4    0    0  0.13697435179E+02  0.74521429856E+01 -0.67616270360E+01  0.16996286830E+02  0.51100000000E-03 0.  1.
        -12    1    4    4    0    0  0.25485459695E+01 -0.35877052454E+01  0.15250131401E+02  0.15872404456E+02  0.00000000000E+00 0.  1.
</event>
<event>
 8    1  0.1290800E-006  0.9118800E+02  0.7816164E-02  0.1184000E+00
        -11   -1    0    0    0    0  0.00000000000E+00  0.00000000000E+00  0.45593999997E+02  0.45594000000E+02  0.51100000000E-03 0.  1.
         11   -1    0    0    0    0 -0.00000000000E+00 -0.00000000000E+00 -0.45593999997E+02  0.45594000000E+02  0.51100000000E-03 0. -1.
         23    2    1    2    0    0  0.35527136788E-14  0.44408920985E-15  0.35527136788E-14  0.91188000000E+02  0.91188000000E+02 0.  0.
    9900012    2    3    3    0    0 -0.27727459065E+02 -0.30188194518E+01 -0.24038649834E+02  0.54367055648E+02  0.39999934961E+02 0.  0.
        -12    1    3    3    0    0  0.27727459065E+02  0.30188194518E+01  0.24038649834E+02  0.36820944352E+02  0.00000000000E+00 0.  1.
         11    1    4    4    0    0 -0.14226616675E+02 -0.57089073158E+01 -0.22180846592E+02  0.26962533274E+02  0.51100000000E-03 0. -1.
        -11    1    4    4    0    0 -0.43682719933E+00  0.11331000413E+02  0.13398934121E+01  0.11418305609E+02  0.51100000000E-03 0.  1.
        -12    1    4    4    0    0 -0.13064015191E+02 -0.86409125486E+01 -0.31976966543E+01  0.15986216766E+02  0.00000000000E+00 0.  1.
</event>
<event>
 8    1  0.1290800E-006  0.9118800E+02  0.7816164E-02  0.1184000E+00
        -11   -1    0    0    0    0  0.00000000000E+00  0.00000000000E+00  0.45593999997E+02  0.45594000000E+02  0.51100000000E-03 0. -1.
         11   -1    0    0    0    0 -0.00000000000E+00 -0.00000000000E+00 -0.45593999997E+02  0.45594000000E+02  0.51100000000E-03 0.  1.
         23    2    1    2    0    0  0.00000000000E+00  0.00000000000E+00  0.00000000000E+00  0.91188000000E+02  0.91188000000E+02 0.  0.
    9900012    2    3    3    0    0 -0.19365119165E+02  0.21724421410E+02 -0.22557066848E+02  0.54367087591E+02  0.40000007780E+02 0.  0.
         12    1    3    3    0    0  0.19365119165E+02 -0.21724421410E+02  0.22557066848E+02  0.36820912409E+02  0.00000000000E+00 0. -1.
         11    1    4    4    0    0  0.68174300009E+01  0.36048116238E+01 -0.48561705290E+01  0.91134192885E+01  0.51100000000E-03 0. -1.
        -11    1    4    4    0    0 -0.11333211814E+02  0.22441111213E+02 -0.15747804938E+02  0.29665443249E+02  0.51100000000E-03 0.  1.
         12    1    4    4    0    0 -0.14849337352E+02 -0.43215014268E+01 -0.19530913805E+01  0.15588225053E+02  0.00000000000E+00 0. -1.
</event>
<event>
 8    1  0.1290800E-006  0.9118800E+02  0.7816164E-02  0.1184000E+00
        -11   -1    0    0    0    0  0.00000000000E+00  0.00000000000E+00  0.45593999997E+02  0.45594000000E+02  0.51100000000E-03 0. -1.
         11   -1    0    0    0    0 -0.00000000000E+00 -0.00000000000E+00 -0.45593999997E+02  0.45594000000E+02  0.51100000000E-03 0.  1.
         23    2    1    2    0    0 -0.35527136788E-14  0.00000000000E+00 -0.35527136788E-14  0.91188000000E+02  0.91188000000E+02 0.  0.
    9900012    2    3    3    0    0  0.27722546595E+02  0.10110353694E+02  0.22023182108E+02  0.54367090293E+02  0.40000013940E+02 0.  0.
        -12    1    3    3    0    0 -0.27722546595E+02 -0.10110353694E+02 -0.22023182108E+02  0.36820909707E+02  0.00000000000E+00 0.  1.
         11    1    4    4    0    0  0.64819192677E+01  0.14498659181E+02  0.10615183165E+02  0.19102578604E+02  0.51100000000E-03 0. -1.
        -11    1    4    4    0    0  0.11197813987E+02  0.10483586045E+02  0.40154818452E+01  0.15856251422E+02  0.51100000000E-03 0.  1.
         12    1    4    4    0    0  0.10042813340E+02 -0.14871891532E+02  0.73925170974E+01  0.19408260266E+02  0.00000000000E+00 0. -1.
</event>
<event>
 8    1  0.1290800E-006  0.9118800E+02  0.7816164E-02  0.1184000E+00
        -11   -1    0    0    0    0  0.00000000000E+00  0.00000000000E+00  0.45593999997E+02  0.45594000000E+02  0.51100000000E-03 0.  1.
         11   -1    0    0    0    0 -0.00000000000E+00 -0.00000000000E+00 -0.45593999997E+02  0.45594000000E+02  0.51100000000E-03 0. -1.
         23    2    1    2    0    0 -0.17763568394E-14  0.35527136788E-14  0.00000000000E+00  0.91188000000E+02  0.91188000000E+02 0.  0.
    9900012    2    3    3    0    0 -0.10994978064E+02 -0.28950930978E+02  0.19918160738E+02  0.54367094602E+02  0.40000023765E+02 0.  0.
         12    1    3    3    0    0  0.10994978064E+02  0.28950930978E+02 -0.19918160738E+02  0.36820905398E+02  0.00000000000E+00 0. -1.
         11    1    4    4    0    0  0.33825767386E+01 -0.99672720775E+01 -0.56386944949E+01  0.11940821325E+02  0.51100000000E-03 0. -1.
        -11    1    4    4    0    0  0.61357510085E+01 -0.46043606856E+01  0.17522487696E+01  0.78687962086E+01  0.51100000000E-03 0.  1.
        -12    1    4    4    0    0 -0.20513305811E+02 -0.14379298215E+02  0.23804606463E+02  0.34557477068E+02  0.00000000000E+00 0.  1.
</event>
<event>
 8    1  0.1290800E-006  0.9118800E+02  0.7816164E-02  0.1184000E+00
        -11   -1    0    0    0    0  0.00000000000E+00  0.00000000000E+00  0.45593999997E+02  0.45594000000E+02  0.51100000000E-03 0.  1.
         11   -1    0    0    0    0 -0.00000000000E+00 -0.00000000000E+00 -0.45593999997E+02  0.45594000000E+02  0.51100000000E-03 0. -1.
         23    2    1    2    0    0  0.35527136788E-14  0.71054273576E-14  0.88817841970E-15  0.91188000000E+02  0.91188000000E+02 0.  0.
    9900012    2    3    3    0    0  0.29586416033E+02  0.21704075002E+02  0.30587158352E+01  0.54367100664E+02  0.40000037583E+02 0.  0.
         12    1    3    3    0    0 -0.29586416033E+02 -0.21704075002E+02 -0.30587158352E+01  0.36820899336E+02  0.00000000000E+00 0. -1.
         11    1    4    4    0    0  0.13826535398E+01  0.19801966897E+02 -0.95881496081E+01  0.22044551186E+02  0.51100000000E-03 0. -1.
        -11    1    4    4    0    0  0.25688382211E+02 -0.10413887657E+01  0.12091905756E+02  0.28411118532E+02  0.51100000000E-03 0.  1.
        -12    1    4    4    0    0  0.25153802825E+01  0.29434968704E+01  0.55495968701E+00  0.39114309461E+01  0.00000000000E+00 0.  1.
</event>
<event>
 8    1  0.1290800E-006  0.9118800E+02  0.7816164E-02  0.1184000E+00
        -11   -1    0    0    0    0  0.00000000000E+00  0.00000000000E+00  0.45593999997E+02  0.45594000000E+02  0.51100000000E-03 0. -1.
         11   -1    0    0    0    0 -0.00000000000E+00 -0.00000000000E+00 -0.45593999997E+02  0.45594000000E+02  0.51100000000E-03 0.  1.
         23    2    1    2    0    0  0.00000000000E+00  0.00000000000E+00  0.13322676296E-14  0.91188000000E+02  0.91188000000E+02 0.  0.
    9900012    2    3    3    0    0 -0.35656424846E+02 -0.90046403828E+01  0.18217393640E+01  0.54367042442E+02  0.39999904854E+02 0.  0.
         12    1    3    3    0    0  0.35656424846E+02  0.90046403828E+01 -0.18217393640E+01  0.36820957558E+02  0.00000000000E+00 0. -1.
         11    1    4    4    0    0 -0.18256078877E+02 -0.10999348636E+02  0.13653900649E+02  0.25312034481E+02  0.51100000000E-03 0. -1.
        -11    1    4    4    0    0 -0.11698261818E+02 -0.27027975303E+01  0.30956407779E+01  0.12399090133E+02  0.51100000000E-03 0.  1.
         12    1    4    4    0    0 -0.57020841513E+01  0.46975057836E+01 -0.14927802063E+02  0.16655917827E+02  0.00000000000E+00 0. -1.
</event>
<event>
 8    1  0.1290800E-006  0.9118800E+02  0.7816164E-02  0.1184000E+00
        -11   -1    0    0    0    0  0.00000000000E+00  0.00000000000E+00  0.45593999997E+02  0.45594000000E+02  0.51100000000E-03 0.  1.
         11   -1    0    0    0    0 -0.00000000000E+00 -0.00000000000E+00 -0.45593999997E+02  0.45594000000E+02  0.51100000000E-03 0. -1.
         23    2    1    2    0    0  0.35527136788E-14  0.17763568394E-14  0.35527136788E-14  0.91188000000E+02  0.91188000000E+02 0.  0.
    9900012    2    3    3    0    0 -0.27051064634E+02 -0.12871815315E+02 -0.21408810605E+02  0.54367069826E+02  0.39999967283E+02 0.  0.
        -12    1    3    3    0    0  0.27051064634E+02  0.12871815315E+02  0.21408810605E+02  0.36820930174E+02  0.00000000000E+00 0.  1.
         11    1    4    4    0    0 -0.27580107925E+02 -0.23556898422E+02 -0.19349180690E+02  0.41109373749E+02  0.51100000000E-03 0. -1.
        -11    1    4    4    0    0 -0.82615010971E+00  0.17242649925E+01 -0.35893136036E+01  0.40667906479E+01  0.51100000000E-03 0.  1.
         12    1    4    4    0    0  0.13551934002E+01  0.89608181138E+01  0.15296836890E+01  0.91909054292E+01  0.00000000000E+00 0. -1.
</event>
<event>
 8    1  0.1290800E-006  0.9118800E+02  0.7816164E-02  0.1184000E+00
        -11   -1    0    0    0    0  0.00000000000E+00  0.00000000000E+00  0.45593999997E+02  0.45594000000E+02  0.51100000000E-03 0. -1.
         11   -1    0    0    0    0 -0.00000000000E+00 -0.00000000000E+00 -0.45593999997E+02  0.45594000000E+02  0.51100000000E-03 0.  1.
         23    2    1    2    0    0  0.00000000000E+00  0.17763568394E-14  0.00000000000E+00  0.91188000000E+02  0.91188000000E+02 0.  0.
    9900012    2    3    3    0    0  0.94001882295E+01  0.76755512551E+01  0.34763558373E+02  0.54367046501E+02  0.39999914107E+02 0.  0.
        -12    1    3    3    0    0 -0.94001882295E+01 -0.76755512551E+01 -0.34763558373E+02  0.36820953499E+02  0.00000000000E+00 0.  1.
         11    1    4    4    0    0  0.94198384191E+01 -0.37613739037E+01  0.12705693941E+02  0.16257796538E+02  0.51100000000E-03 0.  1.
        -11    1    4    4    0    0 -0.84877826224E+00 -0.90292856503E+01  0.12660068740E+02  0.15573238734E+02  0.51100000000E-03 0. -1.
         12    1    4    4    0    0  0.82912807271E+00  0.20466210809E+02  0.93977956926E+01  0.22536011229E+02  0.00000000000E+00 0. -1.
</event>
<event>
 8    1  0.1290800E-006  0.9118800E+02  0.7816164E-02  0.1184000E+00
        -11   -1    0    0    0    0  0.00000000000E+00  0.00000000000E+00  0.45593999997E+02  0.45594000000E+02  0.51100000000E-03 0. -1.
         11   -1    0    0    0    0 -0.00000000000E+00 -0.00000000000E+00 -0.45593999997E+02  0.45594000000E+02  0.51100000000E-03 0.  1.
         23    2    1    2    0    0 -0.88817841970E-15  0.00000000000E+00  0.00000000000E+00  0.91188000000E+02  0.91188000000E+02 0.  0.
    9900012    2    3    3    0    0  0.56008242755E+01  0.14294067936E+02 -0.33467753240E+02  0.54367080435E+02  0.39999991467E+02 0.  0.
         12    1    3    3    0    0 -0.56008242755E+01 -0.14294067936E+02  0.33467753240E+02  0.36820919565E+02  0.00000000000E+00 0. -1.
         11    1    4    4    0    0  0.22652802061E+01  0.64871619509E+01  0.51279489653E-01  0.68714914274E+01  0.51100000000E-03 0. -1.
        -11    1    4    4    0    0 -0.55288970450E+01 -0.64899221917E+01  0.14898375150E+01  0.86549066240E+01  0.51100000000E-03 0.  1.
        -12    1    4    4    0    0  0.88644411144E+01  0.14296828177E+02 -0.35008870244E+02  0.38840682383E+02  0.00000000000E+00 0.  1.
</event>
<event>
 8    1  0.1290800E-006  0.9118800E+02  0.7816164E-02  0.1184000E+00
        -11   -1    0    0    0    0  0.00000000000E+00  0.00000000000E+00  0.45593999997E+02  0.45594000000E+02  0.51100000000E-03 0.  1.
         11   -1    0    0    0    0 -0.00000000000E+00 -0.00000000000E+00 -0.45593999997E+02  0.45594000000E+02  0.51100000000E-03 0. -1.
         23    2    1    2    0    0  0.00000000000E+00 -0.19984014443E-14  0.00000000000E+00  0.91188000000E+02  0.91188000000E+02 0.  0.
    9900012    2    3    3    0    0  0.36682214799E+02  0.11631814243E+01  0.29735083405E+01  0.54367087118E+02  0.40000006704E+02 0.  0.
         12    1    3    3    0    0 -0.36682214799E+02 -0.11631814243E+01 -0.29735083405E+01  0.36820912882E+02  0.00000000000E+00 0. -1.
         11    1    4    4    0    0  0.15166674338E+02  0.15810084144E+02 -0.38406136374E+01  0.22242686090E+02  0.51100000000E-03 0. -1.
        -11    1    4    4    0    0  0.56084251027E+01 -0.14322236236E+02  0.46419427520E+01  0.16066378425E+02  0.51100000000E-03 0.  1.
        -12    1    4    4    0    0  0.15907115358E+02 -0.32466648415E+00  0.21721792260E+01  0.16058022603E+02  0.00000000000E+00 0.  1.
</event>
<event>
 8    1  0.1290800E-006  0.9118800E+02  0.7816164E-02  0.1184000E+00
        -11   -1    0    0    0    0  0.00000000000E+00  0.00000000000E+00  0.45593999997E+02  0.45594000000E+02  0.51100000000E-03 0.  1.
         11   -1    0    0    0    0 -0.00000000000E+00 -0.00000000000E+00 -0.45593999997E+02  0.45594000000E+02  0.51100000000E-03 0. -1.
         23    2    1    2    0    0  0.00000000000E+00  0.35527136788E-14  0.00000000000E+00  0.91188000000E+02  0.91188000000E+02 0.  0.
    9900012    2    3    3    0    0 -0.10899503994E+02  0.19314335188E+02  0.29392802671E+02  0.54367087736E+02  0.40000008112E+02 0.  0.
         12    1    3    3    0    0  0.10899503994E+02 -0.19314335188E+02 -0.29392802671E+02  0.36820912264E+02  0.00000000000E+00 0. -1.
         11    1    4    4    0    0  0.59437415147E+01  0.61818386102E+01  0.97232524799E+01  0.12964753405E+02  0.51100000000E-03 0. -1.
        -11    1    4    4    0    0 -0.10781141708E+01  0.19424027780E+02  0.10790613993E+02  0.22246180256E+02  0.51100000000E-03 0.  1.
         12    1    4    4    0    0 -0.15765131338E+02 -0.62915312019E+01  0.88789361982E+01  0.19156154076E+02  0.00000000000E+00 0. -1.
</event>
<event>
 8    1  0.1290800E-006  0.9118800E+02  0.7816164E-02  0.1184000E+00
        -11   -1    0    0    0    0  0.00000000000E+00  0.00000000000E+00  0.45593999997E+02  0.45594000000E+02  0.51100000000E-03 0.  1.
         11   -1    0    0    0    0 -0.00000000000E+00 -0.00000000000E+00 -0.45593999997E+02  0.45594000000E+02  0.51100000000E-03 0. -1.
         23    2    1    2    0    0 -0.35527136788E-14 -0.71054273576E-14 -0.35527136788E-14  0.91188000000E+02  0.91188000000E+02 0.  0.
    9900012    2    3    3    0    0  0.17463044103E+02  0.22407881840E+02  0.23424539768E+02  0.54367080114E+02  0.39999990737E+02 0.  0.
         12    1    3    3    0    0 -0.17463044103E+02 -0.22407881840E+02 -0.23424539768E+02  0.36820919886E+02  0.00000000000E+00 0. -1.
         11    1    4    4    0    0 -0.34129778684E+01  0.65092897169E+01 -0.41493525218E+01  0.84401657070E+01  0.51100000000E-03 0. -1.
        -11    1    4    4    0    0  0.88970156087E+01  0.10753938424E+02 -0.15257265591E+01  0.14040367522E+02  0.51100000000E-03 0.  1.
        -12    1    4    4    0    0  0.11979006363E+02  0.51446536993E+01  0.29099618848E+02  0.31886546885E+02  0.00000000000E+00 0.  1.
</event>
<event>
 8    1  0.1290800E-006  0.9118800E+02  0.7816164E-02  0.1184000E+00
        -11   -1    0    0    0    0  0.00000000000E+00  0.00000000000E+00  0.45593999997E+02  0.45594000000E+02  0.51100000000E-03 0. -1.
         11   -1    0    0    0    0 -0.00000000000E+00 -0.00000000000E+00 -0.45593999997E+02  0.45594000000E+02  0.51100000000E-03 0.  1.
         23    2    1    2    0    0  0.00000000000E+00 -0.35527136788E-14  0.00000000000E+00  0.91188000000E+02  0.91188000000E+02 0.  0.
    9900012    2    3    3    0    0  0.16234547589E+02 -0.28762004844E+02  0.16277774813E+02  0.54367090031E+02  0.40000013345E+02 0.  0.
        -12    1    3    3    0    0 -0.16234547589E+02  0.28762004844E+02 -0.16277774813E+02  0.36820909969E+02  0.00000000000E+00 0.  1.
         11    1    4    4    0    0 -0.25329626324E+01 -0.44098938631E+01  0.36821286321E+01  0.62786252560E+01  0.51100000000E-03 0. -1.
        -11    1    4    4    0    0 -0.49122231443E+01 -0.45526543937E+01  0.15697305153E+02  0.17066399374E+02  0.51100000000E-03 0.  1.
        -12    1    4    4    0    0  0.23679733366E+02 -0.19799456587E+02 -0.31016589721E+01  0.31022065401E+02  0.00000000000E+00 0.  1.
</event>
<event>
 8    1  0.1290800E-006  0.9118800E+02  0.7816164E-02  0.1184000E+00
        -11   -1    0    0    0    0  0.00000000000E+00  0.00000000000E+00  0.45593999997E+02  0.45594000000E+02  0.51100000000E-03 0.  1.
         11   -1    0    0    0    0 -0.00000000000E+00 -0.00000000000E+00 -0.45593999997E+02  0.45594000000E+02  0.51100000000E-03 0. -1.
         23    2    1    2    0    0  0.00000000000E+00  0.00000000000E+00  0.00000000000E+00  0.91188000000E+02  0.91188000000E+02 0.  0.
    9900012    2    3    3    0    0 -0.16992581441E+02  0.20764317190E+02  0.25216504090E+02  0.54367125881E+02  0.40000095070E+02 0.  0.
         12    1    3    3    0    0  0.16992581441E+02 -0.20764317190E+02 -0.25216504090E+02  0.36820874119E+02  0.00000000000E+00 0. -1.
         11    1    4    4    0    0 -0.27567216407E+02  0.84209279355E+01  0.17674019878E+02  0.33811749831E+02  0.51100000000E-03 0. -1.
        -11    1    4    4    0    0  0.84650595981E+01  0.28843238209E+01  0.59307656178E+01  0.10730821915E+02  0.51100000000E-03 0.  1.
         12    1    4    4    0    0  0.21095753678E+01  0.94590654338E+01  0.16117185935E+01  0.98245541343E+01  0.00000000000E+00 0. -1.
</event>
<event>
 8    1  0.1290800E-006  0.9118800E+02  0.7816164E-02  0.1184000E+00
        -11   -1    0    0    0    0  0.00000000000E+00  0.00000000000E+00  0.45593999997E+02  0.45594000000E+02  0.51100000000E-03 0. -1.
         11   -1    0    0    0    0 -0.00000000000E+00 -0.00000000000E+00 -0.45593999997E+02  0.45594000000E+02  0.51100000000E-03 0.  1.
         23    2    1    2    0    0  0.35527136788E-14  0.00000000000E+00  0.00000000000E+00  0.91188000000E+02  0.91188000000E+02 0.  0.
    9900012    2    3    3    0    0  0.20438272390E+02  0.23491586499E+02  0.19652053994E+02  0.54367070616E+02  0.39999969084E+02 0.  0.
        -12    1    3    3    0    0 -0.20438272390E+02 -0.23491586499E+02 -0.19652053994E+02  0.36820929384E+02  0.00000000000E+00 0.  1.
         11    1    4    4    0    0  0.71447775144E+01  0.81219852899E+01 -0.98435907206E+00  0.10862018865E+02  0.51100000000E-03 0. -1.
        -11    1    4    4    0    0  0.32985729575E+01  0.22786575241E+00  0.24693523836E+02  0.24913904272E+02  0.51100000000E-03 0.  1.
        -12    1    4    4    0    0  0.99949219177E+01  0.15141735457E+02 -0.40571107706E+01  0.18591147479E+02  0.00000000000E+00 0.  1.
</event>
<event>
 8    1  0.1290800E-006  0.9118800E+02  0.7816164E-02  0.1184000E+00
        -11   -1    0    0    0    0  0.00000000000E+00  0.00000000000E+00  0.45593999997E+02  0.45594000000E+02  0.51100000000E-03 0.  1.
         11   -1    0    0    0    0 -0.00000000000E+00 -0.00000000000E+00 -0.45593999997E+02  0.45594000000E+02  0.51100000000E-03 0. -1.
         23    2    1    2    0    0  0.00000000000E+00  0.00000000000E+00  0.17763568394E-14  0.91188000000E+02  0.91188000000E+02 0.  0.
    9900012    2    3    3    0    0 -0.28295297877E+02 -0.17800473112E+02 -0.15436902806E+02  0.54367099777E+02  0.40000035563E+02 0.  0.
        -12    1    3    3    0    0  0.28295297877E+02  0.17800473112E+02  0.15436902806E+02  0.36820900223E+02  0.00000000000E+00 0.  1.
         11    1    4    4    0    0 -0.60586307652E+01 -0.51863316206E+01 -0.67124598035E+01  0.10424114317E+02  0.51100000000E-03 0. -1.
        -11    1    4    4    0    0 -0.26527029675E+02 -0.50551749298E+01  0.52269630872E+01  0.27505621977E+02  0.51100000000E-03 0.  1.
        -12    1    4    4    0    0  0.42903625633E+01 -0.75589665616E+01 -0.13951406090E+02  0.16437363483E+02  0.00000000000E+00 0.  1.
</event>
<event>
 8    1  0.1290800E-006  0.9118800E+02  0.7816164E-02  0.1184000E+00
        -11   -1    0    0    0    0  0.00000000000E+00  0.00000000000E+00  0.45593999997E+02  0.45594000000E+02  0.51100000000E-03 0. -1.
         11   -1    0    0    0    0 -0.00000000000E+00 -0.00000000000E+00 -0.45593999997E+02  0.45594000000E+02  0.51100000000E-03 0.  1.
         23    2    1    2    0    0  0.00000000000E+00  0.00000000000E+00  0.00000000000E+00  0.91188000000E+02  0.91188000000E+02 0.  0.
    9900012    2    3    3    0    0  0.84846283591E+01 -0.13448464897E+02  0.33210430540E+02  0.54367043696E+02  0.39999907714E+02 0.  0.
        -12    1    3    3    0    0 -0.84846283591E+01  0.13448464897E+02 -0.33210430540E+02  0.36820956304E+02  0.00000000000E+00 0.  1.
         11    1    4    4    0    0  0.12213838651E+02 -0.13070656229E+02  0.25161803036E+02  0.30872904643E+02  0.51100000000E-03 0. -1.
        -11    1    4    4    0    0  0.72472178755E+00  0.41099288473E+01 -0.64468252823E+01  0.76797326308E+01  0.51100000000E-03 0.  1.
         12    1    4    4    0    0 -0.44539320798E+01 -0.44877375153E+01  0.14495452787E+02  0.15814406422E+02  0.00000000000E+00 0. -1.
</event>
<event>
 8    1  0.1290800E-006  0.9118800E+02  0.7816164E-02  0.1184000E+00
        -11   -1    0    0    0    0  0.00000000000E+00  0.00000000000E+00  0.45593999997E+02  0.45594000000E+02  0.51100000000E-03 0.  1.
         11   -1    0    0    0    0 -0.00000000000E+00 -0.00000000000E+00 -0.45593999997E+02  0.45594000000E+02  0.51100000000E-03 0. -1.
         23    2    1    2    0    0  0.00000000000E+00  0.35527136788E-14  0.00000000000E+00  0.91188000000E+02  0.91188000000E+02 0.  0.
    9900012    2    3    3    0    0  0.20496289283E+02  0.27267026401E+02  0.13863322977E+02  0.54367077590E+02  0.39999984982E+02 0.  0.
         12    1    3    3    0    0 -0.20496289283E+02 -0.27267026401E+02 -0.13863322977E+02  0.36820922410E+02  0.00000000000E+00 0. -1.
         11    1    4    4    0    0  0.95778164977E+01  0.28601648529E+01 -0.63179590417E+01  0.11825046239E+02  0.51100000000E-03 0. -1.
        -11    1    4    4    0    0  0.14505473838E+02  0.27490832852E+02  0.12461078304E+02  0.33487805765E+02  0.51100000000E-03 0.  1.
        -12    1    4    4    0    0 -0.35870010532E+01 -0.30839713041E+01  0.77202037149E+01  0.90542255859E+01  0.00000000000E+00 0.  1.
</event>
<event>
 8    1  0.1290800E-006  0.9118800E+02  0.7816164E-02  0.1184000E+00
        -11   -1    0    0    0    0  0.00000000000E+00  0.00000000000E+00  0.45593999997E+02  0.45594000000E+02  0.51100000000E-03 0.  1.
         11   -1    0    0    0    0 -0.00000000000E+00 -0.00000000000E+00 -0.45593999997E+02  0.45594000000E+02  0.51100000000E-03 0. -1.
         23    2    1    2    0    0 -0.15543122345E-14 -0.71054273576E-14  0.00000000000E+00  0.91188000000E+02  0.91188000000E+02 0.  0.
    9900012    2    3    3    0    0  0.81050636450E+00  0.34940237983E+02 -0.11588886719E+02  0.54367089551E+02  0.40000012250E+02 0.  0.
        -12    1    3    3    0    0 -0.81050636450E+00 -0.34940237983E+02  0.11588886719E+02  0.36820910449E+02  0.00000000000E+00 0.  1.
         11    1    4    4    0    0 -0.73189600004E+01 -0.38058744690E+00 -0.47332341719E+01  0.87244213722E+01  0.51100000000E-03 0. -1.
        -11    1    4    4    0    0 -0.70085903333E+01  0.84931878890E+01  0.56746233800E+01  0.12387733035E+02  0.51100000000E-03 0.  1.
         12    1    4    4    0    0  0.15138056698E+02  0.26827637541E+02 -0.12530275927E+02  0.33254935144E+02  0.00000000000E+00 0. -1.
</event>
<event>
 8    1  0.1290800E-006  0.9118800E+02  0.7816164E-02  0.1184000E+00
        -11   -1    0    0    0    0  0.00000000000E+00  0.00000000000E+00  0.45593999997E+02  0.45594000000E+02  0.51100000000E-03 0.  1.
         11   -1    0    0    0    0 -0.00000000000E+00 -0.00000000000E+00 -0.45593999997E+02  0.45594000000E+02  0.51100000000E-03 0. -1.
         23    2    1    2    0    0 -0.71054273576E-14 -0.17763568394E-14  0.88817841970E-15  0.91188000000E+02  0.91188000000E+02 0.  0.
    9900012    2    3    3    0    0  0.35823976346E+02 -0.45020633785E+01  0.72216673807E+01  0.54367104633E+02  0.40000046631E+02 0.  0.
         12    1    3    3    0    0 -0.35823976346E+02  0.45020633785E+01 -0.72216673807E+01  0.36820895367E+02  0.00000000000E+00 0. -1.
         11    1    4    4    0    0  0.33276437479E+01  0.48358052770E+01  0.12541415274E+02  0.13847213543E+02  0.51100000000E-03 0. -1.
        -11    1    4    4    0    0 -0.38846120648E+00  0.19694462559E+01  0.40370383019E+01  0.45085806166E+01  0.51100000000E-03 0.  1.
         12    1    4    4    0    0  0.32884793804E+02 -0.11307314911E+02 -0.93567861949E+01  0.36011310473E+02  0.00000000000E+00 0. -1.
</event>
<event>
 8    1  0.1290800E-006  0.9118800E+02  0.7816164E-02  0.1184000E+00
        -11   -1    0    0    0    0  0.00000000000E+00  0.00000000000E+00  0.45593999997E+02  0.45594000000E+02  0.51100000000E-03 0.  1.
         11   -1    0    0    0    0 -0.00000000000E+00 -0.00000000000E+00 -0.45593999997E+02  0.45594000000E+02  0.51100000000E-03 0. -1.
         23    2    1    2    0    0 -0.35527136788E-14  0.00000000000E+00  0.17763568394E-14  0.91188000000E+02  0.91188000000E+02 0.  0.
    9900012    2    3    3    0    0 -0.25949712341E+02 -0.23298252379E+02  0.11814477442E+02  0.54367109031E+02  0.40000056659E+02 0.  0.
         12    1    3    3    0    0  0.25949712341E+02  0.23298252379E+02 -0.11814477442E+02  0.36820890969E+02  0.00000000000E+00 0. -1.
         11    1    4    4    0    0 -0.62093788201E+01  0.42512704413E+01  0.34010422867E+01  0.82581338445E+01  0.51100000000E-03 0. -1.
        -11    1    4    4    0    0 -0.25035178008E+02 -0.21827027602E+02 -0.17965863988E+01  0.33262696745E+02  0.51100000000E-03 0.  1.
        -12    1    4    4    0    0  0.52948444871E+01 -0.57224952184E+01  0.10210021554E+02  0.12846278441E+02  0.00000000000E+00 0.  1.
</event>
<event>
 8    1  0.1290800E-006  0.9118800E+02  0.7816164E-02  0.1184000E+00
        -11   -1    0    0    0    0  0.00000000000E+00  0.00000000000E+00  0.45593999997E+02  0.45594000000E+02  0.51100000000E-03 0. -1.
         11   -1    0    0    0    0 -0.00000000000E+00 -0.00000000000E+00 -0.45593999997E+02  0.45594000000E+02  0.51100000000E-03 0.  1.
         23    2    1    2    0    0  0.00000000000E+00 -0.53290705182E-14  0.00000000000E+00  0.91188000000E+02  0.91188000000E+02 0.  0.
    9900012    2    3    3    0    0  0.30746594028E+02 -0.57324797681E+01 -0.19431117236E+02  0.54367045563E+02  0.39999911970E+02 0.  0.
         12    1    3    3    0    0 -0.30746594028E+02  0.57324797681E+01  0.19431117236E+02  0.36820954437E+02  0.00000000000E+00 0. -1.
         11    1    4    4    0    0  0.12997574282E+02 -0.18175865192E+02 -0.13014822627E+02  0.25858936965E+02  0.51100000000E-03 0. -1.
        -11    1    4    4    0    0  0.10625343467E+02  0.11260447959E+02 -0.11828704071E+02  0.19483681693E+02  0.51100000000E-03 0.  1.
        -12    1    4    4    0    0  0.71236762794E+01  0.11829374651E+01  0.54124094624E+01  0.90244269052E+01  0.00000000000E+00 0.  1.
</event>
<event>
 8    1  0.1290800E-006  0.9118800E+02  0.7816164E-02  0.1184000E+00
        -11   -1    0    0    0    0  0.00000000000E+00  0.00000000000E+00  0.45593999997E+02  0.45594000000E+02  0.51100000000E-03 0.  1.
         11   -1    0    0    0    0 -0.00000000000E+00 -0.00000000000E+00 -0.45593999997E+02  0.45594000000E+02  0.51100000000E-03 0. -1.
         23    2    1    2    0    0  0.00000000000E+00  0.00000000000E+00 -0.88817841970E-15  0.91188000000E+02  0.91188000000E+02 0.  0.
    9900012    2    3    3    0    0 -0.18378166214E+02  0.31532337663E+02  0.48718207282E+01  0.54367082723E+02  0.39999996684E+02 0.  0.
         12    1    3    3    0    0  0.18378166214E+02 -0.31532337663E+02 -0.48718207282E+01  0.36820917277E+02  0.00000000000E+00 0. -1.
         11    1    4    4    0    0  0.72860530787E+01  0.79563704757E+01  0.12903191343E+02  0.16819118517E+02  0.51100000000E-03 0. -1.
        -11    1    4    4    0    0 -0.13388321723E+02  0.62417659681E+01  0.18610729048E+00  0.14772996891E+02  0.51100000000E-03 0.  1.
        -12    1    4    4    0    0 -0.12275897570E+02  0.17334201219E+02 -0.82174779050E+01  0.22774967315E+02  0.00000000000E+00 0.  1.
</event>
<event>
 8    1  0.1290800E-006  0.9118800E+02  0.7816164E-02  0.1184000E+00
        -11   -1    0    0    0    0  0.00000000000E+00  0.00000000000E+00  0.45593999997E+02  0.45594000000E+02  0.51100000000E-03 0.  1.
         11   -1    0    0    0    0 -0.00000000000E+00 -0.00000000000E+00 -0.45593999997E+02  0.45594000000E+02  0.51100000000E-03 0. -1.
         23    2    1    2    0    0  0.00000000000E+00  0.00000000000E+00  0.00000000000E+00  0.91188000000E+02  0.91188000000E+02 0.  0.
    9900012    2    3    3    0    0  0.23796857186E+02  0.21553955530E+02  0.18025432565E+02  0.54367087056E+02  0.40000006560E+02 0.  0.
        -12    1    3    3    0    0 -0.23796857186E+02 -0.21553955530E+02 -0.18025432565E+02  0.36820912944E+02  0.00000000000E+00 0.  1.
         11    1    4    4    0    0  0.16273782886E+02 -0.38116114868E+01  0.14416963290E+01  0.16776259420E+02  0.51100000000E-03 0. -1.
        -11    1    4    4    0    0  0.66858031773E+01 -0.14382111161E+01  0.44314162789E+01  0.81489794354E+01  0.51100000000E-03 0.  1.
         12    1    4    4    0    0  0.83727112255E+00  0.26803778133E+02  0.12152319957E+02  0.29441848201E+02  0.00000000000E+00 0. -1.
</event>
<event>
 8    1  0.1290800E-006  0.9118800E+02  0.7816164E-02  0.1184000E+00
        -11   -1    0    0    0    0  0.00000000000E+00  0.00000000000E+00  0.45593999997E+02  0.45594000000E+02  0.51100000000E-03 0. -1.
         11   -1    0    0    0    0 -0.00000000000E+00 -0.00000000000E+00 -0.45593999997E+02  0.45594000000E+02  0.51100000000E-03 0.  1.
         23    2    1    2    0    0  0.35527136788E-14  0.00000000000E+00  0.00000000000E+00  0.91188000000E+02  0.91188000000E+02 0.  0.
    9900012    2    3    3    0    0 -0.28473412414E+02  0.55946413745E+01  0.22665941817E+02  0.54367080062E+02  0.39999990618E+02 0.  0.
        -12    1    3    3    0    0  0.28473412414E+02 -0.55946413745E+01 -0.22665941817E+02  0.36820919938E+02  0.00000000000E+00 0.  1.
         11    1    4    4    0    0 -0.65781248084E+00  0.30450693554E+01  0.10414736822E+01  0.32847880192E+01  0.51100000000E-03 0.  1.
        -11    1    4    4    0    0 -0.21893589850E+02  0.18656199395E+02  0.16556083940E+02  0.33188657220E+02  0.51100000000E-03 0. -1.
         12    1    4    4    0    0 -0.59220100826E+01 -0.16106627376E+02  0.50683841952E+01  0.17893634823E+02  0.00000000000E+00 0. -1.
</event>
<event>
 8    1  0.1290800E-006  0.9118800E+02  0.7816164E-02  0.1184000E+00
        -11   -1    0    0    0    0  0.00000000000E+00  0.00000000000E+00  0.45593999997E+02  0.45594000000E+02  0.51100000000E-03 0. -1.
         11   -1    0    0    0    0 -0.00000000000E+00 -0.00000000000E+00 -0.45593999997E+02  0.45594000000E+02  0.51100000000E-03 0.  1.
         23    2    1    2    0    0 -0.33306690739E-15 -0.71054273576E-14  0.35527136788E-14  0.91188000000E+02  0.91188000000E+02 0.  0.
    9900012    2    3    3    0    0 -0.98929913003E+00  0.29602246752E+02 -0.21874834849E+02  0.54367080331E+02  0.39999991232E+02 0.  0.
         12    1    3    3    0    0  0.98929913003E+00 -0.29602246752E+02  0.21874834849E+02  0.36820919669E+02  0.00000000000E+00 0. -1.
         11    1    4    4    0    0  0.46731262577E+01 -0.70181808936E+01 -0.95932831559E+00  0.84860640555E+01  0.51100000000E-03 0.  1.
        -11    1    4    4    0    0 -0.13566919255E+01  0.36749373632E+01 -0.10269751119E+02  0.10991522457E+02  0.51100000000E-03 0. -1.
        -12    1    4    4    0    0 -0.43057334622E+01  0.32945490283E+02 -0.10645755414E+02  0.34889493819E+02  0.00000000000E+00 0.  1.
</event>
<event>
 8    1  0.1290800E-006  0.9118800E+02  0.7816164E-02  0.1184000E+00
        -11   -1    0    0    0    0  0.00000000000E+00  0.00000000000E+00  0.45593999997E+02  0.45594000000E+02  0.51100000000E-03 0.  1.
         11   -1    0    0    0    0 -0.00000000000E+00 -0.00000000000E+00 -0.45593999997E+02  0.45594000000E+02  0.51100000000E-03 0. -1.
         23    2    1    2    0    0  0.00000000000E+00  0.00000000000E+00 -0.71054273576E-14  0.91188000000E+02  0.91188000000E+02 0.  0.
    9900012    2    3    3    0    0 -0.22648610474E+02  0.15321489347E+02  0.24659074008E+02  0.54367115666E+02  0.40000071784E+02 0.  0.
         12    1    3    3    0    0  0.22648610474E+02 -0.15321489347E+02 -0.24659074008E+02  0.36820884334E+02  0.00000000000E+00 0. -1.
         11    1    4    4    0    0 -0.16364358382E+02  0.64095643258E+01  0.12160873294E+02  0.21371981182E+02  0.51100000000E-03 0. -1.
        -11    1    4    4    0    0  0.25037997788E+01  0.15484916481E+01  0.19393867564E+02  0.19616037802E+02  0.51100000000E-03 0.  1.
         12    1    4    4    0    0 -0.87880518710E+01  0.73634333727E+01 -0.68956668498E+01  0.13379096682E+02  0.00000000000E+00 0. -1.
</event>
<event>
 8    1  0.1290800E-006  0.9118800E+02  0.7816164E-02  0.1184000E+00
        -11   -1    0    0    0    0  0.00000000000E+00  0.00000000000E+00  0.45593999997E+02  0.45594000000E+02  0.51100000000E-03 0. -1.
         11   -1    0    0    0    0 -0.00000000000E+00 -0.00000000000E+00 -0.45593999997E+02  0.45594000000E+02  0.51100000000E-03 0.  1.
         23    2    1    2    0    0 -0.66613381478E-15  0.00000000000E+00  0.24424906542E-14  0.91188000000E+02  0.91188000000E+02 0.  0.
    9900012    2    3    3    0    0  0.12880256579E+01  0.36751864140E+02  0.18497223430E+01  0.54367082024E+02  0.39999995089E+02 0.  0.
        -12    1    3    3    0    0 -0.12880256579E+01 -0.36751864140E+02 -0.18497223430E+01  0.36820917976E+02  0.00000000000E+00 0.  1.
         11    1    4    4    0    0 -0.46995398148E+01  0.49965481717E+01  0.98057979531E+01  0.11966822547E+02  0.51100000000E-03 0. -1.
        -11    1    4    4    0    0  0.36283408175E+01  0.22386695864E+02 -0.17632248981E+02  0.28726733423E+02  0.51100000000E-03 0.  1.
        -12    1    4    4    0    0  0.23592246552E+01  0.93686201045E+01  0.96761733707E+01  0.13673526054E+02  0.00000000000E+00 0.  1.
</event>
<event>
 8    1  0.1290800E-006  0.9118800E+02  0.7816164E-02  0.1184000E+00
        -11   -1    0    0    0    0  0.00000000000E+00  0.00000000000E+00  0.45593999997E+02  0.45594000000E+02  0.51100000000E-03 0.  1.
         11   -1    0    0    0    0 -0.00000000000E+00 -0.00000000000E+00 -0.45593999997E+02  0.45594000000E+02  0.51100000000E-03 0. -1.
         23    2    1    2    0    0  0.00000000000E+00  0.00000000000E+00  0.17763568394E-14  0.91188000000E+02  0.91188000000E+02 0.  0.
    9900012    2    3    3    0    0  0.58966727102E+01 -0.34083035285E+02  0.12623447110E+02  0.54367143679E+02  0.40000135644E+02 0.  0.
         12    1    3    3    0    0 -0.58966727102E+01  0.34083035285E+02 -0.12623447110E+02  0.36820856321E+02  0.00000000000E+00 0. -1.
         11    1    4    4    0    0 -0.69627246423E+01 -0.10743440429E+02  0.18694896580E+01  0.12938162101E+02  0.51100000000E-03 0. -1.
        -11    1    4    4    0    0  0.21210537326E+02 -0.23274605228E+02  0.10020270482E+02  0.33045422723E+02  0.51100000000E-03 0.  1.
         12    1    4    4    0    0 -0.83511399734E+01 -0.64989628292E-01  0.73368696970E+00  0.83835588551E+01  0.00000000000E+00 0. -1.
</event>
<event>
 8    1  0.1290800E-006  0.9118800E+02  0.7816164E-02  0.1184000E+00
        -11   -1    0    0    0    0  0.00000000000E+00  0.00000000000E+00  0.45593999997E+02  0.45594000000E+02  0.51100000000E-03 0.  1.
         11   -1    0    0    0    0 -0.00000000000E+00 -0.00000000000E+00 -0.45593999997E+02  0.45594000000E+02  0.51100000000E-03 0. -1.
         23    2    1    2    0    0  0.17763568394E-14 -0.17763568394E-14  0.71054273576E-14  0.91188000000E+02  0.91188000000E+02 0.  0.
    9900012    2    3    3    0    0  0.10999329773E+02 -0.12635974921E+02  0.32789127353E+02  0.54367082165E+02  0.39999995410E+02 0.  0.
         12    1    3    3    0    0 -0.10999329773E+02  0.12635974921E+02 -0.32789127353E+02  0.36820917835E+02  0.00000000000E+00 0. -1.
         11    1    4    4    0    0 -0.25378962183E+01  0.49679327340E+01 -0.24409384331E+01  0.60892900703E+01  0.51100000000E-03 0. -1.
        -11    1    4    4    0    0 -0.14260830630E+01  0.48776513025E+01  0.20086106671E+01  0.54644041034E+01  0.51100000000E-03 0.  1.
        -12    1    4    4    0    0  0.14963309054E+02 -0.22481558958E+02  0.33221455119E+02  0.42813387991E+02  0.00000000000E+00 0.  1.
</event>
<event>
 8    1  0.1290800E-006  0.9118800E+02  0.7816164E-02  0.1184000E+00
        -11   -1    0    0    0    0  0.00000000000E+00  0.00000000000E+00  0.45593999997E+02  0.45594000000E+02  0.51100000000E-03 0. -1.
         11   -1    0    0    0    0 -0.00000000000E+00 -0.00000000000E+00 -0.45593999997E+02  0.45594000000E+02  0.51100000000E-03 0.  1.
         23    2    1    2    0    0  0.00000000000E+00 -0.71054273576E-14  0.00000000000E+00  0.91188000000E+02  0.91188000000E+02 0.  0.
    9900012    2    3    3    0    0  0.78618090402E+01  0.35795683048E+02 -0.35551523306E+01  0.54367108181E+02  0.40000054720E+02 0.  0.
         12    1    3    3    0    0 -0.78618090402E+01 -0.35795683048E+02  0.35551523306E+01  0.36820891819E+02  0.00000000000E+00 0. -1.
         11    1    4    4    0    0  0.71740036287E+01  0.13836759153E+02  0.13272170058E+02  0.20471265966E+02  0.51100000000E-03 0. -1.
        -11    1    4    4    0    0  0.29616140418E+00  0.11682928995E+02 -0.19974004115E+02  0.23141723837E+02  0.51100000000E-03 0.  1.
        -12    1    4    4    0    0  0.39164400738E+00  0.10275994900E+02  0.31466817269E+01  0.10754118378E+02  0.00000000000E+00 0.  1.
</event>
<event>
 8    1  0.1290800E-006  0.9118800E+02  0.7816164E-02  0.1184000E+00
        -11   -1    0    0    0    0  0.00000000000E+00  0.00000000000E+00  0.45593999997E+02  0.45594000000E+02  0.51100000000E-03 0.  1.
         11   -1    0    0    0    0 -0.00000000000E+00 -0.00000000000E+00 -0.45593999997E+02  0.45594000000E+02  0.51100000000E-03 0. -1.
         23    2    1    2    0    0 -0.17763568394E-14 -0.71054273576E-14 -0.35527136788E-14  0.91188000000E+02  0.91188000000E+02 0.  0.
    9900012    2    3    3    0    0  0.15825076494E+02  0.26481038174E+02  0.20102273784E+02  0.54367084203E+02  0.40000000057E+02 0.  0.
         12    1    3    3    0    0 -0.15825076494E+02 -0.26481038174E+02 -0.20102273784E+02  0.36820915797E+02  0.00000000000E+00 0. -1.
         11    1    4    4    0    0  0.52530555528E+01  0.28367915024E+02  0.14803949180E+02  0.32426688191E+02  0.51100000000E-03 0. -1.
        -11    1    4    4    0    0  0.86075510246E+01  0.37668889957E+01  0.10443182204E+02  0.14047755769E+02  0.51100000000E-03 0.  1.
        -12    1    4    4    0    0  0.19644699166E+01 -0.56537658452E+01 -0.51448575994E+01  0.78926402429E+01  0.00000000000E+00 0.  1.
</event>
<event>
 8    1  0.1290800E-006  0.9118800E+02  0.7816164E-02  0.1184000E+00
        -11   -1    0    0    0    0  0.00000000000E+00  0.00000000000E+00  0.45593999997E+02  0.45594000000E+02  0.51100000000E-03 0. -1.
         11   -1    0    0    0    0 -0.00000000000E+00 -0.00000000000E+00 -0.45593999997E+02  0.45594000000E+02  0.51100000000E-03 0.  1.
         23    2    1    2    0    0 -0.35527136788E-14 -0.35527136788E-14  0.00000000000E+00  0.91188000000E+02  0.91188000000E+02 0.  0.
    9900012    2    3    3    0    0  0.28240134047E+02 -0.21574848547E+02 -0.96333097501E+01  0.54367083152E+02  0.39999997661E+02 0.  0.
         12    1    3    3    0    0 -0.28240134047E+02  0.21574848547E+02  0.96333097501E+01  0.36820916848E+02  0.00000000000E+00 0. -1.
         11    1    4    4    0    0 -0.17996898159E+01  0.20670737979E+01  0.46094106083E+00  0.27792345065E+01  0.51100000000E-03 0. -1.
        -11    1    4    4    0    0  0.23449623514E+02 -0.32024591460E+02 -0.58934711226E+01  0.40127201538E+02  0.51100000000E-03 0.  1.
        -12    1    4    4    0    0  0.65902003489E+01  0.83826691150E+01 -0.42007796883E+01  0.11460647107E+02  0.00000000000E+00 0.  1.
</event>
<event>
 8    1  0.1290800E-006  0.9118800E+02  0.7816164E-02  0.1184000E+00
        -11   -1    0    0    0    0  0.00000000000E+00  0.00000000000E+00  0.45593999997E+02  0.45594000000E+02  0.51100000000E-03 0. -1.
         11   -1    0    0    0    0 -0.00000000000E+00 -0.00000000000E+00 -0.45593999997E+02  0.45594000000E+02  0.51100000000E-03 0.  1.
         23    2    1    2    0    0 -0.35527136788E-14  0.88817841970E-15  0.00000000000E+00  0.91188000000E+02  0.91188000000E+02 0.  0.
    9900012    2    3    3    0    0  0.19791109776E+02  0.20389339424E+01  0.30982816775E+02  0.54367079139E+02  0.39999988513E+02 0.  0.
        -12    1    3    3    0    0 -0.19791109776E+02 -0.20389339424E+01 -0.30982816775E+02  0.36820920861E+02  0.00000000000E+00 0.  1.
         11    1    4    4    0    0  0.19297655417E+02 -0.78522119794E+01  0.21682229744E+02  0.30069516533E+02  0.51100000000E-03 0. -1.
        -11    1    4    4    0    0 -0.91429439166E+00  0.15011934974E+02  0.18574586171E+01  0.15154018565E+02  0.51100000000E-03 0.  1.
        -12    1    4    4    0    0  0.14077487506E+01 -0.51207890519E+01  0.74431284133E+01  0.91435440414E+01  0.00000000000E+00 0.  1.
</event>
<event>
 8    1  0.1290800E-006  0.9118800E+02  0.7816164E-02  0.1184000E+00
        -11   -1    0    0    0    0  0.00000000000E+00  0.00000000000E+00  0.45593999997E+02  0.45594000000E+02  0.51100000000E-03 0. -1.
         11   -1    0    0    0    0 -0.00000000000E+00 -0.00000000000E+00 -0.45593999997E+02  0.45594000000E+02  0.51100000000E-03 0.  1.
         23    2    1    2    0    0  0.00000000000E+00  0.00000000000E+00  0.00000000000E+00  0.91188000000E+02  0.91188000000E+02 0.  0.
    9900012    2    3    3    0    0  0.21364303378E+02  0.14551701874E+02 -0.26222010181E+02  0.54367091481E+02  0.40000016649E+02 0.  0.
         12    1    3    3    0    0 -0.21364303378E+02 -0.14551701874E+02  0.26222010181E+02  0.36820908519E+02  0.00000000000E+00 0. -1.
         11    1    4    4    0    0 -0.66198288770E+01  0.11329291083E+02 -0.63687706411E+01  0.14585479442E+02  0.51100000000E-03 0. -1.
        -11    1    4    4    0    0  0.29513550931E+02  0.46240572400E+01 -0.21764286390E+02  0.36961003182E+02  0.51100000000E-03 0.  1.
        -12    1    4    4    0    0 -0.15294186759E+01 -0.14016464498E+01  0.19110468502E+01  0.28206088563E+01  0.00000000000E+00 0.  1.
</event>
<event>
 8    1  0.1290800E-006  0.9118800E+02  0.7816164E-02  0.1184000E+00
        -11   -1    0    0    0    0  0.00000000000E+00  0.00000000000E+00  0.45593999997E+02  0.45594000000E+02  0.51100000000E-03 0.  1.
         11   -1    0    0    0    0 -0.00000000000E+00 -0.00000000000E+00 -0.45593999997E+02  0.45594000000E+02  0.51100000000E-03 0. -1.
         23    2    1    2    0    0  0.00000000000E+00 -0.17763568394E-14  0.00000000000E+00  0.91188000000E+02  0.91188000000E+02 0.  0.
    9900012    2    3    3    0    0  0.35273802583E+02  0.42608505111E+01  0.96635336529E+01  0.54367083684E+02  0.39999998874E+02 0.  0.
         12    1    3    3    0    0 -0.35273802583E+02 -0.42608505111E+01 -0.96635336529E+01  0.36820916316E+02  0.00000000000E+00 0. -1.
         11    1    4    4    0    0  0.73230790461E+01 -0.12588929256E+02  0.39937191527E+01  0.15101603208E+02  0.51100000000E-03 0.  1.
        -11    1    4    4    0    0  0.20118761083E+02  0.89517098267E+01 -0.63214229471E+01  0.22909780546E+02  0.51100000000E-03 0. -1.
         12    1    4    4    0    0  0.78319624539E+01  0.78980699406E+01  0.11991237447E+02  0.16355699929E+02  0.00000000000E+00 0. -1.
</event>
<event>
 8    1  0.1290800E-006  0.9118800E+02  0.7816164E-02  0.1184000E+00
        -11   -1    0    0    0    0  0.00000000000E+00  0.00000000000E+00  0.45593999997E+02  0.45594000000E+02  0.51100000000E-03 0. -1.
         11   -1    0    0    0    0 -0.00000000000E+00 -0.00000000000E+00 -0.45593999997E+02  0.45594000000E+02  0.51100000000E-03 0.  1.
         23    2    1    2    0    0 -0.71054273576E-14  0.17763568394E-14  0.00000000000E+00  0.91188000000E+02  0.91188000000E+02 0.  0.
    9900012    2    3    3    0    0 -0.21467393636E+02  0.10695164783E+02 -0.27938245526E+02  0.54367067063E+02  0.39999960984E+02 0.  0.
         12    1    3    3    0    0  0.21467393636E+02 -0.10695164783E+02  0.27938245526E+02  0.36820932937E+02  0.00000000000E+00 0. -1.
         11    1    4    4    0    0 -0.45530983363E+00 -0.17395357482E+01 -0.20100622961E+01  0.26969691061E+01  0.51100000000E-03 0.  1.
        -11    1    4    4    0    0  0.10744918321E+02  0.12123090709E+01 -0.84528017652E+01  0.13724897848E+02  0.51100000000E-03 0. -1.
         12    1    4    4    0    0 -0.31757002123E+02  0.11222391460E+02 -0.17475381465E+02  0.37945200109E+02  0.00000000000E+00 0. -1.
</event>
<event>
 8    1  0.1290800E-006  0.9118800E+02  0.7816164E-02  0.1184000E+00
        -11   -1    0    0    0    0  0.00000000000E+00  0.00000000000E+00  0.45593999997E+02  0.45594000000E+02  0.51100000000E-03 0.  1.
         11   -1    0    0    0    0 -0.00000000000E+00 -0.00000000000E+00 -0.45593999997E+02  0.45594000000E+02  0.51100000000E-03 0. -1.
         23    2    1    2    0    0  0.00000000000E+00 -0.17763568394E-14  0.71054273576E-14  0.91188000000E+02  0.91188000000E+02 0.  0.
    9900012    2    3    3    0    0  0.24775326689E+02 -0.90086302069E+01 -0.25706222564E+02  0.54367053390E+02  0.39999929813E+02 0.  0.
        -12    1    3    3    0    0 -0.24775326689E+02  0.90086302069E+01  0.25706222564E+02  0.36820946610E+02  0.00000000000E+00 0.  1.
         11    1    4    4    0    0  0.16211177330E+02  0.90126240024E+01 -0.14511765976E+01  0.18604719176E+02  0.51100000000E-03 0. -1.
        -11    1    4    4    0    0  0.20505592300E+00 -0.53242493206E+01  0.17770420358E+01  0.56167212337E+01  0.51100000000E-03 0.  1.
         12    1    4    4    0    0  0.83590934356E+01 -0.12697004889E+02 -0.26032088002E+02  0.30145612981E+02  0.00000000000E+00 0. -1.
</event>
<event>
 8    1  0.1290800E-006  0.9118800E+02  0.7816164E-02  0.1184000E+00
        -11   -1    0    0    0    0  0.00000000000E+00  0.00000000000E+00  0.45593999997E+02  0.45594000000E+02  0.51100000000E-03 0.  1.
         11   -1    0    0    0    0 -0.00000000000E+00 -0.00000000000E+00 -0.45593999997E+02  0.45594000000E+02  0.51100000000E-03 0. -1.
         23    2    1    2    0    0 -0.22204460493E-15  0.00000000000E+00 -0.35527136788E-14  0.91188000000E+02  0.91188000000E+02 0.  0.
    9900012    2    3    3    0    0  0.18535284292E+01  0.30652899958E+02  0.20316212735E+02  0.54367023053E+02  0.39999860653E+02 0.  0.
         12    1    3    3    0    0 -0.18535284292E+01 -0.30652899958E+02 -0.20316212735E+02  0.36820976947E+02  0.00000000000E+00 0. -1.
         11    1    4    4    0    0  0.10495165439E+00  0.94024990707E+01 -0.56974684714E+01  0.10994505485E+02  0.51100000000E-03 0. -1.
        -11    1    4    4    0    0  0.14723196274E+01 -0.66456487114E+01  0.49609060867E+01  0.84227644715E+01  0.51100000000E-03 0.  1.
        -12    1    4    4    0    0  0.27625714737E+00  0.27896049598E+02  0.21052775120E+02  0.34949753096E+02  0.00000000000E+00 0.  1.
</event>
<event>
 8    1  0.1290800E-006  0.9118800E+02  0.7816164E-02  0.1184000E+00
        -11   -1    0    0    0    0  0.00000000000E+00  0.00000000000E+00  0.45593999997E+02  0.45594000000E+02  0.51100000000E-03 0. -1.
         11   -1    0    0    0    0 -0.00000000000E+00 -0.00000000000E+00 -0.45593999997E+02  0.45594000000E+02  0.51100000000E-03 0.  1.
         23    2    1    2    0    0  0.00000000000E+00  0.35527136788E-14  0.00000000000E+00  0.91188000000E+02  0.91188000000E+02 0.  0.
    9900012    2    3    3    0    0 -0.28719210269E+02 -0.16055666215E+02 -0.16528837041E+02  0.54367083254E+02  0.39999997895E+02 0.  0.
         12    1    3    3    0    0  0.28719210269E+02  0.16055666215E+02  0.16528837041E+02  0.36820916746E+02  0.00000000000E+00 0. -1.
         11    1    4    4    0    0  0.26513875918E+01 -0.56041566670E+00  0.29119269421E+01  0.39778437197E+01  0.51100000000E-03 0. -1.
        -11    1    4    4    0    0 -0.12330581563E+02 -0.38653615520E+01 -0.24330143249E+02  0.27548868078E+02  0.51100000000E-03 0.  1.
        -12    1    4    4    0    0 -0.19040016297E+02 -0.11629888996E+02  0.48893792661E+01  0.22840371457E+02  0.00000000000E+00 0.  1.
</event>
<event>
 8    1  0.1290800E-006  0.9118800E+02  0.7816164E-02  0.1184000E+00
        -11   -1    0    0    0    0  0.00000000000E+00  0.00000000000E+00  0.45593999997E+02  0.45594000000E+02  0.51100000000E-03 0. -1.
         11   -1    0    0    0    0 -0.00000000000E+00 -0.00000000000E+00 -0.45593999997E+02  0.45594000000E+02  0.51100000000E-03 0.  1.
         23    2    1    2    0    0 -0.35527136788E-14 -0.88817841970E-15  0.00000000000E+00  0.91188000000E+02  0.91188000000E+02 0.  0.
    9900012    2    3    3    0    0 -0.20302975923E+02 -0.68933446342E+01 -0.29934112254E+02  0.54367080565E+02  0.39999991764E+02 0.  0.
         12    1    3    3    0    0  0.20302975923E+02  0.68933446342E+01  0.29934112254E+02  0.36820919435E+02  0.00000000000E+00 0. -1.
         11    1    4    4    0    0 -0.25055080456E+01 -0.37695469767E+01  0.55826151918E+01  0.71869776414E+01  0.51100000000E-03 0. -1.
        -11    1    4    4    0    0 -0.16646927213E+02 -0.52607955365E+01 -0.74051937615E+01  0.18963993520E+02  0.51100000000E-03 0.  1.
        -12    1    4    4    0    0 -0.11505406643E+01  0.21369978791E+01 -0.28111533685E+02  0.28216109403E+02  0.00000000000E+00 0.  1.
</event>
<event>
 8    1  0.1290800E-006  0.9118800E+02  0.7816164E-02  0.1184000E+00
        -11   -1    0    0    0    0  0.00000000000E+00  0.00000000000E+00  0.45593999997E+02  0.45594000000E+02  0.51100000000E-03 0. -1.
         11   -1    0    0    0    0 -0.00000000000E+00 -0.00000000000E+00 -0.45593999997E+02  0.45594000000E+02  0.51100000000E-03 0.  1.
         23    2    1    2    0    0 -0.35527136788E-14  0.00000000000E+00 -0.35527136788E-14  0.91188000000E+02  0.91188000000E+02 0.  0.
    9900012    2    3    3    0    0 -0.17791864903E+02 -0.95208294860E+01 -0.30798992451E+02  0.54367155539E+02  0.40000162682E+02 0.  0.
         12    1    3    3    0    0  0.17791864903E+02  0.95208294860E+01  0.30798992451E+02  0.36820844461E+02  0.00000000000E+00 0. -1.
         11    1    4    4    0    0 -0.24674881008E+02 -0.12899019653E+02 -0.17914523015E+02  0.33108376521E+02  0.51100000000E-03 0.  1.
        -11    1    4    4    0    0 -0.40807549979E+01  0.41129580114E+01 -0.57160475641E+01  0.81389302106E+01  0.51100000000E-03 0. -1.
         12    1    4    4    0    0  0.10963771103E+02 -0.73476784467E+00 -0.71684218723E+01  0.13119848807E+02  0.00000000000E+00 0. -1.
</event>
<event>
 8    1  0.1290800E-006  0.9118800E+02  0.7816164E-02  0.1184000E+00
        -11   -1    0    0    0    0  0.00000000000E+00  0.00000000000E+00  0.45593999997E+02  0.45594000000E+02  0.51100000000E-03 0. -1.
         11   -1    0    0    0    0 -0.00000000000E+00 -0.00000000000E+00 -0.45593999997E+02  0.45594000000E+02  0.51100000000E-03 0.  1.
         23    2    1    2    0    0  0.00000000000E+00  0.00000000000E+00  0.00000000000E+00  0.91188000000E+02  0.91188000000E+02 0.  0.
    9900012    2    3    3    0    0 -0.35760105080E+02 -0.35114639900E+01 -0.80414015315E+01  0.54367087011E+02  0.40000006460E+02 0.  0.
        -12    1    3    3    0    0  0.35760105080E+02  0.35114639900E+01  0.80414015315E+01  0.36820912989E+02  0.00000000000E+00 0.  1.
         11    1    4    4    0    0  0.53557754821E+01 -0.64951462191E+01 -0.78759473638E+01  0.11528304410E+02  0.51100000000E-03 0. -1.
        -11    1    4    4    0    0 -0.15131885231E+02  0.26275168009E+01 -0.54944788203E+01  0.16311563167E+02  0.51100000000E-03 0.  1.
         12    1    4    4    0    0 -0.25983995331E+02  0.35616542820E+00  0.53290246526E+01  0.26527219435E+02  0.00000000000E+00 0. -1.
</event>
<event>
 8    1  0.1290800E-006  0.9118800E+02  0.7816164E-02  0.1184000E+00
        -11   -1    0    0    0    0  0.00000000000E+00  0.00000000000E+00  0.45593999997E+02  0.45594000000E+02  0.51100000000E-03 0. -1.
         11   -1    0    0    0    0 -0.00000000000E+00 -0.00000000000E+00 -0.45593999997E+02  0.45594000000E+02  0.51100000000E-03 0.  1.
         23    2    1    2    0    0  0.00000000000E+00 -0.33306690739E-15 -0.44408920985E-15  0.91188000000E+02  0.91188000000E+02 0.  0.
    9900012    2    3    3    0    0 -0.36610906093E+02  0.91859995075E+00 -0.38177805577E+01  0.54367113003E+02  0.40000065714E+02 0.  0.
         12    1    3    3    0    0  0.36610906093E+02 -0.91859995075E+00  0.38177805577E+01  0.36820886997E+02  0.00000000000E+00 0. -1.
         11    1    4    4    0    0 -0.24431782824E+02 -0.31841380563E+01  0.10603600171E+02  0.26823256401E+02  0.51100000000E-03 0. -1.
        -11    1    4    4    0    0 -0.13979448435E+02  0.52590290959E+01 -0.21530374452E+01  0.15090325910E+02  0.51100000000E-03 0.  1.
        -12    1    4    4    0    0  0.18003251654E+01 -0.11562910889E+01 -0.12268343283E+02  0.12453530692E+02  0.00000000000E+00 0.  1.
</event>
<event>
 8    1  0.1290800E-006  0.9118800E+02  0.7816164E-02  0.1184000E+00
        -11   -1    0    0    0    0  0.00000000000E+00  0.00000000000E+00  0.45593999997E+02  0.45594000000E+02  0.51100000000E-03 0.  1.
         11   -1    0    0    0    0 -0.00000000000E+00 -0.00000000000E+00 -0.45593999997E+02  0.45594000000E+02  0.51100000000E-03 0. -1.
         23    2    1    2    0    0  0.00000000000E+00  0.00000000000E+00  0.00000000000E+00  0.91188000000E+02  0.91188000000E+02 0.  0.
    9900012    2    3    3    0    0  0.15325716702E+02  0.89052448884E+01 -0.32273813697E+02  0.54367081632E+02  0.39999994195E+02 0.  0.
        -12    1    3    3    0    0 -0.15325716702E+02 -0.89052448884E+01  0.32273813697E+02  0.36820918368E+02  0.00000000000E+00 0.  1.
         11    1    4    4    0    0  0.12650446912E+02  0.63032611744E+01 -0.10972887959E+02  0.17893271890E+02  0.51100000000E-03 0. -1.
        -11    1    4    4    0    0 -0.82195046440E+00  0.15806138471E+02 -0.97868610248E+01  0.18608929709E+02  0.51100000000E-03 0.  1.
        -12    1    4    4    0    0  0.34972202548E+01 -0.13204154757E+02 -0.11514064713E+02  0.17864880032E+02  0.00000000000E+00 0.  1.
</event>
<event>
 8    1  0.1290800E-006  0.9118800E+02  0.7816164E-02  0.1184000E+00
        -11   -1    0    0    0    0  0.00000000000E+00  0.00000000000E+00  0.45593999997E+02  0.45594000000E+02  0.51100000000E-03 0. -1.
         11   -1    0    0    0    0 -0.00000000000E+00 -0.00000000000E+00 -0.45593999997E+02  0.45594000000E+02  0.51100000000E-03 0.  1.
         23    2    1    2    0    0 -0.17763568394E-14 -0.35527136788E-14  0.35527136788E-14  0.91188000000E+02  0.91188000000E+02 0.  0.
    9900012    2    3    3    0    0  0.80860717904E+01 -0.21537072577E+02 -0.28749778200E+02  0.54367084765E+02  0.40000001339E+02 0.  0.
         12    1    3    3    0    0 -0.80860717904E+01  0.21537072577E+02  0.28749778200E+02  0.36820915235E+02  0.00000000000E+00 0. -1.
         11    1    4    4    0    0 -0.77026004410E+01  0.48666586361E+01 -0.18416291006E+02  0.20546877975E+02  0.51100000000E-03 0. -1.
        -11    1    4    4    0    0  0.43410632306E+01 -0.13028996549E+02 -0.84266960352E+01  0.16112379942E+02  0.51100000000E-03 0.  1.
         12    1    4    4    0    0  0.11447609001E+02 -0.13374734664E+02 -0.19067911587E+01  0.17707826848E+02  0.00000000000E+00 0. -1.
</event>
<event>
 8    1  0.1290800E-006  0.9118800E+02  0.7816164E-02  0.1184000E+00
        -11   -1    0    0    0    0  0.00000000000E+00  0.00000000000E+00  0.45593999997E+02  0.45594000000E+02  0.51100000000E-03 0.  1.
         11   -1    0    0    0    0 -0.00000000000E+00 -0.00000000000E+00 -0.45593999997E+02  0.45594000000E+02  0.51100000000E-03 0. -1.
         23    2    1    2    0    0  0.88817841970E-15 -0.17763568394E-14  0.71054273576E-14  0.91188000000E+02  0.91188000000E+02 0.  0.
    9900012    2    3    3    0    0 -0.57632650889E+01 -0.11339375062E+02  0.34554062905E+02  0.54367083192E+02  0.39999997754E+02 0.  0.
         12    1    3    3    0    0  0.57632650889E+01  0.11339375062E+02 -0.34554062905E+02  0.36820916808E+02  0.00000000000E+00 0. -1.
         11    1    4    4    0    0 -0.81816175469E+01 -0.98105030318E+00 -0.14310831411E-01  0.82402384943E+01  0.51100000000E-03 0. -1.
        -11    1    4    4    0    0  0.99899314158E+01  0.65757334182E+01  0.14569144650E+02  0.18849376005E+02  0.51100000000E-03 0.  1.
        -12    1    4    4    0    0 -0.75715789579E+01 -0.16934058177E+02  0.19999229087E+02  0.27277468693E+02  0.00000000000E+00 0.  1.
</event>
<event>
 8    1  0.1290800E-006  0.9118800E+02  0.7816164E-02  0.1184000E+00
        -11   -1    0    0    0    0  0.00000000000E+00  0.00000000000E+00  0.45593999997E+02  0.45594000000E+02  0.51100000000E-03 0. -1.
         11   -1    0    0    0    0 -0.00000000000E+00 -0.00000000000E+00 -0.45593999997E+02  0.45594000000E+02  0.51100000000E-03 0.  1.
         23    2    1    2    0    0  0.00000000000E+00  0.00000000000E+00  0.17763568394E-14  0.91188000000E+02  0.91188000000E+02 0.  0.
    9900012    2    3    3    0    0  0.30027082540E+02 -0.17643544964E+02  0.11952364056E+02  0.54367090570E+02  0.40000014571E+02 0.  0.
        -12    1    3    3    0    0 -0.30027082540E+02  0.17643544964E+02 -0.11952364056E+02  0.36820909430E+02  0.00000000000E+00 0.  1.
         11    1    4    4    0    0  0.37224266343E+02 -0.22648906936E+02  0.12523620728E+02  0.45337181943E+02  0.51100000000E-03 0. -1.
        -11    1    4    4    0    0 -0.40640211309E+01  0.32578423385E+01 -0.13015422942E+01  0.53687817109E+01  0.51100000000E-03 0.  1.
         12    1    4    4    0    0 -0.31331626725E+01  0.17475196328E+01  0.73028562230E+00  0.36611269153E+01  0.00000000000E+00 0. -1.
</event>
<event>
 8    1  0.1290800E-006  0.9118800E+02  0.7816164E-02  0.1184000E+00
        -11   -1    0    0    0    0  0.00000000000E+00  0.00000000000E+00  0.45593999997E+02  0.45594000000E+02  0.51100000000E-03 0.  1.
         11   -1    0    0    0    0 -0.00000000000E+00 -0.00000000000E+00 -0.45593999997E+02  0.45594000000E+02  0.51100000000E-03 0. -1.
         23    2    1    2    0    0  0.00000000000E+00  0.00000000000E+00  0.00000000000E+00  0.91188000000E+02  0.91188000000E+02 0.  0.
    9900012    2    3    3    0    0 -0.67005540805E+01  0.72760799784E+01  0.35467455099E+02  0.54367093764E+02  0.40000021854E+02 0.  0.
         12    1    3    3    0    0  0.67005540805E+01 -0.72760799784E+01 -0.35467455099E+02  0.36820906236E+02  0.00000000000E+00 0. -1.
         11    1    4    4    0    0  0.37903651820E+01 -0.93116774194E+01  0.11045489082E+02  0.14935763586E+02  0.51100000000E-03 0. -1.
        -11    1    4    4    0    0 -0.10216328259E+02  0.89014871515E+01  0.27880055583E+02  0.30998505386E+02  0.51100000000E-03 0.  1.
        -12    1    4    4    0    0 -0.27459100352E+00  0.76862702464E+01 -0.34580895662E+01  0.84328247917E+01  0.00000000000E+00 0.  1.
</event>
<event>
 8    1  0.1290800E-006  0.9118800E+02  0.7816164E-02  0.1184000E+00
        -11   -1    0    0    0    0  0.00000000000E+00  0.00000000000E+00  0.45593999997E+02  0.45594000000E+02  0.51100000000E-03 0.  1.
         11   -1    0    0    0    0 -0.00000000000E+00 -0.00000000000E+00 -0.45593999997E+02  0.45594000000E+02  0.51100000000E-03 0. -1.
         23    2    1    2    0    0 -0.71054273576E-14  0.00000000000E+00 -0.35527136788E-14  0.91188000000E+02  0.91188000000E+02 0.  0.
    9900012    2    3    3    0    0 -0.25557740593E+02 -0.23354967613E+02 -0.12534850424E+02  0.54367148685E+02  0.40000147057E+02 0.  0.
         12    1    3    3    0    0  0.25557740593E+02  0.23354967613E+02  0.12534850424E+02  0.36820851315E+02  0.00000000000E+00 0. -1.
         11    1    4    4    0    0 -0.69469954726E+01 -0.89123482058E+01  0.10148685774E+02  0.15188367912E+02  0.51100000000E-03 0. -1.
        -11    1    4    4    0    0  0.15525613717E+01  0.41371425127E+01 -0.43149792276E+01  0.61761995579E+01  0.51100000000E-03 0.  1.
         12    1    4    4    0    0 -0.20163306492E+02 -0.18579761920E+02 -0.18368556970E+02  0.33002581215E+02  0.00000000000E+00 0. -1.
</event>
<event>
 8    1  0.1290800E-006  0.9118800E+02  0.7816164E-02  0.1184000E+00
        -11   -1    0    0    0    0  0.00000000000E+00  0.00000000000E+00  0.45593999997E+02  0.45594000000E+02  0.51100000000E-03 0.  1.
         11   -1    0    0    0    0 -0.00000000000E+00 -0.00000000000E+00 -0.45593999997E+02  0.45594000000E+02  0.51100000000E-03 0. -1.
         23    2    1    2    0    0  0.00000000000E+00 -0.35527136788E-14  0.00000000000E+00  0.91188000000E+02  0.91188000000E+02 0.  0.
    9900012    2    3    3    0    0 -0.15576443456E+02  0.30593418230E+02  0.13311651574E+02  0.54367042689E+02  0.39999905417E+02 0.  0.
        -12    1    3    3    0    0  0.15576443456E+02 -0.30593418230E+02 -0.13311651574E+02  0.36820957311E+02  0.00000000000E+00 0.  1.
         11    1    4    4    0    0 -0.21910990601E+01 -0.41679174922E+01  0.69917244936E+00  0.47603879767E+01  0.51100000000E-03 0. -1.
        -11    1    4    4    0    0 -0.21642072441E+02  0.27203571147E+02  0.15477812530E+02  0.38052283291E+02  0.51100000000E-03 0.  1.
         12    1    4    4    0    0  0.82567280460E+01  0.75577645750E+01 -0.28653334060E+01  0.11554371421E+02  0.00000000000E+00 0. -1.
</event>
<event>
 8    1  0.1290800E-006  0.9118800E+02  0.7816164E-02  0.1184000E+00
        -11   -1    0    0    0    0  0.00000000000E+00  0.00000000000E+00  0.45593999997E+02  0.45594000000E+02  0.51100000000E-03 0.  1.
         11   -1    0    0    0    0 -0.00000000000E+00 -0.00000000000E+00 -0.45593999997E+02  0.45594000000E+02  0.51100000000E-03 0. -1.
         23    2    1    2    0    0 -0.88817841970E-15  0.00000000000E+00  0.00000000000E+00  0.91188000000E+02  0.91188000000E+02 0.  0.
    9900012    2    3    3    0    0 -0.57305119618E+01  0.52039854584E+01  0.35998049941E+02  0.54367084319E+02  0.40000000323E+02 0.  0.
         12    1    3    3    0    0  0.57305119618E+01 -0.52039854584E+01 -0.35998049941E+02  0.36820915681E+02  0.00000000000E+00 0. -1.
         11    1    4    4    0    0 -0.93134725658E+01 -0.13956066303E+01 -0.65799013950E-01  0.94176864925E+01  0.51100000000E-03 0. -1.
        -11    1    4    4    0    0 -0.10820687194E+02  0.55531440870E+01  0.13613049493E+02  0.18254856815E+02  0.51100000000E-03 0.  1.
        -12    1    4    4    0    0  0.14403647798E+02  0.10464480016E+01  0.22450799462E+02  0.26694541011E+02  0.00000000000E+00 0.  1.
</event>
<event>
 8    1  0.1290800E-006  0.9118800E+02  0.7816164E-02  0.1184000E+00
        -11   -1    0    0    0    0  0.00000000000E+00  0.00000000000E+00  0.45593999997E+02  0.45594000000E+02  0.51100000000E-03 0. -1.
         11   -1    0    0    0    0 -0.00000000000E+00 -0.00000000000E+00 -0.45593999997E+02  0.45594000000E+02  0.51100000000E-03 0.  1.
         23    2    1    2    0    0  0.35527136788E-14  0.00000000000E+00 -0.35527136788E-14  0.91188000000E+02  0.91188000000E+02 0.  0.
    9900012    2    3    3    0    0 -0.24183516973E+02 -0.11882285805E+02  0.25094798585E+02  0.54367080332E+02  0.39999991234E+02 0.  0.
        -12    1    3    3    0    0  0.24183516973E+02  0.11882285805E+02 -0.25094798585E+02  0.36820919668E+02  0.00000000000E+00 0.  1.
         11    1    4    4    0    0 -0.18288757484E+01 -0.16007300305E+01  0.23336017487E+02  0.23462242764E+02  0.51100000000E-03 0. -1.
        -11    1    4    4    0    0 -0.12481009254E+02 -0.84756206999E+01 -0.78523187838E+01  0.17007958396E+02  0.51100000000E-03 0.  1.
         12    1    4    4    0    0 -0.98736319707E+01 -0.18059350750E+01  0.96110998824E+01  0.13896879173E+02  0.00000000000E+00 0. -1.
</event>
<event>
 8    1  0.1290800E-006  0.9118800E+02  0.7816164E-02  0.1184000E+00
        -11   -1    0    0    0    0  0.00000000000E+00  0.00000000000E+00  0.45593999997E+02  0.45594000000E+02  0.51100000000E-03 0.  1.
         11   -1    0    0    0    0 -0.00000000000E+00 -0.00000000000E+00 -0.45593999997E+02  0.45594000000E+02  0.51100000000E-03 0. -1.
         23    2    1    2    0    0 -0.88817841970E-15  0.17763568394E-14  0.00000000000E+00  0.91188000000E+02  0.91188000000E+02 0.  0.
    9900012    2    3    3    0    0  0.55375543096E+01 -0.14038221231E+02  0.33586336430E+02  0.54367107047E+02  0.40000052135E+02 0.  0.
         12    1    3    3    0    0 -0.55375543096E+01  0.14038221231E+02 -0.33586336430E+02  0.36820892953E+02  0.00000000000E+00 0. -1.
         11    1    4    4    0    0  0.10218189739E+02 -0.16612496938E+02  0.21158496167E+01  0.19617932508E+02  0.51100000000E-03 0. -1.
        -11    1    4    4    0    0  0.47642242144E+01 -0.17559339738E+00  0.12533972109E+02  0.13410038124E+02  0.51100000000E-03 0.  1.
        -12    1    4    4    0    0 -0.94448596436E+01  0.27498691039E+01  0.18936514704E+02  0.21339136414E+02  0.00000000000E+00 0.  1.
</event>
<event>
 8    1  0.1290800E-006  0.9118800E+02  0.7816164E-02  0.1184000E+00
        -11   -1    0    0    0    0  0.00000000000E+00  0.00000000000E+00  0.45593999997E+02  0.45594000000E+02  0.51100000000E-03 0. -1.
         11   -1    0    0    0    0 -0.00000000000E+00 -0.00000000000E+00 -0.45593999997E+02  0.45594000000E+02  0.51100000000E-03 0.  1.
         23    2    1    2    0    0 -0.35527136788E-14  0.00000000000E+00  0.00000000000E+00  0.91188000000E+02  0.91188000000E+02 0.  0.
    9900012    2    3    3    0    0 -0.20518768634E+02  0.17439498484E+02  0.25112223637E+02  0.54367085432E+02  0.40000002859E+02 0.  0.
        -12    1    3    3    0    0  0.20518768634E+02 -0.17439498484E+02 -0.25112223637E+02  0.36820914568E+02  0.00000000000E+00 0.  1.
         11    1    4    4    0    0 -0.17371044174E+02  0.22091491494E+02  0.16369549858E+02  0.32523058511E+02  0.51100000000E-03 0. -1.
        -11    1    4    4    0    0  0.43669300311E+01 -0.88196350590E+01  0.88717839968E+01  0.13250078944E+02  0.51100000000E-03 0.  1.
        -12    1    4    4    0    0 -0.75146544916E+01  0.41676420492E+01 -0.12911021734E+00  0.85939479768E+01  0.00000000000E+00 0.  1.
</event>
<event>
 8    1  0.1290800E-006  0.9118800E+02  0.7816164E-02  0.1184000E+00
        -11   -1    0    0    0    0  0.00000000000E+00  0.00000000000E+00  0.45593999997E+02  0.45594000000E+02  0.51100000000E-03 0.  1.
         11   -1    0    0    0    0 -0.00000000000E+00 -0.00000000000E+00 -0.45593999997E+02  0.45594000000E+02  0.51100000000E-03 0. -1.
         23    2    1    2    0    0  0.17763568394E-14 -0.71054273576E-14  0.71054273576E-14  0.91188000000E+02  0.91188000000E+02 0.  0.
    9900012    2    3    3    0    0  0.97026358856E+01 -0.23788427687E+02  0.26377080233E+02  0.54367071216E+02  0.39999970450E+02 0.  0.
         12    1    3    3    0    0 -0.97026358856E+01  0.23788427687E+02 -0.26377080233E+02  0.36820928784E+02  0.00000000000E+00 0. -1.
         11    1    4    4    0    0  0.37694479634E+01 -0.73482922579E+01  0.19113872267E+02  0.20821773468E+02  0.51100000000E-03 0.  1.
        -11    1    4    4    0    0 -0.75288194317E+01 -0.71331419436E+01  0.12610790749E+02  0.16327794695E+02  0.51100000000E-03 0. -1.
        -12    1    4    4    0    0  0.13462007354E+02 -0.93069934855E+01 -0.53475827835E+01  0.17217503052E+02  0.00000000000E+00 0.  1.
</event>
<event>
 8    1  0.1290800E-006  0.9118800E+02  0.7816164E-02  0.1184000E+00
        -11   -1    0    0    0    0  0.00000000000E+00  0.00000000000E+00  0.45593999997E+02  0.45594000000E+02  0.51100000000E-03 0.  1.
         11   -1    0    0    0    0 -0.00000000000E+00 -0.00000000000E+00 -0.45593999997E+02  0.45594000000E+02  0.51100000000E-03 0. -1.
         23    2    1    2    0    0  0.00000000000E+00 -0.17763568394E-14 -0.13322676296E-14  0.91188000000E+02  0.91188000000E+02 0.  0.
    9900012    2    3    3    0    0  0.34201757052E+02 -0.13054677394E+02 -0.39488666416E+01  0.54367104641E+02  0.40000046649E+02 0.  0.
        -12    1    3    3    0    0 -0.34201757052E+02  0.13054677394E+02  0.39488666416E+01  0.36820895359E+02  0.00000000000E+00 0.  1.
         11    1    4    4    0    0  0.28978937568E+02 -0.75286384138E+01 -0.10482071242E+02  0.31722752666E+02  0.51100000000E-03 0. -1.
        -11    1    4    4    0    0 -0.49676398745E+01 -0.36309456769E+01 -0.44109311131E+01  0.75708339024E+01  0.51100000000E-03 0.  1.
         12    1    4    4    0    0  0.10190459358E+02 -0.18950933033E+01  0.10944135713E+02  0.15073518072E+02  0.00000000000E+00 0. -1.
</event>
<event>
 8    1  0.1290800E-006  0.9118800E+02  0.7816164E-02  0.1184000E+00
        -11   -1    0    0    0    0  0.00000000000E+00  0.00000000000E+00  0.45593999997E+02  0.45594000000E+02  0.51100000000E-03 0. -1.
         11   -1    0    0    0    0 -0.00000000000E+00 -0.00000000000E+00 -0.45593999997E+02  0.45594000000E+02  0.51100000000E-03 0.  1.
         23    2    1    2    0    0  0.00000000000E+00 -0.35527136788E-14  0.88817841970E-15  0.91188000000E+02  0.91188000000E+02 0.  0.
    9900012    2    3    3    0    0 -0.28026165754E+02  0.23164518998E+02 -0.58064592327E+01  0.54367138031E+02  0.40000122769E+02 0.  0.
         12    1    3    3    0    0  0.28026165754E+02 -0.23164518998E+02  0.58064592327E+01  0.36820861969E+02  0.00000000000E+00 0. -1.
         11    1    4    4    0    0  0.23266424779E+01 -0.60147763481E+01 -0.46966090585E+00  0.64661720798E+01  0.51100000000E-03 0. -1.
        -11    1    4    4    0    0 -0.37104596896E+01  0.94343238479E+01 -0.10204483832E+02  0.14384208985E+02  0.51100000000E-03 0.  1.
        -12    1    4    4    0    0 -0.26642348543E+02  0.19744971499E+02  0.48676855053E+01  0.33516756966E+02  0.00000000000E+00 0.  1.
</event>
<event>
 8    1  0.1290800E-006  0.9118800E+02  0.7816164E-02  0.1184000E+00
        -11   -1    0    0    0    0  0.00000000000E+00  0.00000000000E+00  0.45593999997E+02  0.45594000000E+02  0.51100000000E-03 0.  1.
         11   -1    0    0    0    0 -0.00000000000E+00 -0.00000000000E+00 -0.45593999997E+02  0.45594000000E+02  0.51100000000E-03 0. -1.
         23    2    1    2    0    0 -0.22204460493E-15 -0.11102230246E-14  0.00000000000E+00  0.91188000000E+02  0.91188000000E+02 0.  0.
    9900012    2    3    3    0    0 -0.13601070212E+01 -0.18491050886E+01 -0.36749285358E+02  0.54367094864E+02  0.40000024362E+02 0.  0.
        -12    1    3    3    0    0  0.13601070212E+01  0.18491050886E+01  0.36749285358E+02  0.36820905136E+02  0.00000000000E+00 0.  1.
         11    1    4    4    0    0 -0.43773596249E+00  0.34256103467E+01 -0.16532062095E+02  0.16888916377E+02  0.51100000000E-03 0.  1.
        -11    1    4    4    0    0 -0.95107367592E+01  0.68511073890E+01 -0.19312779117E+02  0.22591485644E+02  0.51100000000E-03 0. -1.
        -12    1    4    4    0    0  0.85883657005E+01 -0.12125822824E+02 -0.90444414605E+00  0.14886692842E+02  0.00000000000E+00 0.  1.
</event>
<event>
 8    1  0.1290800E-006  0.9118800E+02  0.7816164E-02  0.1184000E+00
        -11   -1    0    0    0    0  0.00000000000E+00  0.00000000000E+00  0.45593999997E+02  0.45594000000E+02  0.51100000000E-03 0.  1.
         11   -1    0    0    0    0 -0.00000000000E+00 -0.00000000000E+00 -0.45593999997E+02  0.45594000000E+02  0.51100000000E-03 0. -1.
         23    2    1    2    0    0  0.00000000000E+00  0.00000000000E+00  0.17763568394E-14  0.91188000000E+02  0.91188000000E+02 0.  0.
    9900012    2    3    3    0    0  0.28362053083E+02 -0.18984885118E+02 -0.13818393409E+02  0.54367083194E+02  0.39999997758E+02 0.  0.
         12    1    3    3    0    0 -0.28362053083E+02  0.18984885118E+02  0.13818393409E+02  0.36820916806E+02  0.00000000000E+00 0. -1.
         11    1    4    4    0    0  0.19317289878E+02 -0.24599609584E+01 -0.20317442487E+02  0.28142628975E+02  0.51100000000E-03 0. -1.
        -11    1    4    4    0    0  0.11410688515E+02 -0.60487386424E+01  0.82752610819E+01  0.15338546143E+02  0.51100000000E-03 0.  1.
         12    1    4    4    0    0 -0.23659253109E+01 -0.10476185517E+02 -0.17762120046E+01  0.10885908076E+02  0.00000000000E+00 0. -1.
</event>
<event>
 8    1  0.1290800E-006  0.9118800E+02  0.7816164E-02  0.1184000E+00
        -11   -1    0    0    0    0  0.00000000000E+00  0.00000000000E+00  0.45593999997E+02  0.45594000000E+02  0.51100000000E-03 0.  1.
         11   -1    0    0    0    0 -0.00000000000E+00 -0.00000000000E+00 -0.45593999997E+02  0.45594000000E+02  0.51100000000E-03 0. -1.
         23    2    1    2    0    0  0.00000000000E+00  0.00000000000E+00  0.00000000000E+00  0.91188000000E+02  0.91188000000E+02 0.  0.
    9900012    2    3    3    0    0  0.68243820947E+01 -0.30840426532E+02 -0.18922902124E+02  0.54367077626E+02  0.39999985065E+02 0.  0.
        -12    1    3    3    0    0 -0.68243820947E+01  0.30840426532E+02  0.18922902124E+02  0.36820922374E+02  0.00000000000E+00 0.  1.
         11    1    4    4    0    0  0.13562426546E+02 -0.14847592482E+02  0.28444555058E+01  0.20309636720E+02  0.51100000000E-03 0. -1.
        -11    1    4    4    0    0 -0.31820049064E+01 -0.45077691809E+01  0.31768499931E+01  0.63669077544E+01  0.51100000000E-03 0.  1.
         12    1    4    4    0    0 -0.35560395445E+01 -0.11485064869E+02 -0.24944207623E+02  0.27690533152E+02  0.00000000000E+00 0. -1.
</event>
<event>
 8    1  0.1290800E-006  0.9118800E+02  0.7816164E-02  0.1184000E+00
        -11   -1    0    0    0    0  0.00000000000E+00  0.00000000000E+00  0.45593999997E+02  0.45594000000E+02  0.51100000000E-03 0. -1.
         11   -1    0    0    0    0 -0.00000000000E+00 -0.00000000000E+00 -0.45593999997E+02  0.45594000000E+02  0.51100000000E-03 0.  1.
         23    2    1    2    0    0  0.44408920985E-15  0.35527136788E-14  0.00000000000E+00  0.91188000000E+02  0.91188000000E+02 0.  0.
    9900012    2    3    3    0    0 -0.20132084718E+01 -0.27467548835E+02 -0.24438918825E+02  0.54367082022E+02  0.39999995086E+02 0.  0.
         12    1    3    3    0    0  0.20132084718E+01  0.27467548835E+02  0.24438918825E+02  0.36820917978E+02  0.00000000000E+00 0. -1.
         11    1    4    4    0    0  0.28675989750E+01  0.79397568677E+01  0.31245542059E+01  0.90014277894E+01  0.51100000000E-03 0. -1.
        -11    1    4    4    0    0 -0.34463205651E+00 -0.14733095596E+02 -0.13216732639E+02  0.19795577764E+02  0.51100000000E-03 0.  1.
         12    1    4    4    0    0 -0.45361753903E+01 -0.20674210107E+02 -0.14346740392E+02  0.25570076469E+02  0.00000000000E+00 0. -1.
</event>
<event>
 8    1  0.1290800E-006  0.9118800E+02  0.7816164E-02  0.1184000E+00
        -11   -1    0    0    0    0  0.00000000000E+00  0.00000000000E+00  0.45593999997E+02  0.45594000000E+02  0.51100000000E-03 0. -1.
         11   -1    0    0    0    0 -0.00000000000E+00 -0.00000000000E+00 -0.45593999997E+02  0.45594000000E+02  0.51100000000E-03 0.  1.
         23    2    1    2    0    0  0.00000000000E+00  0.00000000000E+00 -0.35527136788E-14  0.91188000000E+02  0.91188000000E+02 0.  0.
    9900012    2    3    3    0    0 -0.50018187186E+01  0.32103800797E+02  0.17323605690E+02  0.54367088412E+02  0.40000009652E+02 0.  0.
        -12    1    3    3    0    0  0.50018187186E+01 -0.32103800797E+02 -0.17323605690E+02  0.36820911588E+02  0.00000000000E+00 0.  1.
         11    1    4    4    0    0 -0.10901100435E+01  0.63722723872E+01  0.18335300656E+02  0.19441642052E+02  0.51100000000E-03 0. -1.
        -11    1    4    4    0    0 -0.58266735742E+01  0.22346569085E+02 -0.99741402598E+01  0.25155570933E+02  0.51100000000E-03 0.  1.
        -12    1    4    4    0    0  0.19149648992E+01  0.33849593247E+01  0.89624452943E+01  0.97698754264E+01  0.00000000000E+00 0.  1.
</event>
<event>
 8    1  0.1290800E-006  0.9118800E+02  0.7816164E-02  0.1184000E+00
        -11   -1    0    0    0    0  0.00000000000E+00  0.00000000000E+00  0.45593999997E+02  0.45594000000E+02  0.51100000000E-03 0. -1.
         11   -1    0    0    0    0 -0.00000000000E+00 -0.00000000000E+00 -0.45593999997E+02  0.45594000000E+02  0.51100000000E-03 0.  1.
         23    2    1    2    0    0 -0.88817841970E-15  0.35527136788E-14  0.00000000000E+00  0.91188000000E+02  0.91188000000E+02 0.  0.
    9900012    2    3    3    0    0 -0.48155316320E+01  0.19783096652E+02 -0.30679319422E+02  0.54367069834E+02  0.39999967301E+02 0.  0.
         12    1    3    3    0    0  0.48155316320E+01 -0.19783096652E+02  0.30679319422E+02  0.36820930166E+02  0.00000000000E+00 0. -1.
         11    1    4    4    0    0 -0.40890099110E+01  0.30882923806E+01 -0.19251913368E+01  0.54739303818E+01  0.51100000000E-03 0. -1.
        -11    1    4    4    0    0  0.20309787973E+01  0.95660357506E+01 -0.36633038496E+02  0.37915872990E+02  0.51100000000E-03 0.  1.
         12    1    4    4    0    0 -0.27575005183E+01  0.71287685213E+01  0.78789104105E+01  0.10977266463E+02  0.00000000000E+00 0. -1.
</event>
<event>
 8    1  0.1290800E-006  0.9118800E+02  0.7816164E-02  0.1184000E+00
        -11   -1    0    0    0    0  0.00000000000E+00  0.00000000000E+00  0.45593999997E+02  0.45594000000E+02  0.51100000000E-03 0.  1.
         11   -1    0    0    0    0 -0.00000000000E+00 -0.00000000000E+00 -0.45593999997E+02  0.45594000000E+02  0.51100000000E-03 0. -1.
         23    2    1    2    0    0 -0.59934696095E-15  0.00000000000E+00  0.00000000000E+00  0.91188000000E+02  0.91188000000E+02 0.  0.
    9900012    2    3    3    0    0  0.35500777436E-02 -0.35752448393E+02  0.88056546280E+01  0.54367120976E+02  0.40000083888E+02 0.  0.
         12    1    3    3    0    0 -0.35500777436E-02  0.35752448393E+02 -0.88056546280E+01  0.36820879024E+02  0.00000000000E+00 0. -1.
         11    1    4    4    0    0 -0.98362733371E+01 -0.35665821476E+01 -0.78210216656E+01  0.13062969093E+02  0.51100000000E-03 0. -1.
        -11    1    4    4    0    0  0.11518309062E+02 -0.32088607471E+02  0.11614199396E+02  0.36017215341E+02  0.51100000000E-03 0.  1.
         12    1    4    4    0    0 -0.16784856469E+01 -0.97258773987E-01  0.50124768980E+01  0.52869365410E+01  0.00000000000E+00 0. -1.
</event>
<event>
 8    1  0.1290800E-006  0.9118800E+02  0.7816164E-02  0.1184000E+00
        -11   -1    0    0    0    0  0.00000000000E+00  0.00000000000E+00  0.45593999997E+02  0.45594000000E+02  0.51100000000E-03 0.  1.
         11   -1    0    0    0    0 -0.00000000000E+00 -0.00000000000E+00 -0.45593999997E+02  0.45594000000E+02  0.51100000000E-03 0. -1.
         23    2    1    2    0    0  0.00000000000E+00  0.00000000000E+00  0.00000000000E+00  0.91188000000E+02  0.91188000000E+02 0.  0.
    9900012    2    3    3    0    0  0.13160701494E+02 -0.29715324909E+02 -0.17308250906E+02  0.54367080027E+02  0.39999990538E+02 0.  0.
        -12    1    3    3    0    0 -0.13160701494E+02  0.29715324909E+02  0.17308250906E+02  0.36820919973E+02  0.00000000000E+00 0.  1.
         11    1    4    4    0    0  0.50018482599E+01 -0.11618589942E+01 -0.44919453413E+01  0.68224611063E+01  0.51100000000E-03 0. -1.
        -11    1    4    4    0    0 -0.13778714726E+02 -0.11890258708E+02 -0.41730932459E+01  0.18672063066E+02  0.51100000000E-03 0.  1.
         12    1    4    4    0    0  0.21937567960E+02 -0.16663207206E+02 -0.86432123187E+01  0.28872555855E+02  0.00000000000E+00 0. -1.
</event>
<event>
 8    1  0.1290800E-006  0.9118800E+02  0.7816164E-02  0.1184000E+00
        -11   -1    0    0    0    0  0.00000000000E+00  0.00000000000E+00  0.45593999997E+02  0.45594000000E+02  0.51100000000E-03 0. -1.
         11   -1    0    0    0    0 -0.00000000000E+00 -0.00000000000E+00 -0.45593999997E+02  0.45594000000E+02  0.51100000000E-03 0.  1.
         23    2    1    2    0    0  0.00000000000E+00  0.00000000000E+00  0.00000000000E+00  0.91188000000E+02  0.91188000000E+02 0.  0.
    9900012    2    3    3    0    0  0.16466376722E+02  0.66101809532E+01 -0.32263646753E+02  0.54367096203E+02  0.40000027415E+02 0.  0.
         12    1    3    3    0    0 -0.16466376722E+02 -0.66101809532E+01  0.32263646753E+02  0.36820903797E+02  0.00000000000E+00 0. -1.
         11    1    4    4    0    0  0.50170882252E+01 -0.57952971384E+01 -0.11273535502E+02  0.13632653673E+02  0.51100000000E-03 0. -1.
        -11    1    4    4    0    0  0.35054665037E+01  0.12949990724E+02 -0.27402836362E+02  0.30510752139E+02  0.51100000000E-03 0.  1.
         12    1    4    4    0    0  0.79438219935E+01 -0.54451263249E+00  0.64127251109E+01  0.10223690391E+02  0.00000000000E+00 0. -1.
</event>
<event>
 8    1  0.1290800E-006  0.9118800E+02  0.7816164E-02  0.1184000E+00
        -11   -1    0    0    0    0  0.00000000000E+00  0.00000000000E+00  0.45593999997E+02  0.45594000000E+02  0.51100000000E-03 0.  1.
         11   -1    0    0    0    0 -0.00000000000E+00 -0.00000000000E+00 -0.45593999997E+02  0.45594000000E+02  0.51100000000E-03 0. -1.
         23    2    1    2    0    0 -0.88817841970E-15  0.00000000000E+00  0.00000000000E+00  0.91188000000E+02  0.91188000000E+02 0.  0.
    9900012    2    3    3    0    0  0.45875840392E+01  0.27107658666E+02 -0.24492989620E+02  0.54367114267E+02  0.40000068594E+02 0.  0.
        -12    1    3    3    0    0 -0.45875840392E+01 -0.27107658666E+02  0.24492989620E+02  0.36820885733E+02  0.00000000000E+00 0.  1.
         11    1    4    4    0    0  0.56344029595E+01 -0.11589153439E+01 -0.41155386433E+00  0.57670580306E+01  0.51100000000E-03 0.  1.
        -11    1    4    4    0    0  0.46569203528E+01  0.70528809078E+01  0.66992160775E+01  0.10784689731E+02  0.51100000000E-03 0. -1.
         12    1    4    4    0    0 -0.57037392731E+01  0.21213693102E+02 -0.30780651833E+02  0.37815366506E+02  0.00000000000E+00 0. -1.
</event>
<event>
 8    1  0.1290800E-006  0.9118800E+02  0.7816164E-02  0.1184000E+00
        -11   -1    0    0    0    0  0.00000000000E+00  0.00000000000E+00  0.45593999997E+02  0.45594000000E+02  0.51100000000E-03 0.  1.
         11   -1    0    0    0    0 -0.00000000000E+00 -0.00000000000E+00 -0.45593999997E+02  0.45594000000E+02  0.51100000000E-03 0. -1.
         23    2    1    2    0    0  0.22204460493E-15  0.00000000000E+00  0.00000000000E+00  0.91188000000E+02  0.91188000000E+02 0.  0.
    9900012    2    3    3    0    0  0.12172851218E+01 -0.30882959024E+02  0.20013509811E+02  0.54367088603E+02  0.40000010088E+02 0.  0.
         12    1    3    3    0    0 -0.12172851218E+01  0.30882959024E+02 -0.20013509811E+02  0.36820911397E+02  0.00000000000E+00 0. -1.
         11    1    4    4    0    0  0.27531399502E+01 -0.27766727823E+01  0.15914091331E+00  0.39134406111E+01  0.51100000000E-03 0. -1.
        -11    1    4    4    0    0  0.19522291330E+01 -0.35386711339E+02  0.83695147701E+01  0.36415371970E+02  0.51100000000E-03 0.  1.
        -12    1    4    4    0    0 -0.34880839614E+01  0.72804250976E+01  0.11484854128E+02  0.14038276022E+02  0.00000000000E+00 0.  1.
</event>
<event>
 8    1  0.1290800E-006  0.9118800E+02  0.7816164E-02  0.1184000E+00
        -11   -1    0    0    0    0  0.00000000000E+00  0.00000000000E+00  0.45593999997E+02  0.45594000000E+02  0.51100000000E-03 0.  1.
         11   -1    0    0    0    0 -0.00000000000E+00 -0.00000000000E+00 -0.45593999997E+02  0.45594000000E+02  0.51100000000E-03 0. -1.
         23    2    1    2    0    0  0.71054273576E-14  0.88817841970E-15  0.00000000000E+00  0.91188000000E+02  0.91188000000E+02 0.  0.
    9900012    2    3    3    0    0 -0.34239451754E+02 -0.62584344758E+01  0.12011338097E+02  0.54367077939E+02  0.39999985778E+02 0.  0.
         12    1    3    3    0    0  0.34239451754E+02  0.62584344758E+01 -0.12011338097E+02  0.36820922061E+02  0.00000000000E+00 0. -1.
         11    1    4    4    0    0 -0.57080130119E+01 -0.80457118632E+01 -0.36826074985E+01  0.10529790605E+02  0.51100000000E-03 0. -1.
        -11    1    4    4    0    0 -0.81015599230E+01 -0.91054852644E+01 -0.46222978367E+01  0.13034982648E+02  0.51100000000E-03 0.  1.
        -12    1    4    4    0    0 -0.20429878819E+02  0.10892762652E+02  0.20316243433E+02  0.30802304686E+02  0.00000000000E+00 0.  1.
</event>
<event>
 8    1  0.1290800E-006  0.9118800E+02  0.7816164E-02  0.1184000E+00
        -11   -1    0    0    0    0  0.00000000000E+00  0.00000000000E+00  0.45593999997E+02  0.45594000000E+02  0.51100000000E-03 0.  1.
         11   -1    0    0    0    0 -0.00000000000E+00 -0.00000000000E+00 -0.45593999997E+02  0.45594000000E+02  0.51100000000E-03 0. -1.
         23    2    1    2    0    0 -0.17763568394E-14  0.00000000000E+00 -0.35527136788E-14  0.91188000000E+02  0.91188000000E+02 0.  0.
    9900012    2    3    3    0    0  0.11837380222E+02  0.20517722611E+02  0.28190059907E+02  0.54367082178E+02  0.39999995442E+02 0.  0.
         12    1    3    3    0    0 -0.11837380222E+02 -0.20517722611E+02 -0.28190059907E+02  0.36820917822E+02  0.00000000000E+00 0. -1.
         11    1    4    4    0    0  0.16296639470E+02 -0.56378480278E+01  0.17525902841E+02  0.24587050637E+02  0.51100000000E-03 0. -1.
        -11    1    4    4    0    0 -0.51241159421E+01  0.79391769000E+01  0.23051053170E+01  0.97262842248E+01  0.51100000000E-03 0.  1.
         12    1    4    4    0    0  0.66485669380E+00  0.18216393739E+02  0.83590517493E+01  0.20053747316E+02  0.00000000000E+00 0. -1.
</event>
<event>
 8    1  0.1290800E-006  0.9118800E+02  0.7816164E-02  0.1184000E+00
        -11   -1    0    0    0    0  0.00000000000E+00  0.00000000000E+00  0.45593999997E+02  0.45594000000E+02  0.51100000000E-03 0.  1.
         11   -1    0    0    0    0 -0.00000000000E+00 -0.00000000000E+00 -0.45593999997E+02  0.45594000000E+02  0.51100000000E-03 0. -1.
         23    2    1    2    0    0  0.00000000000E+00  0.00000000000E+00 -0.17763568394E-14  0.91188000000E+02  0.91188000000E+02 0.  0.
    9900012    2    3    3    0    0 -0.27509445795E+02 -0.19790020227E+02  0.14400467715E+02  0.54366973685E+02  0.39999748108E+02 0.  0.
         12    1    3    3    0    0  0.27509445795E+02  0.19790020227E+02 -0.14400467715E+02  0.36821026315E+02  0.00000000000E+00 0. -1.
         11    1    4    4    0    0  0.43955082712E+00  0.28618805422E+01 -0.15905500214E+01  0.33035457919E+01  0.51100000000E-03 0. -1.
        -11    1    4    4    0    0 -0.18328134151E+02  0.15062906042E+01 -0.33025255251E+01  0.18684113251E+02  0.51100000000E-03 0.  1.
        -12    1    4    4    0    0 -0.96208624705E+01 -0.24158191373E+02  0.19293543262E+02  0.32379314642E+02  0.00000000000E+00 0.  1.
</event>
<event>
 8    1  0.1290800E-006  0.9118800E+02  0.7816164E-02  0.1184000E+00
        -11   -1    0    0    0    0  0.00000000000E+00  0.00000000000E+00  0.45593999997E+02  0.45594000000E+02  0.51100000000E-03 0.  1.
         11   -1    0    0    0    0 -0.00000000000E+00 -0.00000000000E+00 -0.45593999997E+02  0.45594000000E+02  0.51100000000E-03 0. -1.
         23    2    1    2    0    0 -0.35527136788E-14  0.35527136788E-14 -0.35527136788E-14  0.91188000000E+02  0.91188000000E+02 0.  0.
    9900012    2    3    3    0    0 -0.15827734942E+02  0.28164580167E+02 -0.17664121221E+02  0.54367055582E+02  0.39999934810E+02 0.  0.
        -12    1    3    3    0    0  0.15827734942E+02 -0.28164580167E+02  0.17664121221E+02  0.36820944418E+02  0.00000000000E+00 0.  1.
         11    1    4    4    0    0 -0.40784432566E+01  0.32795761152E+02 -0.13787207528E+02  0.35808975699E+02  0.51100000000E-03 0. -1.
        -11    1    4    4    0    0  0.22988966630E+01 -0.15713531967E+01  0.15541222659E+01  0.31889454392E+01  0.51100000000E-03 0.  1.
         12    1    4    4    0    0 -0.14048188348E+02 -0.30598277885E+01 -0.54310359580E+01  0.15369134444E+02  0.00000000000E+00 0. -1.
</event>
<event>
 8    1  0.1290800E-006  0.9118800E+02  0.7816164E-02  0.1184000E+00
        -11   -1    0    0    0    0  0.00000000000E+00  0.00000000000E+00  0.45593999997E+02  0.45594000000E+02  0.51100000000E-03 0.  1.
         11   -1    0    0    0    0 -0.00000000000E+00 -0.00000000000E+00 -0.45593999997E+02  0.45594000000E+02  0.51100000000E-03 0. -1.
         23    2    1    2    0    0  0.00000000000E+00  0.35527136788E-14 -0.88817841970E-15  0.91188000000E+02  0.91188000000E+02 0.  0.
    9900012    2    3    3    0    0  0.27548930038E+02 -0.23826730084E+02 -0.53966162562E+01  0.54367080949E+02  0.39999992641E+02 0.  0.
        -12    1    3    3    0    0 -0.27548930038E+02  0.23826730084E+02  0.53966162562E+01  0.36820919051E+02  0.00000000000E+00 0.  1.
         11    1    4    4    0    0  0.26340778867E+02 -0.72338331397E+01 -0.14887118434E+02  0.31109343753E+02  0.51100000000E-03 0. -1.
        -11    1    4    4    0    0  0.29659974926E+01  0.13089941640E+01  0.15977581379E+01  0.36143378613E+01  0.51100000000E-03 0.  1.
         12    1    4    4    0    0 -0.17578463222E+01 -0.17901891108E+02  0.78927440404E+01  0.19643399335E+02  0.00000000000E+00 0. -1.
</event>
<event>
 8    1  0.1290800E-006  0.9118800E+02  0.7816164E-02  0.1184000E+00
        -11   -1    0    0    0    0  0.00000000000E+00  0.00000000000E+00  0.45593999997E+02  0.45594000000E+02  0.51100000000E-03 0.  1.
         11   -1    0    0    0    0 -0.00000000000E+00 -0.00000000000E+00 -0.45593999997E+02  0.45594000000E+02  0.51100000000E-03 0. -1.
         23    2    1    2    0    0  0.00000000000E+00  0.00000000000E+00  0.00000000000E+00  0.91188000000E+02  0.91188000000E+02 0.  0.
    9900012    2    3    3    0    0 -0.92108952182E+01  0.31876841932E+02  0.15962623891E+02  0.54367095560E+02  0.40000025949E+02 0.  0.
         12    1    3    3    0    0  0.92108952182E+01 -0.31876841932E+02 -0.15962623891E+02  0.36820904440E+02  0.00000000000E+00 0. -1.
         11    1    4    4    0    0  0.63605730840E+01 -0.28082484017E+01 -0.52984469833E+01  0.87416640143E+01  0.51100000000E-03 0. -1.
        -11    1    4    4    0    0 -0.53982184637E+00  0.10106754018E+02  0.11231675141E+02  0.15119140555E+02  0.51100000000E-03 0.  1.
         12    1    4    4    0    0 -0.15031646456E+02  0.24578336316E+02  0.10029395733E+02  0.30506290991E+02  0.00000000000E+00 0. -1.
</event>
<event>
 8    1  0.1290800E-006  0.9118800E+02  0.7816164E-02  0.1184000E+00
        -11   -1    0    0    0    0  0.00000000000E+00  0.00000000000E+00  0.45593999997E+02  0.45594000000E+02  0.51100000000E-03 0.  1.
         11   -1    0    0    0    0 -0.00000000000E+00 -0.00000000000E+00 -0.45593999997E+02  0.45594000000E+02  0.51100000000E-03 0. -1.
         23    2    1    2    0    0  0.00000000000E+00  0.00000000000E+00  0.00000000000E+00  0.91188000000E+02  0.91188000000E+02 0.  0.
    9900012    2    3    3    0    0  0.18834669543E+02  0.19606007327E+02 -0.24832177768E+02  0.54367117980E+02  0.40000077058E+02 0.  0.
        -12    1    3    3    0    0 -0.18834669543E+02 -0.19606007327E+02  0.24832177768E+02  0.36820882020E+02  0.00000000000E+00 0.  1.
         11    1    4    4    0    0 -0.78577391598E+00 -0.57279279290E+01 -0.12447735828E+02  0.13724894408E+02  0.51100000000E-03 0. -1.
        -11    1    4    4    0    0  0.35127417663E+01  0.15986477774E+02 -0.14541407184E+02  0.21894276638E+02  0.51100000000E-03 0.  1.
        -12    1    4    4    0    0  0.16107701693E+02  0.93474574812E+01  0.21569652438E+01  0.18747946934E+02  0.00000000000E+00 0.  1.
</event>
<event>
 8    1  0.1290800E-006  0.9118800E+02  0.7816164E-02  0.1184000E+00
        -11   -1    0    0    0    0  0.00000000000E+00  0.00000000000E+00  0.45593999997E+02  0.45594000000E+02  0.51100000000E-03 0.  1.
         11   -1    0    0    0    0 -0.00000000000E+00 -0.00000000000E+00 -0.45593999997E+02  0.45594000000E+02  0.51100000000E-03 0. -1.
         23    2    1    2    0    0  0.00000000000E+00  0.00000000000E+00 -0.35527136788E-14  0.91188000000E+02  0.91188000000E+02 0.  0.
    9900012    2    3    3    0    0 -0.25561564310E+02  0.75597832823E+01  0.25401475792E+02  0.54367097436E+02  0.40000030224E+02 0.  0.
         12    1    3    3    0    0  0.25561564310E+02 -0.75597832823E+01 -0.25401475792E+02  0.36820902564E+02  0.00000000000E+00 0. -1.
         11    1    4    4    0    0 -0.52739840522E+01 -0.59219918822E+01 -0.47663149689E+01  0.92521702470E+01  0.51100000000E-03 0.  1.
        -11    1    4    4    0    0  0.39672030127E+01  0.44652052920E+01  0.12285946922E+02  0.13660938843E+02  0.51100000000E-03 0. -1.
        -12    1    4    4    0    0 -0.24254783270E+02  0.90165698725E+01  0.17881843839E+02  0.31453988346E+02  0.00000000000E+00 0.  1.
</event>
<event>
 8    1  0.1290800E-006  0.9118800E+02  0.7816164E-02  0.1184000E+00
        -11   -1    0    0    0    0  0.00000000000E+00  0.00000000000E+00  0.45593999997E+02  0.45594000000E+02  0.51100000000E-03 0. -1.
         11   -1    0    0    0    0 -0.00000000000E+00 -0.00000000000E+00 -0.45593999997E+02  0.45594000000E+02  0.51100000000E-03 0.  1.
         23    2    1    2    0    0  0.17763568394E-14 -0.35527136788E-14  0.00000000000E+00  0.91188000000E+02  0.91188000000E+02 0.  0.
    9900012    2    3    3    0    0 -0.77288860109E+01  0.29985521477E+02  0.19922612959E+02  0.54367113477E+02  0.40000066794E+02 0.  0.
        -12    1    3    3    0    0  0.77288860109E+01 -0.29985521477E+02 -0.19922612959E+02  0.36820886523E+02  0.00000000000E+00 0.  1.
         11    1    4    4    0    0 -0.10299597991E+02  0.18914896477E+02  0.28022524789E+02  0.35342848263E+02  0.51100000000E-03 0. -1.
        -11    1    4    4    0    0  0.28108286203E+01  0.31252898731E+00 -0.77587035051E+01  0.82580816321E+01  0.51100000000E-03 0.  1.
        -12    1    4    4    0    0 -0.24011664003E+00  0.10758096012E+02 -0.34120832487E+00  0.10766183583E+02  0.00000000000E+00 0.  1.
</event>
<event>
 8    1  0.1290800E-006  0.9118800E+02  0.7816164E-02  0.1184000E+00
        -11   -1    0    0    0    0  0.00000000000E+00  0.00000000000E+00  0.45593999997E+02  0.45594000000E+02  0.51100000000E-03 0.  1.
         11   -1    0    0    0    0 -0.00000000000E+00 -0.00000000000E+00 -0.45593999997E+02  0.45594000000E+02  0.51100000000E-03 0. -1.
         23    2    1    2    0    0  0.17763568394E-14 -0.88817841970E-15  0.00000000000E+00  0.91188000000E+02  0.91188000000E+02 0.  0.
    9900012    2    3    3    0    0  0.11164362077E+02 -0.58592254982E+01 -0.34594876092E+02  0.54367096211E+02  0.40000027432E+02 0.  0.
        -12    1    3    3    0    0 -0.11164362077E+02  0.58592254982E+01  0.34594876092E+02  0.36820903789E+02  0.00000000000E+00 0.  1.
         11    1    4    4    0    0  0.13698292074E+02  0.12313410341E+02 -0.15317990486E+02  0.23956295890E+02  0.51100000000E-03 0. -1.
        -11    1    4    4    0    0 -0.68770385277E+01 -0.13092050837E+02 -0.68442578657E+01  0.16295377259E+02  0.51100000000E-03 0.  1.
        -12    1    4    4    0    0  0.43431085310E+01 -0.50805850025E+01 -0.12432627741E+02  0.14115423062E+02  0.00000000000E+00 0.  1.
</event>
<event>
 8    1  0.1290800E-006  0.9118800E+02  0.7816164E-02  0.1184000E+00
        -11   -1    0    0    0    0  0.00000000000E+00  0.00000000000E+00  0.45593999997E+02  0.45594000000E+02  0.51100000000E-03 0.  1.
         11   -1    0    0    0    0 -0.00000000000E+00 -0.00000000000E+00 -0.45593999997E+02  0.45594000000E+02  0.51100000000E-03 0. -1.
         23    2    1    2    0    0  0.00000000000E+00  0.88817841970E-15  0.00000000000E+00  0.91188000000E+02  0.91188000000E+02 0.  0.
    9900012    2    3    3    0    0 -0.28060729309E+02 -0.17542664793E+01  0.23775969694E+02  0.54367099480E+02  0.40000034884E+02 0.  0.
         12    1    3    3    0    0  0.28060729309E+02  0.17542664793E+01 -0.23775969694E+02  0.36820900520E+02  0.00000000000E+00 0. -1.
         11    1    4    4    0    0 -0.11503291782E+01  0.34089637955E+01 -0.82288124382E-01  0.35987585323E+01  0.51100000000E-03 0. -1.
        -11    1    4    4    0    0 -0.16590321643E+02  0.72793045746E+01  0.28658903963E+02  0.33905159252E+02  0.51100000000E-03 0.  1.
        -12    1    4    4    0    0 -0.10320078488E+02 -0.12442534849E+02 -0.48006461448E+01  0.16863181695E+02  0.00000000000E+00 0.  1.
</event>
<event>
 8    1  0.1290800E-006  0.9118800E+02  0.7816164E-02  0.1184000E+00
        -11   -1    0    0    0    0  0.00000000000E+00  0.00000000000E+00  0.45593999997E+02  0.45594000000E+02  0.51100000000E-03 0.  1.
         11   -1    0    0    0    0 -0.00000000000E+00 -0.00000000000E+00 -0.45593999997E+02  0.45594000000E+02  0.51100000000E-03 0. -1.
         23    2    1    2    0    0  0.00000000000E+00  0.17763568394E-14  0.44408920985E-15  0.91188000000E+02  0.91188000000E+02 0.  0.
    9900012    2    3    3    0    0 -0.34396343976E+02  0.13028341519E+02 -0.17129763375E+01  0.54367075927E+02  0.39999981190E+02 0.  0.
         12    1    3    3    0    0  0.34396343976E+02 -0.13028341519E+02  0.17129763375E+01  0.36820924073E+02  0.00000000000E+00 0. -1.
         11    1    4    4    0    0 -0.24363605367E+02  0.22325846419E+02 -0.55282501686E+01  0.33505077749E+02  0.51100000000E-03 0. -1.
        -11    1    4    4    0    0 -0.91791826692E+01 -0.22760712440E+01 -0.40466917826E+01  0.10286574232E+02  0.51100000000E-03 0.  1.
         12    1    4    4    0    0 -0.85355594017E+00 -0.70214336553E+01  0.78619656136E+01  0.10575423946E+02  0.00000000000E+00 0. -1.
</event>
<event>
 8    1  0.1290800E-006  0.9118800E+02  0.7816164E-02  0.1184000E+00
        -11   -1    0    0    0    0  0.00000000000E+00  0.00000000000E+00  0.45593999997E+02  0.45594000000E+02  0.51100000000E-03 0.  1.
         11   -1    0    0    0    0 -0.00000000000E+00 -0.00000000000E+00 -0.45593999997E+02  0.45594000000E+02  0.51100000000E-03 0. -1.
         23    2    1    2    0    0 -0.35527136788E-14  0.17763568394E-14 -0.35527136788E-14  0.91188000000E+02  0.91188000000E+02 0.  0.
    9900012    2    3    3    0    0  0.20501663787E+02  0.13423188285E+02 -0.27482351388E+02  0.54367084211E+02  0.40000000075E+02 0.  0.
        -12    1    3    3    0    0 -0.20501663787E+02 -0.13423188285E+02  0.27482351388E+02  0.36820915789E+02  0.00000000000E+00 0.  1.
         11    1    4    4    0    0  0.75486961347E+01  0.19173970637E+02  0.33686864290E+00  0.20609159228E+02  0.51100000000E-03 0. -1.
        -11    1    4    4    0    0 -0.86873169122E+00 -0.50253213837E+01 -0.96809012603E+01  0.10942047305E+02  0.51100000000E-03 0.  1.
         12    1    4    4    0    0  0.13821699344E+02 -0.72546096901E+00 -0.18138318770E+02  0.22815877677E+02  0.00000000000E+00 0. -1.
</event>
<event>
 8    1  0.1290800E-006  0.9118800E+02  0.7816164E-02  0.1184000E+00
        -11   -1    0    0    0    0  0.00000000000E+00  0.00000000000E+00  0.45593999997E+02  0.45594000000E+02  0.51100000000E-03 0. -1.
         11   -1    0    0    0    0 -0.00000000000E+00 -0.00000000000E+00 -0.45593999997E+02  0.45594000000E+02  0.51100000000E-03 0.  1.
         23    2    1    2    0    0  0.17763568394E-14  0.00000000000E+00  0.00000000000E+00  0.91188000000E+02  0.91188000000E+02 0.  0.
    9900012    2    3    3    0    0 -0.15111104260E+02  0.26296995227E+02  0.20878375601E+02  0.54367027747E+02  0.39999871355E+02 0.  0.
        -12    1    3    3    0    0  0.15111104260E+02 -0.26296995227E+02 -0.20878375601E+02  0.36820972253E+02  0.00000000000E+00 0.  1.
         11    1    4    4    0    0 -0.81124280111E+01  0.26023421387E+01  0.18000129770E+02  0.19914525976E+02  0.51100000000E-03 0. -1.
        -11    1    4    4    0    0 -0.32518207569E+01  0.18767155562E+02  0.12664407687E+02  0.22872859210E+02  0.51100000000E-03 0.  1.
        -12    1    4    4    0    0 -0.37468554916E+01  0.49274975261E+01 -0.97861618568E+01  0.11579642561E+02  0.00000000000E+00 0.  1.
</event>
<event>
 8    1  0.1290800E-006  0.9118800E+02  0.7816164E-02  0.1184000E+00
        -11   -1    0    0    0    0  0.00000000000E+00  0.00000000000E+00  0.45593999997E+02  0.45594000000E+02  0.51100000000E-03 0.  1.
         11   -1    0    0    0    0 -0.00000000000E+00 -0.00000000000E+00 -0.45593999997E+02  0.45594000000E+02  0.51100000000E-03 0. -1.
         23    2    1    2    0    0 -0.35527136788E-14 -0.35527136788E-14 -0.17763568394E-14  0.91188000000E+02  0.91188000000E+02 0.  0.
    9900012    2    3    3    0    0  0.28904067057E+02  0.17209077932E+02  0.14972710133E+02  0.54367088762E+02  0.40000010450E+02 0.  0.
         12    1    3    3    0    0 -0.28904067057E+02 -0.17209077932E+02 -0.14972710133E+02  0.36820911238E+02  0.00000000000E+00 0. -1.
         11    1    4    4    0    0  0.25648065923E+01  0.13928373761E+02 -0.65139559069E+01  0.15588760384E+02  0.51100000000E-03 0. -1.
        -11    1    4    4    0    0  0.99701597467E+01 -0.76763574464E+01  0.82688601021E+01  0.15056712678E+02  0.51100000000E-03 0.  1.
         12    1    4    4    0    0  0.16369100718E+02  0.10957061617E+02  0.13217805937E+02  0.23721615700E+02  0.00000000000E+00 0. -1.
</event>
<event>
 8    1  0.1290800E-006  0.9118800E+02  0.7816164E-02  0.1184000E+00
        -11   -1    0    0    0    0  0.00000000000E+00  0.00000000000E+00  0.45593999997E+02  0.45594000000E+02  0.51100000000E-03 0.  1.
         11   -1    0    0    0    0 -0.00000000000E+00 -0.00000000000E+00 -0.45593999997E+02  0.45594000000E+02  0.51100000000E-03 0. -1.
         23    2    1    2    0    0  0.44408920985E-15 -0.17763568394E-14  0.00000000000E+00  0.91188000000E+02  0.91188000000E+02 0.  0.
    9900012    2    3    3    0    0  0.30760592800E+01  0.14702191944E+02  0.33617887972E+02  0.54367095878E+02  0.40000026672E+02 0.  0.
         12    1    3    3    0    0 -0.30760592800E+01 -0.14702191944E+02 -0.33617887972E+02  0.36820904122E+02  0.00000000000E+00 0. -1.
         11    1    4    4    0    0 -0.16024765287E+01  0.15882036629E+02 -0.25574350507E+01  0.16166245477E+02  0.51100000000E-03 0. -1.
        -11    1    4    4    0    0  0.54802730809E+01 -0.51557498299E+01  0.16837377768E+02  0.18442137613E+02  0.51100000000E-03 0.  1.
         12    1    4    4    0    0 -0.80173727220E+00  0.39759051453E+01  0.19337945255E+02  0.19758712788E+02  0.00000000000E+00 0. -1.
</event>
<event>
 8    1  0.1290800E-006  0.9118800E+02  0.7816164E-02  0.1184000E+00
        -11   -1    0    0    0    0  0.00000000000E+00  0.00000000000E+00  0.45593999997E+02  0.45594000000E+02  0.51100000000E-03 0. -1.
         11   -1    0    0    0    0 -0.00000000000E+00 -0.00000000000E+00 -0.45593999997E+02  0.45594000000E+02  0.51100000000E-03 0.  1.
         23    2    1    2    0    0  0.00000000000E+00  0.35527136788E-14  0.00000000000E+00  0.91188000000E+02  0.91188000000E+02 0.  0.
    9900012    2    3    3    0    0 -0.18455101206E+02  0.24028911733E+02 -0.20923652014E+02  0.54367101407E+02  0.40000039277E+02 0.  0.
         12    1    3    3    0    0  0.18455101206E+02 -0.24028911733E+02  0.20923652014E+02  0.36820898593E+02  0.00000000000E+00 0. -1.
         11    1    4    4    0    0 -0.16514467678E+02  0.63239962429E+01  0.29194539139E+01  0.17923274884E+02  0.51100000000E-03 0. -1.
        -11    1    4    4    0    0  0.35886342600E+01  0.17174093325E+02 -0.73178027481E+01  0.19009945153E+02  0.51100000000E-03 0.  1.
        -12    1    4    4    0    0 -0.55292677878E+01  0.53082216537E+00 -0.16525303180E+02  0.17433881370E+02  0.00000000000E+00 0.  1.
</event>
<event>
 8    1  0.1290800E-006  0.9118800E+02  0.7816164E-02  0.1184000E+00
        -11   -1    0    0    0    0  0.00000000000E+00  0.00000000000E+00  0.45593999997E+02  0.45594000000E+02  0.51100000000E-03 0. -1.
         11   -1    0    0    0    0 -0.00000000000E+00 -0.00000000000E+00 -0.45593999997E+02  0.45594000000E+02  0.51100000000E-03 0.  1.
         23    2    1    2    0    0  0.00000000000E+00  0.00000000000E+00  0.35527136788E-14  0.91188000000E+02  0.91188000000E+02 0.  0.
    9900012    2    3    3    0    0  0.17784168407E+02 -0.82186513451E+01  0.31176200989E+02  0.54367103977E+02  0.40000045136E+02 0.  0.
        -12    1    3    3    0    0 -0.17784168407E+02  0.82186513451E+01 -0.31176200989E+02  0.36820896023E+02  0.00000000000E+00 0.  1.
         11    1    4    4    0    0 -0.14723640764E+01  0.64663588204E+01  0.12831263658E+02  0.14443786888E+02  0.51100000000E-03 0. -1.
        -11    1    4    4    0    0  0.58229354797E+01  0.68667784036E+01  0.76340959117E+00  0.90355972526E+01  0.51100000000E-03 0.  1.
         12    1    4    4    0    0  0.13433597004E+02 -0.21551788569E+02  0.17581527740E+02  0.30887719836E+02  0.00000000000E+00 0. -1.
</event>
<event>
 8    1  0.1290800E-006  0.9118800E+02  0.7816164E-02  0.1184000E+00
        -11   -1    0    0    0    0  0.00000000000E+00  0.00000000000E+00  0.45593999997E+02  0.45594000000E+02  0.51100000000E-03 0. -1.
         11   -1    0    0    0    0 -0.00000000000E+00 -0.00000000000E+00 -0.45593999997E+02  0.45594000000E+02  0.51100000000E-03 0.  1.
         23    2    1    2    0    0 -0.53290705182E-14 -0.35527136788E-14  0.00000000000E+00  0.91188000000E+02  0.91188000000E+02 0.  0.
    9900012    2    3    3    0    0 -0.12903395588E+02 -0.29273330374E+02 -0.18230550371E+02  0.54367103003E+02  0.40000042915E+02 0.  0.
         12    1    3    3    0    0  0.12903395588E+02  0.29273330374E+02  0.18230550371E+02  0.36820896997E+02  0.00000000000E+00 0. -1.
         11    1    4    4    0    0 -0.13777096405E+01 -0.56495821194E+01  0.62031059638E+01  0.85026105307E+01  0.51100000000E-03 0. -1.
        -11    1    4    4    0    0  0.80756745041E+01 -0.59749754369E+01 -0.14584808409E+02  0.17709700358E+02  0.51100000000E-03 0.  1.
        -12    1    4    4    0    0 -0.19601360452E+02 -0.17648772818E+02 -0.98488479250E+01  0.28154792114E+02  0.00000000000E+00 0.  1.
</event>
<event>
 8    1  0.1290800E-006  0.9118800E+02  0.7816164E-02  0.1184000E+00
        -11   -1    0    0    0    0  0.00000000000E+00  0.00000000000E+00  0.45593999997E+02  0.45594000000E+02  0.51100000000E-03 0.  1.
         11   -1    0    0    0    0 -0.00000000000E+00 -0.00000000000E+00 -0.45593999997E+02  0.45594000000E+02  0.51100000000E-03 0. -1.
         23    2    1    2    0    0  0.00000000000E+00  0.35527136788E-14  0.00000000000E+00  0.91188000000E+02  0.91188000000E+02 0.  0.
    9900012    2    3    3    0    0  0.14206940876E+02  0.31065186357E+02 -0.13743927197E+02  0.54367102303E+02  0.40000041320E+02 0.  0.
        -12    1    3    3    0    0 -0.14206940876E+02 -0.31065186357E+02  0.13743927197E+02  0.36820897697E+02  0.00000000000E+00 0.  1.
         11    1    4    4    0    0  0.81384031393E+01  0.32888347308E+02 -0.13439445164E+02  0.36448534688E+02  0.51100000000E-03 0. -1.
        -11    1    4    4    0    0 -0.50628494308E+01 -0.39718460455E+01  0.98023134473E+00  0.65091365878E+01  0.51100000000E-03 0.  1.
         12    1    4    4    0    0  0.11131387167E+02  0.21486850940E+01 -0.12847133770E+01  0.11409431027E+02  0.00000000000E+00 0. -1.
</event>
<event>
 8    1  0.1290800E-006  0.9118800E+02  0.7816164E-02  0.1184000E+00
        -11   -1    0    0    0    0  0.00000000000E+00  0.00000000000E+00  0.45593999997E+02  0.45594000000E+02  0.51100000000E-03 0. -1.
         11   -1    0    0    0    0 -0.00000000000E+00 -0.00000000000E+00 -0.45593999997E+02  0.45594000000E+02  0.51100000000E-03 0.  1.
         23    2    1    2    0    0  0.00000000000E+00  0.00000000000E+00 -0.35527136788E-14  0.91188000000E+02  0.91188000000E+02 0.  0.
    9900012    2    3    3    0    0 -0.28594753363E+02 -0.89018083928E+01 -0.21421422801E+02  0.54367089264E+02  0.40000011596E+02 0.  0.
         12    1    3    3    0    0  0.28594753363E+02  0.89018083928E+01  0.21421422801E+02  0.36820910736E+02  0.00000000000E+00 0. -1.
         11    1    4    4    0    0 -0.52185017402E+01 -0.14482515144E+01  0.71101718290E+00  0.54622100433E+01  0.51100000000E-03 0.  1.
        -11    1    4    4    0    0  0.84623437553E+01 -0.61514022133E+00  0.15684594751E+01  0.86284253900E+01  0.51100000000E-03 0. -1.
        -12    1    4    4    0    0 -0.31838595378E+02 -0.68384166571E+01 -0.23700899459E+02  0.40276453831E+02  0.00000000000E+00 0.  1.
</event>
<event>
 8    1  0.1290800E-006  0.9118800E+02  0.7816164E-02  0.1184000E+00
        -11   -1    0    0    0    0  0.00000000000E+00  0.00000000000E+00  0.45593999997E+02  0.45594000000E+02  0.51100000000E-03 0. -1.
         11   -1    0    0    0    0 -0.00000000000E+00 -0.00000000000E+00 -0.45593999997E+02  0.45594000000E+02  0.51100000000E-03 0.  1.
         23    2    1    2    0    0 -0.88817841970E-15  0.35527136788E-14  0.00000000000E+00  0.91188000000E+02  0.91188000000E+02 0.  0.
    9900012    2    3    3    0    0  0.72269941592E+01 -0.19819171727E+02 -0.30178644821E+02  0.54367087250E+02  0.40000007003E+02 0.  0.
         12    1    3    3    0    0 -0.72269941592E+01  0.19819171727E+02  0.30178644821E+02  0.36820912750E+02  0.00000000000E+00 0. -1.
         11    1    4    4    0    0 -0.65135254728E+00 -0.19396782239E+02 -0.27340245619E+01  0.19599344681E+02  0.51100000000E-03 0. -1.
        -11    1    4    4    0    0  0.39982827423E+01  0.96854095307E+01 -0.12443524381E+02  0.16267597301E+02  0.51100000000E-03 0.  1.
        -12    1    4    4    0    0  0.38800639642E+01 -0.10107799018E+02 -0.15001095878E+02  0.18500145267E+02  0.00000000000E+00 0.  1.
</event>
<event>
 8    1  0.1290800E-006  0.9118800E+02  0.7816164E-02  0.1184000E+00
        -11   -1    0    0    0    0  0.00000000000E+00  0.00000000000E+00  0.45593999997E+02  0.45594000000E+02  0.51100000000E-03 0.  1.
         11   -1    0    0    0    0 -0.00000000000E+00 -0.00000000000E+00 -0.45593999997E+02  0.45594000000E+02  0.51100000000E-03 0. -1.
         23    2    1    2    0    0  0.00000000000E+00  0.00000000000E+00  0.00000000000E+00  0.91188000000E+02  0.91188000000E+02 0.  0.
    9900012    2    3    3    0    0  0.34418744592E+02  0.74273383876E+01 -0.10768520772E+02  0.54367131264E+02  0.40000107343E+02 0.  0.
        -12    1    3    3    0    0 -0.34418744592E+02 -0.74273383876E+01  0.10768520772E+02  0.36820868736E+02  0.00000000000E+00 0.  1.
         11    1    4    4    0    0  0.17830751764E+02  0.72553451159E+01 -0.96737354490E+01  0.21544300848E+02  0.51100000000E-03 0. -1.
        -11    1    4    4    0    0  0.16782215218E+01  0.37318678502E+01 -0.12862642791E+02  0.13497808895E+02  0.51100000000E-03 0.  1.
        -12    1    4    4    0    0  0.14909771306E+02 -0.35598745785E+01  0.11767857468E+02  0.19325021522E+02  0.00000000000E+00 0.  1.
</event>
<event>
 8    1  0.1290800E-006  0.9118800E+02  0.7816164E-02  0.1184000E+00
        -11   -1    0    0    0    0  0.00000000000E+00  0.00000000000E+00  0.45593999997E+02  0.45594000000E+02  0.51100000000E-03 0.  1.
         11   -1    0    0    0    0 -0.00000000000E+00 -0.00000000000E+00 -0.45593999997E+02  0.45594000000E+02  0.51100000000E-03 0. -1.
         23    2    1    2    0    0  0.00000000000E+00 -0.30531133177E-15  0.00000000000E+00  0.91188000000E+02  0.91188000000E+02 0.  0.
    9900012    2    3    3    0    0  0.36624016398E+02 -0.21576242065E+00  0.37966331718E+01  0.54367088088E+02  0.40000008915E+02 0.  0.
        -12    1    3    3    0    0 -0.36624016398E+02  0.21576242065E+00 -0.37966331718E+01  0.36820911912E+02  0.00000000000E+00 0.  1.
         11    1    4    4    0    0  0.27537986643E+02 -0.25262106214E+01  0.12427025902E+02  0.30317543131E+02  0.51100000000E-03 0. -1.
        -11    1    4    4    0    0  0.53964169145E+01  0.44132354663E+01  0.57616389393E+01  0.90440282134E+01  0.51100000000E-03 0.  1.
         12    1    4    4    0    0  0.36896128402E+01 -0.21027872655E+01 -0.14392031669E+02  0.15005516744E+02  0.00000000000E+00 0. -1.
</event>
<event>
 8    1  0.1290800E-006  0.9118800E+02  0.7816164E-02  0.1184000E+00
        -11   -1    0    0    0    0  0.00000000000E+00  0.00000000000E+00  0.45593999997E+02  0.45594000000E+02  0.51100000000E-03 0.  1.
         11   -1    0    0    0    0 -0.00000000000E+00 -0.00000000000E+00 -0.45593999997E+02  0.45594000000E+02  0.51100000000E-03 0. -1.
         23    2    1    2    0    0 -0.88817841970E-15 -0.88817841970E-15  0.00000000000E+00  0.91188000000E+02  0.91188000000E+02 0.  0.
    9900012    2    3    3    0    0  0.31673841804E+01  0.42698562223E+01  0.36435078539E+02  0.54367096388E+02  0.40000027835E+02 0.  0.
         12    1    3    3    0    0 -0.31673841804E+01 -0.42698562223E+01 -0.36435078539E+02  0.36820903612E+02  0.00000000000E+00 0. -1.
         11    1    4    4    0    0  0.11741237070E+02  0.10360171542E+01  0.76200555413E+01  0.14035498786E+02  0.51100000000E-03 0. -1.
        -11    1    4    4    0    0 -0.92786544065E+01  0.45874976334E+01  0.33679059195E+02  0.35233756409E+02  0.51100000000E-03 0.  1.
         12    1    4    4    0    0  0.70480151709E+00 -0.13536585654E+01 -0.48640361977E+01  0.50978411924E+01  0.00000000000E+00 0. -1.
</event>
<event>
 8    1  0.1290800E-006  0.9118800E+02  0.7816164E-02  0.1184000E+00
        -11   -1    0    0    0    0  0.00000000000E+00  0.00000000000E+00  0.45593999997E+02  0.45594000000E+02  0.51100000000E-03 0. -1.
         11   -1    0    0    0    0 -0.00000000000E+00 -0.00000000000E+00 -0.45593999997E+02  0.45594000000E+02  0.51100000000E-03 0.  1.
         23    2    1    2    0    0  0.00000000000E+00  0.00000000000E+00  0.00000000000E+00  0.91188000000E+02  0.91188000000E+02 0.  0.
    9900012    2    3    3    0    0  0.32050283715E+02  0.17049560916E+02 -0.61537782564E+01  0.54367120048E+02  0.40000081773E+02 0.  0.
        -12    1    3    3    0    0 -0.32050283715E+02 -0.17049560916E+02  0.61537782564E+01  0.36820879952E+02  0.00000000000E+00 0.  1.
         11    1    4    4    0    0  0.12480585448E+02  0.11914084828E+02  0.99054098673E+01  0.19895415937E+02  0.51100000000E-03 0. -1.
        -11    1    4    4    0    0  0.17495526023E+02 -0.11303378450E+01 -0.46488961173E+00  0.17538164586E+02  0.51100000000E-03 0.  1.
        -12    1    4    4    0    0  0.20741722444E+01  0.62658139331E+01 -0.15594298512E+02  0.16933539524E+02  0.00000000000E+00 0.  1.
</event>
<event>
 8    1  0.1290800E-006  0.9118800E+02  0.7816164E-02  0.1184000E+00
        -11   -1    0    0    0    0  0.00000000000E+00  0.00000000000E+00  0.45593999997E+02  0.45594000000E+02  0.51100000000E-03 0.  1.
         11   -1    0    0    0    0 -0.00000000000E+00 -0.00000000000E+00 -0.45593999997E+02  0.45594000000E+02  0.51100000000E-03 0. -1.
         23    2    1    2    0    0  0.35527136788E-14  0.00000000000E+00  0.00000000000E+00  0.91188000000E+02  0.91188000000E+02 0.  0.
    9900012    2    3    3    0    0 -0.29761188941E+02  0.18171080013E+02  0.11826378622E+02  0.54367085463E+02  0.40000002931E+02 0.  0.
         12    1    3    3    0    0  0.29761188941E+02 -0.18171080013E+02 -0.11826378622E+02  0.36820914537E+02  0.00000000000E+00 0. -1.
         11    1    4    4    0    0 -0.16580408096E+02  0.90227331830E+01 -0.10052676825E+02  0.21386349813E+02  0.51100000000E-03 0. -1.
        -11    1    4    4    0    0 -0.13914190558E+02 -0.13806110976E+01  0.14197655158E+02  0.19926971624E+02  0.51100000000E-03 0.  1.
        -12    1    4    4    0    0  0.73340971261E+00  0.10528957928E+02  0.76814002889E+01  0.13053764026E+02  0.00000000000E+00 0.  1.
</event>
<event>
 8    1  0.1290800E-006  0.9118800E+02  0.7816164E-02  0.1184000E+00
        -11   -1    0    0    0    0  0.00000000000E+00  0.00000000000E+00  0.45593999997E+02  0.45594000000E+02  0.51100000000E-03 0.  1.
         11   -1    0    0    0    0 -0.00000000000E+00 -0.00000000000E+00 -0.45593999997E+02  0.45594000000E+02  0.51100000000E-03 0. -1.
         23    2    1    2    0    0 -0.71054273576E-14 -0.16653345369E-14 -0.33306690739E-15  0.91188000000E+02  0.91188000000E+02 0.  0.
    9900012    2    3    3    0    0  0.36799105503E+02  0.88748874098E+00  0.90458634440E+00  0.54367080966E+02  0.39999992678E+02 0.  0.
         12    1    3    3    0    0 -0.36799105503E+02 -0.88748874098E+00 -0.90458634440E+00  0.36820919034E+02  0.00000000000E+00 0. -1.
         11    1    4    4    0    0  0.11567098065E+02 -0.84289859068E+01 -0.87781104687E+01  0.16789901272E+02  0.51100000000E-03 0. -1.
        -11    1    4    4    0    0  0.23843626773E+02 -0.18059281925E+01  0.10944674990E+02  0.26297639157E+02  0.51100000000E-03 0.  1.
         12    1    4    4    0    0  0.13883806645E+01  0.11122402840E+02 -0.12619781764E+01  0.11279540537E+02  0.00000000000E+00 0. -1.
</event>
<event>
 8    1  0.1290800E-006  0.9118800E+02  0.7816164E-02  0.1184000E+00
        -11   -1    0    0    0    0  0.00000000000E+00  0.00000000000E+00  0.45593999997E+02  0.45594000000E+02  0.51100000000E-03 0.  1.
         11   -1    0    0    0    0 -0.00000000000E+00 -0.00000000000E+00 -0.45593999997E+02  0.45594000000E+02  0.51100000000E-03 0. -1.
         23    2    1    2    0    0  0.00000000000E+00  0.00000000000E+00  0.35527136788E-14  0.91188000000E+02  0.91188000000E+02 0.  0.
    9900012    2    3    3    0    0  0.18448941928E+02  0.93780299922E+01  0.30454385281E+02  0.54367075410E+02  0.39999980012E+02 0.  0.
         12    1    3    3    0    0 -0.18448941928E+02 -0.93780299922E+01 -0.30454385281E+02  0.36820924590E+02  0.00000000000E+00 0. -1.
         11    1    4    4    0    0  0.34809301437E+01  0.84181817509E+01 -0.32849793970E+01  0.96836846581E+01  0.51100000000E-03 0. -1.
        -11    1    4    4    0    0  0.15962291824E+02  0.54520872856E+01  0.35851089358E+02  0.39620961933E+02  0.51100000000E-03 0.  1.
         12    1    4    4    0    0 -0.99428003925E+00 -0.44922390442E+01 -0.21117246799E+01  0.50624288193E+01  0.00000000000E+00 0. -1.
</event>
<event>
 8    1  0.1290800E-006  0.9118800E+02  0.7816164E-02  0.1184000E+00
        -11   -1    0    0    0    0  0.00000000000E+00  0.00000000000E+00  0.45593999997E+02  0.45594000000E+02  0.51100000000E-03 0. -1.
         11   -1    0    0    0    0 -0.00000000000E+00 -0.00000000000E+00 -0.45593999997E+02  0.45594000000E+02  0.51100000000E-03 0.  1.
         23    2    1    2    0    0  0.17763568394E-14  0.00000000000E+00 -0.35527136788E-14  0.91188000000E+02  0.91188000000E+02 0.  0.
    9900012    2    3    3    0    0 -0.15057525783E+02 -0.14072247412E+02  0.30512640672E+02  0.54367102798E+02  0.40000042449E+02 0.  0.
        -12    1    3    3    0    0  0.15057525783E+02  0.14072247412E+02 -0.30512640672E+02  0.36820897202E+02  0.00000000000E+00 0.  1.
         11    1    4    4    0    0  0.28703950114E+01 -0.76907835050E+01  0.15581800764E+02  0.17611923057E+02  0.51100000000E-03 0. -1.
        -11    1    4    4    0    0 -0.45923468858E+01  0.90056050902E+01 -0.19628541300E+01  0.10297736137E+02  0.51100000000E-03 0.  1.
        -12    1    4    4    0    0 -0.13335573909E+02 -0.15387068998E+02  0.16893694038E+02  0.26457443604E+02  0.00000000000E+00 0.  1.
</event>
<event>
 8    1  0.1290800E-006  0.9118800E+02  0.7816164E-02  0.1184000E+00
        -11   -1    0    0    0    0  0.00000000000E+00  0.00000000000E+00  0.45593999997E+02  0.45594000000E+02  0.51100000000E-03 0. -1.
         11   -1    0    0    0    0 -0.00000000000E+00 -0.00000000000E+00 -0.45593999997E+02  0.45594000000E+02  0.51100000000E-03 0.  1.
         23    2    1    2    0    0 -0.17763568394E-14  0.35527136788E-14  0.00000000000E+00  0.91188000000E+02  0.91188000000E+02 0.  0.
    9900012    2    3    3    0    0  0.88862381307E+01 -0.29299553211E+02  0.20453604582E+02  0.54367095789E+02  0.40000026470E+02 0.  0.
        -12    1    3    3    0    0 -0.88862381307E+01  0.29299553211E+02 -0.20453604582E+02  0.36820904211E+02  0.00000000000E+00 0.  1.
         11    1    4    4    0    0 -0.73280389142E+01 -0.18737282755E+02  0.86036649998E+01  0.21881704026E+02  0.51100000000E-03 0. -1.
        -11    1    4    4    0    0  0.17696889925E+01  0.41755147873E+01  0.10924659046E+02  0.11828562821E+02  0.51100000000E-03 0.  1.
         12    1    4    4    0    0  0.14444588052E+02 -0.14737785243E+02  0.92528053613E+00  0.20656828942E+02  0.00000000000E+00 0. -1.
</event>
<event>
 8    1  0.1290800E-006  0.9118800E+02  0.7816164E-02  0.1184000E+00
        -11   -1    0    0    0    0  0.00000000000E+00  0.00000000000E+00  0.45593999997E+02  0.45594000000E+02  0.51100000000E-03 0. -1.
         11   -1    0    0    0    0 -0.00000000000E+00 -0.00000000000E+00 -0.45593999997E+02  0.45594000000E+02  0.51100000000E-03 0.  1.
         23    2    1    2    0    0  0.00000000000E+00  0.88817841970E-15  0.00000000000E+00  0.91188000000E+02  0.91188000000E+02 0.  0.
    9900012    2    3    3    0    0 -0.25000929707E+02 -0.32618127531E+01 -0.26834567473E+02  0.54367083117E+02  0.39999997582E+02 0.  0.
         12    1    3    3    0    0  0.25000929707E+02  0.32618127531E+01  0.26834567473E+02  0.36820916883E+02  0.00000000000E+00 0. -1.
         11    1    4    4    0    0 -0.19507164115E+02  0.25602170238E+01 -0.26747914916E+02  0.33204444215E+02  0.51100000000E-03 0.  1.
        -11    1    4    4    0    0  0.47124107645E+01  0.42308094256E+01 -0.21524377293E+01  0.66887631180E+01  0.51100000000E-03 0. -1.
         12    1    4    4    0    0 -0.10206176357E+02 -0.10052839202E+02  0.20657851723E+01  0.14473875785E+02  0.00000000000E+00 0. -1.
</event>
<event>
 8    1  0.1290800E-006  0.9118800E+02  0.7816164E-02  0.1184000E+00
        -11   -1    0    0    0    0  0.00000000000E+00  0.00000000000E+00  0.45593999997E+02  0.45594000000E+02  0.51100000000E-03 0.  1.
         11   -1    0    0    0    0 -0.00000000000E+00 -0.00000000000E+00 -0.45593999997E+02  0.45594000000E+02  0.51100000000E-03 0. -1.
         23    2    1    2    0    0  0.00000000000E+00 -0.71054273576E-14  0.00000000000E+00  0.91188000000E+02  0.91188000000E+02 0.  0.
    9900012    2    3    3    0    0  0.13652667728E+02 -0.33066405256E+02  0.87176453821E+01  0.54367084291E+02  0.40000000258E+02 0.  0.
        -12    1    3    3    0    0 -0.13652667728E+02  0.33066405256E+02 -0.87176453821E+01  0.36820915709E+02  0.00000000000E+00 0.  1.
         11    1    4    4    0    0  0.13686684897E+02 -0.17679922016E+02  0.77315455674E+01  0.23657594618E+02  0.51100000000E-03 0. -1.
        -11    1    4    4    0    0  0.98721255937E+01 -0.65324094707E+00 -0.60671613899E+01  0.11605862099E+02  0.51100000000E-03 0.  1.
        -12    1    4    4    0    0 -0.99061427622E+01 -0.14733242292E+02  0.70532612046E+01  0.19103627574E+02  0.00000000000E+00 0.  1.
</event>
<event>
 8    1  0.1290800E-006  0.9118800E+02  0.7816164E-02  0.1184000E+00
        -11   -1    0    0    0    0  0.00000000000E+00  0.00000000000E+00  0.45593999997E+02  0.45594000000E+02  0.51100000000E-03 0. -1.
         11   -1    0    0    0    0 -0.00000000000E+00 -0.00000000000E+00 -0.45593999997E+02  0.45594000000E+02  0.51100000000E-03 0.  1.
         23    2    1    2    0    0 -0.17763568394E-14  0.00000000000E+00  0.00000000000E+00  0.91188000000E+02  0.91188000000E+02 0.  0.
    9900012    2    3    3    0    0 -0.62970090295E+01 -0.30381555478E+02 -0.19826459134E+02  0.54367085864E+02  0.40000003845E+02 0.  0.
         12    1    3    3    0    0  0.62970090295E+01  0.30381555478E+02  0.19826459134E+02  0.36820914136E+02  0.00000000000E+00 0. -1.
         11    1    4    4    0    0 -0.74864545142E-01  0.19511927890E+01 -0.25159910646E+01  0.31848028665E+01  0.51100000000E-03 0. -1.
        -11    1    4    4    0    0  0.13986224515E+02 -0.16110336467E+02 -0.12796612727E+02  0.24877916207E+02  0.51100000000E-03 0.  1.
        -12    1    4    4    0    0 -0.20208368999E+02 -0.16222411800E+02 -0.45138553418E+01  0.26304366791E+02  0.00000000000E+00 0.  1.
</event>
<event>
 8    1  0.1290800E-006  0.9118800E+02  0.7816164E-02  0.1184000E+00
        -11   -1    0    0    0    0  0.00000000000E+00  0.00000000000E+00  0.45593999997E+02  0.45594000000E+02  0.51100000000E-03 0.  1.
         11   -1    0    0    0    0 -0.00000000000E+00 -0.00000000000E+00 -0.45593999997E+02  0.45594000000E+02  0.51100000000E-03 0. -1.
         23    2    1    2    0    0  0.00000000000E+00  0.00000000000E+00  0.00000000000E+00  0.91188000000E+02  0.91188000000E+02 0.  0.
    9900012    2    3    3    0    0  0.26707779515E+02 -0.48769124306E+01  0.24873480961E+02  0.54367084523E+02  0.40000000787E+02 0.  0.
         12    1    3    3    0    0 -0.26707779515E+02  0.48769124306E+01 -0.24873480961E+02  0.36820915477E+02  0.00000000000E+00 0. -1.
         11    1    4    4    0    0 -0.36402358975E+00  0.98412157607E+00  0.89621110700E+01  0.90233277421E+01  0.51100000000E-03 0. -1.
        -11    1    4    4    0    0  0.20278471490E+02  0.98781500408E+01  0.92733737246E+00  0.22575522343E+02  0.51100000000E-03 0.  1.
        -12    1    4    4    0    0  0.67933316141E+01 -0.15739184047E+02  0.14984032518E+02  0.22768234438E+02  0.00000000000E+00 0.  1.
</event>
<event>
 8    1  0.1290800E-006  0.9118800E+02  0.7816164E-02  0.1184000E+00
        -11   -1    0    0    0    0  0.00000000000E+00  0.00000000000E+00  0.45593999997E+02  0.45594000000E+02  0.51100000000E-03 0.  1.
         11   -1    0    0    0    0 -0.00000000000E+00 -0.00000000000E+00 -0.45593999997E+02  0.45594000000E+02  0.51100000000E-03 0. -1.
         23    2    1    2    0    0  0.00000000000E+00 -0.35527136788E-14  0.00000000000E+00  0.91188000000E+02  0.91188000000E+02 0.  0.
    9900012    2    3    3    0    0  0.87035714668E+00  0.28705109642E+02 -0.23044272305E+02  0.54367091169E+02  0.40000015937E+02 0.  0.
         12    1    3    3    0    0 -0.87035714668E+00 -0.28705109642E+02  0.23044272305E+02  0.36820908831E+02  0.00000000000E+00 0. -1.
         11    1    4    4    0    0  0.56956884096E+01 -0.48197370671E+01 -0.22308665373E+01  0.77876503275E+01  0.51100000000E-03 0. -1.
        -11    1    4    4    0    0  0.73921334650E+01  0.24930064779E+02 -0.89372003985E+01  0.27495914575E+02  0.51100000000E-03 0.  1.
        -12    1    4    4    0    0 -0.12217464728E+02  0.85947819297E+01 -0.11876205369E+02  0.19083526266E+02  0.00000000000E+00 0.  1.
</event>
<event>
 8    1  0.1290800E-006  0.9118800E+02  0.7816164E-02  0.1184000E+00
        -11   -1    0    0    0    0  0.00000000000E+00  0.00000000000E+00  0.45593999997E+02  0.45594000000E+02  0.51100000000E-03 0.  1.
         11   -1    0    0    0    0 -0.00000000000E+00 -0.00000000000E+00 -0.45593999997E+02  0.45594000000E+02  0.51100000000E-03 0. -1.
         23    2    1    2    0    0 -0.35527136788E-14  0.17763568394E-14  0.00000000000E+00  0.91188000000E+02  0.91188000000E+02 0.  0.
    9900012    2    3    3    0    0 -0.31790481223E+02  0.13428708518E+02 -0.12837977574E+02  0.54367101355E+02  0.40000039158E+02 0.  0.
         12    1    3    3    0    0  0.31790481223E+02 -0.13428708518E+02  0.12837977574E+02  0.36820898645E+02  0.00000000000E+00 0. -1.
         11    1    4    4    0    0  0.93514073174E+00 -0.23907787564E+01 -0.90219899338E+01  0.93801180097E+01  0.51100000000E-03 0. -1.
        -11    1    4    4    0    0 -0.18614437794E+02  0.13784398798E+02 -0.14361433525E+02  0.27253581742E+02  0.51100000000E-03 0.  1.
        -12    1    4    4    0    0 -0.14111184161E+02  0.20350884763E+01  0.10545445884E+02  0.17733401604E+02  0.00000000000E+00 0.  1.
</event>
<event>
 8    1  0.1290800E-006  0.9118800E+02  0.7816164E-02  0.1184000E+00
        -11   -1    0    0    0    0  0.00000000000E+00  0.00000000000E+00  0.45593999997E+02  0.45594000000E+02  0.51100000000E-03 0.  1.
         11   -1    0    0    0    0 -0.00000000000E+00 -0.00000000000E+00 -0.45593999997E+02  0.45594000000E+02  0.51100000000E-03 0. -1.
         23    2    1    2    0    0  0.17763568394E-14  0.17763568394E-14  0.00000000000E+00  0.91188000000E+02  0.91188000000E+02 0.  0.
    9900012    2    3    3    0    0 -0.33866012932E+01  0.92544911168E+01  0.35477671468E+02  0.54367084110E+02  0.39999999846E+02 0.  0.
         12    1    3    3    0    0  0.33866012932E+01 -0.92544911168E+01 -0.35477671468E+02  0.36820915890E+02  0.00000000000E+00 0. -1.
         11    1    4    4    0    0 -0.56949514755E+01 -0.37290992762E+01  0.14673424933E+01  0.69636016524E+01  0.51100000000E-03 0.  1.
        -11    1    4    4    0    0 -0.12091722212E+02  0.16227754262E+01  0.52270065351E+01  0.13272706721E+02  0.51100000000E-03 0. -1.
         12    1    4    4    0    0  0.14400072394E+02  0.11360814967E+02  0.28783322440E+02  0.34130775736E+02  0.00000000000E+00 0. -1.
</event>
<event>
 8    1  0.1290800E-006  0.9118800E+02  0.7816164E-02  0.1184000E+00
        -11   -1    0    0    0    0  0.00000000000E+00  0.00000000000E+00  0.45593999997E+02  0.45594000000E+02  0.51100000000E-03 0. -1.
         11   -1    0    0    0    0 -0.00000000000E+00 -0.00000000000E+00 -0.45593999997E+02  0.45594000000E+02  0.51100000000E-03 0.  1.
         23    2    1    2    0    0  0.00000000000E+00  0.00000000000E+00  0.00000000000E+00  0.91188000000E+02  0.91188000000E+02 0.  0.
    9900012    2    3    3    0    0  0.25417769808E+01 -0.86060257518E+01 -0.35710740258E+02  0.54367064661E+02  0.39999955507E+02 0.  0.
         12    1    3    3    0    0 -0.25417769808E+01  0.86060257518E+01  0.35710740258E+02  0.36820935339E+02  0.00000000000E+00 0. -1.
         11    1    4    4    0    0  0.51684142123E+01  0.31303863370E+01 -0.12741780116E+01  0.61753828994E+01  0.51100000000E-03 0. -1.
        -11    1    4    4    0    0  0.10800508267E+02 -0.16054800859E+02 -0.22820312235E+02  0.29919462900E+02  0.51100000000E-03 0.  1.
         12    1    4    4    0    0 -0.13427145498E+02  0.43183887701E+01 -0.11616250011E+02  0.18272218862E+02  0.00000000000E+00 0. -1.
</event>
<event>
 8    1  0.1290800E-006  0.9118800E+02  0.7816164E-02  0.1184000E+00
        -11   -1    0    0    0    0  0.00000000000E+00  0.00000000000E+00  0.45593999997E+02  0.45594000000E+02  0.51100000000E-03 0.  1.
         11   -1    0    0    0    0 -0.00000000000E+00 -0.00000000000E+00 -0.45593999997E+02  0.45594000000E+02  0.51100000000E-03 0. -1.
         23    2    1    2    0    0  0.00000000000E+00  0.00000000000E+00  0.35527136788E-14  0.91188000000E+02  0.91188000000E+02 0.  0.
    9900012    2    3    3    0    0  0.10394880210E+02 -0.19991213548E+02 -0.29121767323E+02  0.54367089015E+02  0.40000011028E+02 0.  0.
        -12    1    3    3    0    0 -0.10394880210E+02  0.19991213548E+02  0.29121767323E+02  0.36820910985E+02  0.00000000000E+00 0.  1.
         11    1    4    4    0    0  0.17102787414E+02 -0.58377560736E+01  0.19212941047E+01  0.18173500065E+02  0.51100000000E-03 0.  1.
        -11    1    4    4    0    0 -0.50320103445E+01 -0.14147106833E+01 -0.13272276894E+02  0.14264496789E+02  0.51100000000E-03 0. -1.
        -12    1    4    4    0    0 -0.16758968590E+01 -0.12738746791E+02 -0.17770784534E+02  0.21929092162E+02  0.00000000000E+00 0.  1.
</event>
<event>
 8    1  0.1290800E-006  0.9118800E+02  0.7816164E-02  0.1184000E+00
        -11   -1    0    0    0    0  0.00000000000E+00  0.00000000000E+00  0.45593999997E+02  0.45594000000E+02  0.51100000000E-03 0. -1.
         11   -1    0    0    0    0 -0.00000000000E+00 -0.00000000000E+00 -0.45593999997E+02  0.45594000000E+02  0.51100000000E-03 0.  1.
         23    2    1    2    0    0  0.17763568394E-14  0.00000000000E+00 -0.35527136788E-14  0.91188000000E+02  0.91188000000E+02 0.  0.
    9900012    2    3    3    0    0  0.13152654499E+02 -0.29559555978E+02 -0.17579156544E+02  0.54366994924E+02  0.39999796528E+02 0.  0.
         12    1    3    3    0    0 -0.13152654499E+02  0.29559555978E+02  0.17579156544E+02  0.36821005076E+02  0.00000000000E+00 0. -1.
         11    1    4    4    0    0  0.44235068445E+01 -0.13014207936E+02 -0.28226027971E+02  0.31394994446E+02  0.51100000000E-03 0. -1.
        -11    1    4    4    0    0  0.32058886307E+01 -0.32741110201E+00  0.16246861773E+01  0.36089507309E+01  0.51100000000E-03 0.  1.
        -12    1    4    4    0    0  0.55232590242E+01 -0.16217936940E+02  0.90221852495E+01  0.19363049748E+02  0.00000000000E+00 0.  1.
</event>
<event>
 8    1  0.1290800E-006  0.9118800E+02  0.7816164E-02  0.1184000E+00
        -11   -1    0    0    0    0  0.00000000000E+00  0.00000000000E+00  0.45593999997E+02  0.45594000000E+02  0.51100000000E-03 0. -1.
         11   -1    0    0    0    0 -0.00000000000E+00 -0.00000000000E+00 -0.45593999997E+02  0.45594000000E+02  0.51100000000E-03 0.  1.
         23    2    1    2    0    0  0.00000000000E+00  0.00000000000E+00 -0.88817841970E-15  0.91188000000E+02  0.91188000000E+02 0.  0.
    9900012    2    3    3    0    0 -0.35375947696E+02  0.72864396843E+01 -0.71575049397E+01  0.54367085351E+02  0.40000002674E+02 0.  0.
        -12    1    3    3    0    0  0.35375947696E+02 -0.72864396843E+01  0.71575049397E+01  0.36820914649E+02  0.00000000000E+00 0.  1.
         11    1    4    4    0    0 -0.18531279295E+02  0.19376036569E+02 -0.37308209003E+01  0.27069505542E+02  0.51100000000E-03 0. -1.
        -11    1    4    4    0    0 -0.11761964930E+02 -0.27523067029E+01 -0.92146581975E+01  0.15193055557E+02  0.51100000000E-03 0.  1.
        -12    1    4    4    0    0 -0.50827034706E+01 -0.93372901816E+01  0.57879741581E+01  0.12104524252E+02  0.00000000000E+00 0.  1.
</event>
<event>
 8    1  0.1290800E-006  0.9118800E+02  0.7816164E-02  0.1184000E+00
        -11   -1    0    0    0    0  0.00000000000E+00  0.00000000000E+00  0.45593999997E+02  0.45594000000E+02  0.51100000000E-03 0. -1.
         11   -1    0    0    0    0 -0.00000000000E+00 -0.00000000000E+00 -0.45593999997E+02  0.45594000000E+02  0.51100000000E-03 0.  1.
         23    2    1    2    0    0  0.35527136788E-14  0.17763568394E-14  0.35527136788E-14  0.91188000000E+02  0.91188000000E+02 0.  0.
    9900012    2    3    3    0    0  0.21769056782E+02  0.10240788742E+02  0.27874987197E+02  0.54367075263E+02  0.39999979678E+02 0.  0.
        -12    1    3    3    0    0 -0.21769056782E+02 -0.10240788742E+02 -0.27874987197E+02  0.36820924737E+02  0.00000000000E+00 0.  1.
         11    1    4    4    0    0  0.15595001662E+02 -0.24335747238E+01  0.15934153050E+02  0.22428187543E+02  0.51100000000E-03 0. -1.
        -11    1    4    4    0    0  0.29214499742E+01  0.11748939540E+01  0.18184794732E+02  0.18455405860E+02  0.51100000000E-03 0.  1.
        -12    1    4    4    0    0  0.32526051456E+01  0.11499469512E+02 -0.62439605849E+01  0.13483481860E+02  0.00000000000E+00 0.  1.
</event>
<event>
 8    1  0.1290800E-006  0.9118800E+02  0.7816164E-02  0.1184000E+00
        -11   -1    0    0    0    0  0.00000000000E+00  0.00000000000E+00  0.45593999997E+02  0.45594000000E+02  0.51100000000E-03 0.  1.
         11   -1    0    0    0    0 -0.00000000000E+00 -0.00000000000E+00 -0.45593999997E+02  0.45594000000E+02  0.51100000000E-03 0. -1.
         23    2    1    2    0    0  0.00000000000E+00  0.00000000000E+00  0.00000000000E+00  0.91188000000E+02  0.91188000000E+02 0.  0.
    9900012    2    3    3    0    0  0.22531762652E+02 -0.12434389889E+02  0.26334110937E+02  0.54367085033E+02  0.40000001951E+02 0.  0.
         12    1    3    3    0    0 -0.22531762652E+02  0.12434389889E+02 -0.26334110937E+02  0.36820914967E+02  0.00000000000E+00 0. -1.
         11    1    4    4    0    0  0.22464597717E+02 -0.87956588425E+00  0.93915075969E+01  0.24364568577E+02  0.51100000000E-03 0. -1.
        -11    1    4    4    0    0  0.16426807207E+01  0.39262192825E+01 -0.26260500275E+01  0.50009735864E+01  0.51100000000E-03 0.  1.
        -12    1    4    4    0    0 -0.15755157858E+01 -0.15481043287E+02  0.19568653368E+02  0.25001542870E+02  0.00000000000E+00 0.  1.
</event>
<event>
 8    1  0.1290800E-006  0.9118800E+02  0.7816164E-02  0.1184000E+00
        -11   -1    0    0    0    0  0.00000000000E+00  0.00000000000E+00  0.45593999997E+02  0.45594000000E+02  0.51100000000E-03 0.  1.
         11   -1    0    0    0    0 -0.00000000000E+00 -0.00000000000E+00 -0.45593999997E+02  0.45594000000E+02  0.51100000000E-03 0. -1.
         23    2    1    2    0    0 -0.35527136788E-14  0.17763568394E-14  0.00000000000E+00  0.91188000000E+02  0.91188000000E+02 0.  0.
    9900012    2    3    3    0    0 -0.23708842508E+02 -0.66785277252E+01 -0.27369090514E+02  0.54367094780E+02  0.40000024169E+02 0.  0.
        -12    1    3    3    0    0  0.23708842508E+02  0.66785277252E+01  0.27369090514E+02  0.36820905220E+02  0.00000000000E+00 0.  1.
         11    1    4    4    0    0 -0.39041641650E+01  0.11977898485E+02 -0.14783445078E+02  0.19423254068E+02  0.51100000000E-03 0. -1.
        -11    1    4    4    0    0 -0.10655878548E+02 -0.20429994988E+02 -0.10832463069E+02  0.25461239154E+02  0.51100000000E-03 0.  1.
        -12    1    4    4    0    0 -0.91487997950E+01  0.17735687775E+01 -0.17531823671E+01  0.94826015581E+01  0.00000000000E+00 0.  1.
</event>
<event>
 8    1  0.1290800E-006  0.9118800E+02  0.7816164E-02  0.1184000E+00
        -11   -1    0    0    0    0  0.00000000000E+00  0.00000000000E+00  0.45593999997E+02  0.45594000000E+02  0.51100000000E-03 0.  1.
         11   -1    0    0    0    0 -0.00000000000E+00 -0.00000000000E+00 -0.45593999997E+02  0.45594000000E+02  0.51100000000E-03 0. -1.
         23    2    1    2    0    0  0.35527136788E-14  0.17763568394E-14 -0.35527136788E-14  0.91188000000E+02  0.91188000000E+02 0.  0.
    9900012    2    3    3    0    0  0.27737698010E+02  0.24311091600E+01 -0.24093364796E+02  0.54367076467E+02  0.39999982422E+02 0.  0.
        -12    1    3    3    0    0 -0.27737698010E+02 -0.24311091600E+01  0.24093364796E+02  0.36820923533E+02  0.00000000000E+00 0.  1.
         11    1    4    4    0    0  0.14151933968E+02  0.40925294013E+01 -0.30552548850E+02  0.33918789386E+02  0.51100000000E-03 0. -1.
        -11    1    4    4    0    0  0.48194248124E+01 -0.74210774828E+01  0.21339448907E+01  0.91023605502E+01  0.51100000000E-03 0.  1.
        -12    1    4    4    0    0  0.87663392292E+01  0.57596572415E+01  0.43252391631E+01  0.11345926531E+02  0.00000000000E+00 0.  1.
</event>
<event>
 8    1  0.1290800E-006  0.9118800E+02  0.7816164E-02  0.1184000E+00
        -11   -1    0    0    0    0  0.00000000000E+00  0.00000000000E+00  0.45593999997E+02  0.45594000000E+02  0.51100000000E-03 0. -1.
         11   -1    0    0    0    0 -0.00000000000E+00 -0.00000000000E+00 -0.45593999997E+02  0.45594000000E+02  0.51100000000E-03 0.  1.
         23    2    1    2    0    0  0.00000000000E+00  0.00000000000E+00  0.00000000000E+00  0.91188000000E+02  0.91188000000E+02 0.  0.
    9900012    2    3    3    0    0 -0.82688014301E+01  0.94728550684E+01  0.34607393133E+02  0.54367085839E+02  0.40000003787E+02 0.  0.
        -12    1    3    3    0    0  0.82688014301E+01 -0.94728550684E+01 -0.34607393133E+02  0.36820914161E+02  0.00000000000E+00 0.  1.
         11    1    4    4    0    0 -0.39638571869E+00  0.21770000515E+02  0.88007225837E+01  0.23484947569E+02  0.51100000000E-03 0.  1.
        -11    1    4    4    0    0 -0.64635493197E+01 -0.13560932223E+02  0.22134589033E+02  0.26751007168E+02  0.51100000000E-03 0. -1.
         12    1    4    4    0    0 -0.14088663917E+01  0.12637867765E+01  0.36720815155E+01  0.41311311021E+01  0.00000000000E+00 0. -1.
</event>
<event>
 8    1  0.1290800E-006  0.9118800E+02  0.7816164E-02  0.1184000E+00
        -11   -1    0    0    0    0  0.00000000000E+00  0.00000000000E+00  0.45593999997E+02  0.45594000000E+02  0.51100000000E-03 0. -1.
         11   -1    0    0    0    0 -0.00000000000E+00 -0.00000000000E+00 -0.45593999997E+02  0.45594000000E+02  0.51100000000E-03 0.  1.
         23    2    1    2    0    0 -0.17763568394E-14 -0.35527136788E-14  0.00000000000E+00  0.91188000000E+02  0.91188000000E+02 0.  0.
    9900012    2    3    3    0    0  0.10460558267E+02  0.30312344677E+02  0.18097476661E+02  0.54367079579E+02  0.39999989517E+02 0.  0.
        -12    1    3    3    0    0 -0.10460558267E+02 -0.30312344677E+02 -0.18097476661E+02  0.36820920421E+02  0.00000000000E+00 0.  1.
         11    1    4    4    0    0  0.13068148954E+02  0.75599226501E+01  0.11846356251E+02  0.19190234606E+02  0.51100000000E-03 0. -1.
        -11    1    4    4    0    0  0.55070690429E+01  0.17055193393E+02 -0.64645511256E+01  0.19052502530E+02  0.51100000000E-03 0.  1.
        -12    1    4    4    0    0 -0.81146597294E+01  0.56972286341E+01  0.12715671536E+02  0.16124342444E+02  0.00000000000E+00 0.  1.
</event>
<event>
 8    1  0.1290800E-006  0.9118800E+02  0.7816164E-02  0.1184000E+00
        -11   -1    0    0    0    0  0.00000000000E+00  0.00000000000E+00  0.45593999997E+02  0.45594000000E+02  0.51100000000E-03 0.  1.
         11   -1    0    0    0    0 -0.00000000000E+00 -0.00000000000E+00 -0.45593999997E+02  0.45594000000E+02  0.51100000000E-03 0. -1.
         23    2    1    2    0    0 -0.71054273576E-14  0.00000000000E+00 -0.44408920985E-15  0.91188000000E+02  0.91188000000E+02 0.  0.
    9900012    2    3    3    0    0  0.36351599122E+02  0.56666130842E+01 -0.14927337452E+01  0.54367115754E+02  0.40000071985E+02 0.  0.
        -12    1    3    3    0    0 -0.36351599122E+02 -0.56666130842E+01  0.14927337452E+01  0.36820884246E+02  0.00000000000E+00 0.  1.
         11    1    4    4    0    0  0.35440423775E+02  0.49917991772E+01 -0.54017820806E+01  0.36195592912E+02  0.51100000000E-03 0. -1.
        -11    1    4    4    0    0  0.50550441444E+01 -0.20190690198E+01 -0.53774781114E+01  0.76516261087E+01  0.51100000000E-03 0.  1.
        -12    1    4    4    0    0 -0.41438687970E+01  0.26938829267E+01  0.92865264467E+01  0.10519896733E+02  0.00000000000E+00 0.  1.
</event>
<event>
 8    1  0.1290800E-006  0.9118800E+02  0.7816164E-02  0.1184000E+00
        -11   -1    0    0    0    0  0.00000000000E+00  0.00000000000E+00  0.45593999997E+02  0.45594000000E+02  0.51100000000E-03 0.  1.
         11   -1    0    0    0    0 -0.00000000000E+00 -0.00000000000E+00 -0.45593999997E+02  0.45594000000E+02  0.51100000000E-03 0. -1.
         23    2    1    2    0    0  0.88817841970E-15  0.00000000000E+00  0.00000000000E+00  0.91188000000E+02  0.91188000000E+02 0.  0.
    9900012    2    3    3    0    0  0.49228007917E+01  0.21272706155E+02 -0.29648128507E+02  0.54367170042E+02  0.40000195745E+02 0.  0.
        -12    1    3    3    0    0 -0.49228007917E+01 -0.21272706155E+02  0.29648128507E+02  0.36820829958E+02  0.00000000000E+00 0.  1.
         11    1    4    4    0    0 -0.18321204444E+01  0.13659406934E+02 -0.31370909126E+02  0.34264704913E+02  0.51100000000E-03 0. -1.
        -11    1    4    4    0    0 -0.45736897900E+01 -0.19701458709E+01  0.17057404704E+01  0.52639969473E+01  0.51100000000E-03 0.  1.
         12    1    4    4    0    0  0.11328611026E+02  0.95834450926E+01  0.17040149135E-01  0.14838468182E+02  0.00000000000E+00 0. -1.
</event>
<event>
 8    1  0.1290800E-006  0.9118800E+02  0.7816164E-02  0.1184000E+00
        -11   -1    0    0    0    0  0.00000000000E+00  0.00000000000E+00  0.45593999997E+02  0.45594000000E+02  0.51100000000E-03 0.  1.
         11   -1    0    0    0    0 -0.00000000000E+00 -0.00000000000E+00 -0.45593999997E+02  0.45594000000E+02  0.51100000000E-03 0. -1.
         23    2    1    2    0    0  0.00000000000E+00  0.00000000000E+00  0.44408920985E-15  0.91188000000E+02  0.91188000000E+02 0.  0.
    9900012    2    3    3    0    0  0.17762895674E+02 -0.32009215112E+02 -0.39584790963E+01  0.54367083776E+02  0.39999999084E+02 0.  0.
         12    1    3    3    0    0 -0.17762895674E+02  0.32009215112E+02  0.39584790963E+01  0.36820916224E+02  0.00000000000E+00 0. -1.
         11    1    4    4    0    0  0.14337816058E+02 -0.58978540722E-01 -0.25803334894E+01  0.14568272682E+02  0.51100000000E-03 0. -1.
        -11    1    4    4    0    0 -0.50321046257E+00 -0.14154649583E+02  0.10859153307E+02  0.17847367772E+02  0.51100000000E-03 0.  1.
         12    1    4    4    0    0  0.39282900794E+01 -0.17795586988E+02 -0.12237298913E+02  0.21951443321E+02  0.00000000000E+00 0. -1.
</event>
<event>
 8    1  0.1290800E-006  0.9118800E+02  0.7816164E-02  0.1184000E+00
        -11   -1    0    0    0    0  0.00000000000E+00  0.00000000000E+00  0.45593999997E+02  0.45594000000E+02  0.51100000000E-03 0. -1.
         11   -1    0    0    0    0 -0.00000000000E+00 -0.00000000000E+00 -0.45593999997E+02  0.45594000000E+02  0.51100000000E-03 0.  1.
         23    2    1    2    0    0  0.00000000000E+00 -0.35527136788E-14 -0.66613381478E-15  0.91188000000E+02  0.91188000000E+02 0.  0.
    9900012    2    3    3    0    0  0.30428171207E+02  0.20722453048E+02 -0.69968296185E+00  0.54367038313E+02  0.39999895441E+02 0.  0.
         12    1    3    3    0    0 -0.30428171207E+02 -0.20722453048E+02  0.69968296185E+00  0.36820961687E+02  0.00000000000E+00 0. -1.
         11    1    4    4    0    0  0.24286371028E+01  0.55765363410E+01 -0.97629041165E+01  0.11502622866E+02  0.51100000000E-03 0. -1.
        -11    1    4    4    0    0  0.26425168364E+02  0.30442282028E+01 -0.16144987509E+01  0.26648892189E+02  0.51100000000E-03 0.  1.
        -12    1    4    4    0    0  0.15743657394E+01  0.12101688505E+02  0.10677719906E+02  0.16215523258E+02  0.00000000000E+00 0.  1.
</event>
<event>
 8    1  0.1290800E-006  0.9118800E+02  0.7816164E-02  0.1184000E+00
        -11   -1    0    0    0    0  0.00000000000E+00  0.00000000000E+00  0.45593999997E+02  0.45594000000E+02  0.51100000000E-03 0. -1.
         11   -1    0    0    0    0 -0.00000000000E+00 -0.00000000000E+00 -0.45593999997E+02  0.45594000000E+02  0.51100000000E-03 0.  1.
         23    2    1    2    0    0  0.17763568394E-14  0.00000000000E+00  0.00000000000E+00  0.91188000000E+02  0.91188000000E+02 0.  0.
    9900012    2    3    3    0    0  0.86444971708E+01 -0.35747540681E+02  0.17831439839E+01  0.54366897375E+02  0.39999574143E+02 0.  0.
         12    1    3    3    0    0 -0.86444971708E+01  0.35747540681E+02 -0.17831439839E+01  0.36821102625E+02  0.00000000000E+00 0. -1.
         11    1    4    4    0    0 -0.16313389455E+01 -0.11195454618E+02  0.10360119618E+02  0.15340519861E+02  0.51100000000E-03 0. -1.
        -11    1    4    4    0    0 -0.25926819147E+00  0.51074644099E+01  0.24565820894E+01  0.56734653006E+01  0.51100000000E-03 0.  1.
        -12    1    4    4    0    0  0.10535104308E+02 -0.29659550473E+02 -0.11033557723E+02  0.33352912213E+02  0.00000000000E+00 0.  1.
</event>
<event>
 8    1  0.1290800E-006  0.9118800E+02  0.7816164E-02  0.1184000E+00
        -11   -1    0    0    0    0  0.00000000000E+00  0.00000000000E+00  0.45593999997E+02  0.45594000000E+02  0.51100000000E-03 0. -1.
         11   -1    0    0    0    0 -0.00000000000E+00 -0.00000000000E+00 -0.45593999997E+02  0.45594000000E+02  0.51100000000E-03 0.  1.
         23    2    1    2    0    0  0.00000000000E+00  0.71054273576E-14  0.44408920985E-15  0.91188000000E+02  0.91188000000E+02 0.  0.
    9900012    2    3    3    0    0 -0.95954314028E+01 -0.35413179731E+02  0.31009313749E+01  0.54367063321E+02  0.39999952454E+02 0.  0.
         12    1    3    3    0    0  0.95954314028E+01  0.35413179731E+02 -0.31009313749E+01  0.36820936679E+02  0.00000000000E+00 0. -1.
         11    1    4    4    0    0 -0.45823573767E+01 -0.13846510104E+02  0.51107532163E+01  0.15454566959E+02  0.51100000000E-03 0. -1.
        -11    1    4    4    0    0 -0.15027145774E+01 -0.19251601707E+02 -0.15513048328E+02  0.24769678805E+02  0.51100000000E-03 0.  1.
        -12    1    4    4    0    0 -0.35103594488E+01 -0.23150679205E+01  0.13503226487E+02  0.14142817558E+02  0.00000000000E+00 0.  1.
</event>
<event>
 8    1  0.1290800E-006  0.9118800E+02  0.7816164E-02  0.1184000E+00
        -11   -1    0    0    0    0  0.00000000000E+00  0.00000000000E+00  0.45593999997E+02  0.45594000000E+02  0.51100000000E-03 0.  1.
         11   -1    0    0    0    0 -0.00000000000E+00 -0.00000000000E+00 -0.45593999997E+02  0.45594000000E+02  0.51100000000E-03 0. -1.
         23    2    1    2    0    0  0.00000000000E+00 -0.17763568394E-14 -0.71054273576E-14  0.91188000000E+02  0.91188000000E+02 0.  0.
    9900012    2    3    3    0    0  0.95090435675E+01 -0.11615740328E+02  0.33621932394E+02  0.54367059343E+02  0.39999943385E+02 0.  0.
         12    1    3    3    0    0 -0.95090435675E+01  0.11615740328E+02 -0.33621932394E+02  0.36820940657E+02  0.00000000000E+00 0. -1.
         11    1    4    4    0    0  0.87971622272E+01  0.34283593191E+01 -0.60396134160E+00  0.94608921586E+01  0.51100000000E-03 0. -1.
        -11    1    4    4    0    0  0.82806252124E+01  0.25620679329E+01  0.51490311586E+01  0.10081937717E+02  0.51100000000E-03 0.  1.
        -12    1    4    4    0    0 -0.75687438722E+01 -0.17606167580E+02  0.29076862577E+02  0.34824229467E+02  0.00000000000E+00 0.  1.
</event>
<event>
 8    1  0.1290800E-006  0.9118800E+02  0.7816164E-02  0.1184000E+00
        -11   -1    0    0    0    0  0.00000000000E+00  0.00000000000E+00  0.45593999997E+02  0.45594000000E+02  0.51100000000E-03 0.  1.
         11   -1    0    0    0    0 -0.00000000000E+00 -0.00000000000E+00 -0.45593999997E+02  0.45594000000E+02  0.51100000000E-03 0. -1.
         23    2    1    2    0    0  0.17763568394E-14  0.35527136788E-14 -0.71054273576E-14  0.91188000000E+02  0.91188000000E+02 0.  0.
    9900012    2    3    3    0    0 -0.14504534226E+02 -0.79671632235E+01  0.32892600517E+02  0.54367076984E+02  0.39999983600E+02 0.  0.
         12    1    3    3    0    0  0.14504534226E+02  0.79671632235E+01 -0.32892600517E+02  0.36820923016E+02  0.00000000000E+00 0. -1.
         11    1    4    4    0    0 -0.55044059932E+01 -0.17449476166E+02  0.52740978887E+01  0.19042027534E+02  0.51100000000E-03 0.  1.
        -11    1    4    4    0    0  0.42324348928E+01 -0.18341533638E+01  0.57359827237E+01  0.73606468297E+01  0.51100000000E-03 0. -1.
        -12    1    4    4    0    0 -0.13232563126E+02  0.11316466306E+02  0.21882519905E+02  0.27964402621E+02  0.00000000000E+00 0.  1.
</event>
<event>
 8    1  0.1290800E-006  0.9118800E+02  0.7816164E-02  0.1184000E+00
        -11   -1    0    0    0    0  0.00000000000E+00  0.00000000000E+00  0.45593999997E+02  0.45594000000E+02  0.51100000000E-03 0.  1.
         11   -1    0    0    0    0 -0.00000000000E+00 -0.00000000000E+00 -0.45593999997E+02  0.45594000000E+02  0.51100000000E-03 0. -1.
         23    2    1    2    0    0 -0.55511151231E-15  0.00000000000E+00 -0.35527136788E-14  0.91188000000E+02  0.91188000000E+02 0.  0.
    9900012    2    3    3    0    0 -0.84025215926E+00 -0.21410111788E+02  0.29944649505E+02  0.54367069207E+02  0.39999965871E+02 0.  0.
         12    1    3    3    0    0  0.84025215926E+00  0.21410111788E+02 -0.29944649505E+02  0.36820930793E+02  0.00000000000E+00 0. -1.
         11    1    4    4    0    0 -0.56079662206E+01  0.42160729700E+01 -0.49786213295E+01  0.86029777998E+01  0.51100000000E-03 0. -1.
        -11    1    4    4    0    0  0.94128835248E+01 -0.14407570123E+02  0.17665078668E+02  0.24662430085E+02  0.51100000000E-03 0.  1.
        -12    1    4    4    0    0 -0.46451694635E+01 -0.11218614635E+02  0.17258192167E+02  0.21101661322E+02  0.00000000000E+00 0.  1.
</event>
<event>
 8    1  0.1290800E-006  0.9118800E+02  0.7816164E-02  0.1184000E+00
        -11   -1    0    0    0    0  0.00000000000E+00  0.00000000000E+00  0.45593999997E+02  0.45594000000E+02  0.51100000000E-03 0. -1.
         11   -1    0    0    0    0 -0.00000000000E+00 -0.00000000000E+00 -0.45593999997E+02  0.45594000000E+02  0.51100000000E-03 0.  1.
         23    2    1    2    0    0  0.00000000000E+00  0.00000000000E+00  0.00000000000E+00  0.91188000000E+02  0.91188000000E+02 0.  0.
    9900012    2    3    3    0    0  0.15262540621E+02 -0.91409337620E+01 -0.32237814437E+02  0.54367102456E+02  0.40000041669E+02 0.  0.
         12    1    3    3    0    0 -0.15262540621E+02  0.91409337620E+01  0.32237814437E+02  0.36820897544E+02  0.00000000000E+00 0. -1.
         11    1    4    4    0    0 -0.27843198196E+01 -0.27096322281E+01  0.34381891403E+01  0.51880332010E+01  0.51100000000E-03 0. -1.
        -11    1    4    4    0    0  0.10336417071E+02 -0.10267203599E+02 -0.37626866092E+02  0.40348953392E+02  0.51100000000E-03 0.  1.
        -12    1    4    4    0    0  0.77104433696E+01  0.38359020653E+01  0.19508625148E+01  0.88301158635E+01  0.00000000000E+00 0.  1.
</event>
<event>
 8    1  0.1290800E-006  0.9118800E+02  0.7816164E-02  0.1184000E+00
        -11   -1    0    0    0    0  0.00000000000E+00  0.00000000000E+00  0.45593999997E+02  0.45594000000E+02  0.51100000000E-03 0.  1.
         11   -1    0    0    0    0 -0.00000000000E+00 -0.00000000000E+00 -0.45593999997E+02  0.45594000000E+02  0.51100000000E-03 0. -1.
         23    2    1    2    0    0  0.00000000000E+00  0.00000000000E+00 -0.88817841970E-15  0.91188000000E+02  0.91188000000E+02 0.  0.
    9900012    2    3    3    0    0  0.35210080328E+02  0.73778131567E+01  0.78482151749E+01  0.54367131391E+02  0.40000107632E+02 0.  0.
         12    1    3    3    0    0 -0.35210080328E+02 -0.73778131567E+01 -0.78482151749E+01  0.36820868609E+02  0.00000000000E+00 0. -1.
         11    1    4    4    0    0  0.84794847175E+01 -0.57716730715E+01 -0.56348039905E+01  0.11703199878E+02  0.51100000000E-03 0.  1.
        -11    1    4    4    0    0 -0.41184772931E+01  0.58805283862E+01 -0.19110183261E+01  0.74292974512E+01  0.51100000000E-03 0. -1.
        -12    1    4    4    0    0  0.30849072904E+02  0.72689578420E+01  0.15394037492E+02  0.35234634061E+02  0.00000000000E+00 0.  1.
</event>
<event>
 8    1  0.1290800E-006  0.9118800E+02  0.7816164E-02  0.1184000E+00
        -11   -1    0    0    0    0  0.00000000000E+00  0.00000000000E+00  0.45593999997E+02  0.45594000000E+02  0.51100000000E-03 0. -1.
         11   -1    0    0    0    0 -0.00000000000E+00 -0.00000000000E+00 -0.45593999997E+02  0.45594000000E+02  0.51100000000E-03 0.  1.
         23    2    1    2    0    0  0.44408920985E-15  0.00000000000E+00  0.00000000000E+00  0.91188000000E+02  0.91188000000E+02 0.  0.
    9900012    2    3    3    0    0 -0.23736554567E+01  0.34397222199E+02 -0.12922480424E+02  0.54366896872E+02  0.39999572998E+02 0.  0.
         12    1    3    3    0    0  0.23736554567E+01 -0.34397222199E+02  0.12922480424E+02  0.36821103128E+02  0.00000000000E+00 0. -1.
         11    1    4    4    0    0  0.17633185039E+00  0.21301738436E+02 -0.21223612001E+01  0.21407932424E+02  0.51100000000E-03 0. -1.
        -11    1    4    4    0    0  0.92277345860E+01 -0.41871426685E+01 -0.23501146000E+01  0.10402225157E+02  0.51100000000E-03 0.  1.
         12    1    4    4    0    0 -0.11777721893E+02  0.17282626431E+02 -0.84500046234E+01  0.22556739292E+02  0.00000000000E+00 0. -1.
</event>
<event>
 8    1  0.1290800E-006  0.9118800E+02  0.7816164E-02  0.1184000E+00
        -11   -1    0    0    0    0  0.00000000000E+00  0.00000000000E+00  0.45593999997E+02  0.45594000000E+02  0.51100000000E-03 0. -1.
         11   -1    0    0    0    0 -0.00000000000E+00 -0.00000000000E+00 -0.45593999997E+02  0.45594000000E+02  0.51100000000E-03 0.  1.
         23    2    1    2    0    0 -0.35527136788E-14 -0.17763568394E-14  0.00000000000E+00  0.91188000000E+02  0.91188000000E+02 0.  0.
    9900012    2    3    3    0    0  0.16682356449E+02  0.13628079042E+02 -0.29862258970E+02  0.54367081137E+02  0.39999993069E+02 0.  0.
         12    1    3    3    0    0 -0.16682356449E+02 -0.13628079042E+02  0.29862258970E+02  0.36820918863E+02  0.00000000000E+00 0. -1.
         11    1    4    4    0    0 -0.16915324707E+01 -0.35494852234E+01  0.35746727615E+01  0.53139827873E+01  0.51100000000E-03 0. -1.
        -11    1    4    4    0    0  0.10717263006E+02  0.46705010071E+01 -0.32292924797E+02  0.34343941216E+02  0.51100000000E-03 0.  1.
        -12    1    4    4    0    0  0.76566259139E+01  0.12507063259E+02 -0.11440069343E+01  0.14709157135E+02  0.00000000000E+00 0.  1.
</event>
<event>
 8    1  0.1290800E-006  0.9118800E+02  0.7816164E-02  0.1184000E+00
        -11   -1    0    0    0    0  0.00000000000E+00  0.00000000000E+00  0.45593999997E+02  0.45594000000E+02  0.51100000000E-03 0.  1.
         11   -1    0    0    0    0 -0.00000000000E+00 -0.00000000000E+00 -0.45593999997E+02  0.45594000000E+02  0.51100000000E-03 0. -1.
         23    2    1    2    0    0  0.35527136788E-14  0.00000000000E+00 -0.35527136788E-14  0.91188000000E+02  0.91188000000E+02 0.  0.
    9900012    2    3    3    0    0  0.23683342330E+02 -0.18175841125E+02  0.21552689661E+02  0.54367077467E+02  0.39999984702E+02 0.  0.
         12    1    3    3    0    0 -0.23683342330E+02  0.18175841125E+02 -0.21552689661E+02  0.36820922533E+02  0.00000000000E+00 0. -1.
         11    1    4    4    0    0  0.53699495534E+01 -0.17120440353E+01 -0.32281733087E+00  0.56454994708E+01  0.51100000000E-03 0. -1.
        -11    1    4    4    0    0  0.14594314823E+02  0.56761349853E+01 -0.21883553390E+01  0.15811433612E+02  0.51100000000E-03 0.  1.
        -12    1    4    4    0    0  0.37190779541E+01 -0.22139932075E+02  0.24063862331E+02  0.32910144384E+02  0.00000000000E+00 0.  1.
</event>
<event>
 8    1  0.1290800E-006  0.9118800E+02  0.7816164E-02  0.1184000E+00
        -11   -1    0    0    0    0  0.00000000000E+00  0.00000000000E+00  0.45593999997E+02  0.45594000000E+02  0.51100000000E-03 0.  1.
         11   -1    0    0    0    0 -0.00000000000E+00 -0.00000000000E+00 -0.45593999997E+02  0.45594000000E+02  0.51100000000E-03 0. -1.
         23    2    1    2    0    0  0.35527136788E-14  0.00000000000E+00  0.00000000000E+00  0.91188000000E+02  0.91188000000E+02 0.  0.
    9900012    2    3    3    0    0 -0.20807074466E+02  0.83085633953E+01 -0.29220016777E+02  0.54367136975E+02  0.40000120361E+02 0.  0.
        -12    1    3    3    0    0  0.20807074466E+02 -0.83085633953E+01  0.29220016777E+02  0.36820863025E+02  0.00000000000E+00 0.  1.
         11    1    4    4    0    0 -0.17535714706E+01  0.15015384923E+02  0.14804799323E+01  0.15189753730E+02  0.51100000000E-03 0.  1.
        -11    1    4    4    0    0 -0.12786183410E+02  0.10737814578E+01 -0.23789293232E+02  0.27029057800E+02  0.51100000000E-03 0. -1.
        -12    1    4    4    0    0 -0.62673195850E+01 -0.77806029857E+01 -0.69112034769E+01  0.12148325444E+02  0.00000000000E+00 0.  1.
</event>
<event>
 8    1  0.1290800E-006  0.9118800E+02  0.7816164E-02  0.1184000E+00
        -11   -1    0    0    0    0  0.00000000000E+00  0.00000000000E+00  0.45593999997E+02  0.45594000000E+02  0.51100000000E-03 0. -1.
         11   -1    0    0    0    0 -0.00000000000E+00 -0.00000000000E+00 -0.45593999997E+02  0.45594000000E+02  0.51100000000E-03 0.  1.
         23    2    1    2    0    0 -0.88817841970E-15  0.00000000000E+00  0.00000000000E+00  0.91188000000E+02  0.91188000000E+02 0.  0.
    9900012    2    3    3    0    0  0.47794200856E+01 -0.22462116472E+02 -0.28781759925E+02  0.54367092391E+02  0.40000018724E+02 0.  0.
         12    1    3    3    0    0 -0.47794200856E+01  0.22462116472E+02  0.28781759925E+02  0.36820907609E+02  0.00000000000E+00 0. -1.
         11    1    4    4    0    0  0.77671082270E+01 -0.14334672553E+02 -0.14974855917E+01  0.16372332478E+02  0.51100000000E-03 0. -1.
        -11    1    4    4    0    0  0.58671025817E+01 -0.10927637518E+02 -0.41712141030E+01  0.13085686141E+02  0.51100000000E-03 0.  1.
         12    1    4    4    0    0 -0.88547907231E+01  0.28001935993E+01 -0.23113060230E+02  0.24909073772E+02  0.00000000000E+00 0. -1.
</event>
<event>
 8    1  0.1290800E-006  0.9118800E+02  0.7816164E-02  0.1184000E+00
        -11   -1    0    0    0    0  0.00000000000E+00  0.00000000000E+00  0.45593999997E+02  0.45594000000E+02  0.51100000000E-03 0. -1.
         11   -1    0    0    0    0 -0.00000000000E+00 -0.00000000000E+00 -0.45593999997E+02  0.45594000000E+02  0.51100000000E-03 0.  1.
         23    2    1    2    0    0 -0.71054273576E-14  0.88817841970E-15  0.00000000000E+00  0.91188000000E+02  0.91188000000E+02 0.  0.
    9900012    2    3    3    0    0 -0.35351253086E+02  0.37974312839E+01  0.95732643817E+01  0.54367096018E+02  0.40000026993E+02 0.  0.
        -12    1    3    3    0    0  0.35351253086E+02 -0.37974312839E+01 -0.95732643817E+01  0.36820903982E+02  0.00000000000E+00 0.  1.
         11    1    4    4    0    0 -0.15534955850E+02  0.72053292415E+01 -0.43515400470E+01  0.17668829157E+02  0.51100000000E-03 0. -1.
        -11    1    4    4    0    0 -0.13572215308E+02 -0.15127370760E+02  0.58165951262E+01  0.21139421789E+02  0.51100000000E-03 0.  1.
        -12    1    4    4    0    0 -0.62440819286E+01  0.11719472802E+02  0.81082093025E+01  0.15558845072E+02  0.00000000000E+00 0.  1.
</event>
<event>
 8    1  0.1290800E-006  0.9118800E+02  0.7816164E-02  0.1184000E+00
        -11   -1    0    0    0    0  0.00000000000E+00  0.00000000000E+00  0.45593999997E+02  0.45594000000E+02  0.51100000000E-03 0. -1.
         11   -1    0    0    0    0 -0.00000000000E+00 -0.00000000000E+00 -0.45593999997E+02  0.45594000000E+02  0.51100000000E-03 0.  1.
         23    2    1    2    0    0  0.17763568394E-14  0.00000000000E+00  0.00000000000E+00  0.91188000000E+02  0.91188000000E+02 0.  0.
    9900012    2    3    3    0    0 -0.93414949269E+01 -0.30384176120E+02  0.18582724232E+02  0.54367091187E+02  0.40000015978E+02 0.  0.
        -12    1    3    3    0    0  0.93414949269E+01  0.30384176120E+02 -0.18582724232E+02  0.36820908813E+02  0.00000000000E+00 0.  1.
         11    1    4    4    0    0 -0.32606980009E+01 -0.16283570624E+02 -0.12011254361E+01  0.16650210998E+02  0.51100000000E-03 0. -1.
        -11    1    4    4    0    0  0.75483630964E+01 -0.14656263362E+01 -0.30531333924E+01  0.82732986025E+01  0.51100000000E-03 0.  1.
        -12    1    4    4    0    0 -0.13629160022E+02 -0.12634979160E+02  0.22836983061E+02  0.29443581586E+02  0.00000000000E+00 0.  1.
</event>
<event>
 8    1  0.1290800E-006  0.9118800E+02  0.7816164E-02  0.1184000E+00
        -11   -1    0    0    0    0  0.00000000000E+00  0.00000000000E+00  0.45593999997E+02  0.45594000000E+02  0.51100000000E-03 0. -1.
         11   -1    0    0    0    0 -0.00000000000E+00 -0.00000000000E+00 -0.45593999997E+02  0.45594000000E+02  0.51100000000E-03 0.  1.
         23    2    1    2    0    0  0.00000000000E+00 -0.17763568394E-14  0.00000000000E+00  0.91188000000E+02  0.91188000000E+02 0.  0.
    9900012    2    3    3    0    0 -0.68229910892E+01 -0.13503945280E+02 -0.33568872751E+02  0.54367096110E+02  0.40000027202E+02 0.  0.
         12    1    3    3    0    0  0.68229910892E+01  0.13503945280E+02  0.33568872751E+02  0.36820903890E+02  0.00000000000E+00 0. -1.
         11    1    4    4    0    0  0.47662707575E+01  0.96826429516E+01 -0.71427078061E+01  0.12941761338E+02  0.51100000000E-03 0.  1.
        -11    1    4    4    0    0 -0.82043828296E+01 -0.71052362516E+01 -0.67140185401E+00  0.10874146427E+02  0.51100000000E-03 0. -1.
        -12    1    4    4    0    0 -0.33848790172E+01 -0.16081351980E+02 -0.25754763091E+02  0.30551188345E+02  0.00000000000E+00 0.  1.
</event>
<event>
 8    1  0.1290800E-006  0.9118800E+02  0.7816164E-02  0.1184000E+00
        -11   -1    0    0    0    0  0.00000000000E+00  0.00000000000E+00  0.45593999997E+02  0.45594000000E+02  0.51100000000E-03 0.  1.
         11   -1    0    0    0    0 -0.00000000000E+00 -0.00000000000E+00 -0.45593999997E+02  0.45594000000E+02  0.51100000000E-03 0. -1.
         23    2    1    2    0    0  0.00000000000E+00  0.00000000000E+00  0.00000000000E+00  0.91188000000E+02  0.91188000000E+02 0.  0.
    9900012    2    3    3    0    0 -0.32221766893E+02  0.86379168349E+01  0.15586017264E+02  0.54367084706E+02  0.40000001203E+02 0.  0.
         12    1    3    3    0    0  0.32221766893E+02 -0.86379168349E+01 -0.15586017264E+02  0.36820915294E+02  0.00000000000E+00 0. -1.
         11    1    4    4    0    0 -0.77775281281E+00 -0.41345675802E+01  0.47924140263E+01  0.63770511190E+01  0.51100000000E-03 0. -1.
        -11    1    4    4    0    0 -0.19758144057E+02 -0.83195193659E+01 -0.31678095549E+00  0.21440592564E+02  0.51100000000E-03 0.  1.
        -12    1    4    4    0    0 -0.11685870024E+02  0.21092003781E+02  0.11110384193E+02  0.26549441023E+02  0.00000000000E+00 0.  1.
</event>
<event>
 8    1  0.1290800E-006  0.9118800E+02  0.7816164E-02  0.1184000E+00
        -11   -1    0    0    0    0  0.00000000000E+00  0.00000000000E+00  0.45593999997E+02  0.45594000000E+02  0.51100000000E-03 0.  1.
         11   -1    0    0    0    0 -0.00000000000E+00 -0.00000000000E+00 -0.45593999997E+02  0.45594000000E+02  0.51100000000E-03 0. -1.
         23    2    1    2    0    0  0.00000000000E+00  0.13322676296E-14  0.00000000000E+00  0.91188000000E+02  0.91188000000E+02 0.  0.
    9900012    2    3    3    0    0 -0.87906091292E+01  0.27702655473E+01 -0.35648705813E+02  0.54367090095E+02  0.40000013490E+02 0.  0.
        -12    1    3    3    0    0  0.87906091292E+01 -0.27702655473E+01  0.35648705813E+02  0.36820909905E+02  0.00000000000E+00 0.  1.
         11    1    4    4    0    0  0.97959499075E+01 -0.11857152043E+01 -0.83302336484E+00  0.99025493346E+01  0.51100000000E-03 0. -1.
        -11    1    4    4    0    0 -0.58962208549E+01 -0.73079921648E+01 -0.63848230327E+01  0.11355092922E+02  0.51100000000E-03 0.  1.
        -12    1    4    4    0    0 -0.12690338182E+02  0.11263972916E+02 -0.28430859416E+02  0.33109447838E+02  0.00000000000E+00 0.  1.
</event>
<event>
 8    1  0.1290800E-006  0.9118800E+02  0.7816164E-02  0.1184000E+00
        -11   -1    0    0    0    0  0.00000000000E+00  0.00000000000E+00  0.45593999997E+02  0.45594000000E+02  0.51100000000E-03 0. -1.
         11   -1    0    0    0    0 -0.00000000000E+00 -0.00000000000E+00 -0.45593999997E+02  0.45594000000E+02  0.51100000000E-03 0.  1.
         23    2    1    2    0    0  0.35527136788E-14  0.00000000000E+00  0.00000000000E+00  0.91188000000E+02  0.91188000000E+02 0.  0.
    9900012    2    3    3    0    0 -0.14184182616E+02 -0.26990364157E+02  0.20642403927E+02  0.54367087007E+02  0.40000006449E+02 0.  0.
         12    1    3    3    0    0  0.14184182616E+02  0.26990364157E+02 -0.20642403927E+02  0.36820912993E+02  0.00000000000E+00 0. -1.
         11    1    4    4    0    0 -0.18409765706E+02 -0.53798155381E+01  0.10809430576E+02  0.22016032300E+02  0.51100000000E-03 0. -1.
        -11    1    4    4    0    0  0.75116253514E+01  0.24196918102E+00  0.66299219781E+01  0.10021922480E+02  0.51100000000E-03 0.  1.
        -12    1    4    4    0    0 -0.32860422613E+01 -0.21852517799E+02  0.32030513721E+01  0.22329132227E+02  0.00000000000E+00 0.  1.
</event>
<event>
 8    1  0.1290800E-006  0.9118800E+02  0.7816164E-02  0.1184000E+00
        -11   -1    0    0    0    0  0.00000000000E+00  0.00000000000E+00  0.45593999997E+02  0.45594000000E+02  0.51100000000E-03 0.  1.
         11   -1    0    0    0    0 -0.00000000000E+00 -0.00000000000E+00 -0.45593999997E+02  0.45594000000E+02  0.51100000000E-03 0. -1.
         23    2    1    2    0    0  0.00000000000E+00  0.00000000000E+00 -0.35527136788E-14  0.91188000000E+02  0.91188000000E+02 0.  0.
    9900012    2    3    3    0    0  0.14391072826E+02  0.14228524438E+02  0.30760791789E+02  0.54367079367E+02  0.39999989033E+02 0.  0.
         12    1    3    3    0    0 -0.14391072826E+02 -0.14228524438E+02 -0.30760791789E+02  0.36820920633E+02  0.00000000000E+00 0. -1.
         11    1    4    4    0    0 -0.42988539059E+00 -0.27952445926E+01  0.17846526323E+02  0.18069219569E+02  0.51100000000E-03 0. -1.
        -11    1    4    4    0    0  0.68201585250E+01 -0.46037415629E+01 -0.24532218231E+01  0.85864600540E+01  0.51100000000E-03 0.  1.
        -12    1    4    4    0    0  0.80007996913E+01  0.21627510594E+02  0.15367487290E+02  0.27711399744E+02  0.00000000000E+00 0.  1.
</event>
<event>
 8    1  0.1290800E-006  0.9118800E+02  0.7816164E-02  0.1184000E+00
        -11   -1    0    0    0    0  0.00000000000E+00  0.00000000000E+00  0.45593999997E+02  0.45594000000E+02  0.51100000000E-03 0. -1.
         11   -1    0    0    0    0 -0.00000000000E+00 -0.00000000000E+00 -0.45593999997E+02  0.45594000000E+02  0.51100000000E-03 0.  1.
         23    2    1    2    0    0  0.88817841970E-15  0.35527136788E-14 -0.35527136788E-14  0.91188000000E+02  0.91188000000E+02 0.  0.
    9900012    2    3    3    0    0 -0.36065930820E+01 -0.22872110886E+02  0.28629466747E+02  0.54366982412E+02  0.39999768003E+02 0.  0.
        -12    1    3    3    0    0  0.36065930820E+01  0.22872110886E+02 -0.28629466747E+02  0.36821017588E+02  0.00000000000E+00 0.  1.
         11    1    4    4    0    0 -0.98910149861E+01  0.29657491287E+01 -0.15498025103E-02  0.10326076119E+02  0.51100000000E-03 0.  1.
        -11    1    4    4    0    0  0.69787193692E+01 -0.87813938646E+01  0.61466649220E+00  0.11233575450E+02  0.51100000000E-03 0. -1.
         12    1    4    4    0    0 -0.69429746518E+00 -0.17056466150E+02  0.28016350057E+02  0.32807330843E+02  0.00000000000E+00 0. -1.
</event>
<event>
 8    1  0.1290800E-006  0.9118800E+02  0.7816164E-02  0.1184000E+00
        -11   -1    0    0    0    0  0.00000000000E+00  0.00000000000E+00  0.45593999997E+02  0.45594000000E+02  0.51100000000E-03 0.  1.
         11   -1    0    0    0    0 -0.00000000000E+00 -0.00000000000E+00 -0.45593999997E+02  0.45594000000E+02  0.51100000000E-03 0. -1.
         23    2    1    2    0    0  0.00000000000E+00  0.88817841970E-15  0.35527136788E-14  0.91188000000E+02  0.91188000000E+02 0.  0.
    9900012    2    3    3    0    0 -0.30601141282E+02  0.59088803301E+01  0.19607012318E+02  0.54367086832E+02  0.40000006051E+02 0.  0.
         12    1    3    3    0    0  0.30601141282E+02 -0.59088803301E+01 -0.19607012318E+02  0.36820913168E+02  0.00000000000E+00 0. -1.
         11    1    4    4    0    0 -0.17389816793E+02  0.15058409019E+02 -0.11248972531E+01  0.23030996600E+02  0.51100000000E-03 0. -1.
        -11    1    4    4    0    0 -0.12974372263E+02 -0.22303437571E+01  0.20556506776E+02  0.24410627603E+02  0.51100000000E-03 0.  1.
         12    1    4    4    0    0 -0.23695222495E+00 -0.69191849322E+01  0.17540279558E+00  0.69254626288E+01  0.00000000000E+00 0. -1.
</event>
<event>
 8    1  0.1290800E-006  0.9118800E+02  0.7816164E-02  0.1184000E+00
        -11   -1    0    0    0    0  0.00000000000E+00  0.00000000000E+00  0.45593999997E+02  0.45594000000E+02  0.51100000000E-03 0. -1.
         11   -1    0    0    0    0 -0.00000000000E+00 -0.00000000000E+00 -0.45593999997E+02  0.45594000000E+02  0.51100000000E-03 0.  1.
         23    2    1    2    0    0  0.00000000000E+00 -0.35527136788E-14  0.00000000000E+00  0.91188000000E+02  0.91188000000E+02 0.  0.
    9900012    2    3    3    0    0 -0.24783493227E+02 -0.24420004995E+02  0.12050807116E+02  0.54367080231E+02  0.39999991002E+02 0.  0.
         12    1    3    3    0    0  0.24783493227E+02  0.24420004995E+02 -0.12050807116E+02  0.36820919769E+02  0.00000000000E+00 0. -1.
         11    1    4    4    0    0 -0.41835319275E+01 -0.26098313245E+01  0.19567939980E+02  0.20179629190E+02  0.51100000000E-03 0. -1.
        -11    1    4    4    0    0 -0.13459339394E+02 -0.22349500154E+02 -0.47937044372E+01  0.26526092372E+02  0.51100000000E-03 0.  1.
         12    1    4    4    0    0 -0.71406219057E+01  0.53932648265E+00 -0.27234284271E+01  0.76613586688E+01  0.00000000000E+00 0. -1.
</event>
<event>
 8    1  0.1290800E-006  0.9118800E+02  0.7816164E-02  0.1184000E+00
        -11   -1    0    0    0    0  0.00000000000E+00  0.00000000000E+00  0.45593999997E+02  0.45594000000E+02  0.51100000000E-03 0. -1.
         11   -1    0    0    0    0 -0.00000000000E+00 -0.00000000000E+00 -0.45593999997E+02  0.45594000000E+02  0.51100000000E-03 0.  1.
         23    2    1    2    0    0  0.00000000000E+00 -0.35527136788E-14  0.00000000000E+00  0.91188000000E+02  0.91188000000E+02 0.  0.
    9900012    2    3    3    0    0 -0.17312749935E+02  0.21609181923E+02  0.24271204424E+02  0.54367089937E+02  0.40000013129E+02 0.  0.
        -12    1    3    3    0    0  0.17312749935E+02 -0.21609181923E+02 -0.24271204424E+02  0.36820910063E+02  0.00000000000E+00 0.  1.
         11    1    4    4    0    0 -0.17934621461E+02  0.48250025835E+01  0.19321755769E+02  0.26800401921E+02  0.51100000000E-03 0. -1.
        -11    1    4    4    0    0  0.10147018495E+02  0.13357187559E+02  0.47813502378E+01  0.17442412511E+02  0.51100000000E-03 0.  1.
        -12    1    4    4    0    0 -0.95251469683E+01  0.34269917799E+01  0.16809841745E+00  0.10124275505E+02  0.00000000000E+00 0.  1.
</event>
<event>
 8    1  0.1290800E-006  0.9118800E+02  0.7816164E-02  0.1184000E+00
        -11   -1    0    0    0    0  0.00000000000E+00  0.00000000000E+00  0.45593999997E+02  0.45594000000E+02  0.51100000000E-03 0.  1.
         11   -1    0    0    0    0 -0.00000000000E+00 -0.00000000000E+00 -0.45593999997E+02  0.45594000000E+02  0.51100000000E-03 0. -1.
         23    2    1    2    0    0  0.00000000000E+00  0.00000000000E+00  0.00000000000E+00  0.91188000000E+02  0.91188000000E+02 0.  0.
    9900012    2    3    3    0    0  0.82578580380E+01 -0.34868296482E+02 -0.84719002735E+01  0.54367307270E+02  0.40000508579E+02 0.  0.
         12    1    3    3    0    0 -0.82578580380E+01  0.34868296482E+02  0.84719002735E+01  0.36820692730E+02  0.00000000000E+00 0. -1.
         11    1    4    4    0    0  0.89602123719E+01 -0.66561720347E+01  0.17519090557E+01  0.11298637861E+02  0.51100000000E-03 0.  1.
        -11    1    4    4    0    0 -0.28238513179E+00  0.12011344193E+01 -0.13422426323E+02  0.13479020511E+02  0.51100000000E-03 0. -1.
         12    1    4    4    0    0 -0.41996920206E+00 -0.29413258866E+02  0.31986169943E+01  0.29589648898E+02  0.00000000000E+00 0. -1.
</event>
<event>
 8    1  0.1290800E-006  0.9118800E+02  0.7816164E-02  0.1184000E+00
        -11   -1    0    0    0    0  0.00000000000E+00  0.00000000000E+00  0.45593999997E+02  0.45594000000E+02  0.51100000000E-03 0.  1.
         11   -1    0    0    0    0 -0.00000000000E+00 -0.00000000000E+00 -0.45593999997E+02  0.45594000000E+02  0.51100000000E-03 0. -1.
         23    2    1    2    0    0  0.00000000000E+00  0.00000000000E+00 -0.35527136788E-14  0.91188000000E+02  0.91188000000E+02 0.  0.
    9900012    2    3    3    0    0 -0.23023154563E+01 -0.32829983653E+02  0.16512768129E+02  0.54367082108E+02  0.39999995282E+02 0.  0.
         12    1    3    3    0    0  0.23023154563E+01  0.32829983653E+02 -0.16512768129E+02  0.36820917892E+02  0.00000000000E+00 0. -1.
         11    1    4    4    0    0 -0.56132674323E+01  0.25603664378E+00 -0.32557095239E+01  0.64941489662E+01  0.51100000000E-03 0. -1.
        -11    1    4    4    0    0 -0.23532381277E+01 -0.23107507942E+01  0.16021248570E+02  0.16357191230E+02  0.51100000000E-03 0.  1.
         12    1    4    4    0    0  0.56641901038E+01 -0.30775269502E+02  0.37472290832E+01  0.31515741912E+02  0.00000000000E+00 0. -1.
</event>
<event>
 8    1  0.1290800E-006  0.9118800E+02  0.7816164E-02  0.1184000E+00
        -11   -1    0    0    0    0  0.00000000000E+00  0.00000000000E+00  0.45593999997E+02  0.45594000000E+02  0.51100000000E-03 0.  1.
         11   -1    0    0    0    0 -0.00000000000E+00 -0.00000000000E+00 -0.45593999997E+02  0.45594000000E+02  0.51100000000E-03 0. -1.
         23    2    1    2    0    0  0.35527136788E-14  0.00000000000E+00  0.00000000000E+00  0.91188000000E+02  0.91188000000E+02 0.  0.
    9900012    2    3    3    0    0  0.30900633357E+02 -0.93350143821E+01 -0.17714073868E+02  0.54367081375E+02  0.39999993611E+02 0.  0.
        -12    1    3    3    0    0 -0.30900633357E+02  0.93350143821E+01  0.17714073868E+02  0.36820918625E+02  0.00000000000E+00 0.  1.
         11    1    4    4    0    0 -0.56035686506E+01 -0.27482612669E+01 -0.91970233243E+01  0.11114772148E+02  0.51100000000E-03 0. -1.
        -11    1    4    4    0    0  0.32222880563E+02  0.23468964254E+01 -0.47587865451E+01  0.32656821711E+02  0.51100000000E-03 0.  1.
        -12    1    4    4    0    0  0.42813214438E+01 -0.89336495406E+01 -0.37582639990E+01  0.10595487516E+02  0.00000000000E+00 0.  1.
</event>
<event>
 8    1  0.1290800E-006  0.9118800E+02  0.7816164E-02  0.1184000E+00
        -11   -1    0    0    0    0  0.00000000000E+00  0.00000000000E+00  0.45593999997E+02  0.45594000000E+02  0.51100000000E-03 0.  1.
         11   -1    0    0    0    0 -0.00000000000E+00 -0.00000000000E+00 -0.45593999997E+02  0.45594000000E+02  0.51100000000E-03 0. -1.
         23    2    1    2    0    0 -0.13322676296E-14  0.35527136788E-14  0.00000000000E+00  0.91188000000E+02  0.91188000000E+02 0.  0.
    9900012    2    3    3    0    0 -0.30597032657E+01  0.31742762730E+02  0.18406775986E+02  0.54367161172E+02  0.40000175523E+02 0.  0.
         12    1    3    3    0    0  0.30597032657E+01 -0.31742762730E+02 -0.18406775986E+02  0.36820838828E+02  0.00000000000E+00 0. -1.
         11    1    4    4    0    0 -0.15537444245E+02  0.12421247904E+02 -0.14043546972E+01  0.19941709695E+02  0.51100000000E-03 0. -1.
        -11    1    4    4    0    0 -0.37486283865E+01  0.60206274598E+01  0.39029108347E+01  0.80952382939E+01  0.51100000000E-03 0.  1.
        -12    1    4    4    0    0  0.16226369366E+02  0.13300887366E+02  0.15908219848E+02  0.26330213183E+02  0.00000000000E+00 0.  1.
</event>
<event>
 8    1  0.1290800E-006  0.9118800E+02  0.7816164E-02  0.1184000E+00
        -11   -1    0    0    0    0  0.00000000000E+00  0.00000000000E+00  0.45593999997E+02  0.45594000000E+02  0.51100000000E-03 0. -1.
         11   -1    0    0    0    0 -0.00000000000E+00 -0.00000000000E+00 -0.45593999997E+02  0.45594000000E+02  0.51100000000E-03 0.  1.
         23    2    1    2    0    0 -0.35527136788E-14  0.35527136788E-14  0.35527136788E-14  0.91188000000E+02  0.91188000000E+02 0.  0.
    9900012    2    3    3    0    0 -0.23074445409E+02  0.21791331087E+02  0.18667750056E+02  0.54367122313E+02  0.40000086936E+02 0.  0.
         12    1    3    3    0    0  0.23074445409E+02 -0.21791331087E+02 -0.18667750056E+02  0.36820877687E+02  0.00000000000E+00 0. -1.
         11    1    4    4    0    0 -0.18013129696E+02  0.71819577588E+01  0.90747443763E+01  0.21410379363E+02  0.51100000000E-03 0.  1.
        -11    1    4    4    0    0 -0.12651727409E+02 -0.23955401506E+01  0.32038924955E+01  0.13269127569E+02  0.51100000000E-03 0. -1.
         12    1    4    4    0    0  0.75904116957E+01  0.17004913479E+02  0.63891131844E+01  0.19687615382E+02  0.00000000000E+00 0. -1.
</event>
<event>
 8    1  0.1290800E-006  0.9118800E+02  0.7816164E-02  0.1184000E+00
        -11   -1    0    0    0    0  0.00000000000E+00  0.00000000000E+00  0.45593999997E+02  0.45594000000E+02  0.51100000000E-03 0.  1.
         11   -1    0    0    0    0 -0.00000000000E+00 -0.00000000000E+00 -0.45593999997E+02  0.45594000000E+02  0.51100000000E-03 0. -1.
         23    2    1    2    0    0 -0.71054273576E-14 -0.55511151231E-15 -0.66613381478E-15  0.91188000000E+02  0.91188000000E+02 0.  0.
    9900012    2    3    3    0    0 -0.36807538873E+02 -0.95497560180E+00  0.27001306859E+00  0.54367084702E+02  0.40000001196E+02 0.  0.
        -12    1    3    3    0    0  0.36807538873E+02  0.95497560180E+00 -0.27001306859E+00  0.36820915298E+02  0.00000000000E+00 0.  1.
         11    1    4    4    0    0 -0.15457985651E+01 -0.32748261574E+01 -0.22910056596E+01  0.42851705636E+01  0.51100000000E-03 0. -1.
        -11    1    4    4    0    0  0.70819751547E+01 -0.12075292131E+01  0.24529080135E+01  0.75913936057E+01  0.51100000000E-03 0.  1.
         12    1    4    4    0    0 -0.42343715463E+02  0.35273797687E+01  0.10811071474E+00  0.42490520533E+02  0.00000000000E+00 0. -1.
</event>
<event>
 8    1  0.1290800E-006  0.9118800E+02  0.7816164E-02  0.1184000E+00
        -11   -1    0    0    0    0  0.00000000000E+00  0.00000000000E+00  0.45593999997E+02  0.45594000000E+02  0.51100000000E-03 0.  1.
         11   -1    0    0    0    0 -0.00000000000E+00 -0.00000000000E+00 -0.45593999997E+02  0.45594000000E+02  0.51100000000E-03 0. -1.
         23    2    1    2    0    0 -0.15543122345E-14  0.26645352591E-14  0.00000000000E+00  0.91188000000E+02  0.91188000000E+02 0.  0.
    9900012    2    3    3    0    0 -0.63349325436E+00  0.27384140664E+01  0.36713475621E+02  0.54367088584E+02  0.40000010046E+02 0.  0.
         12    1    3    3    0    0  0.63349325436E+00 -0.27384140664E+01 -0.36713475621E+02  0.36820911416E+02  0.00000000000E+00 0. -1.
         11    1    4    4    0    0  0.60928312142E+01 -0.12921799123E+02  0.15035626064E+02  0.20740432401E+02  0.51100000000E-03 0. -1.
        -11    1    4    4    0    0  0.48651679317E+01 -0.13920672235E+01  0.48997846535E+01  0.70438341882E+01  0.51100000000E-03 0.  1.
        -12    1    4    4    0    0 -0.11591492400E+02  0.17052280413E+02  0.16778064903E+02  0.26582821995E+02  0.00000000000E+00 0.  1.
</event>
<event>
 8    1  0.1290800E-006  0.9118800E+02  0.7816164E-02  0.1184000E+00
        -11   -1    0    0    0    0  0.00000000000E+00  0.00000000000E+00  0.45593999997E+02  0.45594000000E+02  0.51100000000E-03 0.  1.
         11   -1    0    0    0    0 -0.00000000000E+00 -0.00000000000E+00 -0.45593999997E+02  0.45594000000E+02  0.51100000000E-03 0. -1.
         23    2    1    2    0    0  0.00000000000E+00  0.17763568394E-14  0.35527136788E-14  0.91188000000E+02  0.91188000000E+02 0.  0.
    9900012    2    3    3    0    0  0.21425855255E+02 -0.84056970438E+01  0.28741200282E+02  0.54367087330E+02  0.40000007185E+02 0.  0.
         12    1    3    3    0    0 -0.21425855255E+02  0.84056970438E+01 -0.28741200282E+02  0.36820912670E+02  0.00000000000E+00 0. -1.
         11    1    4    4    0    0 -0.21552906886E+01  0.88485885548E+01  0.18467642366E+02  0.20591178019E+02  0.51100000000E-03 0. -1.
        -11    1    4    4    0    0  0.15588012371E+02 -0.12777294169E+02  0.13275946183E+02  0.24134956459E+02  0.51100000000E-03 0.  1.
         12    1    4    4    0    0  0.79931335735E+01 -0.44769914293E+01 -0.30023882675E+01  0.96409528518E+01  0.00000000000E+00 0. -1.
</event>
<event>
 8    1  0.1290800E-006  0.9118800E+02  0.7816164E-02  0.1184000E+00
        -11   -1    0    0    0    0  0.00000000000E+00  0.00000000000E+00  0.45593999997E+02  0.45594000000E+02  0.51100000000E-03 0.  1.
         11   -1    0    0    0    0 -0.00000000000E+00 -0.00000000000E+00 -0.45593999997E+02  0.45594000000E+02  0.51100000000E-03 0. -1.
         23    2    1    2    0    0  0.00000000000E+00  0.00000000000E+00  0.35527136788E-14  0.91188000000E+02  0.91188000000E+02 0.  0.
    9900012    2    3    3    0    0  0.93549824186E+01  0.19530828887E+02 -0.29779369982E+02  0.54367084075E+02  0.39999999765E+02 0.  0.
        -12    1    3    3    0    0 -0.93549824186E+01 -0.19530828887E+02  0.29779369982E+02  0.36820915925E+02  0.00000000000E+00 0.  1.
         11    1    4    4    0    0  0.66815080313E+01  0.15417119282E+02 -0.32232834979E+02  0.36349494736E+02  0.51100000000E-03 0. -1.
        -11    1    4    4    0    0 -0.35256087595E+01  0.91558243775E+01  0.69556262065E+00  0.98357940593E+01  0.51100000000E-03 0.  1.
         12    1    4    4    0    0  0.61990831469E+01 -0.50421147723E+01  0.17579023762E+01  0.81817952800E+01  0.00000000000E+00 0. -1.
</event>
<event>
 8    1  0.1290800E-006  0.9118800E+02  0.7816164E-02  0.1184000E+00
        -11   -1    0    0    0    0  0.00000000000E+00  0.00000000000E+00  0.45593999997E+02  0.45594000000E+02  0.51100000000E-03 0.  1.
         11   -1    0    0    0    0 -0.00000000000E+00 -0.00000000000E+00 -0.45593999997E+02  0.45594000000E+02  0.51100000000E-03 0. -1.
         23    2    1    2    0    0 -0.35527136788E-14 -0.35527136788E-14  0.88817841970E-15  0.91188000000E+02  0.91188000000E+02 0.  0.
    9900012    2    3    3    0    0  0.27628458496E+02  0.23774587291E+02  0.52170367643E+01  0.54367079421E+02  0.39999989155E+02 0.  0.
         12    1    3    3    0    0 -0.27628458496E+02 -0.23774587291E+02 -0.52170367643E+01  0.36820920579E+02  0.00000000000E+00 0. -1.
         11    1    4    4    0    0  0.77834823751E+01 -0.74669025231E+01 -0.62062894178E+01  0.12444085333E+02  0.51100000000E-03 0. -1.
        -11    1    4    4    0    0  0.35088571370E+01  0.31953189020E+01 -0.37938743832E+01  0.60758229393E+01  0.51100000000E-03 0.  1.
        -12    1    4    4    0    0  0.16336118984E+02  0.28046170912E+02  0.15217200565E+02  0.35847171148E+02  0.00000000000E+00 0.  1.
</event>
<event>
 8    1  0.1290800E-006  0.9118800E+02  0.7816164E-02  0.1184000E+00
        -11   -1    0    0    0    0  0.00000000000E+00  0.00000000000E+00  0.45593999997E+02  0.45594000000E+02  0.51100000000E-03 0. -1.
         11   -1    0    0    0    0 -0.00000000000E+00 -0.00000000000E+00 -0.45593999997E+02  0.45594000000E+02  0.51100000000E-03 0.  1.
         23    2    1    2    0    0 -0.88817841970E-15  0.00000000000E+00  0.00000000000E+00  0.91188000000E+02  0.91188000000E+02 0.  0.
    9900012    2    3    3    0    0  0.54032182563E+01  0.14752469588E+02 -0.33300899056E+02  0.54367081972E+02  0.39999994972E+02 0.  0.
         12    1    3    3    0    0 -0.54032182563E+01 -0.14752469588E+02  0.33300899056E+02  0.36820918028E+02  0.00000000000E+00 0. -1.
         11    1    4    4    0    0  0.95198811603E+01  0.98535360571E+01 -0.16560199208E+02  0.21493266578E+02  0.51100000000E-03 0. -1.
        -11    1    4    4    0    0  0.85127680932E+01  0.92339155108E+01 -0.14751642225E+02  0.19373780345E+02  0.51100000000E-03 0.  1.
         12    1    4    4    0    0 -0.12629430997E+02 -0.43349819798E+01 -0.19890576227E+01  0.13500035048E+02  0.00000000000E+00 0. -1.
</event>
<event>
 8    1  0.1290800E-006  0.9118800E+02  0.7816164E-02  0.1184000E+00
        -11   -1    0    0    0    0  0.00000000000E+00  0.00000000000E+00  0.45593999997E+02  0.45594000000E+02  0.51100000000E-03 0. -1.
         11   -1    0    0    0    0 -0.00000000000E+00 -0.00000000000E+00 -0.45593999997E+02  0.45594000000E+02  0.51100000000E-03 0.  1.
         23    2    1    2    0    0  0.35527136788E-14  0.17763568394E-14  0.00000000000E+00  0.91188000000E+02  0.91188000000E+02 0.  0.
    9900012    2    3    3    0    0  0.16443207402E+02  0.95279541105E+01 -0.31537554006E+02  0.54367105227E+02  0.40000047986E+02 0.  0.
         12    1    3    3    0    0 -0.16443207402E+02 -0.95279541105E+01  0.31537554006E+02  0.36820894773E+02  0.00000000000E+00 0. -1.
         11    1    4    4    0    0  0.83580500192E+01 -0.94433377218E+01 -0.47657338577E+01  0.13481314732E+02  0.51100000000E-03 0. -1.
        -11    1    4    4    0    0  0.25537843050E+01 -0.53624074431E+01 -0.47887014521E+01  0.76294750619E+01  0.51100000000E-03 0.  1.
        -12    1    4    4    0    0  0.55313730776E+01  0.24333699275E+02 -0.21983118696E+02  0.33256315433E+02  0.00000000000E+00 0.  1.
</event>
<event>
 8    1  0.1290800E-006  0.9118800E+02  0.7816164E-02  0.1184000E+00
        -11   -1    0    0    0    0  0.00000000000E+00  0.00000000000E+00  0.45593999997E+02  0.45594000000E+02  0.51100000000E-03 0.  1.
         11   -1    0    0    0    0 -0.00000000000E+00 -0.00000000000E+00 -0.45593999997E+02  0.45594000000E+02  0.51100000000E-03 0. -1.
         23    2    1    2    0    0  0.00000000000E+00  0.00000000000E+00  0.88817841970E-15  0.91188000000E+02  0.91188000000E+02 0.  0.
    9900012    2    3    3    0    0  0.32936921264E+02 -0.16212668754E+02  0.28439396827E+01  0.54367090133E+02  0.40000013577E+02 0.  0.
        -12    1    3    3    0    0 -0.32936921264E+02  0.16212668754E+02 -0.28439396827E+01  0.36820909867E+02  0.00000000000E+00 0.  1.
         11    1    4    4    0    0 -0.32063423288E+01 -0.22801847524E+01  0.99835102852E+01  0.10730813180E+02  0.51100000000E-03 0.  1.
        -11    1    4    4    0    0  0.15897311618E+02 -0.16391801468E+01 -0.11319630420E+02  0.19584316719E+02  0.51100000000E-03 0. -1.
         12    1    4    4    0    0  0.20245951975E+02 -0.12293303855E+02  0.41800598176E+01  0.24051960234E+02  0.00000000000E+00 0. -1.
</event>
<event>
 8    1  0.1290800E-006  0.9118800E+02  0.7816164E-02  0.1184000E+00
        -11   -1    0    0    0    0  0.00000000000E+00  0.00000000000E+00  0.45593999997E+02  0.45594000000E+02  0.51100000000E-03 0. -1.
         11   -1    0    0    0    0 -0.00000000000E+00 -0.00000000000E+00 -0.45593999997E+02  0.45594000000E+02  0.51100000000E-03 0.  1.
         23    2    1    2    0    0  0.00000000000E+00 -0.17763568394E-14  0.00000000000E+00  0.91188000000E+02  0.91188000000E+02 0.  0.
    9900012    2    3    3    0    0 -0.28763079335E+02 -0.54995613543E+01  0.22320839884E+02  0.54367084733E+02  0.40000001266E+02 0.  0.
        -12    1    3    3    0    0  0.28763079335E+02  0.54995613543E+01 -0.22320839884E+02  0.36820915267E+02  0.00000000000E+00 0.  1.
         11    1    4    4    0    0 -0.14531367324E+02  0.99541639674E+01  0.46708684530E+01  0.18222596658E+02  0.51100000000E-03 0. -1.
        -11    1    4    4    0    0 -0.12058259678E+01 -0.17807895274E+02  0.13127210294E+02  0.22156236159E+02  0.51100000000E-03 0.  1.
        -12    1    4    4    0    0 -0.13025886044E+02  0.23541699519E+01  0.45227611369E+01  0.13988251917E+02  0.00000000000E+00 0.  1.
</event>
<event>
 8    1  0.1290800E-006  0.9118800E+02  0.7816164E-02  0.1184000E+00
        -11   -1    0    0    0    0  0.00000000000E+00  0.00000000000E+00  0.45593999997E+02  0.45594000000E+02  0.51100000000E-03 0.  1.
         11   -1    0    0    0    0 -0.00000000000E+00 -0.00000000000E+00 -0.45593999997E+02  0.45594000000E+02  0.51100000000E-03 0. -1.
         23    2    1    2    0    0  0.00000000000E+00 -0.35527136788E-14  0.00000000000E+00  0.91188000000E+02  0.91188000000E+02 0.  0.
    9900012    2    3    3    0    0  0.30361357868E+02 -0.82454654491E+01  0.19130612809E+02  0.54367080694E+02  0.39999992058E+02 0.  0.
        -12    1    3    3    0    0 -0.30361357868E+02  0.82454654491E+01 -0.19130612809E+02  0.36820919306E+02  0.00000000000E+00 0.  1.
         11    1    4    4    0    0  0.15095677844E+02 -0.10165665316E+02 -0.11355984578E+01  0.18234851932E+02  0.51100000000E-03 0. -1.
        -11    1    4    4    0    0 -0.16175334532E+01  0.93199857969E+01  0.13524858345E+02  0.16504555227E+02  0.51100000000E-03 0.  1.
        -12    1    4    4    0    0  0.16883213478E+02 -0.73997859300E+01  0.67413529223E+01  0.19627673534E+02  0.00000000000E+00 0.  1.
</event>
<event>
 8    1  0.1290800E-006  0.9118800E+02  0.7816164E-02  0.1184000E+00
        -11   -1    0    0    0    0  0.00000000000E+00  0.00000000000E+00  0.45593999997E+02  0.45594000000E+02  0.51100000000E-03 0.  1.
         11   -1    0    0    0    0 -0.00000000000E+00 -0.00000000000E+00 -0.45593999997E+02  0.45594000000E+02  0.51100000000E-03 0. -1.
         23    2    1    2    0    0  0.00000000000E+00  0.44408920985E-15 -0.17763568394E-14  0.91188000000E+02  0.91188000000E+02 0.  0.
    9900012    2    3    3    0    0  0.34576004560E+02  0.24132350463E+01  0.12428153105E+02  0.54367044223E+02  0.39999908915E+02 0.  0.
         12    1    3    3    0    0 -0.34576004560E+02 -0.24132350463E+01 -0.12428153105E+02  0.36820955777E+02  0.00000000000E+00 0. -1.
         11    1    4    4    0    0  0.11936693967E+02 -0.84242057707E+01  0.99743999806E+00  0.14644001930E+02  0.51100000000E-03 0.  1.
        -11    1    4    4    0    0 -0.13381157441E+01  0.13709147888E+02  0.56767949420E+01  0.14898231124E+02  0.51100000000E-03 0. -1.
        -12    1    4    4    0    0  0.23977426338E+02 -0.28717070712E+01  0.57539181649E+01  0.24824811168E+02  0.00000000000E+00 0.  1.
</event>
<event>
 8    1  0.1290800E-006  0.9118800E+02  0.7816164E-02  0.1184000E+00
        -11   -1    0    0    0    0  0.00000000000E+00  0.00000000000E+00  0.45593999997E+02  0.45594000000E+02  0.51100000000E-03 0. -1.
         11   -1    0    0    0    0 -0.00000000000E+00 -0.00000000000E+00 -0.45593999997E+02  0.45594000000E+02  0.51100000000E-03 0.  1.
         23    2    1    2    0    0  0.71054273576E-14  0.00000000000E+00  0.88817841970E-15  0.91188000000E+02  0.91188000000E+02 0.  0.
    9900012    2    3    3    0    0 -0.33353836821E+02  0.15055469177E+02 -0.40786372779E+01  0.54367070288E+02  0.39999968336E+02 0.  0.
        -12    1    3    3    0    0  0.33353836821E+02 -0.15055469177E+02  0.40786372779E+01  0.36820929712E+02  0.00000000000E+00 0.  1.
         11    1    4    4    0    0 -0.26171846095E+02  0.93018976510E+01 -0.92331007895E+01  0.29270137998E+02  0.51100000000E-03 0. -1.
        -11    1    4    4    0    0 -0.60717934074E+01  0.22364817568E+01 -0.86533475574E+01  0.10805042806E+02  0.51100000000E-03 0.  1.
        -12    1    4    4    0    0 -0.11101973179E+01  0.35170897689E+01  0.13807811069E+02  0.14291889485E+02  0.00000000000E+00 0.  1.
</event>
<event>
 8    1  0.1290800E-006  0.9118800E+02  0.7816164E-02  0.1184000E+00
        -11   -1    0    0    0    0  0.00000000000E+00  0.00000000000E+00  0.45593999997E+02  0.45594000000E+02  0.51100000000E-03 0. -1.
         11   -1    0    0    0    0 -0.00000000000E+00 -0.00000000000E+00 -0.45593999997E+02  0.45594000000E+02  0.51100000000E-03 0.  1.
         23    2    1    2    0    0  0.00000000000E+00  0.00000000000E+00 -0.17763568394E-14  0.91188000000E+02  0.91188000000E+02 0.  0.
    9900012    2    3    3    0    0  0.12566866744E+02  0.33469456713E+02  0.88117620103E+01  0.54367111605E+02  0.40000062527E+02 0.  0.
        -12    1    3    3    0    0 -0.12566866744E+02 -0.33469456713E+02 -0.88117620103E+01  0.36820888395E+02  0.00000000000E+00 0.  1.
         11    1    4    4    0    0  0.15315633062E+01  0.24361096113E+02  0.16794699647E+02  0.29628881627E+02  0.51100000000E-03 0. -1.
        -11    1    4    4    0    0 -0.25323698407E+01 -0.26730396260E+01  0.19918585989E+01  0.41863514892E+01  0.51100000000E-03 0.  1.
         12    1    4    4    0    0  0.13567673278E+02  0.11781400226E+02 -0.99747962357E+01  0.20551878489E+02  0.00000000000E+00 0. -1.
</event>
<event>
 8    1  0.1290800E-006  0.9118800E+02  0.7816164E-02  0.1184000E+00
        -11   -1    0    0    0    0  0.00000000000E+00  0.00000000000E+00  0.45593999997E+02  0.45594000000E+02  0.51100000000E-03 0.  1.
         11   -1    0    0    0    0 -0.00000000000E+00 -0.00000000000E+00 -0.45593999997E+02  0.45594000000E+02  0.51100000000E-03 0. -1.
         23    2    1    2    0    0  0.35527136788E-14  0.17763568394E-14 -0.35527136788E-14  0.91188000000E+02  0.91188000000E+02 0.  0.
    9900012    2    3    3    0    0 -0.20221421189E+02 -0.92968675235E+01 -0.29333312034E+02  0.54367070958E+02  0.39999969863E+02 0.  0.
        -12    1    3    3    0    0  0.20221421189E+02  0.92968675235E+01  0.29333312034E+02  0.36820929042E+02  0.00000000000E+00 0.  1.
         11    1    4    4    0    0 -0.77594044028E+01 -0.16440431317E+02 -0.16135769223E+02  0.24307595259E+02  0.51100000000E-03 0. -1.
        -11    1    4    4    0    0 -0.12401218064E+02  0.56587675569E+01  0.28643581749E+01  0.13928977269E+02  0.51100000000E-03 0.  1.
        -12    1    4    4    0    0 -0.60798721759E-01  0.14847962371E+01 -0.16061900986E+02  0.16130498431E+02  0.00000000000E+00 0.  1.
</event>
<event>
 8    1  0.1290800E-006  0.9118800E+02  0.7816164E-02  0.1184000E+00
        -11   -1    0    0    0    0  0.00000000000E+00  0.00000000000E+00  0.45593999997E+02  0.45594000000E+02  0.51100000000E-03 0. -1.
         11   -1    0    0    0    0 -0.00000000000E+00 -0.00000000000E+00 -0.45593999997E+02  0.45594000000E+02  0.51100000000E-03 0.  1.
         23    2    1    2    0    0  0.00000000000E+00  0.17763568394E-14 -0.71054273576E-14  0.91188000000E+02  0.91188000000E+02 0.  0.
    9900012    2    3    3    0    0  0.14792264273E+02 -0.67889752314E+01  0.33028456148E+02  0.54367079553E+02  0.39999989457E+02 0.  0.
        -12    1    3    3    0    0 -0.14792264273E+02  0.67889752314E+01 -0.33028456148E+02  0.36820920447E+02  0.00000000000E+00 0.  1.
         11    1    4    4    0    0 -0.53252581689E+01  0.20775675035E+01  0.11909696519E+02  0.13210432723E+02  0.51100000000E-03 0. -1.
        -11    1    4    4    0    0 -0.12042968862E+01  0.33765218763E+01 -0.44300786650E+01  0.56988444628E+01  0.51100000000E-03 0.  1.
         12    1    4    4    0    0  0.21321819328E+02 -0.12243064611E+02  0.25548838294E+02  0.35457802367E+02  0.00000000000E+00 0. -1.
</event>
<event>
 8    1  0.1290800E-006  0.9118800E+02  0.7816164E-02  0.1184000E+00
        -11   -1    0    0    0    0  0.00000000000E+00  0.00000000000E+00  0.45593999997E+02  0.45594000000E+02  0.51100000000E-03 0.  1.
         11   -1    0    0    0    0 -0.00000000000E+00 -0.00000000000E+00 -0.45593999997E+02  0.45594000000E+02  0.51100000000E-03 0. -1.
         23    2    1    2    0    0 -0.44408920985E-15  0.00000000000E+00 -0.35527136788E-14  0.91188000000E+02  0.91188000000E+02 0.  0.
    9900012    2    3    3    0    0  0.19329534818E+01  0.31083572160E+02  0.19643208563E+02  0.54367076464E+02  0.39999982415E+02 0.  0.
         12    1    3    3    0    0 -0.19329534818E+01 -0.31083572160E+02 -0.19643208563E+02  0.36820923536E+02  0.00000000000E+00 0. -1.
         11    1    4    4    0    0  0.83989745090E+01  0.20138427703E+02  0.26807493623E+02  0.34565022172E+02  0.51100000000E-03 0.  1.
        -11    1    4    4    0    0  0.13808187283E+01 -0.21081716192E+01 -0.31832277711E+01  0.40600476894E+01  0.51100000000E-03 0. -1.
        -12    1    4    4    0    0 -0.78468397554E+01  0.13053316076E+02 -0.39810572891E+01  0.15742006603E+02  0.00000000000E+00 0.  1.
</event>
<event>
 8    1  0.1290800E-006  0.9118800E+02  0.7816164E-02  0.1184000E+00
        -11   -1    0    0    0    0  0.00000000000E+00  0.00000000000E+00  0.45593999997E+02  0.45594000000E+02  0.51100000000E-03 0.  1.
         11   -1    0    0    0    0 -0.00000000000E+00 -0.00000000000E+00 -0.45593999997E+02  0.45594000000E+02  0.51100000000E-03 0. -1.
         23    2    1    2    0    0  0.00000000000E+00 -0.35527136788E-14  0.17763568394E-14  0.91188000000E+02  0.91188000000E+02 0.  0.
    9900012    2    3    3    0    0  0.27953314220E+02 -0.20693749156E+02 -0.12089699426E+02  0.54367083903E+02  0.39999999374E+02 0.  0.
        -12    1    3    3    0    0 -0.27953314220E+02  0.20693749156E+02  0.12089699426E+02  0.36820916097E+02  0.00000000000E+00 0.  1.
         11    1    4    4    0    0 -0.70994988087E+01 -0.19148044492E+01 -0.46726924676E+01  0.87122565717E+01  0.51100000000E-03 0. -1.
        -11    1    4    4    0    0 -0.26416382998E+01 -0.21366050258E+01  0.11151790498E+01  0.35758856969E+01  0.51100000000E-03 0.  1.
         12    1    4    4    0    0  0.37694451329E+02 -0.16642339681E+02 -0.85321860080E+01  0.42078941635E+02  0.00000000000E+00 0. -1.
</event>
<event>
 8    1  0.1290800E-006  0.9118800E+02  0.7816164E-02  0.1184000E+00
        -11   -1    0    0    0    0  0.00000000000E+00  0.00000000000E+00  0.45593999997E+02  0.45594000000E+02  0.51100000000E-03 0. -1.
         11   -1    0    0    0    0 -0.00000000000E+00 -0.00000000000E+00 -0.45593999997E+02  0.45594000000E+02  0.51100000000E-03 0.  1.
         23    2    1    2    0    0  0.00000000000E+00 -0.66613381478E-15  0.00000000000E+00  0.91188000000E+02  0.91188000000E+02 0.  0.
    9900012    2    3    3    0    0  0.34710616064E+02 -0.13790116384E+01  0.12208704480E+02  0.54367068375E+02  0.39999963976E+02 0.  0.
        -12    1    3    3    0    0 -0.34710616064E+02  0.13790116384E+01 -0.12208704480E+02  0.36820931625E+02  0.00000000000E+00 0.  1.
         11    1    4    4    0    0  0.10480990967E+02 -0.22906454632E+01  0.11188957644E+02  0.15501322579E+02  0.51100000000E-03 0. -1.
        -11    1    4    4    0    0  0.11436730351E+02  0.12834294924E+02  0.92690461653E+01  0.19530313474E+02  0.51100000000E-03 0.  1.
        -12    1    4    4    0    0  0.12792894745E+02 -0.11922661100E+02 -0.82492993290E+01  0.19335432322E+02  0.00000000000E+00 0.  1.
</event>
<event>
 8    1  0.1290800E-006  0.9118800E+02  0.7816164E-02  0.1184000E+00
        -11   -1    0    0    0    0  0.00000000000E+00  0.00000000000E+00  0.45593999997E+02  0.45594000000E+02  0.51100000000E-03 0. -1.
         11   -1    0    0    0    0 -0.00000000000E+00 -0.00000000000E+00 -0.45593999997E+02  0.45594000000E+02  0.51100000000E-03 0.  1.
         23    2    1    2    0    0 -0.17763568394E-14 -0.35527136788E-14  0.00000000000E+00  0.91188000000E+02  0.91188000000E+02 0.  0.
    9900012    2    3    3    0    0  0.13025850580E+02  0.29349425114E+02 -0.18019944931E+02  0.54367082668E+02  0.39999996559E+02 0.  0.
         12    1    3    3    0    0 -0.13025850580E+02 -0.29349425114E+02  0.18019944931E+02  0.36820917332E+02  0.00000000000E+00 0. -1.
         11    1    4    4    0    0  0.38217270033E+00  0.45036083826E+00 -0.15519740936E+02  0.15530976783E+02  0.51100000000E-03 0.  1.
        -11    1    4    4    0    0 -0.56662359719E+01  0.14057179782E+02 -0.23874287008E+00  0.15158084705E+02  0.51100000000E-03 0. -1.
         12    1    4    4    0    0  0.18309913851E+02  0.14841884493E+02 -0.22614611246E+01  0.23678021179E+02  0.00000000000E+00 0. -1.
</event>
<event>
 8    1  0.1290800E-006  0.9118800E+02  0.7816164E-02  0.1184000E+00
        -11   -1    0    0    0    0  0.00000000000E+00  0.00000000000E+00  0.45593999997E+02  0.45594000000E+02  0.51100000000E-03 0. -1.
         11   -1    0    0    0    0 -0.00000000000E+00 -0.00000000000E+00 -0.45593999997E+02  0.45594000000E+02  0.51100000000E-03 0.  1.
         23    2    1    2    0    0  0.00000000000E+00  0.00000000000E+00  0.88817841970E-15  0.91188000000E+02  0.91188000000E+02 0.  0.
    9900012    2    3    3    0    0 -0.35270367676E+02  0.10540401635E+02  0.82514336245E+00  0.54367085235E+02  0.40000002409E+02 0.  0.
        -12    1    3    3    0    0  0.35270367676E+02 -0.10540401635E+02 -0.82514336245E+00  0.36820914765E+02  0.00000000000E+00 0.  1.
         11    1    4    4    0    0 -0.51068191112E+01  0.70919239284E+00 -0.19011127364E+01  0.54951601598E+01  0.51100000000E-03 0. -1.
        -11    1    4    4    0    0 -0.27730835930E+02  0.12181714167E+02 -0.12872637478E+02  0.32910457568E+02  0.51100000000E-03 0.  1.
        -12    1    4    4    0    0 -0.24327126346E+01 -0.23505049253E+01  0.15598893577E+02  0.15961467507E+02  0.00000000000E+00 0.  1.
</event>
<event>
 8    1  0.1290800E-006  0.9118800E+02  0.7816164E-02  0.1184000E+00
        -11   -1    0    0    0    0  0.00000000000E+00  0.00000000000E+00  0.45593999997E+02  0.45594000000E+02  0.51100000000E-03 0.  1.
         11   -1    0    0    0    0 -0.00000000000E+00 -0.00000000000E+00 -0.45593999997E+02  0.45594000000E+02  0.51100000000E-03 0. -1.
         23    2    1    2    0    0  0.00000000000E+00  0.35527136788E-14 -0.35527136788E-14  0.91188000000E+02  0.91188000000E+02 0.  0.
    9900012    2    3    3    0    0  0.11010503801E+02 -0.21270270334E+02  0.27966494951E+02  0.54367076140E+02  0.39999981677E+02 0.  0.
         12    1    3    3    0    0 -0.11010503801E+02  0.21270270334E+02 -0.27966494951E+02  0.36820923860E+02  0.00000000000E+00 0. -1.
         11    1    4    4    0    0 -0.13998963210E+02 -0.20878868522E+01  0.80273085205E+01  0.16271690902E+02  0.51100000000E-03 0. -1.
        -11    1    4    4    0    0  0.18489255885E+02 -0.16637426875E+02  0.18373394143E+02  0.30923100892E+02  0.51100000000E-03 0.  1.
         12    1    4    4    0    0  0.65202111259E+01 -0.25449566071E+01  0.15657922877E+01  0.71722843465E+01  0.00000000000E+00 0. -1.
</event>
<event>
 8    1  0.1290800E-006  0.9118800E+02  0.7816164E-02  0.1184000E+00
        -11   -1    0    0    0    0  0.00000000000E+00  0.00000000000E+00  0.45593999997E+02  0.45594000000E+02  0.51100000000E-03 0.  1.
         11   -1    0    0    0    0 -0.00000000000E+00 -0.00000000000E+00 -0.45593999997E+02  0.45594000000E+02  0.51100000000E-03 0. -1.
         23    2    1    2    0    0 -0.12212453271E-14  0.00000000000E+00 -0.71054273576E-14  0.91188000000E+02  0.91188000000E+02 0.  0.
    9900012    2    3    3    0    0 -0.91467368011E+00  0.73735023718E+01 -0.36063484434E+02  0.54367081018E+02  0.39999992796E+02 0.  0.
        -12    1    3    3    0    0  0.91467368011E+00 -0.73735023718E+01  0.36063484434E+02  0.36820918982E+02  0.00000000000E+00 0.  1.
         11    1    4    4    0    0 -0.32554169372E+01 -0.11651485227E+02 -0.88237089827E+01  0.14973733265E+02  0.51100000000E-03 0. -1.
        -11    1    4    4    0    0  0.10575642126E+02  0.51277682841E+01 -0.15363462828E+02  0.19343583026E+02  0.51100000000E-03 0.  1.
        -12    1    4    4    0    0 -0.82348988685E+01  0.13897219315E+02 -0.11876312623E+02  0.20049764726E+02  0.00000000000E+00 0.  1.
</event>
<event>
 8    1  0.1290800E-006  0.9118800E+02  0.7816164E-02  0.1184000E+00
        -11   -1    0    0    0    0  0.00000000000E+00  0.00000000000E+00  0.45593999997E+02  0.45594000000E+02  0.51100000000E-03 0.  1.
         11   -1    0    0    0    0 -0.00000000000E+00 -0.00000000000E+00 -0.45593999997E+02  0.45594000000E+02  0.51100000000E-03 0. -1.
         23    2    1    2    0    0  0.17763568394E-14 -0.71054273576E-14  0.26645352591E-14  0.91188000000E+02  0.91188000000E+02 0.  0.
    9900012    2    3    3    0    0 -0.14248744500E+02 -0.33467398907E+02 -0.57172691701E+01  0.54367072850E+02  0.39999974177E+02 0.  0.
        -12    1    3    3    0    0  0.14248744500E+02  0.33467398907E+02  0.57172691701E+01  0.36820927150E+02  0.00000000000E+00 0.  1.
         11    1    4    4    0    0 -0.89472044326E+01 -0.11686741352E+02  0.11890639266E+02  0.18921408325E+02  0.51100000000E-03 0.  1.
        -11    1    4    4    0    0  0.55636562879E+01 -0.11806141025E+02 -0.15941175623E+02  0.20602434752E+02  0.51100000000E-03 0. -1.
        -12    1    4    4    0    0 -0.10865196355E+02 -0.99745165289E+01 -0.16667328127E+01  0.14843229773E+02  0.00000000000E+00 0.  1.
</event>
<event>
 8    1  0.1290800E-006  0.9118800E+02  0.7816164E-02  0.1184000E+00
        -11   -1    0    0    0    0  0.00000000000E+00  0.00000000000E+00  0.45593999997E+02  0.45594000000E+02  0.51100000000E-03 0.  1.
         11   -1    0    0    0    0 -0.00000000000E+00 -0.00000000000E+00 -0.45593999997E+02  0.45594000000E+02  0.51100000000E-03 0. -1.
         23    2    1    2    0    0 -0.17763568394E-14  0.00000000000E+00  0.00000000000E+00  0.91188000000E+02  0.91188000000E+02 0.  0.
    9900012    2    3    3    0    0 -0.11434378049E+02 -0.12577603010E+02 -0.32662492748E+02  0.54367088396E+02  0.40000009616E+02 0.  0.
        -12    1    3    3    0    0  0.11434378049E+02  0.12577603010E+02  0.32662492748E+02  0.36820911604E+02  0.00000000000E+00 0.  1.
         11    1    4    4    0    0  0.50157502520E+01 -0.69931011496E+01 -0.32822165332E+01  0.92105461245E+01  0.51100000000E-03 0. -1.
        -11    1    4    4    0    0  0.66979438647E+01 -0.91770305007E+00  0.83123422221E+00  0.68114302093E+01  0.51100000000E-03 0.  1.
         12    1    4    4    0    0 -0.23148072166E+02 -0.46667988101E+01 -0.30211510437E+02  0.38345112062E+02  0.00000000000E+00 0. -1.
</event>
<event>
 8    1  0.1290800E-006  0.9118800E+02  0.7816164E-02  0.1184000E+00
        -11   -1    0    0    0    0  0.00000000000E+00  0.00000000000E+00  0.45593999997E+02  0.45594000000E+02  0.51100000000E-03 0. -1.
         11   -1    0    0    0    0 -0.00000000000E+00 -0.00000000000E+00 -0.45593999997E+02  0.45594000000E+02  0.51100000000E-03 0.  1.
         23    2    1    2    0    0 -0.17763568394E-14  0.88817841970E-15  0.00000000000E+00  0.91188000000E+02  0.91188000000E+02 0.  0.
    9900012    2    3    3    0    0 -0.10397916098E+02  0.65486964239E+01 -0.34709894973E+02  0.54367097063E+02  0.40000029375E+02 0.  0.
         12    1    3    3    0    0  0.10397916098E+02 -0.65486964239E+01  0.34709894973E+02  0.36820902937E+02  0.00000000000E+00 0. -1.
         11    1    4    4    0    0  0.98993809666E+01  0.16068035583E+02 -0.17596479488E+02  0.25803402909E+02  0.51100000000E-03 0. -1.
        -11    1    4    4    0    0 -0.68943290132E+01 -0.51349727229E+01 -0.82051792787E+01  0.11883799252E+02  0.51100000000E-03 0.  1.
         12    1    4    4    0    0 -0.13402968052E+02 -0.43843664364E+01 -0.89082362065E+01  0.16679894902E+02  0.00000000000E+00 0. -1.
</event>
<event>
 8    1  0.1290800E-006  0.9118800E+02  0.7816164E-02  0.1184000E+00
        -11   -1    0    0    0    0  0.00000000000E+00  0.00000000000E+00  0.45593999997E+02  0.45594000000E+02  0.51100000000E-03 0. -1.
         11   -1    0    0    0    0 -0.00000000000E+00 -0.00000000000E+00 -0.45593999997E+02  0.45594000000E+02  0.51100000000E-03 0.  1.
         23    2    1    2    0    0  0.35527136788E-14  0.00000000000E+00  0.00000000000E+00  0.91188000000E+02  0.91188000000E+02 0.  0.
    9900012    2    3    3    0    0  0.20236323782E+02 -0.21518285499E+02 -0.21982760146E+02  0.54366984877E+02  0.39999773623E+02 0.  0.
         12    1    3    3    0    0 -0.20236323782E+02  0.21518285499E+02  0.21982760146E+02  0.36821015123E+02  0.00000000000E+00 0. -1.
         11    1    4    4    0    0  0.34266757906E+01  0.70588783108E+00  0.15439362671E+01  0.38241501097E+01  0.51100000000E-03 0.  1.
        -11    1    4    4    0    0  0.10771836521E+02  0.82994823729E+01 -0.78536348043E+01  0.15703294227E+02  0.51100000000E-03 0. -1.
        -12    1    4    4    0    0  0.60378114711E+01 -0.30523655703E+02 -0.15673061609E+02  0.34839540540E+02  0.00000000000E+00 0.  1.
</event>
<event>
 8    1  0.1290800E-006  0.9118800E+02  0.7816164E-02  0.1184000E+00
        -11   -1    0    0    0    0  0.00000000000E+00  0.00000000000E+00  0.45593999997E+02  0.45594000000E+02  0.51100000000E-03 0. -1.
         11   -1    0    0    0    0 -0.00000000000E+00 -0.00000000000E+00 -0.45593999997E+02  0.45594000000E+02  0.51100000000E-03 0.  1.
         23    2    1    2    0    0  0.00000000000E+00  0.00000000000E+00  0.00000000000E+00  0.91188000000E+02  0.91188000000E+02 0.  0.
    9900012    2    3    3    0    0  0.47591119033E+01 -0.32525414305E+02  0.16589980400E+02  0.54367093282E+02  0.40000020756E+02 0.  0.
        -12    1    3    3    0    0 -0.47591119033E+01  0.32525414305E+02 -0.16589980400E+02  0.36820906718E+02  0.00000000000E+00 0.  1.
         11    1    4    4    0    0  0.10598114610E+02 -0.46706132527E+01  0.52064116639E+01  0.12698085845E+02  0.51100000000E-03 0. -1.
        -11    1    4    4    0    0 -0.83360990478E+00  0.10307649504E+01  0.12268212851E+02  0.12339628385E+02  0.51100000000E-03 0.  1.
        -12    1    4    4    0    0 -0.50053928023E+01 -0.28885566003E+02 -0.88464411467E+00  0.29329379053E+02  0.00000000000E+00 0.  1.
</event>
<event>
 8    1  0.1290800E-006  0.9118800E+02  0.7816164E-02  0.1184000E+00
        -11   -1    0    0    0    0  0.00000000000E+00  0.00000000000E+00  0.45593999997E+02  0.45594000000E+02  0.51100000000E-03 0. -1.
         11   -1    0    0    0    0 -0.00000000000E+00 -0.00000000000E+00 -0.45593999997E+02  0.45594000000E+02  0.51100000000E-03 0.  1.
         23    2    1    2    0    0  0.35527136788E-14  0.88817841970E-15  0.00000000000E+00  0.91188000000E+02  0.91188000000E+02 0.  0.
    9900012    2    3    3    0    0  0.29899935343E+02  0.77612161100E+01  0.20038238741E+02  0.54367168657E+02  0.40000192586E+02 0.  0.
        -12    1    3    3    0    0 -0.29899935343E+02 -0.77612161100E+01 -0.20038238741E+02  0.36820831343E+02  0.00000000000E+00 0.  1.
         11    1    4    4    0    0  0.35093290534E+01  0.19736854179E+01  0.11417158946E+02  0.12106293536E+02  0.51100000000E-03 0. -1.
        -11    1    4    4    0    0  0.79022716426E+01  0.76075934949E+01 -0.10794037678E+02  0.15389367289E+02  0.51100000000E-03 0.  1.
         12    1    4    4    0    0  0.18488334647E+02 -0.18200628028E+01  0.19415117473E+02  0.26871507831E+02  0.00000000000E+00 0. -1.
</event>
<event>
 8    1  0.1290800E-006  0.9118800E+02  0.7816164E-02  0.1184000E+00
        -11   -1    0    0    0    0  0.00000000000E+00  0.00000000000E+00  0.45593999997E+02  0.45594000000E+02  0.51100000000E-03 0. -1.
         11   -1    0    0    0    0 -0.00000000000E+00 -0.00000000000E+00 -0.45593999997E+02  0.45594000000E+02  0.51100000000E-03 0.  1.
         23    2    1    2    0    0  0.00000000000E+00 -0.35527136788E-14 -0.35527136788E-14  0.91188000000E+02  0.91188000000E+02 0.  0.
    9900012    2    3    3    0    0 -0.15753436701E+02  0.21361097018E+02 -0.25520750891E+02  0.54367136896E+02  0.40000120181E+02 0.  0.
         12    1    3    3    0    0  0.15753436701E+02 -0.21361097018E+02  0.25520750891E+02  0.36820863104E+02  0.00000000000E+00 0. -1.
         11    1    4    4    0    0 -0.65270108003E+01 -0.44505619957E+01 -0.36645614764E+01  0.87085235913E+01  0.51100000000E-03 0. -1.
        -11    1    4    4    0    0 -0.39798950289E+01  0.29650460174E+02 -0.89811573694E+01  0.31235405246E+02  0.51100000000E-03 0.  1.
        -12    1    4    4    0    0 -0.52465308720E+01 -0.38388011598E+01 -0.12875032045E+02  0.14423208058E+02  0.00000000000E+00 0.  1.
</event>
<event>
 8    1  0.1290800E-006  0.9118800E+02  0.7816164E-02  0.1184000E+00
        -11   -1    0    0    0    0  0.00000000000E+00  0.00000000000E+00  0.45593999997E+02  0.45594000000E+02  0.51100000000E-03 0. -1.
         11   -1    0    0    0    0 -0.00000000000E+00 -0.00000000000E+00 -0.45593999997E+02  0.45594000000E+02  0.51100000000E-03 0.  1.
         23    2    1    2    0    0 -0.17763568394E-14 -0.35527136788E-14  0.35527136788E-14  0.91188000000E+02  0.91188000000E+02 0.  0.
    9900012    2    3    3    0    0 -0.13123298563E+02 -0.17424930526E+02  0.29663602925E+02  0.54367102299E+02  0.40000041311E+02 0.  0.
        -12    1    3    3    0    0  0.13123298563E+02  0.17424930526E+02 -0.29663602925E+02  0.36820897701E+02  0.00000000000E+00 0.  1.
         11    1    4    4    0    0  0.39503038881E+01 -0.12065735073E+02  0.26797968642E+02  0.29653296398E+02  0.51100000000E-03 0. -1.
        -11    1    4    4    0    0  0.11554901195E+01 -0.35394594688E+00 -0.43234610584E+01  0.44891815439E+01  0.51100000000E-03 0.  1.
         12    1    4    4    0    0 -0.18229092570E+02 -0.50052495059E+01  0.71890953415E+01  0.20224624357E+02  0.00000000000E+00 0. -1.
</event>
<event>
 8    1  0.1290800E-006  0.9118800E+02  0.7816164E-02  0.1184000E+00
        -11   -1    0    0    0    0  0.00000000000E+00  0.00000000000E+00  0.45593999997E+02  0.45594000000E+02  0.51100000000E-03 0. -1.
         11   -1    0    0    0    0 -0.00000000000E+00 -0.00000000000E+00 -0.45593999997E+02  0.45594000000E+02  0.51100000000E-03 0.  1.
         23    2    1    2    0    0  0.17763568394E-14  0.00000000000E+00  0.00000000000E+00  0.91188000000E+02  0.91188000000E+02 0.  0.
    9900012    2    3    3    0    0 -0.59147875223E+01 -0.43629482622E+01  0.36079896892E+02  0.54367095765E+02  0.40000026416E+02 0.  0.
        -12    1    3    3    0    0  0.59147875223E+01  0.43629482622E+01 -0.36079896892E+02  0.36820904235E+02  0.00000000000E+00 0.  1.
         11    1    4    4    0    0  0.56233210623E+01 -0.42163235181E-01  0.19760932116E+02  0.20545509384E+02  0.51100000000E-03 0. -1.
        -11    1    4    4    0    0 -0.14615632279E+02 -0.12621275462E+02  0.15804741478E+02  0.24954020811E+02  0.51100000000E-03 0.  1.
         12    1    4    4    0    0  0.30775236941E+01  0.83004904347E+01  0.51422329826E+00  0.88675655703E+01  0.00000000000E+00 0. -1.
</event>
<event>
 8    1  0.1290800E-006  0.9118800E+02  0.7816164E-02  0.1184000E+00
        -11   -1    0    0    0    0  0.00000000000E+00  0.00000000000E+00  0.45593999997E+02  0.45594000000E+02  0.51100000000E-03 0. -1.
         11   -1    0    0    0    0 -0.00000000000E+00 -0.00000000000E+00 -0.45593999997E+02  0.45594000000E+02  0.51100000000E-03 0.  1.
         23    2    1    2    0    0 -0.17763568394E-14  0.35527136788E-14  0.00000000000E+00  0.91188000000E+02  0.91188000000E+02 0.  0.
    9900012    2    3    3    0    0  0.14758845229E+02 -0.20448167594E+02  0.26829636809E+02  0.54367075491E+02  0.39999980196E+02 0.  0.
        -12    1    3    3    0    0 -0.14758845229E+02  0.20448167594E+02 -0.26829636809E+02  0.36820924509E+02  0.00000000000E+00 0.  1.
         11    1    4    4    0    0  0.41649250009E+00 -0.18774442758E+02  0.10831261692E+02  0.21678777571E+02  0.51100000000E-03 0. -1.
        -11    1    4    4    0    0 -0.68245114893E+01  0.89290881909E+00  0.19471034750E+01  0.71527935403E+01  0.51100000000E-03 0.  1.
        -12    1    4    4    0    0  0.21166864218E+02 -0.25666336546E+01  0.14051271642E+02  0.25535504379E+02  0.00000000000E+00 0.  1.
</event>
<event>
 8    1  0.1290800E-006  0.9118800E+02  0.7816164E-02  0.1184000E+00
        -11   -1    0    0    0    0  0.00000000000E+00  0.00000000000E+00  0.45593999997E+02  0.45594000000E+02  0.51100000000E-03 0.  1.
         11   -1    0    0    0    0 -0.00000000000E+00 -0.00000000000E+00 -0.45593999997E+02  0.45594000000E+02  0.51100000000E-03 0. -1.
         23    2    1    2    0    0 -0.17763568394E-14  0.17763568394E-14 -0.35527136788E-14  0.91188000000E+02  0.91188000000E+02 0.  0.
    9900012    2    3    3    0    0 -0.15076625572E+02  0.11887170888E+02  0.31419263915E+02  0.54367087256E+02  0.40000007018E+02 0.  0.
         12    1    3    3    0    0  0.15076625572E+02 -0.11887170888E+02 -0.31419263915E+02  0.36820912744E+02  0.00000000000E+00 0. -1.
         11    1    4    4    0    0 -0.85149967706E+01 -0.92700485041E+01  0.80215495983E+01  0.14925958177E+02  0.51100000000E-03 0. -1.
        -11    1    4    4    0    0 -0.22423152894E+01  0.15309018204E+02  0.56917418867E+00  0.15482828415E+02  0.51100000000E-03 0.  1.
        -12    1    4    4    0    0 -0.43193135118E+01  0.58482011885E+01  0.22828540128E+02  0.23958300664E+02  0.00000000000E+00 0.  1.
</event>
<event>
 8    1  0.1290800E-006  0.9118800E+02  0.7816164E-02  0.1184000E+00
        -11   -1    0    0    0    0  0.00000000000E+00  0.00000000000E+00  0.45593999997E+02  0.45594000000E+02  0.51100000000E-03 0. -1.
         11   -1    0    0    0    0 -0.00000000000E+00 -0.00000000000E+00 -0.45593999997E+02  0.45594000000E+02  0.51100000000E-03 0.  1.
         23    2    1    2    0    0  0.00000000000E+00  0.88817841970E-15  0.35527136788E-14  0.91188000000E+02  0.91188000000E+02 0.  0.
    9900012    2    3    3    0    0  0.26471757160E+02  0.46084256990E+01  0.25175162174E+02  0.54367077890E+02  0.39999985665E+02 0.  0.
        -12    1    3    3    0    0 -0.26471757160E+02 -0.46084256990E+01 -0.25175162174E+02  0.36820922110E+02  0.00000000000E+00 0.  1.
         11    1    4    4    0    0  0.10031140090E+02 -0.32098590316E+01 -0.22894840018E+01  0.10778158645E+02  0.51100000000E-03 0. -1.
        -11    1    4    4    0    0  0.12699548242E+02  0.11222400550E+01 -0.22098576714E+01  0.12939142919E+02  0.51100000000E-03 0.  1.
         12    1    4    4    0    0  0.37410688278E+01  0.66960446755E+01  0.29674503847E+02  0.30649776326E+02  0.00000000000E+00 0. -1.
</event>
<event>
 8    1  0.1290800E-006  0.9118800E+02  0.7816164E-02  0.1184000E+00
        -11   -1    0    0    0    0  0.00000000000E+00  0.00000000000E+00  0.45593999997E+02  0.45594000000E+02  0.51100000000E-03 0.  1.
         11   -1    0    0    0    0 -0.00000000000E+00 -0.00000000000E+00 -0.45593999997E+02  0.45594000000E+02  0.51100000000E-03 0. -1.
         23    2    1    2    0    0  0.00000000000E+00 -0.71054273576E-14  0.17763568394E-14  0.91188000000E+02  0.91188000000E+02 0.  0.
    9900012    2    3    3    0    0  0.29575049678E+02  0.18229394449E+02 -0.12197798172E+02  0.54367072993E+02  0.39999974502E+02 0.  0.
        -12    1    3    3    0    0 -0.29575049678E+02 -0.18229394449E+02  0.12197798172E+02  0.36820927007E+02  0.00000000000E+00 0.  1.
         11    1    4    4    0    0  0.27491750306E+02  0.16385049549E+02 -0.15696888004E+02  0.35646296818E+02  0.51100000000E-03 0. -1.
        -11    1    4    4    0    0  0.42268116193E+01 -0.42235341833E+01 -0.51855681953E+01  0.79116556568E+01  0.51100000000E-03 0.  1.
        -12    1    4    4    0    0 -0.21435122466E+01  0.60678790826E+01  0.86846580275E+01  0.10809120518E+02  0.00000000000E+00 0.  1.
</event>
<event>
 8    1  0.1290800E-006  0.9118800E+02  0.7816164E-02  0.1184000E+00
        -11   -1    0    0    0    0  0.00000000000E+00  0.00000000000E+00  0.45593999997E+02  0.45594000000E+02  0.51100000000E-03 0.  1.
         11   -1    0    0    0    0 -0.00000000000E+00 -0.00000000000E+00 -0.45593999997E+02  0.45594000000E+02  0.51100000000E-03 0. -1.
         23    2    1    2    0    0  0.00000000000E+00  0.00000000000E+00  0.00000000000E+00  0.91188000000E+02  0.91188000000E+02 0.  0.
    9900012    2    3    3    0    0 -0.17545980778E+02  0.26336397647E+02  0.18823174243E+02  0.54367093288E+02  0.40000020769E+02 0.  0.
         12    1    3    3    0    0  0.17545980778E+02 -0.26336397647E+02 -0.18823174243E+02  0.36820906712E+02  0.00000000000E+00 0. -1.
         11    1    4    4    0    0  0.56547967501E+01  0.31967280696E+01  0.10351064286E+02  0.12220488074E+02  0.51100000000E-03 0. -1.
        -11    1    4    4    0    0 -0.10768054592E+02 -0.94684521219E+00  0.10363204088E+02  0.14974762595E+02  0.51100000000E-03 0.  1.
         12    1    4    4    0    0 -0.12432722936E+02  0.24086514789E+02 -0.18910941311E+01  0.27171842619E+02  0.00000000000E+00 0. -1.
</event>
<event>
 8    1  0.1290800E-006  0.9118800E+02  0.7816164E-02  0.1184000E+00
        -11   -1    0    0    0    0  0.00000000000E+00  0.00000000000E+00  0.45593999997E+02  0.45594000000E+02  0.51100000000E-03 0. -1.
         11   -1    0    0    0    0 -0.00000000000E+00 -0.00000000000E+00 -0.45593999997E+02  0.45594000000E+02  0.51100000000E-03 0.  1.
         23    2    1    2    0    0  0.00000000000E+00  0.00000000000E+00  0.00000000000E+00  0.91188000000E+02  0.91188000000E+02 0.  0.
    9900012    2    3    3    0    0  0.48327791435E+01 -0.35569284003E+02 -0.82007213785E+01  0.54367060986E+02  0.39999947130E+02 0.  0.
         12    1    3    3    0    0 -0.48327791435E+01  0.35569284003E+02  0.82007213785E+01  0.36820939014E+02  0.00000000000E+00 0. -1.
         11    1    4    4    0    0  0.22899758096E+01  0.37041506491E+01 -0.91025896546E+01  0.10090681836E+02  0.51100000000E-03 0. -1.
        -11    1    4    4    0    0  0.28819449838E+01 -0.29665364141E+02 -0.83303882821E+01  0.30947290765E+02  0.51100000000E-03 0.  1.
        -12    1    4    4    0    0 -0.33914164989E+00 -0.96080705113E+01  0.92322565582E+01  0.13329088385E+02  0.00000000000E+00 0.  1.
</event>
<event>
 8    1  0.1290800E-006  0.9118800E+02  0.7816164E-02  0.1184000E+00
        -11   -1    0    0    0    0  0.00000000000E+00  0.00000000000E+00  0.45593999997E+02  0.45594000000E+02  0.51100000000E-03 0. -1.
         11   -1    0    0    0    0 -0.00000000000E+00 -0.00000000000E+00 -0.45593999997E+02  0.45594000000E+02  0.51100000000E-03 0.  1.
         23    2    1    2    0    0  0.00000000000E+00  0.66613381478E-15 -0.44408920985E-15  0.91188000000E+02  0.91188000000E+02 0.  0.
    9900012    2    3    3    0    0 -0.36581673779E+02 -0.14362695466E+01  0.39366076496E+01  0.54367100955E+02  0.40000038247E+02 0.  0.
         12    1    3    3    0    0  0.36581673779E+02  0.14362695466E+01 -0.39366076496E+01  0.36820899045E+02  0.00000000000E+00 0. -1.
         11    1    4    4    0    0  0.16154998604E+01  0.34746053533E+00  0.51250106574E+01  0.53848215497E+01  0.51100000000E-03 0. -1.
        -11    1    4    4    0    0  0.26795132128E+01  0.66763424539E+01 -0.79172966234E+00  0.72374149901E+01  0.51100000000E-03 0.  1.
        -12    1    4    4    0    0 -0.40876686852E+02 -0.84600725358E+01 -0.39667334544E+00  0.41744864415E+02  0.00000000000E+00 0.  1.
</event>
<event>
 8    1  0.1290800E-006  0.9118800E+02  0.7816164E-02  0.1184000E+00
        -11   -1    0    0    0    0  0.00000000000E+00  0.00000000000E+00  0.45593999997E+02  0.45594000000E+02  0.51100000000E-03 0. -1.
         11   -1    0    0    0    0 -0.00000000000E+00 -0.00000000000E+00 -0.45593999997E+02  0.45594000000E+02  0.51100000000E-03 0.  1.
         23    2    1    2    0    0  0.00000000000E+00  0.17763568394E-14 -0.35527136788E-14  0.91188000000E+02  0.91188000000E+02 0.  0.
    9900012    2    3    3    0    0 -0.20263436198E+02  0.14359782166E+02 -0.27183994879E+02  0.54367085182E+02  0.40000002290E+02 0.  0.
         12    1    3    3    0    0  0.20263436198E+02 -0.14359782166E+02  0.27183994879E+02  0.36820914818E+02  0.00000000000E+00 0. -1.
         11    1    4    4    0    0  0.13227767274E+01  0.97021329243E+01 -0.33980021053E+01  0.10364725762E+02  0.51100000000E-03 0. -1.
        -11    1    4    4    0    0 -0.77988414740E+01  0.11832618672E+02 -0.24652639001E+02  0.28435636145E+02  0.51100000000E-03 0.  1.
        -12    1    4    4    0    0 -0.13787371451E+02 -0.71749694303E+01  0.86664622706E+00  0.15566723276E+02  0.00000000000E+00 0.  1.
</event>
<event>
 8    1  0.1290800E-006  0.9118800E+02  0.7816164E-02  0.1184000E+00
        -11   -1    0    0    0    0  0.00000000000E+00  0.00000000000E+00  0.45593999997E+02  0.45594000000E+02  0.51100000000E-03 0. -1.
         11   -1    0    0    0    0 -0.00000000000E+00 -0.00000000000E+00 -0.45593999997E+02  0.45594000000E+02  0.51100000000E-03 0.  1.
         23    2    1    2    0    0  0.35527136788E-14  0.00000000000E+00  0.00000000000E+00  0.91188000000E+02  0.91188000000E+02 0.  0.
    9900012    2    3    3    0    0  0.22748937227E+02  0.27745582922E+02  0.82733628809E+01  0.54367081353E+02  0.39999993560E+02 0.  0.
         12    1    3    3    0    0 -0.22748937227E+02 -0.27745582922E+02 -0.82733628809E+01  0.36820918647E+02  0.00000000000E+00 0. -1.
         11    1    4    4    0    0  0.90273179415E+01  0.30410301365E+01  0.88127522379E+01  0.12977092732E+02  0.51100000000E-03 0. -1.
        -11    1    4    4    0    0  0.21414186521E+02  0.13917266691E+02 -0.72359506873E+01  0.26544616763E+02  0.51100000000E-03 0.  1.
        -12    1    4    4    0    0 -0.76925672349E+01  0.10787286094E+02  0.66965613303E+01  0.14845371858E+02  0.00000000000E+00 0.  1.
</event>
<event>
 8    1  0.1290800E-006  0.9118800E+02  0.7816164E-02  0.1184000E+00
        -11   -1    0    0    0    0  0.00000000000E+00  0.00000000000E+00  0.45593999997E+02  0.45594000000E+02  0.51100000000E-03 0. -1.
         11   -1    0    0    0    0 -0.00000000000E+00 -0.00000000000E+00 -0.45593999997E+02  0.45594000000E+02  0.51100000000E-03 0.  1.
         23    2    1    2    0    0  0.35527136788E-14  0.00000000000E+00  0.00000000000E+00  0.91188000000E+02  0.91188000000E+02 0.  0.
    9900012    2    3    3    0    0 -0.15329070767E+02 -0.24799340961E+02 -0.22489861550E+02  0.54367060370E+02  0.39999945725E+02 0.  0.
         12    1    3    3    0    0  0.15329070767E+02  0.24799340961E+02  0.22489861550E+02  0.36820939630E+02  0.00000000000E+00 0. -1.
         11    1    4    4    0    0  0.12614078407E+01 -0.16748221055E+02  0.50248336168E+01  0.17531201082E+02  0.51100000000E-03 0. -1.
        -11    1    4    4    0    0 -0.89026708652E+01 -0.55559739836E+01 -0.26728908859E+02  0.28715169589E+02  0.51100000000E-03 0.  1.
         12    1    4    4    0    0 -0.76878077426E+01 -0.24951459227E+01 -0.78578630754E+00  0.81206896987E+01  0.00000000000E+00 0. -1.
</event>
<event>
 8    1  0.1290800E-006  0.9118800E+02  0.7816164E-02  0.1184000E+00
        -11   -1    0    0    0    0  0.00000000000E+00  0.00000000000E+00  0.45593999997E+02  0.45594000000E+02  0.51100000000E-03 0.  1.
         11   -1    0    0    0    0 -0.00000000000E+00 -0.00000000000E+00 -0.45593999997E+02  0.45594000000E+02  0.51100000000E-03 0. -1.
         23    2    1    2    0    0  0.00000000000E+00  0.44408920985E-15  0.00000000000E+00  0.91188000000E+02  0.91188000000E+02 0.  0.
    9900012    2    3    3    0    0 -0.32752562606E+02  0.38443272318E+01  0.16378959701E+02  0.54367088414E+02  0.40000009658E+02 0.  0.
        -12    1    3    3    0    0  0.32752562606E+02 -0.38443272318E+01 -0.16378959701E+02  0.36820911586E+02  0.00000000000E+00 0.  1.
         11    1    4    4    0    0 -0.23279125744E+02  0.14130154508E+02 -0.28584591916E+01  0.27381558594E+02  0.51100000000E-03 0. -1.
        -11    1    4    4    0    0 -0.10319074992E+02 -0.81159282667E+01  0.20494711566E+02  0.24338956484E+02  0.51100000000E-03 0.  1.
         12    1    4    4    0    0  0.84563813036E+00 -0.21698990093E+01 -0.12572926730E+01  0.26465733361E+01  0.00000000000E+00 0. -1.
</event>
<event>
 8    1  0.1290800E-006  0.9118800E+02  0.7816164E-02  0.1184000E+00
        -11   -1    0    0    0    0  0.00000000000E+00  0.00000000000E+00  0.45593999997E+02  0.45594000000E+02  0.51100000000E-03 0.  1.
         11   -1    0    0    0    0 -0.00000000000E+00 -0.00000000000E+00 -0.45593999997E+02  0.45594000000E+02  0.51100000000E-03 0. -1.
         23    2    1    2    0    0  0.35527136788E-14  0.35527136788E-14 -0.17763568394E-14  0.91188000000E+02  0.91188000000E+02 0.  0.
    9900012    2    3    3    0    0  0.26695377629E+02  0.21018825249E+02 -0.14189631485E+02  0.54367084160E+02  0.39999999960E+02 0.  0.
        -12    1    3    3    0    0 -0.26695377629E+02 -0.21018825249E+02  0.14189631485E+02  0.36820915840E+02  0.00000000000E+00 0.  1.
         11    1    4    4    0    0 -0.28759107683E+01  0.73505852006E+01  0.58977768842E+00  0.79151628866E+01  0.51100000000E-03 0. -1.
        -11    1    4    4    0    0  0.34495629273E+01  0.11448302123E+02  0.56418039359E+01  0.13220932562E+02  0.51100000000E-03 0.  1.
         12    1    4    4    0    0  0.26121725470E+02  0.22199379260E+01 -0.20421213109E+02  0.33230988712E+02  0.00000000000E+00 0. -1.
</event>
<event>
 8    1  0.1290800E-006  0.9118800E+02  0.7816164E-02  0.1184000E+00
        -11   -1    0    0    0    0  0.00000000000E+00  0.00000000000E+00  0.45593999997E+02  0.45594000000E+02  0.51100000000E-03 0.  1.
         11   -1    0    0    0    0 -0.00000000000E+00 -0.00000000000E+00 -0.45593999997E+02  0.45594000000E+02  0.51100000000E-03 0. -1.
         23    2    1    2    0    0 -0.88817841970E-15  0.00000000000E+00  0.00000000000E+00  0.91188000000E+02  0.91188000000E+02 0.  0.
    9900012    2    3    3    0    0  0.75563610263E+01  0.30417028699E+02 -0.19325776843E+02  0.54367083696E+02  0.39999998903E+02 0.  0.
        -12    1    3    3    0    0 -0.75563610263E+01 -0.30417028699E+02  0.19325776843E+02  0.36820916304E+02  0.00000000000E+00 0.  1.
         11    1    4    4    0    0  0.70791069941E+01  0.21334212145E+02 -0.14357060478E+02  0.26671849383E+02  0.51100000000E-03 0. -1.
        -11    1    4    4    0    0  0.42191076509E+01  0.15777673682E+02 -0.93935383427E+01  0.18840764821E+02  0.51100000000E-03 0.  1.
        -12    1    4    4    0    0 -0.37418536187E+01 -0.66948571273E+01  0.44248219778E+01  0.88544694925E+01  0.00000000000E+00 0.  1.
</event>
<event>
 8    1  0.1290800E-006  0.9118800E+02  0.7816164E-02  0.1184000E+00
        -11   -1    0    0    0    0  0.00000000000E+00  0.00000000000E+00  0.45593999997E+02  0.45594000000E+02  0.51100000000E-03 0.  1.
         11   -1    0    0    0    0 -0.00000000000E+00 -0.00000000000E+00 -0.45593999997E+02  0.45594000000E+02  0.51100000000E-03 0. -1.
         23    2    1    2    0    0  0.00000000000E+00  0.35527136788E-14 -0.35527136788E-14  0.91188000000E+02  0.91188000000E+02 0.  0.
    9900012    2    3    3    0    0 -0.19145983551E+02  0.24033201300E+02 -0.20288285566E+02  0.54367109434E+02  0.40000057577E+02 0.  0.
        -12    1    3    3    0    0  0.19145983551E+02 -0.24033201300E+02  0.20288285566E+02  0.36820890566E+02  0.00000000000E+00 0.  1.
         11    1    4    4    0    0 -0.47663343569E+01  0.22261145633E+02 -0.27690108933E+02  0.35847157224E+02  0.51100000000E-03 0. -1.
        -11    1    4    4    0    0 -0.15783217131E+01 -0.29086671192E+01  0.97083764622E+00  0.34487635229E+01  0.51100000000E-03 0.  1.
         12    1    4    4    0    0 -0.12801327481E+02  0.46807227868E+01  0.64309857211E+01  0.15071188687E+02  0.00000000000E+00 0. -1.
</event>
<event>
 8    1  0.1290800E-006  0.9118800E+02  0.7816164E-02  0.1184000E+00
        -11   -1    0    0    0    0  0.00000000000E+00  0.00000000000E+00  0.45593999997E+02  0.45594000000E+02  0.51100000000E-03 0. -1.
         11   -1    0    0    0    0 -0.00000000000E+00 -0.00000000000E+00 -0.45593999997E+02  0.45594000000E+02  0.51100000000E-03 0.  1.
         23    2    1    2    0    0  0.88817841970E-15  0.17763568394E-14 -0.71054273576E-14  0.91188000000E+02  0.91188000000E+02 0.  0.
    9900012    2    3    3    0    0  0.49981416455E+01  0.14356010776E+02  0.33536662444E+02  0.54367025092E+02  0.39999865301E+02 0.  0.
        -12    1    3    3    0    0 -0.49981416455E+01 -0.14356010776E+02 -0.33536662444E+02  0.36820974908E+02  0.00000000000E+00 0.  1.
         11    1    4    4    0    0  0.16407164479E+02 -0.22847261426E+01  0.72997241421E+01  0.18102513433E+02  0.51100000000E-03 0. -1.
        -11    1    4    4    0    0 -0.33607105197E+01  0.14744391063E+02  0.10259588513E+02  0.18274315301E+02  0.51100000000E-03 0.  1.
         12    1    4    4    0    0 -0.80483123135E+01  0.18963458560E+01  0.15977349789E+02  0.17990196358E+02  0.00000000000E+00 0. -1.
</event>
<event>
 8    1  0.1290800E-006  0.9118800E+02  0.7816164E-02  0.1184000E+00
        -11   -1    0    0    0    0  0.00000000000E+00  0.00000000000E+00  0.45593999997E+02  0.45594000000E+02  0.51100000000E-03 0.  1.
         11   -1    0    0    0    0 -0.00000000000E+00 -0.00000000000E+00 -0.45593999997E+02  0.45594000000E+02  0.51100000000E-03 0. -1.
         23    2    1    2    0    0  0.17763568394E-14  0.35527136788E-14  0.00000000000E+00  0.91188000000E+02  0.91188000000E+02 0.  0.
    9900012    2    3    3    0    0 -0.20032350612E+01 -0.16547869811E+02 -0.32831913032E+02  0.54367089374E+02  0.40000011846E+02 0.  0.
        -12    1    3    3    0    0  0.20032350612E+01  0.16547869811E+02  0.32831913032E+02  0.36820910626E+02  0.00000000000E+00 0.  1.
         11    1    4    4    0    0 -0.84234221197E+01 -0.24821405646E+02 -0.22824947618E+02  0.34756790020E+02  0.51100000000E-03 0. -1.
        -11    1    4    4    0    0  0.79377731387E+01  0.28982077153E+01 -0.11067861195E+02  0.13924991995E+02  0.51100000000E-03 0.  1.
        -12    1    4    4    0    0 -0.15175860802E+01  0.53753281202E+01  0.10608957809E+01  0.56853073592E+01  0.00000000000E+00 0.  1.
</event>
<event>
 8    1  0.1290800E-006  0.9118800E+02  0.7816164E-02  0.1184000E+00
        -11   -1    0    0    0    0  0.00000000000E+00  0.00000000000E+00  0.45593999997E+02  0.45594000000E+02  0.51100000000E-03 0.  1.
         11   -1    0    0    0    0 -0.00000000000E+00 -0.00000000000E+00 -0.45593999997E+02  0.45594000000E+02  0.51100000000E-03 0. -1.
         23    2    1    2    0    0  0.17763568394E-14  0.00000000000E+00  0.00000000000E+00  0.91188000000E+02  0.91188000000E+02 0.  0.
    9900012    2    3    3    0    0 -0.15811793826E+02 -0.10563853339E+02 -0.31530486809E+02  0.54367089911E+02  0.40000013070E+02 0.  0.
        -12    1    3    3    0    0  0.15811793826E+02  0.10563853339E+02  0.31530486809E+02  0.36820910089E+02  0.00000000000E+00 0.  1.
         11    1    4    4    0    0 -0.63939015721E+00 -0.47561337899E+01 -0.70032758398E+01  0.84897291564E+01  0.51100000000E-03 0. -1.
        -11    1    4    4    0    0 -0.19296625001E+02  0.63662217655E+01 -0.25934792746E+02  0.32946957235E+02  0.51100000000E-03 0.  1.
        -12    1    4    4    0    0  0.41242213314E+01 -0.12173941314E+02  0.14075817769E+01  0.12930403519E+02  0.00000000000E+00 0.  1.
</event>
<event>
 8    1  0.1290800E-006  0.9118800E+02  0.7816164E-02  0.1184000E+00
        -11   -1    0    0    0    0  0.00000000000E+00  0.00000000000E+00  0.45593999997E+02  0.45594000000E+02  0.51100000000E-03 0.  1.
         11   -1    0    0    0    0 -0.00000000000E+00 -0.00000000000E+00 -0.45593999997E+02  0.45594000000E+02  0.51100000000E-03 0. -1.
         23    2    1    2    0    0  0.00000000000E+00  0.00000000000E+00  0.00000000000E+00  0.91188000000E+02  0.91188000000E+02 0.  0.
    9900012    2    3    3    0    0  0.23277473914E+02 -0.19300355548E+02  0.21010376583E+02  0.54367076053E+02  0.39999981479E+02 0.  0.
         12    1    3    3    0    0 -0.23277473914E+02  0.19300355548E+02 -0.21010376583E+02  0.36820923947E+02  0.00000000000E+00 0. -1.
         11    1    4    4    0    0  0.75262015650E+01  0.14694383808E+01  0.12219103957E+02  0.14425999478E+02  0.51100000000E-03 0. -1.
        -11    1    4    4    0    0  0.18667512516E+02 -0.15433141881E+02  0.17096698385E+02  0.29647175039E+02  0.51100000000E-03 0.  1.
         12    1    4    4    0    0 -0.29162401664E+01 -0.53366520481E+01 -0.83054257600E+01  0.10293901537E+02  0.00000000000E+00 0. -1.
</event>
<event>
 8    1  0.1290800E-006  0.9118800E+02  0.7816164E-02  0.1184000E+00
        -11   -1    0    0    0    0  0.00000000000E+00  0.00000000000E+00  0.45593999997E+02  0.45594000000E+02  0.51100000000E-03 0. -1.
         11   -1    0    0    0    0 -0.00000000000E+00 -0.00000000000E+00 -0.45593999997E+02  0.45594000000E+02  0.51100000000E-03 0.  1.
         23    2    1    2    0    0  0.71054273576E-14  0.35527136788E-14  0.00000000000E+00  0.91188000000E+02  0.91188000000E+02 0.  0.
    9900012    2    3    3    0    0  0.28954196701E+02 -0.21831789111E+02  0.63881489021E+01  0.54367068877E+02  0.39999965119E+02 0.  0.
         12    1    3    3    0    0 -0.28954196701E+02  0.21831789111E+02 -0.63881489021E+01  0.36820931123E+02  0.00000000000E+00 0. -1.
         11    1    4    4    0    0  0.17738029584E+02 -0.12229352926E+02  0.41915711219E+01  0.21949123792E+02  0.51100000000E-03 0. -1.
        -11    1    4    4    0    0 -0.50664953081E+01  0.47321721211E+01  0.73677671824E+01  0.10116660576E+02  0.51100000000E-03 0.  1.
        -12    1    4    4    0    0  0.16282662425E+02 -0.14334608306E+02 -0.51711894022E+01  0.22301284509E+02  0.00000000000E+00 0.  1.
</event>
<event>
 8    1  0.1290800E-006  0.9118800E+02  0.7816164E-02  0.1184000E+00
        -11   -1    0    0    0    0  0.00000000000E+00  0.00000000000E+00  0.45593999997E+02  0.45594000000E+02  0.51100000000E-03 0. -1.
         11   -1    0    0    0    0 -0.00000000000E+00 -0.00000000000E+00 -0.45593999997E+02  0.45594000000E+02  0.51100000000E-03 0.  1.
         23    2    1    2    0    0 -0.88817841970E-15  0.00000000000E+00  0.00000000000E+00  0.91188000000E+02  0.91188000000E+02 0.  0.
    9900012    2    3    3    0    0 -0.70398795009E+00  0.31019508140E+02  0.19826119546E+02  0.54367075235E+02  0.39999979614E+02 0.  0.
        -12    1    3    3    0    0  0.70398795009E+00 -0.31019508140E+02 -0.19826119546E+02  0.36820924765E+02  0.00000000000E+00 0.  1.
         11    1    4    4    0    0 -0.57712045946E+01  0.36902076948E+02  0.18557457038E+02  0.41706705666E+02  0.51100000000E-03 0. -1.
        -11    1    4    4    0    0 -0.78693720660E+00 -0.51591355008E+01 -0.23678130160E+01  0.57308365901E+01  0.51100000000E-03 0.  1.
         12    1    4    4    0    0  0.58541538511E+01 -0.72343330746E+00  0.36364755242E+01  0.69295329785E+01  0.00000000000E+00 0. -1.
</event>
<event>
 8    1  0.1290800E-006  0.9118800E+02  0.7816164E-02  0.1184000E+00
        -11   -1    0    0    0    0  0.00000000000E+00  0.00000000000E+00  0.45593999997E+02  0.45594000000E+02  0.51100000000E-03 0.  1.
         11   -1    0    0    0    0 -0.00000000000E+00 -0.00000000000E+00 -0.45593999997E+02  0.45594000000E+02  0.51100000000E-03 0. -1.
         23    2    1    2    0    0  0.00000000000E+00  0.00000000000E+00  0.00000000000E+00  0.91188000000E+02  0.91188000000E+02 0.  0.
    9900012    2    3    3    0    0 -0.36166463268E+02 -0.65033992983E+01  0.23395069811E+01  0.54367074418E+02  0.39999977751E+02 0.  0.
         12    1    3    3    0    0  0.36166463268E+02  0.65033992983E+01 -0.23395069811E+01  0.36820925582E+02  0.00000000000E+00 0. -1.
         11    1    4    4    0    0 -0.33488266208E+02 -0.16560018740E+02  0.96419438443E+01  0.38583225314E+02  0.51100000000E-03 0. -1.
        -11    1    4    4    0    0 -0.67495324654E+00  0.34520126741E+01 -0.81052824962E+01  0.88355847566E+01  0.51100000000E-03 0.  1.
        -12    1    4    4    0    0 -0.20032438141E+01  0.66046067678E+01  0.80284563299E+00  0.69482643477E+01  0.00000000000E+00 0.  1.
</event>
<event>
 8    1  0.1290800E-006  0.9118800E+02  0.7816164E-02  0.1184000E+00
        -11   -1    0    0    0    0  0.00000000000E+00  0.00000000000E+00  0.45593999997E+02  0.45594000000E+02  0.51100000000E-03 0.  1.
         11   -1    0    0    0    0 -0.00000000000E+00 -0.00000000000E+00 -0.45593999997E+02  0.45594000000E+02  0.51100000000E-03 0. -1.
         23    2    1    2    0    0 -0.44408920985E-15 -0.35527136788E-14 -0.35527136788E-14  0.91188000000E+02  0.91188000000E+02 0.  0.
    9900012    2    3    3    0    0  0.34012288454E+01  0.24731886879E+02  0.27065575954E+02  0.54367082195E+02  0.39999995480E+02 0.  0.
         12    1    3    3    0    0 -0.34012288454E+01 -0.24731886879E+02 -0.27065575954E+02  0.36820917805E+02  0.00000000000E+00 0. -1.
         11    1    4    4    0    0  0.38692841315E+01 -0.52749463446E+01 -0.37742537036E+01  0.75525763756E+01  0.51100000000E-03 0. -1.
        -11    1    4    4    0    0  0.62708888867E+01  0.43194701216E+01  0.25924681167E+01  0.80438026305E+01  0.51100000000E-03 0.  1.
        -12    1    4    4    0    0 -0.67389441727E+01  0.25687363102E+02  0.28247361541E+02  0.38770703189E+02  0.00000000000E+00 0.  1.
</event>
<event>
 8    1  0.1290800E-006  0.9118800E+02  0.7816164E-02  0.1184000E+00
        -11   -1    0    0    0    0  0.00000000000E+00  0.00000000000E+00  0.45593999997E+02  0.45594000000E+02  0.51100000000E-03 0.  1.
         11   -1    0    0    0    0 -0.00000000000E+00 -0.00000000000E+00 -0.45593999997E+02  0.45594000000E+02  0.51100000000E-03 0. -1.
         23    2    1    2    0    0  0.88817841970E-15  0.00000000000E+00  0.00000000000E+00  0.91188000000E+02  0.91188000000E+02 0.  0.
    9900012    2    3    3    0    0 -0.60958003019E+01 -0.62580975582E+01  0.35769506034E+02  0.54367080291E+02  0.39999991138E+02 0.  0.
         12    1    3    3    0    0  0.60958003019E+01  0.62580975582E+01 -0.35769506034E+02  0.36820919709E+02  0.00000000000E+00 0. -1.
         11    1    4    4    0    0  0.13594384823E+02 -0.51307579514E+01  0.10477077625E+02  0.17913713509E+02  0.51100000000E-03 0. -1.
        -11    1    4    4    0    0 -0.68262838590E+01 -0.88291831371E+01  0.12362461380E+02  0.16654821459E+02  0.51100000000E-03 0.  1.
         12    1    4    4    0    0 -0.12863901266E+02  0.77018435302E+01  0.12929967029E+02  0.19798545323E+02  0.00000000000E+00 0. -1.
</event>
<event>
 8    1  0.1290800E-006  0.9118800E+02  0.7816164E-02  0.1184000E+00
        -11   -1    0    0    0    0  0.00000000000E+00  0.00000000000E+00  0.45593999997E+02  0.45594000000E+02  0.51100000000E-03 0. -1.
         11   -1    0    0    0    0 -0.00000000000E+00 -0.00000000000E+00 -0.45593999997E+02  0.45594000000E+02  0.51100000000E-03 0.  1.
         23    2    1    2    0    0  0.00000000000E+00  0.35527136788E-14 -0.53290705182E-14  0.91188000000E+02  0.91188000000E+02 0.  0.
    9900012    2    3    3    0    0 -0.26078781406E+02  0.20581802580E+02 -0.15876693510E+02  0.54367043550E+02  0.39999907381E+02 0.  0.
         12    1    3    3    0    0  0.26078781406E+02 -0.20581802580E+02  0.15876693510E+02  0.36820956450E+02  0.00000000000E+00 0. -1.
         11    1    4    4    0    0 -0.32016883494E+02  0.15208763400E+02 -0.23248009445E+02  0.42389353100E+02  0.51100000000E-03 0.  1.
        -11    1    4    4    0    0  0.63199151200E+01  0.32842302546E+01  0.45694926535E+01  0.84621367787E+01  0.51100000000E-03 0. -1.
        -12    1    4    4    0    0 -0.38181303201E+00  0.20888089247E+01  0.28018232815E+01  0.35155536713E+01  0.00000000000E+00 0.  1.
</event>
<event>
 8    1  0.1290800E-006  0.9118800E+02  0.7816164E-02  0.1184000E+00
        -11   -1    0    0    0    0  0.00000000000E+00  0.00000000000E+00  0.45593999997E+02  0.45594000000E+02  0.51100000000E-03 0. -1.
         11   -1    0    0    0    0 -0.00000000000E+00 -0.00000000000E+00 -0.45593999997E+02  0.45594000000E+02  0.51100000000E-03 0.  1.
         23    2    1    2    0    0  0.00000000000E+00  0.00000000000E+00 -0.22204460493E-14  0.91188000000E+02  0.91188000000E+02 0.  0.
    9900012    2    3    3    0    0 -0.36217732278E+02 -0.63429553138E+01 -0.19551477196E+01  0.54367084529E+02  0.40000000802E+02 0.  0.
        -12    1    3    3    0    0  0.36217732278E+02  0.63429553138E+01  0.19551477196E+01  0.36820915471E+02  0.00000000000E+00 0.  1.
         11    1    4    4    0    0 -0.79123980695E+00  0.65829981147E+01  0.51605473743E+01  0.84019744152E+01  0.51100000000E-03 0. -1.
        -11    1    4    4    0    0  0.18039064923E+00 -0.26177700337E+01  0.60763557433E+01  0.66187128746E+01  0.51100000000E-03 0.  1.
        -12    1    4    4    0    0 -0.35606883120E+02 -0.10308183395E+02 -0.13192050837E+02  0.39346397240E+02  0.00000000000E+00 0.  1.
</event>
<event>
 8    1  0.1290800E-006  0.9118800E+02  0.7816164E-02  0.1184000E+00
        -11   -1    0    0    0    0  0.00000000000E+00  0.00000000000E+00  0.45593999997E+02  0.45594000000E+02  0.51100000000E-03 0. -1.
         11   -1    0    0    0    0 -0.00000000000E+00 -0.00000000000E+00 -0.45593999997E+02  0.45594000000E+02  0.51100000000E-03 0.  1.
         23    2    1    2    0    0  0.17763568394E-14  0.21094237468E-14  0.00000000000E+00  0.91188000000E+02  0.91188000000E+02 0.  0.
    9900012    2    3    3    0    0  0.12977133098E+02  0.44089578118E+00  0.34455480464E+02  0.54367075153E+02  0.39999979427E+02 0.  0.
        -12    1    3    3    0    0 -0.12977133098E+02 -0.44089578118E+00 -0.34455480464E+02  0.36820924847E+02  0.00000000000E+00 0.  1.
         11    1    4    4    0    0 -0.43389520895E+01  0.16822614778E+02  0.10332200541E+02  0.20213392627E+02  0.51100000000E-03 0. -1.
        -11    1    4    4    0    0  0.12318569730E+02 -0.11399375412E+02  0.14246394100E+02  0.22014828300E+02  0.51100000000E-03 0.  1.
         12    1    4    4    0    0  0.49975154577E+01 -0.49823435854E+01  0.98768858238E+01  0.12138854226E+02  0.00000000000E+00 0. -1.
</event>
<event>
 8    1  0.1290800E-006  0.9118800E+02  0.7816164E-02  0.1184000E+00
        -11   -1    0    0    0    0  0.00000000000E+00  0.00000000000E+00  0.45593999997E+02  0.45594000000E+02  0.51100000000E-03 0.  1.
         11   -1    0    0    0    0 -0.00000000000E+00 -0.00000000000E+00 -0.45593999997E+02  0.45594000000E+02  0.51100000000E-03 0. -1.
         23    2    1    2    0    0  0.00000000000E+00  0.00000000000E+00  0.35527136788E-14  0.91188000000E+02  0.91188000000E+02 0.  0.
    9900012    2    3    3    0    0 -0.65507285075E+01 -0.24480071131E+02 -0.26713177981E+02  0.54367084688E+02  0.40000001163E+02 0.  0.
        -12    1    3    3    0    0  0.65507285075E+01  0.24480071131E+02  0.26713177981E+02  0.36820915312E+02  0.00000000000E+00 0.  1.
         11    1    4    4    0    0 -0.11692884486E+02 -0.38565317672E+01 -0.39279271917E+01  0.12923815117E+02  0.51100000000E-03 0. -1.
        -11    1    4    4    0    0  0.57260976064E+01 -0.24224426010E+01  0.51657639798E+01  0.80834113905E+01  0.51100000000E-03 0.  1.
         12    1    4    4    0    0 -0.58394162753E+00 -0.18201096763E+02 -0.27951014769E+02  0.33359858181E+02  0.00000000000E+00 0. -1.
</event>
<event>
 8    1  0.1290800E-006  0.9118800E+02  0.7816164E-02  0.1184000E+00
        -11   -1    0    0    0    0  0.00000000000E+00  0.00000000000E+00  0.45593999997E+02  0.45594000000E+02  0.51100000000E-03 0. -1.
         11   -1    0    0    0    0 -0.00000000000E+00 -0.00000000000E+00 -0.45593999997E+02  0.45594000000E+02  0.51100000000E-03 0.  1.
         23    2    1    2    0    0  0.00000000000E+00  0.00000000000E+00  0.00000000000E+00  0.91188000000E+02  0.91188000000E+02 0.  0.
    9900012    2    3    3    0    0  0.25997645851E+02  0.49841148672E+01  0.25594163664E+02  0.54367079256E+02  0.39999988779E+02 0.  0.
        -12    1    3    3    0    0 -0.25997645851E+02 -0.49841148672E+01 -0.25594163664E+02  0.36820920744E+02  0.00000000000E+00 0.  1.
         11    1    4    4    0    0  0.28016665161E+02 -0.59891756658E+01  0.95980166251E+01  0.30214659940E+02  0.51100000000E-03 0. -1.
        -11    1    4    4    0    0 -0.33730041288E+01  0.68389196241E+01  0.52263165082E-01  0.76256612944E+01  0.51100000000E-03 0.  1.
         12    1    4    4    0    0  0.13539848187E+01  0.41343709090E+01  0.15943883874E+02  0.16526758021E+02  0.00000000000E+00 0. -1.
</event>
<event>
 8    1  0.1290800E-006  0.9118800E+02  0.7816164E-02  0.1184000E+00
        -11   -1    0    0    0    0  0.00000000000E+00  0.00000000000E+00  0.45593999997E+02  0.45594000000E+02  0.51100000000E-03 0.  1.
         11   -1    0    0    0    0 -0.00000000000E+00 -0.00000000000E+00 -0.45593999997E+02  0.45594000000E+02  0.51100000000E-03 0. -1.
         23    2    1    2    0    0  0.44408920985E-15  0.00000000000E+00 -0.22204460493E-14  0.91188000000E+02  0.91188000000E+02 0.  0.
    9900012    2    3    3    0    0  0.24204227399E+01  0.36536159549E+02  0.38771202255E+01  0.54367062178E+02  0.39999949847E+02 0.  0.
         12    1    3    3    0    0 -0.24204227399E+01 -0.36536159549E+02 -0.38771202255E+01  0.36820937822E+02  0.00000000000E+00 0. -1.
         11    1    4    4    0    0  0.40018360010E+01  0.63072298098E+01 -0.73080613681E+01  0.10450052654E+02  0.51100000000E-03 0. -1.
        -11    1    4    4    0    0 -0.10716121753E+02  0.16162424937E+02  0.17376506673E+02  0.26038475948E+02  0.51100000000E-03 0.  1.
        -12    1    4    4    0    0  0.91347084915E+01  0.14066504803E+02 -0.61913250797E+01  0.17878533576E+02  0.00000000000E+00 0.  1.
</event>
<event>
 8    1  0.1290800E-006  0.9118800E+02  0.7816164E-02  0.1184000E+00
        -11   -1    0    0    0    0  0.00000000000E+00  0.00000000000E+00  0.45593999997E+02  0.45594000000E+02  0.51100000000E-03 0. -1.
         11   -1    0    0    0    0 -0.00000000000E+00 -0.00000000000E+00 -0.45593999997E+02  0.45594000000E+02  0.51100000000E-03 0.  1.
         23    2    1    2    0    0  0.35527136788E-14 -0.35527136788E-14  0.00000000000E+00  0.91188000000E+02  0.91188000000E+02 0.  0.
    9900012    2    3    3    0    0  0.28194294448E+02 -0.19630825667E+02  0.13247303691E+02  0.54367100896E+02  0.40000038112E+02 0.  0.
        -12    1    3    3    0    0 -0.28194294448E+02  0.19630825667E+02 -0.13247303691E+02  0.36820899104E+02  0.00000000000E+00 0.  1.
         11    1    4    4    0    0  0.15990632570E+02  0.85051381590E+00  0.39584134603E+01  0.16495233891E+02  0.51100000000E-03 0. -1.
        -11    1    4    4    0    0  0.62457293902E+01 -0.23004274505E+02 -0.29590226125E+01  0.24020024900E+02  0.51100000000E-03 0.  1.
         12    1    4    4    0    0  0.59579324875E+01  0.25229350224E+01  0.12247912844E+02  0.13851842104E+02  0.00000000000E+00 0. -1.
</event>
<event>
 8    1  0.1290800E-006  0.9118800E+02  0.7816164E-02  0.1184000E+00
        -11   -1    0    0    0    0  0.00000000000E+00  0.00000000000E+00  0.45593999997E+02  0.45594000000E+02  0.51100000000E-03 0.  1.
         11   -1    0    0    0    0 -0.00000000000E+00 -0.00000000000E+00 -0.45593999997E+02  0.45594000000E+02  0.51100000000E-03 0. -1.
         23    2    1    2    0    0 -0.35527136788E-14  0.00000000000E+00  0.35527136788E-14  0.91188000000E+02  0.91188000000E+02 0.  0.
    9900012    2    3    3    0    0 -0.18456014473E+02 -0.21008066906E+02  0.23954449968E+02  0.54367095358E+02  0.40000025489E+02 0.  0.
         12    1    3    3    0    0  0.18456014473E+02  0.21008066906E+02 -0.23954449968E+02  0.36820904642E+02  0.00000000000E+00 0. -1.
         11    1    4    4    0    0  0.20445425511E+01 -0.14258519924E+02  0.13253021222E+02  0.19573658740E+02  0.51100000000E-03 0. -1.
        -11    1    4    4    0    0 -0.11597693375E+02 -0.82087794969E+01  0.18180871768E+02  0.23074545519E+02  0.51100000000E-03 0.  1.
        -12    1    4    4    0    0 -0.89028636491E+01  0.14592325153E+01 -0.74794430214E+01  0.11718891099E+02  0.00000000000E+00 0.  1.
</event>
<event>
 8    1  0.1290800E-006  0.9118800E+02  0.7816164E-02  0.1184000E+00
        -11   -1    0    0    0    0  0.00000000000E+00  0.00000000000E+00  0.45593999997E+02  0.45594000000E+02  0.51100000000E-03 0.  1.
         11   -1    0    0    0    0 -0.00000000000E+00 -0.00000000000E+00 -0.45593999997E+02  0.45594000000E+02  0.51100000000E-03 0. -1.
         23    2    1    2    0    0  0.00000000000E+00  0.88817841970E-15 -0.88817841970E-15  0.91188000000E+02  0.91188000000E+02 0.  0.
    9900012    2    3    3    0    0 -0.35230158912E+02 -0.72366286083E+01  0.78896975657E+01  0.54367079068E+02  0.39999988352E+02 0.  0.
         12    1    3    3    0    0  0.35230158912E+02  0.72366286083E+01 -0.78896975657E+01  0.36820920932E+02  0.00000000000E+00 0. -1.
         11    1    4    4    0    0 -0.57210382923E+01  0.63803731574E+01  0.11858397845E+02  0.14630825011E+02  0.51100000000E-03 0. -1.
        -11    1    4    4    0    0 -0.93966580957E+00  0.43817453761E+01 -0.39441836879E+01  0.59698617739E+01  0.51100000000E-03 0.  1.
        -12    1    4    4    0    0 -0.28569454810E+02 -0.17998747142E+02 -0.24516591773E-01  0.33766392284E+02  0.00000000000E+00 0.  1.
</event>
<event>
 8    1  0.1290800E-006  0.9118800E+02  0.7816164E-02  0.1184000E+00
        -11   -1    0    0    0    0  0.00000000000E+00  0.00000000000E+00  0.45593999997E+02  0.45594000000E+02  0.51100000000E-03 0. -1.
         11   -1    0    0    0    0 -0.00000000000E+00 -0.00000000000E+00 -0.45593999997E+02  0.45594000000E+02  0.51100000000E-03 0.  1.
         23    2    1    2    0    0  0.00000000000E+00  0.35527136788E-14  0.00000000000E+00  0.91188000000E+02  0.91188000000E+02 0.  0.
    9900012    2    3    3    0    0  0.17847115868E+02 -0.31259347613E+02  0.77533343096E+01  0.54367074551E+02  0.39999978055E+02 0.  0.
         12    1    3    3    0    0 -0.17847115868E+02  0.31259347613E+02 -0.77533343096E+01  0.36820925449E+02  0.00000000000E+00 0. -1.
         11    1    4    4    0    0 -0.11492513096E+02 -0.14973814721E+02  0.26195309329E+01  0.19056624233E+02  0.51100000000E-03 0. -1.
        -11    1    4    4    0    0  0.10718309963E+02 -0.54852706904E+01  0.66058873764E+01  0.13733466835E+02  0.51100000000E-03 0.  1.
         12    1    4    4    0    0  0.18621319001E+02 -0.10800262201E+02 -0.14720839997E+01  0.21576983484E+02  0.00000000000E+00 0. -1.
</event>
<event>
 8    1  0.1290800E-006  0.9118800E+02  0.7816164E-02  0.1184000E+00
        -11   -1    0    0    0    0  0.00000000000E+00  0.00000000000E+00  0.45593999997E+02  0.45594000000E+02  0.51100000000E-03 0.  1.
         11   -1    0    0    0    0 -0.00000000000E+00 -0.00000000000E+00 -0.45593999997E+02  0.45594000000E+02  0.51100000000E-03 0. -1.
         23    2    1    2    0    0 -0.88817841970E-15 -0.44408920985E-15 -0.71054273576E-14  0.91188000000E+02  0.91188000000E+02 0.  0.
    9900012    2    3    3    0    0 -0.57617173127E+01 -0.38042356950E+01 -0.36167809797E+02  0.54367081202E+02  0.39999993216E+02 0.  0.
        -12    1    3    3    0    0  0.57617173127E+01  0.38042356950E+01  0.36167809797E+02  0.36820918798E+02  0.00000000000E+00 0.  1.
         11    1    4    4    0    0  0.61683192791E+01 -0.49359932380E+00  0.42341787679E+01  0.74980046093E+01  0.51100000000E-03 0.  1.
        -11    1    4    4    0    0  0.14290949790E+01 -0.62863226307E+01 -0.31354844674E+01  0.71687814713E+01  0.51100000000E-03 0. -1.
         12    1    4    4    0    0 -0.13359131571E+02  0.29756862595E+01 -0.37266504098E+02  0.39700295121E+02  0.00000000000E+00 0. -1.
</event>
<event>
 8    1  0.1290800E-006  0.9118800E+02  0.7816164E-02  0.1184000E+00
        -11   -1    0    0    0    0  0.00000000000E+00  0.00000000000E+00  0.45593999997E+02  0.45594000000E+02  0.51100000000E-03 0.  1.
         11   -1    0    0    0    0 -0.00000000000E+00 -0.00000000000E+00 -0.45593999997E+02  0.45594000000E+02  0.51100000000E-03 0. -1.
         23    2    1    2    0    0  0.71054273576E-14 -0.35527136788E-14 -0.17763568394E-14  0.91188000000E+02  0.91188000000E+02 0.  0.
    9900012    2    3    3    0    0  0.32926165173E+02 -0.11385232265E+02 -0.11917465448E+02  0.54367056918E+02  0.39999937855E+02 0.  0.
        -12    1    3    3    0    0 -0.32926165173E+02  0.11385232265E+02  0.11917465448E+02  0.36820943082E+02  0.00000000000E+00 0.  1.
         11    1    4    4    0    0  0.22399506572E+02  0.83813814159E+01 -0.82710831686E+01  0.25306051967E+02  0.51100000000E-03 0. -1.
        -11    1    4    4    0    0  0.15483229073E+02 -0.13417125877E+02 -0.44515514530E+01  0.20965828386E+02  0.51100000000E-03 0.  1.
         12    1    4    4    0    0 -0.49565704715E+01 -0.63494878044E+01  0.80516917313E+00  0.80951765647E+01  0.00000000000E+00 0. -1.
</event>
<event>
 8    1  0.1290800E-006  0.9118800E+02  0.7816164E-02  0.1184000E+00
        -11   -1    0    0    0    0  0.00000000000E+00  0.00000000000E+00  0.45593999997E+02  0.45594000000E+02  0.51100000000E-03 0.  1.
         11   -1    0    0    0    0 -0.00000000000E+00 -0.00000000000E+00 -0.45593999997E+02  0.45594000000E+02  0.51100000000E-03 0. -1.
         23    2    1    2    0    0  0.35527136788E-14  0.00000000000E+00  0.35527136788E-14  0.91188000000E+02  0.91188000000E+02 0.  0.
    9900012    2    3    3    0    0 -0.22600738376E+02 -0.21691107351E+02 -0.19351490846E+02  0.54367113112E+02  0.40000065961E+02 0.  0.
        -12    1    3    3    0    0  0.22600738376E+02  0.21691107351E+02  0.19351490846E+02  0.36820886888E+02  0.00000000000E+00 0.  1.
         11    1    4    4    0    0 -0.80243941845E+01 -0.11741265110E+02 -0.16571292353E+02  0.21837031367E+02  0.51100000000E-03 0. -1.
        -11    1    4    4    0    0 -0.17466907208E+02 -0.16283933590E+02 -0.63441571923E+01  0.24708453438E+02  0.51100000000E-03 0.  1.
        -12    1    4    4    0    0  0.28905630163E+01  0.63340913484E+01  0.35639586994E+01  0.78216283069E+01  0.00000000000E+00 0.  1.
</event>
<event>
 8    1  0.1290800E-006  0.9118800E+02  0.7816164E-02  0.1184000E+00
        -11   -1    0    0    0    0  0.00000000000E+00  0.00000000000E+00  0.45593999997E+02  0.45594000000E+02  0.51100000000E-03 0. -1.
         11   -1    0    0    0    0 -0.00000000000E+00 -0.00000000000E+00 -0.45593999997E+02  0.45594000000E+02  0.51100000000E-03 0.  1.
         23    2    1    2    0    0  0.35527136788E-14  0.00000000000E+00 -0.35527136788E-14  0.91188000000E+02  0.91188000000E+02 0.  0.
    9900012    2    3    3    0    0 -0.21897427695E+02  0.13721705040E+02  0.26229679126E+02  0.54367101099E+02  0.40000038575E+02 0.  0.
        -12    1    3    3    0    0  0.21897427695E+02 -0.13721705040E+02 -0.26229679126E+02  0.36820898901E+02  0.00000000000E+00 0.  1.
         11    1    4    4    0    0  0.50630403501E+01  0.79010142477E+01  0.15545796573E+02  0.18158529541E+02  0.51100000000E-03 0. -1.
        -11    1    4    4    0    0 -0.18081083018E+02  0.10596988394E+02  0.14438380693E+02  0.25449726196E+02  0.51100000000E-03 0.  1.
        -12    1    4    4    0    0 -0.88793850267E+01 -0.47762976025E+01 -0.37544981406E+01  0.10758845362E+02  0.00000000000E+00 0.  1.
</event>
<event>
 8    1  0.1290800E-006  0.9118800E+02  0.7816164E-02  0.1184000E+00
        -11   -1    0    0    0    0  0.00000000000E+00  0.00000000000E+00  0.45593999997E+02  0.45594000000E+02  0.51100000000E-03 0.  1.
         11   -1    0    0    0    0 -0.00000000000E+00 -0.00000000000E+00 -0.45593999997E+02  0.45594000000E+02  0.51100000000E-03 0. -1.
         23    2    1    2    0    0  0.00000000000E+00  0.88817841970E-15 -0.17763568394E-14  0.91188000000E+02  0.91188000000E+02 0.  0.
    9900012    2    3    3    0    0 -0.32533268389E+02  0.68627799812E+01 -0.15819901546E+02  0.54367074074E+02  0.39999976966E+02 0.  0.
         12    1    3    3    0    0  0.32533268389E+02 -0.68627799812E+01  0.15819901546E+02  0.36820925926E+02  0.00000000000E+00 0. -1.
         11    1    4    4    0    0 -0.31562390912E+00 -0.76781643514E-02 -0.56899883256E+00  0.65072063037E+00  0.51100000000E-03 0. -1.
        -11    1    4    4    0    0 -0.33918266093E+02 -0.45170155042E+01 -0.21701034629E+02  0.40518972199E+02  0.51100000000E-03 0.  1.
        -12    1    4    4    0    0  0.17006216127E+01  0.11387473650E+02  0.64501319156E+01  0.13197381245E+02  0.00000000000E+00 0.  1.
</event>
<event>
 8    1  0.1290800E-006  0.9118800E+02  0.7816164E-02  0.1184000E+00
        -11   -1    0    0    0    0  0.00000000000E+00  0.00000000000E+00  0.45593999997E+02  0.45594000000E+02  0.51100000000E-03 0. -1.
         11   -1    0    0    0    0 -0.00000000000E+00 -0.00000000000E+00 -0.45593999997E+02  0.45594000000E+02  0.51100000000E-03 0.  1.
         23    2    1    2    0    0  0.17763568394E-14  0.00000000000E+00  0.35527136788E-14  0.91188000000E+02  0.91188000000E+02 0.  0.
    9900012    2    3    3    0    0 -0.11127854458E+02  0.20076307518E+02 -0.28790483588E+02  0.54367092711E+02  0.40000019453E+02 0.  0.
         12    1    3    3    0    0  0.11127854458E+02 -0.20076307518E+02  0.28790483588E+02  0.36820907289E+02  0.00000000000E+00 0. -1.
         11    1    4    4    0    0 -0.60668227494E+01 -0.82895096187E+01 -0.77629479136E+00  0.10301696067E+02  0.51100000000E-03 0. -1.
        -11    1    4    4    0    0  0.61373042096E+01  0.85652678271E+01 -0.13321835004E+02  0.16985334970E+02  0.51100000000E-03 0.  1.
         12    1    4    4    0    0 -0.11198335918E+02  0.19800549309E+02 -0.14692353792E+02  0.27080061674E+02  0.00000000000E+00 0. -1.
</event>
<event>
 8    1  0.1290800E-006  0.9118800E+02  0.7816164E-02  0.1184000E+00
        -11   -1    0    0    0    0  0.00000000000E+00  0.00000000000E+00  0.45593999997E+02  0.45594000000E+02  0.51100000000E-03 0. -1.
         11   -1    0    0    0    0 -0.00000000000E+00 -0.00000000000E+00 -0.45593999997E+02  0.45594000000E+02  0.51100000000E-03 0.  1.
         23    2    1    2    0    0  0.00000000000E+00  0.00000000000E+00  0.88817841970E-15  0.91188000000E+02  0.91188000000E+02 0.  0.
    9900012    2    3    3    0    0  0.27147058511E+02 -0.24271730276E+02  0.54497671069E+01  0.54367086949E+02  0.40000006317E+02 0.  0.
        -12    1    3    3    0    0 -0.27147058511E+02  0.24271730276E+02 -0.54497671069E+01  0.36820913051E+02  0.00000000000E+00 0.  1.
         11    1    4    4    0    0  0.14348936358E+01 -0.70728010973E+01 -0.19584315283E+01  0.74778933812E+01  0.51100000000E-03 0. -1.
        -11    1    4    4    0    0  0.24286512642E+02 -0.35719207456E+01 -0.84226464399E+01  0.25952539133E+02  0.51100000000E-03 0.  1.
         12    1    4    4    0    0  0.14256522333E+01 -0.13627008433E+02  0.15830845075E+02  0.20936654435E+02  0.00000000000E+00 0. -1.
</event>
<event>
 8    1  0.1290800E-006  0.9118800E+02  0.7816164E-02  0.1184000E+00
        -11   -1    0    0    0    0  0.00000000000E+00  0.00000000000E+00  0.45593999997E+02  0.45594000000E+02  0.51100000000E-03 0. -1.
         11   -1    0    0    0    0 -0.00000000000E+00 -0.00000000000E+00 -0.45593999997E+02  0.45594000000E+02  0.51100000000E-03 0.  1.
         23    2    1    2    0    0 -0.71054273576E-14  0.22204460493E-15  0.17763568394E-14  0.91188000000E+02  0.91188000000E+02 0.  0.
    9900012    2    3    3    0    0 -0.33557981954E+02 -0.62904320711E+00 -0.15140782631E+02  0.54367120776E+02  0.40000083432E+02 0.  0.
         12    1    3    3    0    0  0.33557981954E+02  0.62904320711E+00  0.15140782631E+02  0.36820879224E+02  0.00000000000E+00 0. -1.
         11    1    4    4    0    0 -0.12062004207E+02  0.79088067481E+01  0.30204113078E+01  0.14736487180E+02  0.51100000000E-03 0. -1.
        -11    1    4    4    0    0 -0.18485459925E+02  0.15734600989E+01  0.86699228427E-01  0.18552507171E+02  0.51100000000E-03 0.  1.
        -12    1    4    4    0    0 -0.30105178226E+01 -0.10111310054E+02 -0.18247893167E+02  0.21078126425E+02  0.00000000000E+00 0.  1.
</event>
<event>
 8    1  0.1290800E-006  0.9118800E+02  0.7816164E-02  0.1184000E+00
        -11   -1    0    0    0    0  0.00000000000E+00  0.00000000000E+00  0.45593999997E+02  0.45594000000E+02  0.51100000000E-03 0.  1.
         11   -1    0    0    0    0 -0.00000000000E+00 -0.00000000000E+00 -0.45593999997E+02  0.45594000000E+02  0.51100000000E-03 0. -1.
         23    2    1    2    0    0  0.35527136788E-14  0.88817841970E-15  0.00000000000E+00  0.91188000000E+02  0.91188000000E+02 0.  0.
    9900012    2    3    3    0    0  0.16198713683E+02  0.60766585129E+01  0.32503168751E+02  0.54367080912E+02  0.39999992555E+02 0.  0.
         12    1    3    3    0    0 -0.16198713683E+02 -0.60766585129E+01 -0.32503168751E+02  0.36820919088E+02  0.00000000000E+00 0. -1.
         11    1    4    4    0    0 -0.18947354755E+01  0.11318762350E+02  0.27733599868E+00  0.11479604487E+02  0.51100000000E-03 0. -1.
        -11    1    4    4    0    0  0.43566068514E+01  0.49089472046E+01  0.17064397401E+00  0.65655849353E+01  0.51100000000E-03 0.  1.
         12    1    4    4    0    0  0.13736842307E+02 -0.10151051041E+02  0.32055188778E+02  0.36321891490E+02  0.00000000000E+00 0. -1.
</event>
<event>
 8    1  0.1290800E-006  0.9118800E+02  0.7816164E-02  0.1184000E+00
        -11   -1    0    0    0    0  0.00000000000E+00  0.00000000000E+00  0.45593999997E+02  0.45594000000E+02  0.51100000000E-03 0.  1.
         11   -1    0    0    0    0 -0.00000000000E+00 -0.00000000000E+00 -0.45593999997E+02  0.45594000000E+02  0.51100000000E-03 0. -1.
         23    2    1    2    0    0  0.17763568394E-14  0.88817841970E-15  0.00000000000E+00  0.91188000000E+02  0.91188000000E+02 0.  0.
    9900012    2    3    3    0    0 -0.10364770493E+02  0.69880173398E+01  0.34634067948E+02  0.54367088599E+02  0.40000010080E+02 0.  0.
         12    1    3    3    0    0  0.10364770493E+02 -0.69880173398E+01 -0.34634067948E+02  0.36820911401E+02  0.00000000000E+00 0. -1.
         11    1    4    4    0    0  0.28620567319E+01  0.80981282905E+01  0.54317325351E+01  0.10162419453E+02  0.51100000000E-03 0. -1.
        -11    1    4    4    0    0 -0.28090483971E+01  0.13530245688E+02  0.65541600461E+01  0.15294290289E+02  0.51100000000E-03 0.  1.
         12    1    4    4    0    0 -0.10417778828E+02 -0.14640356638E+02  0.22648175367E+02  0.28910378857E+02  0.00000000000E+00 0. -1.
</event>
<event>
 8    1  0.1290800E-006  0.9118800E+02  0.7816164E-02  0.1184000E+00
        -11   -1    0    0    0    0  0.00000000000E+00  0.00000000000E+00  0.45593999997E+02  0.45594000000E+02  0.51100000000E-03 0.  1.
         11   -1    0    0    0    0 -0.00000000000E+00 -0.00000000000E+00 -0.45593999997E+02  0.45594000000E+02  0.51100000000E-03 0. -1.
         23    2    1    2    0    0 -0.35527136788E-14  0.35527136788E-14  0.00000000000E+00  0.91188000000E+02  0.91188000000E+02 0.  0.
    9900012    2    3    3    0    0  0.14601597514E+02 -0.28610317055E+02 -0.18000515056E+02  0.54367144032E+02  0.40000136451E+02 0.  0.
        -12    1    3    3    0    0 -0.14601597514E+02  0.28610317055E+02  0.18000515056E+02  0.36820855968E+02  0.00000000000E+00 0.  1.
         11    1    4    4    0    0 -0.37468296789E+01 -0.11064222833E+02 -0.12311002903E+02  0.16971050417E+02  0.51100000000E-03 0. -1.
        -11    1    4    4    0    0  0.45957932847E+01  0.18180233871E+01 -0.11866959408E+02  0.12855008782E+02  0.51100000000E-03 0.  1.
        -12    1    4    4    0    0  0.13752633908E+02 -0.19364117609E+02  0.61774472549E+01  0.24541084833E+02  0.00000000000E+00 0.  1.
</event>
<event>
 8    1  0.1290800E-006  0.9118800E+02  0.7816164E-02  0.1184000E+00
        -11   -1    0    0    0    0  0.00000000000E+00  0.00000000000E+00  0.45593999997E+02  0.45594000000E+02  0.51100000000E-03 0. -1.
         11   -1    0    0    0    0 -0.00000000000E+00 -0.00000000000E+00 -0.45593999997E+02  0.45594000000E+02  0.51100000000E-03 0.  1.
         23    2    1    2    0    0  0.00000000000E+00  0.17763568394E-14 -0.35527136788E-14  0.91188000000E+02  0.91188000000E+02 0.  0.
    9900012    2    3    3    0    0 -0.20453230803E+02 -0.67959590470E+01  0.29853980158E+02  0.54367084192E+02  0.40000000032E+02 0.  0.
        -12    1    3    3    0    0  0.20453230803E+02  0.67959590470E+01 -0.29853980158E+02  0.36820915808E+02  0.00000000000E+00 0.  1.
         11    1    4    4    0    0 -0.11405356610E+02 -0.79323832554E+00  0.48674486720E+01  0.12425918207E+02  0.51100000000E-03 0.  1.
        -11    1    4    4    0    0 -0.19579490108E+02 -0.46400302667E+01  0.74830589461E+01  0.21468173775E+02  0.51100000000E-03 0. -1.
        -12    1    4    4    0    0  0.10531615915E+02 -0.13626904547E+01  0.17503472540E+02  0.20472992210E+02  0.00000000000E+00 0.  1.
</event>
<event>
 8    1  0.1290800E-006  0.9118800E+02  0.7816164E-02  0.1184000E+00
        -11   -1    0    0    0    0  0.00000000000E+00  0.00000000000E+00  0.45593999997E+02  0.45594000000E+02  0.51100000000E-03 0.  1.
         11   -1    0    0    0    0 -0.00000000000E+00 -0.00000000000E+00 -0.45593999997E+02  0.45594000000E+02  0.51100000000E-03 0. -1.
         23    2    1    2    0    0 -0.35527136788E-14  0.00000000000E+00  0.00000000000E+00  0.91188000000E+02  0.91188000000E+02 0.  0.
    9900012    2    3    3    0    0  0.45630496531E+01  0.32387335198E+02  0.16912065214E+02  0.54367097605E+02  0.40000030610E+02 0.  0.
        -12    1    3    3    0    0 -0.45630496531E+01 -0.32387335198E+02 -0.16912065214E+02  0.36820902395E+02  0.00000000000E+00 0.  1.
         11    1    4    4    0    0  0.11365789019E+02  0.20792588678E+02  0.13363090128E+02  0.27204504810E+02  0.51100000000E-03 0. -1.
        -11    1    4    4    0    0 -0.77441727248E+01  0.17094095506E+02  0.76214530423E+01  0.20255045275E+02  0.51100000000E-03 0.  1.
        -12    1    4    4    0    0  0.94143335872E+00 -0.54993489852E+01 -0.40724779561E+01  0.69075475194E+01  0.00000000000E+00 0.  1.
</event>
<event>
 8    1  0.1290800E-006  0.9118800E+02  0.7816164E-02  0.1184000E+00
        -11   -1    0    0    0    0  0.00000000000E+00  0.00000000000E+00  0.45593999997E+02  0.45594000000E+02  0.51100000000E-03 0. -1.
         11   -1    0    0    0    0 -0.00000000000E+00 -0.00000000000E+00 -0.45593999997E+02  0.45594000000E+02  0.51100000000E-03 0.  1.
         23    2    1    2    0    0  0.00000000000E+00 -0.40245584643E-15 -0.71054273576E-14  0.91188000000E+02  0.91188000000E+02 0.  0.
    9900012    2    3    3    0    0 -0.22992594723E+02  0.10728366351E+00 -0.28759501819E+02  0.54367083841E+02  0.39999999233E+02 0.  0.
         12    1    3    3    0    0  0.22992594723E+02 -0.10728366351E+00  0.28759501819E+02  0.36820916159E+02  0.00000000000E+00 0. -1.
         11    1    4    4    0    0  0.22505978207E+01 -0.12753334915E+02 -0.20648490496E+00  0.12952041472E+02  0.51100000000E-03 0. -1.
        -11    1    4    4    0    0 -0.10569650053E+02  0.88311662848E+01 -0.82942824952E+01  0.16078001199E+02  0.51100000000E-03 0.  1.
         12    1    4    4    0    0 -0.14673542491E+02  0.40294522938E+01 -0.20258734419E+02  0.25337041171E+02  0.00000000000E+00 0. -1.
</event>
<event>
 8    1  0.1290800E-006  0.9118800E+02  0.7816164E-02  0.1184000E+00
        -11   -1    0    0    0    0  0.00000000000E+00  0.00000000000E+00  0.45593999997E+02  0.45594000000E+02  0.51100000000E-03 0.  1.
         11   -1    0    0    0    0 -0.00000000000E+00 -0.00000000000E+00 -0.45593999997E+02  0.45594000000E+02  0.51100000000E-03 0. -1.
         23    2    1    2    0    0  0.00000000000E+00 -0.71054273576E-14  0.22204460493E-15  0.91188000000E+02  0.91188000000E+02 0.  0.
    9900012    2    3    3    0    0  0.16356932568E+02  0.32953598160E+02 -0.15093167259E+01  0.54367259762E+02  0.40000400277E+02 0.  0.
        -12    1    3    3    0    0 -0.16356932568E+02 -0.32953598160E+02  0.15093167259E+01  0.36820740238E+02  0.00000000000E+00 0.  1.
         11    1    4    4    0    0  0.14318437870E+02  0.59145073394E+01 -0.18600513086E+01  0.15603167987E+02  0.51100000000E-03 0. -1.
        -11    1    4    4    0    0 -0.16018450690E+01  0.11818463379E+02  0.13721457394E+02  0.18180219403E+02  0.51100000000E-03 0.  1.
         12    1    4    4    0    0  0.36403397672E+01  0.15220627441E+02 -0.13370722811E+02  0.20583872372E+02  0.00000000000E+00 0. -1.
</event>
<event>
 8    1  0.1290800E-006  0.9118800E+02  0.7816164E-02  0.1184000E+00
        -11   -1    0    0    0    0  0.00000000000E+00  0.00000000000E+00  0.45593999997E+02  0.45594000000E+02  0.51100000000E-03 0. -1.
         11   -1    0    0    0    0 -0.00000000000E+00 -0.00000000000E+00 -0.45593999997E+02  0.45594000000E+02  0.51100000000E-03 0.  1.
         23    2    1    2    0    0  0.00000000000E+00 -0.35527136788E-14  0.00000000000E+00  0.91188000000E+02  0.91188000000E+02 0.  0.
    9900012    2    3    3    0    0  0.23657049796E+02 -0.28206386511E+02  0.72438316372E+00  0.54367068778E+02  0.39999964893E+02 0.  0.
         12    1    3    3    0    0 -0.23657049796E+02  0.28206386511E+02 -0.72438316372E+00  0.36820931222E+02  0.00000000000E+00 0. -1.
         11    1    4    4    0    0  0.10922118017E+02 -0.10974739675E+02 -0.30805868462E+01  0.15786943608E+02  0.51100000000E-03 0. -1.
        -11    1    4    4    0    0  0.13614095005E+02 -0.25332108509E+02 -0.15988115245E+01  0.28803046764E+02  0.51100000000E-03 0.  1.
         12    1    4    4    0    0 -0.87916322654E+00  0.81004616723E+01  0.54037815344E+01  0.97770784059E+01  0.00000000000E+00 0. -1.
</event>
<event>
 8    1  0.1290800E-006  0.9118800E+02  0.7816164E-02  0.1184000E+00
        -11   -1    0    0    0    0  0.00000000000E+00  0.00000000000E+00  0.45593999997E+02  0.45594000000E+02  0.51100000000E-03 0. -1.
         11   -1    0    0    0    0 -0.00000000000E+00 -0.00000000000E+00 -0.45593999997E+02  0.45594000000E+02  0.51100000000E-03 0.  1.
         23    2    1    2    0    0  0.00000000000E+00  0.88817841970E-15 -0.35527136788E-14  0.91188000000E+02  0.91188000000E+02 0.  0.
    9900012    2    3    3    0    0  0.21569792364E+02 -0.73055778829E+01  0.28933586810E+02  0.54367083980E+02  0.39999999550E+02 0.  0.
        -12    1    3    3    0    0 -0.21569792364E+02  0.73055778829E+01 -0.28933586810E+02  0.36820916020E+02  0.00000000000E+00 0.  1.
         11    1    4    4    0    0  0.55298075671E+01  0.15767194629E+01  0.12742291672E+02  0.13979657124E+02  0.51100000000E-03 0. -1.
        -11    1    4    4    0    0  0.78635658414E+01 -0.26746430138E+01  0.25321402696E+02  0.26648880235E+02  0.51100000000E-03 0.  1.
        -12    1    4    4    0    0  0.81764189556E+01 -0.62076543320E+01 -0.91301075585E+01  0.13738546622E+02  0.00000000000E+00 0.  1.
</event>
<event>
 8    1  0.1290800E-006  0.9118800E+02  0.7816164E-02  0.1184000E+00
        -11   -1    0    0    0    0  0.00000000000E+00  0.00000000000E+00  0.45593999997E+02  0.45594000000E+02  0.51100000000E-03 0.  1.
         11   -1    0    0    0    0 -0.00000000000E+00 -0.00000000000E+00 -0.45593999997E+02  0.45594000000E+02  0.51100000000E-03 0. -1.
         23    2    1    2    0    0  0.33306690739E-15 -0.17763568394E-14  0.71054273576E-14  0.91188000000E+02  0.91188000000E+02 0.  0.
    9900012    2    3    3    0    0 -0.78732250968E+00 -0.12890429625E+02 -0.34481837759E+02  0.54367079481E+02  0.39999989293E+02 0.  0.
        -12    1    3    3    0    0  0.78732250968E+00  0.12890429625E+02  0.34481837759E+02  0.36820920519E+02  0.00000000000E+00 0.  1.
         11    1    4    4    0    0 -0.58028972579E+01 -0.17099153883E+02 -0.27745872650E+02  0.33104201085E+02  0.51100000000E-03 0. -1.
        -11    1    4    4    0    0  0.28750905022E+01  0.11038446156E+02  0.40135437637E-01  0.11406798413E+02  0.51100000000E-03 0.  1.
        -12    1    4    4    0    0  0.21404842461E+01 -0.68297218978E+01 -0.67761005463E+01  0.98560799825E+01  0.00000000000E+00 0.  1.
</event>
<event>
 8    1  0.1290800E-006  0.9118800E+02  0.7816164E-02  0.1184000E+00
        -11   -1    0    0    0    0  0.00000000000E+00  0.00000000000E+00  0.45593999997E+02  0.45594000000E+02  0.51100000000E-03 0.  1.
         11   -1    0    0    0    0 -0.00000000000E+00 -0.00000000000E+00 -0.45593999997E+02  0.45594000000E+02  0.51100000000E-03 0. -1.
         23    2    1    2    0    0 -0.22204460493E-15  0.00000000000E+00  0.00000000000E+00  0.91188000000E+02  0.91188000000E+02 0.  0.
    9900012    2    3    3    0    0  0.19773021577E+01 -0.35162976675E+02  0.10744036782E+02  0.54367095899E+02  0.40000026721E+02 0.  0.
        -12    1    3    3    0    0 -0.19773021577E+01  0.35162976675E+02 -0.10744036782E+02  0.36820904101E+02  0.00000000000E+00 0.  1.
         11    1    4    4    0    0 -0.10880402949E+00 -0.32486433746E+02  0.88811561288E+01  0.33678704700E+02  0.51100000000E-03 0. -1.
        -11    1    4    4    0    0 -0.70507330215E+01 -0.42965345317E+01 -0.45322135165E+01  0.94188112171E+01  0.51100000000E-03 0.  1.
         12    1    4    4    0    0  0.91368392087E+01  0.16199916031E+01  0.63950941695E+01  0.11269579981E+02  0.00000000000E+00 0. -1.
</event>
<event>
 8    1  0.1290800E-006  0.9118800E+02  0.7816164E-02  0.1184000E+00
        -11   -1    0    0    0    0  0.00000000000E+00  0.00000000000E+00  0.45593999997E+02  0.45594000000E+02  0.51100000000E-03 0. -1.
         11   -1    0    0    0    0 -0.00000000000E+00 -0.00000000000E+00 -0.45593999997E+02  0.45594000000E+02  0.51100000000E-03 0.  1.
         23    2    1    2    0    0  0.00000000000E+00  0.35527136788E-14  0.17763568394E-14  0.91188000000E+02  0.91188000000E+02 0.  0.
    9900012    2    3    3    0    0 -0.24311613935E+02 -0.25887226459E+02 -0.97251463346E+01  0.54367061160E+02  0.39999947525E+02 0.  0.
         12    1    3    3    0    0  0.24311613935E+02  0.25887226459E+02  0.97251463346E+01  0.36820938840E+02  0.00000000000E+00 0. -1.
         11    1    4    4    0    0  0.37681924439E+01 -0.48328855172E+01  0.58328163373E+01  0.84603666234E+01  0.51100000000E-03 0. -1.
        -11    1    4    4    0    0 -0.16104583995E+02  0.27983398147E+01 -0.78032744911E+01  0.18112962883E+02  0.51100000000E-03 0.  1.
         12    1    4    4    0    0 -0.11975222384E+02 -0.23852680757E+02 -0.77546881807E+01  0.27793731653E+02  0.00000000000E+00 0. -1.
</event>
<event>
 8    1  0.1290800E-006  0.9118800E+02  0.7816164E-02  0.1184000E+00
        -11   -1    0    0    0    0  0.00000000000E+00  0.00000000000E+00  0.45593999997E+02  0.45594000000E+02  0.51100000000E-03 0. -1.
         11   -1    0    0    0    0 -0.00000000000E+00 -0.00000000000E+00 -0.45593999997E+02  0.45594000000E+02  0.51100000000E-03 0.  1.
         23    2    1    2    0    0  0.00000000000E+00 -0.88817841970E-15 -0.35527136788E-14  0.91188000000E+02  0.91188000000E+02 0.  0.
    9900012    2    3    3    0    0  0.28975417383E+02  0.57749129125E+01  0.21973949263E+02  0.54367097270E+02  0.40000029845E+02 0.  0.
        -12    1    3    3    0    0 -0.28975417383E+02 -0.57749129125E+01 -0.21973949263E+02  0.36820902730E+02  0.00000000000E+00 0.  1.
         11    1    4    4    0    0  0.12957965341E+02 -0.38587135996E+01 -0.78438962751E+01  0.15630906738E+02  0.51100000000E-03 0.  1.
        -11    1    4    4    0    0  0.15015530135E+02  0.99807250305E+01  0.13856008253E+02  0.22739172860E+02  0.51100000000E-03 0. -1.
         12    1    4    4    0    0  0.10019219073E+01 -0.34709851831E+00  0.15961837285E+02  0.15997017672E+02  0.00000000000E+00 0. -1.
</event>
<event>
 8    1  0.1290800E-006  0.9118800E+02  0.7816164E-02  0.1184000E+00
        -11   -1    0    0    0    0  0.00000000000E+00  0.00000000000E+00  0.45593999997E+02  0.45594000000E+02  0.51100000000E-03 0. -1.
         11   -1    0    0    0    0 -0.00000000000E+00 -0.00000000000E+00 -0.45593999997E+02  0.45594000000E+02  0.51100000000E-03 0.  1.
         23    2    1    2    0    0 -0.44408920985E-15  0.17763568394E-14  0.00000000000E+00  0.91188000000E+02  0.91188000000E+02 0.  0.
    9900012    2    3    3    0    0 -0.22206157595E+01 -0.78877629209E+01 -0.35897663070E+02  0.54366944174E+02  0.39999680832E+02 0.  0.
         12    1    3    3    0    0  0.22206157595E+01  0.78877629209E+01  0.35897663070E+02  0.36821055826E+02  0.00000000000E+00 0. -1.
         11    1    4    4    0    0 -0.11220877036E+02 -0.17357951233E+02 -0.20333381033E+02  0.28994015537E+02  0.51100000000E-03 0.  1.
        -11    1    4    4    0    0  0.41753950889E+01 -0.25748268577E+01  0.25601521707E+00  0.49121483638E+01  0.51100000000E-03 0. -1.
        -12    1    4    4    0    0  0.48248661876E+01  0.12045015170E+02 -0.15820297254E+02  0.20460780273E+02  0.00000000000E+00 0.  1.
</event>
<event>
 8    1  0.1290800E-006  0.9118800E+02  0.7816164E-02  0.1184000E+00
        -11   -1    0    0    0    0  0.00000000000E+00  0.00000000000E+00  0.45593999997E+02  0.45594000000E+02  0.51100000000E-03 0.  1.
         11   -1    0    0    0    0 -0.00000000000E+00 -0.00000000000E+00 -0.45593999997E+02  0.45594000000E+02  0.51100000000E-03 0. -1.
         23    2    1    2    0    0  0.00000000000E+00 -0.17763568394E-14  0.00000000000E+00  0.91188000000E+02  0.91188000000E+02 0.  0.
    9900012    2    3    3    0    0  0.20386994510E+02  0.11786137681E+02 -0.28306110986E+02  0.54367102323E+02  0.40000041365E+02 0.  0.
        -12    1    3    3    0    0 -0.20386994510E+02 -0.11786137681E+02  0.28306110986E+02  0.36820897677E+02  0.00000000000E+00 0.  1.
         11    1    4    4    0    0  0.44798823046E+01  0.22301661011E+02 -0.18946401478E+02  0.29604046320E+02  0.51100000000E-03 0. -1.
        -11    1    4    4    0    0 -0.29783357126E+00  0.51004296565E+00 -0.45410883905E+01  0.45793375825E+01  0.51100000000E-03 0.  1.
         12    1    4    4    0    0  0.16204945777E+02 -0.11025566295E+02 -0.48186211175E+01  0.20183718420E+02  0.00000000000E+00 0. -1.
</event>
<event>
 8    1  0.1290800E-006  0.9118800E+02  0.7816164E-02  0.1184000E+00
        -11   -1    0    0    0    0  0.00000000000E+00  0.00000000000E+00  0.45593999997E+02  0.45594000000E+02  0.51100000000E-03 0.  1.
         11   -1    0    0    0    0 -0.00000000000E+00 -0.00000000000E+00 -0.45593999997E+02  0.45594000000E+02  0.51100000000E-03 0. -1.
         23    2    1    2    0    0  0.00000000000E+00  0.00000000000E+00  0.00000000000E+00  0.91188000000E+02  0.91188000000E+02 0.  0.
    9900012    2    3    3    0    0 -0.91072758725E+01 -0.34391502238E+02 -0.94901932378E+01  0.54367059386E+02  0.39999943483E+02 0.  0.
        -12    1    3    3    0    0  0.91072758725E+01  0.34391502238E+02  0.94901932378E+01  0.36820940614E+02  0.00000000000E+00 0.  1.
         11    1    4    4    0    0 -0.15258258463E+02 -0.15948551376E+02 -0.12557489525E+02  0.25394119117E+02  0.51100000000E-03 0. -1.
        -11    1    4    4    0    0  0.48065369254E+00  0.42520182765E+01 -0.24605153391E+01  0.49360736817E+01  0.51100000000E-03 0.  1.
        -12    1    4    4    0    0  0.56703288975E+01 -0.22694969138E+02  0.55278116263E+01  0.24036866587E+02  0.00000000000E+00 0.  1.
</event>
<event>
 8    1  0.1290800E-006  0.9118800E+02  0.7816164E-02  0.1184000E+00
        -11   -1    0    0    0    0  0.00000000000E+00  0.00000000000E+00  0.45593999997E+02  0.45594000000E+02  0.51100000000E-03 0.  1.
         11   -1    0    0    0    0 -0.00000000000E+00 -0.00000000000E+00 -0.45593999997E+02  0.45594000000E+02  0.51100000000E-03 0. -1.
         23    2    1    2    0    0  0.00000000000E+00  0.00000000000E+00 -0.44408920985E-15  0.91188000000E+02  0.91188000000E+02 0.  0.
    9900012    2    3    3    0    0 -0.74140101601E+01  0.35854355668E+02  0.39085983648E+01  0.54367088710E+02  0.40000010332E+02 0.  0.
        -12    1    3    3    0    0  0.74140101601E+01 -0.35854355668E+02 -0.39085983648E+01  0.36820911290E+02  0.00000000000E+00 0.  1.
         11    1    4    4    0    0 -0.73015897394E+01  0.31401434265E+02  0.32665659104E+01  0.32404224103E+02  0.51100000000E-03 0.  1.
        -11    1    4    4    0    0 -0.41548869026E+00 -0.33555802660E+01 -0.89635922554E+01  0.95801114897E+01  0.51100000000E-03 0. -1.
        -12    1    4    4    0    0  0.30306826958E+00  0.78085016692E+01  0.96056247098E+01  0.12382753117E+02  0.00000000000E+00 0.  1.
</event>
<event>
 8    1  0.1290800E-006  0.9118800E+02  0.7816164E-02  0.1184000E+00
        -11   -1    0    0    0    0  0.00000000000E+00  0.00000000000E+00  0.45593999997E+02  0.45594000000E+02  0.51100000000E-03 0.  1.
         11   -1    0    0    0    0 -0.00000000000E+00 -0.00000000000E+00 -0.45593999997E+02  0.45594000000E+02  0.51100000000E-03 0. -1.
         23    2    1    2    0    0  0.00000000000E+00 -0.14210854715E-13  0.00000000000E+00  0.91188000000E+02  0.91188000000E+02 0.  0.
    9900012    2    3    3    0    0 -0.16311203819E+02 -0.32434560701E+02 -0.61419413657E+01  0.54367088257E+02  0.40000009299E+02 0.  0.
        -12    1    3    3    0    0  0.16311203819E+02  0.32434560701E+02  0.61419413657E+01  0.36820911743E+02  0.00000000000E+00 0.  1.
         11    1    4    4    0    0  0.16908787485E+01 -0.13886195314E+02 -0.19725862381E+01  0.14127157816E+02  0.51100000000E-03 0. -1.
        -11    1    4    4    0    0  0.53218237149E+01  0.18047539179E+01 -0.72032213910E+01  0.91359368992E+01  0.51100000000E-03 0.  1.
        -12    1    4    4    0    0 -0.23323906283E+02 -0.20353119305E+02  0.30338662634E+01  0.31103993541E+02  0.00000000000E+00 0.  1.
</event>
<event>
 8    1  0.1290800E-006  0.9118800E+02  0.7816164E-02  0.1184000E+00
        -11   -1    0    0    0    0  0.00000000000E+00  0.00000000000E+00  0.45593999997E+02  0.45594000000E+02  0.51100000000E-03 0.  1.
         11   -1    0    0    0    0 -0.00000000000E+00 -0.00000000000E+00 -0.45593999997E+02  0.45594000000E+02  0.51100000000E-03 0. -1.
         23    2    1    2    0    0  0.00000000000E+00  0.00000000000E+00  0.35527136788E-14  0.91188000000E+02  0.91188000000E+02 0.  0.
    9900012    2    3    3    0    0 -0.86674138287E+00 -0.27152706953E+02 -0.24854790152E+02  0.54367063985E+02  0.39999953967E+02 0.  0.
        -12    1    3    3    0    0  0.86674138287E+00  0.27152706953E+02  0.24854790152E+02  0.36820936015E+02  0.00000000000E+00 0.  1.
         11    1    4    4    0    0  0.93845602887E+01  0.11413840436E+00 -0.96373637119E+01  0.13452203498E+02  0.51100000000E-03 0. -1.
        -11    1    4    4    0    0  0.15118520641E+01 -0.10857130678E+02  0.52592298342E+01  0.12158226924E+02  0.51100000000E-03 0.  1.
         12    1    4    4    0    0 -0.11763153736E+02 -0.16409714680E+02 -0.20476656275E+02  0.28756633563E+02  0.00000000000E+00 0. -1.
</event>
<event>
 8    1  0.1290800E-006  0.9118800E+02  0.7816164E-02  0.1184000E+00
        -11   -1    0    0    0    0  0.00000000000E+00  0.00000000000E+00  0.45593999997E+02  0.45594000000E+02  0.51100000000E-03 0.  1.
         11   -1    0    0    0    0 -0.00000000000E+00 -0.00000000000E+00 -0.45593999997E+02  0.45594000000E+02  0.51100000000E-03 0. -1.
         23    2    1    2    0    0  0.35527136788E-14  0.00000000000E+00  0.00000000000E+00  0.91188000000E+02  0.91188000000E+02 0.  0.
    9900012    2    3    3    0    0 -0.30921567261E+02  0.86726662296E+01 -0.18011168615E+02  0.54367344706E+02  0.40000593922E+02 0.  0.
        -12    1    3    3    0    0  0.30921567261E+02 -0.86726662296E+01  0.18011168615E+02  0.36820655294E+02  0.00000000000E+00 0.  1.
         11    1    4    4    0    0 -0.33354944968E+02  0.10936737666E+02 -0.13116117573E+02  0.37472618338E+02  0.51100000000E-03 0. -1.
        -11    1    4    4    0    0  0.73367415794E+01 -0.52333652373E+01  0.49596939354E+00  0.90256232256E+01  0.51100000000E-03 0.  1.
         12    1    4    4    0    0 -0.49033638720E+01  0.29692938007E+01 -0.53910204353E+01  0.78691031427E+01  0.00000000000E+00 0. -1.
</event>
<event>
 8    1  0.1290800E-006  0.9118800E+02  0.7816164E-02  0.1184000E+00
        -11   -1    0    0    0    0  0.00000000000E+00  0.00000000000E+00  0.45593999997E+02  0.45594000000E+02  0.51100000000E-03 0. -1.
         11   -1    0    0    0    0 -0.00000000000E+00 -0.00000000000E+00 -0.45593999997E+02  0.45594000000E+02  0.51100000000E-03 0.  1.
         23    2    1    2    0    0  0.00000000000E+00  0.13322676296E-14  0.00000000000E+00  0.91188000000E+02  0.91188000000E+02 0.  0.
    9900012    2    3    3    0    0 -0.36472423076E+02  0.19266433102E+01 -0.46723176393E+01  0.54367079973E+02  0.39999990415E+02 0.  0.
         12    1    3    3    0    0  0.36472423076E+02 -0.19266433102E+01  0.46723176393E+01  0.36820920027E+02  0.00000000000E+00 0. -1.
         11    1    4    4    0    0 -0.13150091568E+02  0.93315839877E+01 -0.28698674476E+01  0.16378019032E+02  0.51100000000E-03 0. -1.
        -11    1    4    4    0    0 -0.57783028349E+01  0.11032700057E+02  0.23910792095E+00  0.12456581676E+02  0.51100000000E-03 0.  1.
         12    1    4    4    0    0 -0.17544028673E+02 -0.18437640734E+02 -0.20415581127E+01  0.25532479265E+02  0.00000000000E+00 0. -1.
</event>
<event>
 8    1  0.1290800E-006  0.9118800E+02  0.7816164E-02  0.1184000E+00
        -11   -1    0    0    0    0  0.00000000000E+00  0.00000000000E+00  0.45593999997E+02  0.45594000000E+02  0.51100000000E-03 0.  1.
         11   -1    0    0    0    0 -0.00000000000E+00 -0.00000000000E+00 -0.45593999997E+02  0.45594000000E+02  0.51100000000E-03 0. -1.
         23    2    1    2    0    0  0.00000000000E+00  0.88817841970E-15  0.35527136788E-14  0.91188000000E+02  0.91188000000E+02 0.  0.
    9900012    2    3    3    0    0 -0.30550453484E+02 -0.78806433563E+01  0.18982726642E+02  0.54367100248E+02  0.40000036636E+02 0.  0.
        -12    1    3    3    0    0  0.30550453484E+02  0.78806433563E+01 -0.18982726642E+02  0.36820899752E+02  0.00000000000E+00 0.  1.
         11    1    4    4    0    0 -0.28883055895E+02 -0.53269186746E+00  0.18707216238E+02  0.34416197032E+02  0.51100000000E-03 0. -1.
        -11    1    4    4    0    0 -0.39099837116E+01 -0.99716805686E+01  0.67171157171E+01  0.12642864778E+02  0.51100000000E-03 0.  1.
        -12    1    4    4    0    0  0.22425861233E+01  0.26237290797E+01 -0.64416053130E+01  0.73080384381E+01  0.00000000000E+00 0.  1.
</event>
<event>
 8    1  0.1290800E-006  0.9118800E+02  0.7816164E-02  0.1184000E+00
        -11   -1    0    0    0    0  0.00000000000E+00  0.00000000000E+00  0.45593999997E+02  0.45594000000E+02  0.51100000000E-03 0. -1.
         11   -1    0    0    0    0 -0.00000000000E+00 -0.00000000000E+00 -0.45593999997E+02  0.45594000000E+02  0.51100000000E-03 0.  1.
         23    2    1    2    0    0  0.00000000000E+00 -0.17763568394E-14  0.17763568394E-14  0.91188000000E+02  0.91188000000E+02 0.  0.
    9900012    2    3    3    0    0  0.34495128546E+02  0.84201766636E+01 -0.97450313579E+01  0.54367096906E+02  0.40000029017E+02 0.  0.
         12    1    3    3    0    0 -0.34495128546E+02 -0.84201766636E+01  0.97450313579E+01  0.36820903094E+02  0.00000000000E+00 0. -1.
         11    1    4    4    0    0  0.19589489496E+02 -0.19708040477E+01 -0.33937960273E+01  0.19978739175E+02  0.51100000000E-03 0. -1.
        -11    1    4    4    0    0  0.90704130993E+01  0.18875531295E+02  0.21273415630E+01  0.21049552438E+02  0.51100000000E-03 0.  1.
        -12    1    4    4    0    0  0.58352259511E+01 -0.84845505835E+01 -0.84785768937E+01  0.13338805293E+02  0.00000000000E+00 0.  1.
</event>
<event>
 8    1  0.1290800E-006  0.9118800E+02  0.7816164E-02  0.1184000E+00
        -11   -1    0    0    0    0  0.00000000000E+00  0.00000000000E+00  0.45593999997E+02  0.45594000000E+02  0.51100000000E-03 0.  1.
         11   -1    0    0    0    0 -0.00000000000E+00 -0.00000000000E+00 -0.45593999997E+02  0.45594000000E+02  0.51100000000E-03 0. -1.
         23    2    1    2    0    0 -0.94368957093E-15 -0.35527136788E-14  0.00000000000E+00  0.91188000000E+02  0.91188000000E+02 0.  0.
    9900012    2    3    3    0    0 -0.29856201536E+00 -0.25100909120E+02 -0.26937622825E+02  0.54367077940E+02  0.39999985779E+02 0.  0.
        -12    1    3    3    0    0  0.29856201536E+00  0.25100909120E+02  0.26937622825E+02  0.36820922060E+02  0.00000000000E+00 0.  1.
         11    1    4    4    0    0  0.85371524877E+01 -0.14351350521E+02  0.11665136776E+01  0.16739324622E+02  0.51100000000E-03 0. -1.
        -11    1    4    4    0    0 -0.54113964258E+01  0.23782090844E+01 -0.21946797706E+02  0.22728858738E+02  0.51100000000E-03 0.  1.
         12    1    4    4    0    0 -0.34243180773E+01 -0.13127767683E+02 -0.61573387967E+01  0.14898894580E+02  0.00000000000E+00 0. -1.
</event>
<event>
 8    1  0.1290800E-006  0.9118800E+02  0.7816164E-02  0.1184000E+00
        -11   -1    0    0    0    0  0.00000000000E+00  0.00000000000E+00  0.45593999997E+02  0.45594000000E+02  0.51100000000E-03 0.  1.
         11   -1    0    0    0    0 -0.00000000000E+00 -0.00000000000E+00 -0.45593999997E+02  0.45594000000E+02  0.51100000000E-03 0. -1.
         23    2    1    2    0    0  0.35527136788E-14  0.22204460493E-15  0.00000000000E+00  0.91188000000E+02  0.91188000000E+02 0.  0.
    9900012    2    3    3    0    0  0.25831722153E+02 -0.18171181223E+01 -0.26176341922E+02  0.54367073014E+02  0.39999974551E+02 0.  0.
        -12    1    3    3    0    0 -0.25831722153E+02  0.18171181223E+01  0.26176341922E+02  0.36820926986E+02  0.00000000000E+00 0.  1.
         11    1    4    4    0    0  0.34296875095E+01  0.88401164690E+01 -0.87932433216E+01  0.12931803585E+02  0.51100000000E-03 0. -1.
        -11    1    4    4    0    0  0.16944847183E+02  0.68987861342E+01 -0.40865661297E+01  0.18746229466E+02  0.51100000000E-03 0.  1.
         12    1    4    4    0    0  0.54571874597E+01 -0.17556020726E+02 -0.13296532471E+02  0.22689039963E+02  0.00000000000E+00 0. -1.
</event>
<event>
 8    1  0.1290800E-006  0.9118800E+02  0.7816164E-02  0.1184000E+00
        -11   -1    0    0    0    0  0.00000000000E+00  0.00000000000E+00  0.45593999997E+02  0.45594000000E+02  0.51100000000E-03 0. -1.
         11   -1    0    0    0    0 -0.00000000000E+00 -0.00000000000E+00 -0.45593999997E+02  0.45594000000E+02  0.51100000000E-03 0.  1.
         23    2    1    2    0    0  0.00000000000E+00 -0.35527136788E-14 -0.35527136788E-14  0.91188000000E+02  0.91188000000E+02 0.  0.
    9900012    2    3    3    0    0 -0.13919150309E+01 -0.26096916405E+02 -0.25938277532E+02  0.54367072328E+02  0.39999972986E+02 0.  0.
         12    1    3    3    0    0  0.13919150309E+01  0.26096916405E+02  0.25938277532E+02  0.36820927672E+02  0.00000000000E+00 0. -1.
         11    1    4    4    0    0  0.11167046520E+02 -0.88287678137E+01 -0.19917938171E+02  0.24482122668E+02  0.51100000000E-03 0. -1.
        -11    1    4    4    0    0  0.48512617640E+01 -0.65472296724E+01  0.11250765375E+01  0.82259804621E+01  0.51100000000E-03 0.  1.
        -12    1    4    4    0    0 -0.17410223315E+02 -0.10720918919E+02 -0.71454158985E+01  0.21658969197E+02  0.00000000000E+00 0.  1.
</event>
<event>
 8    1  0.1290800E-006  0.9118800E+02  0.7816164E-02  0.1184000E+00
        -11   -1    0    0    0    0  0.00000000000E+00  0.00000000000E+00  0.45593999997E+02  0.45594000000E+02  0.51100000000E-03 0.  1.
         11   -1    0    0    0    0 -0.00000000000E+00 -0.00000000000E+00 -0.45593999997E+02  0.45594000000E+02  0.51100000000E-03 0. -1.
         23    2    1    2    0    0  0.00000000000E+00  0.00000000000E+00  0.00000000000E+00  0.91188000000E+02  0.91188000000E+02 0.  0.
    9900012    2    3    3    0    0 -0.22147422608E+02 -0.21838838910E+02  0.19706093612E+02  0.54367172490E+02  0.40000201324E+02 0.  0.
         12    1    3    3    0    0  0.22147422608E+02  0.21838838910E+02 -0.19706093612E+02  0.36820827510E+02  0.00000000000E+00 0. -1.
         11    1    4    4    0    0 -0.35360211433E+01 -0.76178330815E+01 -0.77373511977E+00  0.84340673865E+01  0.51100000000E-03 0. -1.
        -11    1    4    4    0    0 -0.23823559149E+02 -0.69966440624E+01  0.13918434434E+01  0.24868699747E+02  0.51100000000E-03 0.  1.
        -12    1    4    4    0    0  0.52121576842E+01 -0.72243617659E+01  0.19087985288E+02  0.21064405356E+02  0.00000000000E+00 0.  1.
</event>
<event>
 8    1  0.1290800E-006  0.9118800E+02  0.7816164E-02  0.1184000E+00
        -11   -1    0    0    0    0  0.00000000000E+00  0.00000000000E+00  0.45593999997E+02  0.45594000000E+02  0.51100000000E-03 0. -1.
         11   -1    0    0    0    0 -0.00000000000E+00 -0.00000000000E+00 -0.45593999997E+02  0.45594000000E+02  0.51100000000E-03 0.  1.
         23    2    1    2    0    0  0.00000000000E+00 -0.88817841970E-15 -0.71054273576E-14  0.91188000000E+02  0.91188000000E+02 0.  0.
    9900012    2    3    3    0    0  0.60189794271E+01 -0.71703860875E+01 -0.35610926223E+02  0.54367073661E+02  0.39999976025E+02 0.  0.
         12    1    3    3    0    0 -0.60189794271E+01  0.71703860875E+01  0.35610926223E+02  0.36820926339E+02  0.00000000000E+00 0. -1.
         11    1    4    4    0    0  0.76532904145E+01 -0.10185819803E+02 -0.22065275498E+01  0.12930295562E+02  0.51100000000E-03 0.  1.
        -11    1    4    4    0    0 -0.24551176149E+01  0.12249746101E+02 -0.91929325908E+01  0.15511089321E+02  0.51100000000E-03 0. -1.
         12    1    4    4    0    0  0.82080662746E+00 -0.92343123857E+01 -0.24211466083E+02  0.25925688778E+02  0.00000000000E+00 0. -1.
</event>
<event>
 8    1  0.1290800E-006  0.9118800E+02  0.7816164E-02  0.1184000E+00
        -11   -1    0    0    0    0  0.00000000000E+00  0.00000000000E+00  0.45593999997E+02  0.45594000000E+02  0.51100000000E-03 0.  1.
         11   -1    0    0    0    0 -0.00000000000E+00 -0.00000000000E+00 -0.45593999997E+02  0.45594000000E+02  0.51100000000E-03 0. -1.
         23    2    1    2    0    0 -0.66613381478E-15  0.00000000000E+00  0.00000000000E+00  0.91188000000E+02  0.91188000000E+02 0.  0.
    9900012    2    3    3    0    0 -0.14952205053E+01 -0.21122135580E+02 -0.30123083991E+02  0.54367075447E+02  0.39999980097E+02 0.  0.
        -12    1    3    3    0    0  0.14952205053E+01  0.21122135580E+02  0.30123083991E+02  0.36820924553E+02  0.00000000000E+00 0.  1.
         11    1    4    4    0    0  0.17383360961E+02 -0.10422819817E+02 -0.97694726169E+01  0.22500200148E+02  0.51100000000E-03 0. -1.
        -11    1    4    4    0    0 -0.85824012380E+01 -0.19430096377E+01 -0.19159909880E+01  0.90057714377E+01  0.51100000000E-03 0.  1.
         12    1    4    4    0    0 -0.10296180229E+02 -0.87563061254E+01 -0.18437620386E+02  0.22861103861E+02  0.00000000000E+00 0. -1.
</event>
<event>
 8    1  0.1290800E-006  0.9118800E+02  0.7816164E-02  0.1184000E+00
        -11   -1    0    0    0    0  0.00000000000E+00  0.00000000000E+00  0.45593999997E+02  0.45594000000E+02  0.51100000000E-03 0. -1.
         11   -1    0    0    0    0 -0.00000000000E+00 -0.00000000000E+00 -0.45593999997E+02  0.45594000000E+02  0.51100000000E-03 0.  1.
         23    2    1    2    0    0  0.00000000000E+00 -0.35527136788E-14  0.00000000000E+00  0.91188000000E+02  0.91188000000E+02 0.  0.
    9900012    2    3    3    0    0  0.25267832478E+02  0.25050076870E+02  0.94768528100E+01  0.54367075942E+02  0.39999981224E+02 0.  0.
         12    1    3    3    0    0 -0.25267832478E+02 -0.25050076870E+02 -0.94768528100E+01  0.36820924058E+02  0.00000000000E+00 0. -1.
         11    1    4    4    0    0  0.88200386107E+01 -0.53680251047E+00  0.23117758950E+01  0.91337585955E+01  0.51100000000E-03 0. -1.
        -11    1    4    4    0    0  0.91819689788E+01 -0.16772115436E+01  0.13406378998E+02  0.16335623374E+02  0.51100000000E-03 0.  1.
        -12    1    4    4    0    0  0.72658248880E+01  0.27264090924E+02 -0.62413020836E+01  0.28897693973E+02  0.00000000000E+00 0.  1.
</event>
<event>
 8    1  0.1290800E-006  0.9118800E+02  0.7816164E-02  0.1184000E+00
        -11   -1    0    0    0    0  0.00000000000E+00  0.00000000000E+00  0.45593999997E+02  0.45594000000E+02  0.51100000000E-03 0.  1.
         11   -1    0    0    0    0 -0.00000000000E+00 -0.00000000000E+00 -0.45593999997E+02  0.45594000000E+02  0.51100000000E-03 0. -1.
         23    2    1    2    0    0  0.00000000000E+00  0.00000000000E+00 -0.35527136788E-14  0.91188000000E+02  0.91188000000E+02 0.  0.
    9900012    2    3    3    0    0 -0.25827757047E+02 -0.17923189438E+02  0.19169445354E+02  0.54367063172E+02  0.39999952113E+02 0.  0.
        -12    1    3    3    0    0  0.25827757047E+02  0.17923189438E+02 -0.19169445354E+02  0.36820936828E+02  0.00000000000E+00 0.  1.
         11    1    4    4    0    0 -0.12940227887E+01 -0.12022850440E+02 -0.47389600849E-01  0.12092380813E+02  0.51100000000E-03 0. -1.
        -11    1    4    4    0    0 -0.14155998847E+02 -0.14965409664E+02  0.27178448957E+01  0.20778413580E+02  0.51100000000E-03 0.  1.
        -12    1    4    4    0    0 -0.10377735412E+02  0.90650706666E+01  0.16498990059E+02  0.21496268779E+02  0.00000000000E+00 0.  1.
</event>
<event>
 8    1  0.1290800E-006  0.9118800E+02  0.7816164E-02  0.1184000E+00
        -11   -1    0    0    0    0  0.00000000000E+00  0.00000000000E+00  0.45593999997E+02  0.45594000000E+02  0.51100000000E-03 0. -1.
         11   -1    0    0    0    0 -0.00000000000E+00 -0.00000000000E+00 -0.45593999997E+02  0.45594000000E+02  0.51100000000E-03 0.  1.
         23    2    1    2    0    0  0.35527136788E-14 -0.17763568394E-14  0.00000000000E+00  0.91188000000E+02  0.91188000000E+02 0.  0.
    9900012    2    3    3    0    0 -0.21516637162E+02  0.85119350855E+01  0.28641930817E+02  0.54367096772E+02  0.40000028710E+02 0.  0.
        -12    1    3    3    0    0  0.21516637162E+02 -0.85119350855E+01 -0.28641930817E+02  0.36820903228E+02  0.00000000000E+00 0.  1.
         11    1    4    4    0    0 -0.18994871762E+02  0.19236662283E+02  0.14069198720E+02  0.30476165801E+02  0.51100000000E-03 0. -1.
        -11    1    4    4    0    0 -0.31742658875E+01 -0.10455426147E+02  0.17636442882E+02  0.20746952008E+02  0.51100000000E-03 0.  1.
        -12    1    4    4    0    0  0.65250048789E+00 -0.26930105007E+00 -0.30637107850E+01  0.31439789624E+01  0.00000000000E+00 0.  1.
</event>
<event>
 8    1  0.1290800E-006  0.9118800E+02  0.7816164E-02  0.1184000E+00
        -11   -1    0    0    0    0  0.00000000000E+00  0.00000000000E+00  0.45593999997E+02  0.45594000000E+02  0.51100000000E-03 0.  1.
         11   -1    0    0    0    0 -0.00000000000E+00 -0.00000000000E+00 -0.45593999997E+02  0.45594000000E+02  0.51100000000E-03 0. -1.
         23    2    1    2    0    0  0.88817841970E-15  0.00000000000E+00 -0.17763568394E-14  0.91188000000E+02  0.91188000000E+02 0.  0.
    9900012    2    3    3    0    0  0.71959004147E+01  0.34472789866E+02 -0.10752926482E+02  0.54367086760E+02  0.40000005886E+02 0.  0.
        -12    1    3    3    0    0 -0.71959004147E+01 -0.34472789866E+02  0.10752926482E+02  0.36820913240E+02  0.00000000000E+00 0.  1.
         11    1    4    4    0    0 -0.36243388419E+01  0.57156845916E+01 -0.74411173103E+01  0.10058583870E+02  0.51100000000E-03 0. -1.
        -11    1    4    4    0    0  0.57726888166E+01  0.33150602051E+02  0.45819391210E+01  0.33959984083E+02  0.51100000000E-03 0.  1.
        -12    1    4    4    0    0  0.50475504399E+01 -0.43934967767E+01 -0.78937482931E+01  0.10348518806E+02  0.00000000000E+00 0.  1.
</event>
<event>
 8    1  0.1290800E-006  0.9118800E+02  0.7816164E-02  0.1184000E+00
        -11   -1    0    0    0    0  0.00000000000E+00  0.00000000000E+00  0.45593999997E+02  0.45594000000E+02  0.51100000000E-03 0. -1.
         11   -1    0    0    0    0 -0.00000000000E+00 -0.00000000000E+00 -0.45593999997E+02  0.45594000000E+02  0.51100000000E-03 0.  1.
         23    2    1    2    0    0 -0.35527136788E-14  0.00000000000E+00  0.44408920985E-15  0.91188000000E+02  0.91188000000E+02 0.  0.
    9900012    2    3    3    0    0 -0.31632430978E+02 -0.18704383227E+02 -0.23054821532E+01  0.54367083533E+02  0.39999998531E+02 0.  0.
         12    1    3    3    0    0  0.31632430978E+02  0.18704383227E+02  0.23054821532E+01  0.36820916467E+02  0.00000000000E+00 0. -1.
         11    1    4    4    0    0 -0.13040800664E+02 -0.52662073324E+01  0.55220196766E-02  0.14063977118E+02  0.51100000000E-03 0. -1.
        -11    1    4    4    0    0 -0.19138713327E+02 -0.10866057690E+02 -0.15458804034E+02  0.26894909927E+02  0.51100000000E-03 0.  1.
         12    1    4    4    0    0  0.54708301270E+00 -0.25721182049E+01  0.13147799861E+02  0.13408196489E+02  0.00000000000E+00 0. -1.
</event>
<event>
 8    1  0.1290800E-006  0.9118800E+02  0.7816164E-02  0.1184000E+00
        -11   -1    0    0    0    0  0.00000000000E+00  0.00000000000E+00  0.45593999997E+02  0.45594000000E+02  0.51100000000E-03 0. -1.
         11   -1    0    0    0    0 -0.00000000000E+00 -0.00000000000E+00 -0.45593999997E+02  0.45594000000E+02  0.51100000000E-03 0.  1.
         23    2    1    2    0    0  0.17763568394E-14  0.00000000000E+00 -0.35527136788E-14  0.91188000000E+02  0.91188000000E+02 0.  0.
    9900012    2    3    3    0    0 -0.10222303445E+02  0.25976896454E+02  0.24010121832E+02  0.54367074054E+02  0.39999976921E+02 0.  0.
        -12    1    3    3    0    0  0.10222303445E+02 -0.25976896454E+02 -0.24010121832E+02  0.36820925946E+02  0.00000000000E+00 0.  1.
         11    1    4    4    0    0  0.11305590199E+02  0.13310437123E+02  0.14852432321E+02  0.22925506587E+02  0.51100000000E-03 0. -1.
        -11    1    4    4    0    0 -0.15722044066E+01  0.70398492885E+01 -0.25256352265E+01  0.76426525669E+01  0.51100000000E-03 0.  1.
         12    1    4    4    0    0 -0.19955689237E+02  0.56266100426E+01  0.11683324737E+02  0.23798914900E+02  0.00000000000E+00 0. -1.
</event>
<event>
 8    1  0.1290800E-006  0.9118800E+02  0.7816164E-02  0.1184000E+00
        -11   -1    0    0    0    0  0.00000000000E+00  0.00000000000E+00  0.45593999997E+02  0.45594000000E+02  0.51100000000E-03 0.  1.
         11   -1    0    0    0    0 -0.00000000000E+00 -0.00000000000E+00 -0.45593999997E+02  0.45594000000E+02  0.51100000000E-03 0. -1.
         23    2    1    2    0    0  0.00000000000E+00  0.35527136788E-14  0.00000000000E+00  0.91188000000E+02  0.91188000000E+02 0.  0.
    9900012    2    3    3    0    0 -0.26499098844E+02 -0.22998440946E+02  0.11164591899E+02  0.54367100530E+02  0.40000037278E+02 0.  0.
        -12    1    3    3    0    0  0.26499098844E+02  0.22998440946E+02 -0.11164591899E+02  0.36820899470E+02  0.00000000000E+00 0.  1.
         11    1    4    4    0    0  0.74585536894E+01  0.15200483627E+01  0.43311658763E+01  0.87578289702E+01  0.51100000000E-03 0. -1.
        -11    1    4    4    0    0  0.18185099149E+01 -0.20076630007E+01  0.12137305754E+01  0.29683044328E+01  0.51100000000E-03 0.  1.
         12    1    4    4    0    0 -0.35776162448E+02 -0.22510826308E+02  0.56196954473E+01  0.42640967127E+02  0.00000000000E+00 0. -1.
</event>
<event>
 8    1  0.1290800E-006  0.9118800E+02  0.7816164E-02  0.1184000E+00
        -11   -1    0    0    0    0  0.00000000000E+00  0.00000000000E+00  0.45593999997E+02  0.45594000000E+02  0.51100000000E-03 0.  1.
         11   -1    0    0    0    0 -0.00000000000E+00 -0.00000000000E+00 -0.45593999997E+02  0.45594000000E+02  0.51100000000E-03 0. -1.
         23    2    1    2    0    0  0.88817841970E-15 -0.35527136788E-14  0.00000000000E+00  0.91188000000E+02  0.91188000000E+02 0.  0.
    9900012    2    3    3    0    0  0.15943169409E+01 -0.29998154811E+02 -0.21292002068E+02  0.54367075370E+02  0.39999979920E+02 0.  0.
        -12    1    3    3    0    0 -0.15943169409E+01  0.29998154811E+02  0.21292002068E+02  0.36820924630E+02  0.00000000000E+00 0.  1.
         11    1    4    4    0    0 -0.16106498323E+02 -0.21331734118E+02 -0.16351407965E+02  0.31334178007E+02  0.51100000000E-03 0. -1.
        -11    1    4    4    0    0  0.27581202988E+01 -0.75372540220E+00 -0.54087419575E+01  0.61179914505E+01  0.51100000000E-03 0.  1.
         12    1    4    4    0    0  0.14942694965E+02 -0.79126952914E+01  0.46814785516E+00  0.16914905912E+02  0.00000000000E+00 0. -1.
</event>
<event>
 8    1  0.1290800E-006  0.9118800E+02  0.7816164E-02  0.1184000E+00
        -11   -1    0    0    0    0  0.00000000000E+00  0.00000000000E+00  0.45593999997E+02  0.45594000000E+02  0.51100000000E-03 0. -1.
         11   -1    0    0    0    0 -0.00000000000E+00 -0.00000000000E+00 -0.45593999997E+02  0.45594000000E+02  0.51100000000E-03 0.  1.
         23    2    1    2    0    0 -0.17763568394E-14  0.00000000000E+00  0.17763568394E-14  0.91188000000E+02  0.91188000000E+02 0.  0.
    9900012    2    3    3    0    0 -0.13921585772E+02 -0.33086540801E+02  0.82006202735E+01  0.54367083316E+02  0.39999998034E+02 0.  0.
         12    1    3    3    0    0  0.13921585772E+02  0.33086540801E+02 -0.82006202735E+01  0.36820916684E+02  0.00000000000E+00 0. -1.
         11    1    4    4    0    0 -0.21020655300E+02 -0.45304306362E+01  0.69983467549E+01  0.22613482893E+02  0.51100000000E-03 0.  1.
        -11    1    4    4    0    0  0.76959449065E+01 -0.26439573763E+02 -0.22842997877E+01  0.27631443223E+02  0.51100000000E-03 0. -1.
         12    1    4    4    0    0 -0.59687537837E+00 -0.21165364021E+01  0.34865733063E+01  0.41221571997E+01  0.00000000000E+00 0. -1.
</event>
<event>
 8    1  0.1290800E-006  0.9118800E+02  0.7816164E-02  0.1184000E+00
        -11   -1    0    0    0    0  0.00000000000E+00  0.00000000000E+00  0.45593999997E+02  0.45594000000E+02  0.51100000000E-03 0. -1.
         11   -1    0    0    0    0 -0.00000000000E+00 -0.00000000000E+00 -0.45593999997E+02  0.45594000000E+02  0.51100000000E-03 0.  1.
         23    2    1    2    0    0  0.22204460493E-15 -0.71054273576E-14  0.00000000000E+00  0.91188000000E+02  0.91188000000E+02 0.  0.
    9900012    2    3    3    0    0  0.17637713741E+01 -0.36508612255E+02  0.44485748755E+01  0.54367089138E+02  0.40000011308E+02 0.  0.
         12    1    3    3    0    0 -0.17637713741E+01  0.36508612255E+02 -0.44485748755E+01  0.36820910862E+02  0.00000000000E+00 0. -1.
         11    1    4    4    0    0 -0.12353671041E+02 -0.25230207903E+02 -0.25891525499E+01  0.28211350379E+02  0.51100000000E-03 0. -1.
        -11    1    4    4    0    0  0.62688583140E+01 -0.11943673431E+02 -0.25704093039E+01  0.13731603105E+02  0.51100000000E-03 0.  1.
        -12    1    4    4    0    0  0.78485841012E+01  0.66526907846E+00  0.96081367293E+01  0.12424135654E+02  0.00000000000E+00 0.  1.
</event>
<event>
 8    1  0.1290800E-006  0.9118800E+02  0.7816164E-02  0.1184000E+00
        -11   -1    0    0    0    0  0.00000000000E+00  0.00000000000E+00  0.45593999997E+02  0.45594000000E+02  0.51100000000E-03 0. -1.
         11   -1    0    0    0    0 -0.00000000000E+00 -0.00000000000E+00 -0.45593999997E+02  0.45594000000E+02  0.51100000000E-03 0.  1.
         23    2    1    2    0    0  0.00000000000E+00  0.00000000000E+00 -0.17763568394E-14  0.91188000000E+02  0.91188000000E+02 0.  0.
    9900012    2    3    3    0    0  0.30391424666E+02 -0.16746301690E+02 -0.12316736574E+02  0.54367091357E+02  0.40000016366E+02 0.  0.
         12    1    3    3    0    0 -0.30391424666E+02  0.16746301690E+02  0.12316736574E+02  0.36820908643E+02  0.00000000000E+00 0. -1.
         11    1    4    4    0    0 -0.53550169162E+01  0.21812257235E+01  0.44984393988E+01  0.73259749600E+01  0.51100000000E-03 0. -1.
        -11    1    4    4    0    0  0.32128270207E+02 -0.89987530773E+01 -0.12899334973E+02  0.35771443170E+02  0.51100000000E-03 0.  1.
        -12    1    4    4    0    0  0.36181713743E+01 -0.99287743357E+01 -0.39158409990E+01  0.11269673227E+02  0.00000000000E+00 0.  1.
</event>
<event>
 8    1  0.1290800E-006  0.9118800E+02  0.7816164E-02  0.1184000E+00
        -11   -1    0    0    0    0  0.00000000000E+00  0.00000000000E+00  0.45593999997E+02  0.45594000000E+02  0.51100000000E-03 0. -1.
         11   -1    0    0    0    0 -0.00000000000E+00 -0.00000000000E+00 -0.45593999997E+02  0.45594000000E+02  0.51100000000E-03 0.  1.
         23    2    1    2    0    0 -0.17763568394E-14 -0.44408920985E-15 -0.71054273576E-14  0.91188000000E+02  0.91188000000E+02 0.  0.
    9900012    2    3    3    0    0 -0.15019173112E+02 -0.21404208122E+01 -0.33550325610E+02  0.54367064232E+02  0.39999954531E+02 0.  0.
         12    1    3    3    0    0  0.15019173112E+02  0.21404208122E+01  0.33550325610E+02  0.36820935768E+02  0.00000000000E+00 0. -1.
         11    1    4    4    0    0  0.84224746349E+01 -0.19013878519E+01 -0.52381244211E+01  0.10099074336E+02  0.51100000000E-03 0. -1.
        -11    1    4    4    0    0  0.33719126958E+01 -0.17936185027E+01 -0.12566860514E+02  0.13134414566E+02  0.51100000000E-03 0.  1.
         12    1    4    4    0    0 -0.26813560443E+02  0.15545855425E+01 -0.15745340676E+02  0.31133575330E+02  0.00000000000E+00 0. -1.
</event>
<event>
 8    1  0.1290800E-006  0.9118800E+02  0.7816164E-02  0.1184000E+00
        -11   -1    0    0    0    0  0.00000000000E+00  0.00000000000E+00  0.45593999997E+02  0.45594000000E+02  0.51100000000E-03 0.  1.
         11   -1    0    0    0    0 -0.00000000000E+00 -0.00000000000E+00 -0.45593999997E+02  0.45594000000E+02  0.51100000000E-03 0. -1.
         23    2    1    2    0    0  0.00000000000E+00  0.00000000000E+00  0.00000000000E+00  0.91188000000E+02  0.91188000000E+02 0.  0.
    9900012    2    3    3    0    0  0.27020111211E+01 -0.13089133632E+02  0.34309670460E+02  0.54367085150E+02  0.40000002215E+02 0.  0.
         12    1    3    3    0    0 -0.27020111211E+01  0.13089133632E+02 -0.34309670460E+02  0.36820914850E+02  0.00000000000E+00 0. -1.
         11    1    4    4    0    0 -0.52204616344E+01  0.11083290317E+02  0.19234679787E+02  0.22804943558E+02  0.51100000000E-03 0. -1.
        -11    1    4    4    0    0  0.84057669950E+01 -0.87287408424E+01  0.83170709772E+01  0.14697670066E+02  0.51100000000E-03 0.  1.
         12    1    4    4    0    0 -0.48329423950E+00 -0.15443683106E+02  0.67579196961E+01  0.16864471525E+02  0.00000000000E+00 0. -1.
</event>
<event>
 8    1  0.1290800E-006  0.9118800E+02  0.7816164E-02  0.1184000E+00
        -11   -1    0    0    0    0  0.00000000000E+00  0.00000000000E+00  0.45593999997E+02  0.45594000000E+02  0.51100000000E-03 0. -1.
         11   -1    0    0    0    0 -0.00000000000E+00 -0.00000000000E+00 -0.45593999997E+02  0.45594000000E+02  0.51100000000E-03 0.  1.
         23    2    1    2    0    0  0.00000000000E+00 -0.35527136788E-14  0.35527136788E-14  0.91188000000E+02  0.91188000000E+02 0.  0.
    9900012    2    3    3    0    0  0.24015132442E+02  0.93036318176E+01  0.26315299639E+02  0.54367093624E+02  0.40000021536E+02 0.  0.
        -12    1    3    3    0    0 -0.24015132442E+02 -0.93036318176E+01 -0.26315299639E+02  0.36820906376E+02  0.00000000000E+00 0.  1.
         11    1    4    4    0    0  0.16165918856E+01 -0.32603837044E+01  0.12907299834E+00  0.36414463232E+01  0.51100000000E-03 0. -1.
        -11    1    4    4    0    0  0.20608694481E+02  0.19701975657E+02  0.58584274098E+01  0.29106825746E+02  0.51100000000E-03 0.  1.
        -12    1    4    4    0    0  0.17898460754E+01 -0.71379601352E+01  0.20327799231E+02  0.21618821555E+02  0.00000000000E+00 0.  1.
</event>
<event>
 8    1  0.1290800E-006  0.9118800E+02  0.7816164E-02  0.1184000E+00
        -11   -1    0    0    0    0  0.00000000000E+00  0.00000000000E+00  0.45593999997E+02  0.45594000000E+02  0.51100000000E-03 0. -1.
         11   -1    0    0    0    0 -0.00000000000E+00 -0.00000000000E+00 -0.45593999997E+02  0.45594000000E+02  0.51100000000E-03 0.  1.
         23    2    1    2    0    0  0.00000000000E+00 -0.35527136788E-14  0.00000000000E+00  0.91188000000E+02  0.91188000000E+02 0.  0.
    9900012    2    3    3    0    0  0.29840526024E+02  0.19919889033E+02  0.82777428431E+01  0.54367082045E+02  0.39999995138E+02 0.  0.
        -12    1    3    3    0    0 -0.29840526024E+02 -0.19919889033E+02 -0.82777428431E+01  0.36820917955E+02  0.00000000000E+00 0.  1.
         11    1    4    4    0    0  0.20111339066E+02  0.30005695686E+02  0.33215539765E+01  0.36274515210E+02  0.51100000000E-03 0. -1.
        -11    1    4    4    0    0  0.49723935051E+01  0.36762645350E+00  0.43082864534E+01  0.65894748504E+01  0.51100000000E-03 0.  1.
        -12    1    4    4    0    0  0.47567934534E+01 -0.10453433107E+02  0.64790241319E+00  0.11503091985E+02  0.00000000000E+00 0.  1.
</event>
<event>
 8    1  0.1290800E-006  0.9118800E+02  0.7816164E-02  0.1184000E+00
        -11   -1    0    0    0    0  0.00000000000E+00  0.00000000000E+00  0.45593999997E+02  0.45594000000E+02  0.51100000000E-03 0.  1.
         11   -1    0    0    0    0 -0.00000000000E+00 -0.00000000000E+00 -0.45593999997E+02  0.45594000000E+02  0.51100000000E-03 0. -1.
         23    2    1    2    0    0  0.00000000000E+00  0.00000000000E+00 -0.26645352591E-14  0.91188000000E+02  0.91188000000E+02 0.  0.
    9900012    2    3    3    0    0 -0.47501707506E+00  0.36461760341E+02  0.51082290895E+01  0.54367087290E+02  0.40000007094E+02 0.  0.
         12    1    3    3    0    0  0.47501707506E+00 -0.36461760341E+02 -0.51082290895E+01  0.36820912710E+02  0.00000000000E+00 0. -1.
         11    1    4    4    0    0 -0.29592021400E+01  0.15036698819E+01 -0.35848447010E+01  0.48855923091E+01  0.51100000000E-03 0. -1.
        -11    1    4    4    0    0  0.72411368479E-01  0.21883696766E+02 -0.11945170573E+02  0.24931677197E+02  0.51100000000E-03 0.  1.
        -12    1    4    4    0    0  0.24117736964E+01  0.13074393693E+02  0.20638244364E+02  0.24549817784E+02  0.00000000000E+00 0.  1.
</event>
<event>
 8    1  0.1290800E-006  0.9118800E+02  0.7816164E-02  0.1184000E+00
        -11   -1    0    0    0    0  0.00000000000E+00  0.00000000000E+00  0.45593999997E+02  0.45594000000E+02  0.51100000000E-03 0.  1.
         11   -1    0    0    0    0 -0.00000000000E+00 -0.00000000000E+00 -0.45593999997E+02  0.45594000000E+02  0.51100000000E-03 0. -1.
         23    2    1    2    0    0 -0.35527136788E-14 -0.53290705182E-14 -0.71054273576E-14  0.91188000000E+02  0.91188000000E+02 0.  0.
    9900012    2    3    3    0    0 -0.21973669555E+02 -0.15742663373E+02 -0.25002128140E+02  0.54367081824E+02  0.39999994633E+02 0.  0.
        -12    1    3    3    0    0  0.21973669555E+02  0.15742663373E+02  0.25002128140E+02  0.36820918176E+02  0.00000000000E+00 0.  1.
         11    1    4    4    0    0 -0.19499298995E+01  0.30953509482E+01 -0.31926994297E+01  0.48555899760E+01  0.51100000000E-03 0. -1.
        -11    1    4    4    0    0 -0.62533564609E+01  0.10299358747E+02 -0.40312351955E+01  0.12705593851E+02  0.51100000000E-03 0.  1.
        -12    1    4    4    0    0 -0.13770383195E+02 -0.29137373069E+02 -0.17778193515E+02  0.36805897997E+02  0.00000000000E+00 0.  1.
</event>
<event>
 8    1  0.1290800E-006  0.9118800E+02  0.7816164E-02  0.1184000E+00
        -11   -1    0    0    0    0  0.00000000000E+00  0.00000000000E+00  0.45593999997E+02  0.45594000000E+02  0.51100000000E-03 0. -1.
         11   -1    0    0    0    0 -0.00000000000E+00 -0.00000000000E+00 -0.45593999997E+02  0.45594000000E+02  0.51100000000E-03 0.  1.
         23    2    1    2    0    0  0.00000000000E+00 -0.17763568394E-14 -0.88817841970E-15  0.91188000000E+02  0.91188000000E+02 0.  0.
    9900012    2    3    3    0    0  0.34361658768E+02  0.13158239346E+02 -0.13852076440E+01  0.54367059542E+02  0.39999943838E+02 0.  0.
        -12    1    3    3    0    0 -0.34361658768E+02 -0.13158239346E+02  0.13852076440E+01  0.36820940458E+02  0.00000000000E+00 0.  1.
         11    1    4    4    0    0  0.15906701886E+01 -0.58730912922E+01  0.76548152798E+01  0.97785290409E+01  0.51100000000E-03 0. -1.
        -11    1    4    4    0    0 -0.30922855919E+01  0.27621029700E+01  0.15184838069E+00  0.41490361761E+01  0.51100000000E-03 0.  1.
        -12    1    4    4    0    0  0.35863274171E+02  0.16269227668E+02 -0.91918713046E+01  0.40439494325E+02  0.00000000000E+00 0.  1.
</event>
<event>
 8    1  0.1290800E-006  0.9118800E+02  0.7816164E-02  0.1184000E+00
        -11   -1    0    0    0    0  0.00000000000E+00  0.00000000000E+00  0.45593999997E+02  0.45594000000E+02  0.51100000000E-03 0.  1.
         11   -1    0    0    0    0 -0.00000000000E+00 -0.00000000000E+00 -0.45593999997E+02  0.45594000000E+02  0.51100000000E-03 0. -1.
         23    2    1    2    0    0  0.17763568394E-14  0.00000000000E+00 -0.35527136788E-14  0.91188000000E+02  0.91188000000E+02 0.  0.
    9900012    2    3    3    0    0 -0.15716228218E+02 -0.15085781982E+02 -0.29685009247E+02  0.54367076310E+02  0.39999982063E+02 0.  0.
        -12    1    3    3    0    0  0.15716228218E+02  0.15085781982E+02  0.29685009247E+02  0.36820923690E+02  0.00000000000E+00 0.  1.
         11    1    4    4    0    0 -0.48031091470E+01 -0.15343419634E+02 -0.11327964134E+02  0.19667566073E+02  0.51100000000E-03 0. -1.
        -11    1    4    4    0    0 -0.90481723903E+01 -0.12906637373E+02 -0.12734930052E+02  0.20263986665E+02  0.51100000000E-03 0.  1.
        -12    1    4    4    0    0 -0.18649466809E+01  0.13164275024E+02 -0.56221150614E+01  0.14435523572E+02  0.00000000000E+00 0.  1.
</event>
<event>
 8    1  0.1290800E-006  0.9118800E+02  0.7816164E-02  0.1184000E+00
        -11   -1    0    0    0    0  0.00000000000E+00  0.00000000000E+00  0.45593999997E+02  0.45594000000E+02  0.51100000000E-03 0. -1.
         11   -1    0    0    0    0 -0.00000000000E+00 -0.00000000000E+00 -0.45593999997E+02  0.45594000000E+02  0.51100000000E-03 0.  1.
         23    2    1    2    0    0 -0.44408920985E-15  0.00000000000E+00  0.00000000000E+00  0.91188000000E+02  0.91188000000E+02 0.  0.
    9900012    2    3    3    0    0 -0.36447186311E+01  0.18843794898E+02  0.31423035346E+02  0.54367085693E+02  0.40000003455E+02 0.  0.
        -12    1    3    3    0    0  0.36447186311E+01 -0.18843794898E+02 -0.31423035346E+02  0.36820914307E+02  0.00000000000E+00 0.  1.
         11    1    4    4    0    0 -0.55554758989E+01  0.15854143844E+02  0.60527950570E+01  0.17856469913E+02  0.51100000000E-03 0. -1.
        -11    1    4    4    0    0  0.38976088334E+01  0.50286597985E+01 -0.36607998325E+01  0.73403153653E+01  0.51100000000E-03 0.  1.
         12    1    4    4    0    0 -0.19868515656E+01 -0.20390087447E+01  0.29031040121E+02  0.29170300415E+02  0.00000000000E+00 0. -1.
</event>
<event>
 8    1  0.1290800E-006  0.9118800E+02  0.7816164E-02  0.1184000E+00
        -11   -1    0    0    0    0  0.00000000000E+00  0.00000000000E+00  0.45593999997E+02  0.45594000000E+02  0.51100000000E-03 0.  1.
         11   -1    0    0    0    0 -0.00000000000E+00 -0.00000000000E+00 -0.45593999997E+02  0.45594000000E+02  0.51100000000E-03 0. -1.
         23    2    1    2    0    0  0.00000000000E+00  0.17763568394E-14  0.44408920985E-15  0.91188000000E+02  0.91188000000E+02 0.  0.
    9900012    2    3    3    0    0  0.34939359785E+02 -0.11178628708E+02  0.31717029209E+01  0.54367077939E+02  0.39999985777E+02 0.  0.
        -12    1    3    3    0    0 -0.34939359785E+02  0.11178628708E+02 -0.31717029209E+01  0.36820922061E+02  0.00000000000E+00 0.  1.
         11    1    4    4    0    0 -0.42843554824E+01  0.21720284243E+01 -0.39704835725E+01  0.62320261101E+01  0.51100000000E-03 0. -1.
        -11    1    4    4    0    0  0.28358383899E+02 -0.45252639560E+01 -0.55396993584E+01  0.29246610410E+02  0.51100000000E-03 0.  1.
         12    1    4    4    0    0  0.10865331369E+02 -0.88253931768E+01  0.12681885852E+02  0.18888441419E+02  0.00000000000E+00 0. -1.
</event>
<event>
 8    1  0.1290800E-006  0.9118800E+02  0.7816164E-02  0.1184000E+00
        -11   -1    0    0    0    0  0.00000000000E+00  0.00000000000E+00  0.45593999997E+02  0.45594000000E+02  0.51100000000E-03 0.  1.
         11   -1    0    0    0    0 -0.00000000000E+00 -0.00000000000E+00 -0.45593999997E+02  0.45594000000E+02  0.51100000000E-03 0. -1.
         23    2    1    2    0    0  0.00000000000E+00  0.00000000000E+00  0.00000000000E+00  0.91188000000E+02  0.91188000000E+02 0.  0.
    9900012    2    3    3    0    0  0.11042700056E+02 -0.28666012135E+02 -0.20300214720E+02  0.54367079399E+02  0.39999989105E+02 0.  0.
        -12    1    3    3    0    0 -0.11042700056E+02  0.28666012135E+02  0.20300214720E+02  0.36820920601E+02  0.00000000000E+00 0.  1.
         11    1    4    4    0    0 -0.12101034646E+01 -0.10762681837E+02 -0.37971860347E+01  0.11476859011E+02  0.51100000000E-03 0. -1.
        -11    1    4    4    0    0  0.20989808955E+01  0.75400110843E+01  0.38884606399E+01  0.87394287205E+01  0.51100000000E-03 0.  1.
        -12    1    4    4    0    0  0.10153822625E+02 -0.25443341383E+02 -0.20391489325E+02  0.34150791667E+02  0.00000000000E+00 0.  1.
</event>
<event>
 8    1  0.1290800E-006  0.9118800E+02  0.7816164E-02  0.1184000E+00
        -11   -1    0    0    0    0  0.00000000000E+00  0.00000000000E+00  0.45593999997E+02  0.45594000000E+02  0.51100000000E-03 0. -1.
         11   -1    0    0    0    0 -0.00000000000E+00 -0.00000000000E+00 -0.45593999997E+02  0.45594000000E+02  0.51100000000E-03 0.  1.
         23    2    1    2    0    0  0.00000000000E+00  0.17763568394E-14  0.00000000000E+00  0.91188000000E+02  0.91188000000E+02 0.  0.
    9900012    2    3    3    0    0  0.34553984450E+02 -0.58543534822E+01  0.11292852766E+02  0.54367084481E+02  0.40000000691E+02 0.  0.
         12    1    3    3    0    0 -0.34553984450E+02  0.58543534822E+01 -0.11292852766E+02  0.36820915519E+02  0.00000000000E+00 0. -1.
         11    1    4    4    0    0  0.15296132490E+02 -0.15626291550E+02  0.15633191277E+02  0.26880277649E+02  0.51100000000E-03 0. -1.
        -11    1    4    4    0    0  0.12922144868E+02  0.96803796912E+01 -0.99991321479E+01  0.18991424984E+02  0.51100000000E-03 0.  1.
        -12    1    4    4    0    0  0.63357070931E+01  0.91558376869E-01  0.56587936371E+01  0.84953818474E+01  0.00000000000E+00 0.  1.
</event>
<event>
 8    1  0.1290800E-006  0.9118800E+02  0.7816164E-02  0.1184000E+00
        -11   -1    0    0    0    0  0.00000000000E+00  0.00000000000E+00  0.45593999997E+02  0.45594000000E+02  0.51100000000E-03 0. -1.
         11   -1    0    0    0    0 -0.00000000000E+00 -0.00000000000E+00 -0.45593999997E+02  0.45594000000E+02  0.51100000000E-03 0.  1.
         23    2    1    2    0    0 -0.35527136788E-14 -0.35527136788E-14  0.17763568394E-14  0.91188000000E+02  0.91188000000E+02 0.  0.
    9900012    2    3    3    0    0 -0.26352316985E+02 -0.21099901583E+02  0.14701347909E+02  0.54367080842E+02  0.39999992396E+02 0.  0.
        -12    1    3    3    0    0  0.26352316985E+02  0.21099901583E+02 -0.14701347909E+02  0.36820919158E+02  0.00000000000E+00 0.  1.
         11    1    4    4    0    0 -0.14006136644E+00 -0.50024579893E+01 -0.31416750622E+00  0.50142700968E+01  0.51100000000E-03 0. -1.
        -11    1    4    4    0    0 -0.59497583269E+01  0.46573567702E+01  0.18647946785E+02  0.20120549590E+02  0.51100000000E-03 0.  1.
        -12    1    4    4    0    0 -0.20262497291E+02 -0.20754800364E+02 -0.36324313700E+01  0.29232261156E+02  0.00000000000E+00 0.  1.
</event>
<event>
 8    1  0.1290800E-006  0.9118800E+02  0.7816164E-02  0.1184000E+00
        -11   -1    0    0    0    0  0.00000000000E+00  0.00000000000E+00  0.45593999997E+02  0.45594000000E+02  0.51100000000E-03 0. -1.
         11   -1    0    0    0    0 -0.00000000000E+00 -0.00000000000E+00 -0.45593999997E+02  0.45594000000E+02  0.51100000000E-03 0.  1.
         23    2    1    2    0    0  0.00000000000E+00  0.00000000000E+00  0.00000000000E+00  0.91188000000E+02  0.91188000000E+02 0.  0.
    9900012    2    3    3    0    0  0.19461641263E+02  0.17667934550E+02 -0.25785049315E+02  0.54367079858E+02  0.39999990153E+02 0.  0.
         12    1    3    3    0    0 -0.19461641263E+02 -0.17667934550E+02  0.25785049315E+02  0.36820920142E+02  0.00000000000E+00 0. -1.
         11    1    4    4    0    0  0.17021345963E+02 -0.35490460891E+01 -0.82983717494E+01  0.19266159983E+02  0.51100000000E-03 0. -1.
        -11    1    4    4    0    0  0.31775900534E+01  0.23765723066E+02 -0.80408977618E+01  0.25289577071E+02  0.51100000000E-03 0.  1.
         12    1    4    4    0    0 -0.73729475355E+00 -0.25487424264E+01 -0.94457798036E+01  0.98113428035E+01  0.00000000000E+00 0. -1.
</event>
<event>
 8    1  0.1290800E-006  0.9118800E+02  0.7816164E-02  0.1184000E+00
        -11   -1    0    0    0    0  0.00000000000E+00  0.00000000000E+00  0.45593999997E+02  0.45594000000E+02  0.51100000000E-03 0.  1.
         11   -1    0    0    0    0 -0.00000000000E+00 -0.00000000000E+00 -0.45593999997E+02  0.45594000000E+02  0.51100000000E-03 0. -1.
         23    2    1    2    0    0  0.00000000000E+00  0.00000000000E+00  0.00000000000E+00  0.91188000000E+02  0.91188000000E+02 0.  0.
    9900012    2    3    3    0    0  0.26402709196E+02  0.13855257949E+02 -0.21603444411E+02  0.54367081541E+02  0.39999993990E+02 0.  0.
        -12    1    3    3    0    0 -0.26402709196E+02 -0.13855257949E+02  0.21603444411E+02  0.36820918459E+02  0.00000000000E+00 0.  1.
         11    1    4    4    0    0  0.23698856374E+02 -0.20693485630E+01 -0.14970087132E+02  0.28107321216E+02  0.51100000000E-03 0. -1.
        -11    1    4    4    0    0  0.34458198911E+01  0.29431251234E+01  0.64049733924E+01  0.78459763340E+01  0.51100000000E-03 0.  1.
         12    1    4    4    0    0 -0.74196706972E+00  0.12981481389E+02 -0.13038330671E+02  0.18413783991E+02  0.00000000000E+00 0. -1.
</event>
<event>
 8    1  0.1290800E-006  0.9118800E+02  0.7816164E-02  0.1184000E+00
        -11   -1    0    0    0    0  0.00000000000E+00  0.00000000000E+00  0.45593999997E+02  0.45594000000E+02  0.51100000000E-03 0.  1.
         11   -1    0    0    0    0 -0.00000000000E+00 -0.00000000000E+00 -0.45593999997E+02  0.45594000000E+02  0.51100000000E-03 0. -1.
         23    2    1    2    0    0 -0.35527136788E-14 -0.71054273576E-14 -0.88817841970E-15  0.91188000000E+02  0.91188000000E+02 0.  0.
    9900012    2    3    3    0    0  0.11740671505E+02  0.34582627558E+02  0.46881354724E+01  0.54367080533E+02  0.39999991691E+02 0.  0.
        -12    1    3    3    0    0 -0.11740671505E+02 -0.34582627558E+02 -0.46881354724E+01  0.36820919467E+02  0.00000000000E+00 0.  1.
         11    1    4    4    0    0  0.49562793571E+01 -0.11224743976E+01 -0.28459712477E+01  0.58244490248E+01  0.51100000000E-03 0. -1.
        -11    1    4    4    0    0 -0.88663843928E+01  0.35505208935E+00 -0.10678096217E+01  0.89375081447E+01  0.51100000000E-03 0.  1.
        -12    1    4    4    0    0  0.15650776540E+02  0.35350049866E+02  0.86019163418E+01  0.39605123363E+02  0.00000000000E+00 0.  1.
</event>
<event>
 8    1  0.1290800E-006  0.9118800E+02  0.7816164E-02  0.1184000E+00
        -11   -1    0    0    0    0  0.00000000000E+00  0.00000000000E+00  0.45593999997E+02  0.45594000000E+02  0.51100000000E-03 0.  1.
         11   -1    0    0    0    0 -0.00000000000E+00 -0.00000000000E+00 -0.45593999997E+02  0.45594000000E+02  0.51100000000E-03 0. -1.
         23    2    1    2    0    0 -0.35527136788E-14  0.00000000000E+00  0.00000000000E+00  0.91188000000E+02  0.91188000000E+02 0.  0.
    9900012    2    3    3    0    0 -0.17923271234E+02  0.28596381998E+02  0.14723570285E+02  0.54367078813E+02  0.39999987770E+02 0.  0.
         12    1    3    3    0    0  0.17923271234E+02 -0.28596381998E+02 -0.14723570285E+02  0.36820921187E+02  0.00000000000E+00 0. -1.
         11    1    4    4    0    0  0.56646335801E+01 -0.16672028203E+01 -0.55367315835E+01  0.80946300551E+01  0.51100000000E-03 0. -1.
        -11    1    4    4    0    0 -0.17371656248E+01  0.24830779324E+01  0.84984433198E+01  0.90225805371E+01  0.51100000000E-03 0.  1.
         12    1    4    4    0    0 -0.21850739190E+02  0.27780506886E+02  0.11761858549E+02  0.37249868221E+02  0.00000000000E+00 0. -1.
</event>
<event>
 8    1  0.1290800E-006  0.9118800E+02  0.7816164E-02  0.1184000E+00
        -11   -1    0    0    0    0  0.00000000000E+00  0.00000000000E+00  0.45593999997E+02  0.45594000000E+02  0.51100000000E-03 0. -1.
         11   -1    0    0    0    0 -0.00000000000E+00 -0.00000000000E+00 -0.45593999997E+02  0.45594000000E+02  0.51100000000E-03 0.  1.
         23    2    1    2    0    0  0.00000000000E+00  0.00000000000E+00  0.00000000000E+00  0.91188000000E+02  0.91188000000E+02 0.  0.
    9900012    2    3    3    0    0 -0.95316276441E+01  0.15270075175E+02 -0.32120910983E+02  0.54367081438E+02  0.39999993754E+02 0.  0.
         12    1    3    3    0    0  0.95316276441E+01 -0.15270075175E+02  0.32120910983E+02  0.36820918562E+02  0.00000000000E+00 0. -1.
         11    1    4    4    0    0  0.51087771540E+01  0.17377356926E+02 -0.11437827344E+02  0.21421858751E+02  0.51100000000E-03 0. -1.
        -11    1    4    4    0    0 -0.63274861303E+01  0.55846677020E+01 -0.19872816428E+02  0.21590609698E+02  0.51100000000E-03 0.  1.
        -12    1    4    4    0    0 -0.83129186678E+01 -0.76919494535E+01 -0.81026721101E+00  0.11354612989E+02  0.00000000000E+00 0.  1.
</event>
<event>
 8    1  0.1290800E-006  0.9118800E+02  0.7816164E-02  0.1184000E+00
        -11   -1    0    0    0    0  0.00000000000E+00  0.00000000000E+00  0.45593999997E+02  0.45594000000E+02  0.51100000000E-03 0.  1.
         11   -1    0    0    0    0 -0.00000000000E+00 -0.00000000000E+00 -0.45593999997E+02  0.45594000000E+02  0.51100000000E-03 0. -1.
         23    2    1    2    0    0  0.00000000000E+00  0.17763568394E-14  0.00000000000E+00  0.91188000000E+02  0.91188000000E+02 0.  0.
    9900012    2    3    3    0    0  0.57125911480E+01 -0.11349871301E+02 -0.34559043157E+02  0.54367071982E+02  0.39999972197E+02 0.  0.
        -12    1    3    3    0    0 -0.57125911480E+01  0.11349871301E+02  0.34559043157E+02  0.36820928018E+02  0.00000000000E+00 0.  1.
         11    1    4    4    0    0 -0.14909744334E+00 -0.12965719525E+02 -0.17881157888E+02  0.22087732354E+02  0.51100000000E-03 0. -1.
        -11    1    4    4    0    0  0.71785303460E+01  0.13695393058E+02 -0.86810067729E+01  0.17732878159E+02  0.51100000000E-03 0.  1.
        -12    1    4    4    0    0 -0.13168417547E+01 -0.12079544834E+02 -0.79968784962E+01  0.14546461469E+02  0.00000000000E+00 0.  1.
</event>
<event>
 8    1  0.1290800E-006  0.9118800E+02  0.7816164E-02  0.1184000E+00
        -11   -1    0    0    0    0  0.00000000000E+00  0.00000000000E+00  0.45593999997E+02  0.45594000000E+02  0.51100000000E-03 0.  1.
         11   -1    0    0    0    0 -0.00000000000E+00 -0.00000000000E+00 -0.45593999997E+02  0.45594000000E+02  0.51100000000E-03 0. -1.
         23    2    1    2    0    0 -0.35527136788E-14  0.00000000000E+00  0.00000000000E+00  0.91188000000E+02  0.91188000000E+02 0.  0.
    9900012    2    3    3    0    0  0.17414552015E+02  0.20408308542E+02 -0.25219356095E+02  0.54367060288E+02  0.39999945539E+02 0.  0.
        -12    1    3    3    0    0 -0.17414552015E+02 -0.20408308542E+02  0.25219356095E+02  0.36820939712E+02  0.00000000000E+00 0.  1.
         11    1    4    4    0    0  0.27954555202E+02  0.10224193015E+02 -0.76342745480E+01  0.30729032323E+02  0.51100000000E-03 0.  1.
        -11    1    4    4    0    0 -0.55312916771E+01  0.26140992506E+01 -0.40353343147E+01  0.73288898069E+01  0.51100000000E-03 0. -1.
        -12    1    4    4    0    0 -0.50087115105E+01  0.75700162766E+01 -0.13549747232E+02  0.16309138159E+02  0.00000000000E+00 0.  1.
</event>
<event>
 8    1  0.1290800E-006  0.9118800E+02  0.7816164E-02  0.1184000E+00
        -11   -1    0    0    0    0  0.00000000000E+00  0.00000000000E+00  0.45593999997E+02  0.45594000000E+02  0.51100000000E-03 0.  1.
         11   -1    0    0    0    0 -0.00000000000E+00 -0.00000000000E+00 -0.45593999997E+02  0.45594000000E+02  0.51100000000E-03 0. -1.
         23    2    1    2    0    0  0.00000000000E+00  0.35527136788E-14  0.00000000000E+00  0.91188000000E+02  0.91188000000E+02 0.  0.
    9900012    2    3    3    0    0  0.12636310509E+02 -0.17836974800E+02  0.29630259761E+02  0.54366996391E+02  0.39999799871E+02 0.  0.
         12    1    3    3    0    0 -0.12636310509E+02  0.17836974800E+02 -0.29630259761E+02  0.36821003609E+02  0.00000000000E+00 0. -1.
         11    1    4    4    0    0  0.37591015360E+01 -0.83571541980E+01 -0.41889544860E+01  0.10075723825E+02  0.51100000000E-03 0. -1.
        -11    1    4    4    0    0  0.78592409181E+01 -0.23858823205E+01 -0.14160420797E+01  0.83345832342E+01  0.51100000000E-03 0.  1.
        -12    1    4    4    0    0  0.10179680549E+01 -0.70939382818E+01  0.35235256326E+02  0.35956689332E+02  0.00000000000E+00 0.  1.
</event>
<event>
 8    1  0.1290800E-006  0.9118800E+02  0.7816164E-02  0.1184000E+00
        -11   -1    0    0    0    0  0.00000000000E+00  0.00000000000E+00  0.45593999997E+02  0.45594000000E+02  0.51100000000E-03 0.  1.
         11   -1    0    0    0    0 -0.00000000000E+00 -0.00000000000E+00 -0.45593999997E+02  0.45594000000E+02  0.51100000000E-03 0. -1.
         23    2    1    2    0    0  0.35527136788E-14 -0.17763568394E-14 -0.35527136788E-14  0.91188000000E+02  0.91188000000E+02 0.  0.
    9900012    2    3    3    0    0 -0.19928581524E+02  0.94184125136E+01 -0.29494496201E+02  0.54367079832E+02  0.39999990094E+02 0.  0.
        -12    1    3    3    0    0  0.19928581524E+02 -0.94184125136E+01  0.29494496201E+02  0.36820920168E+02  0.00000000000E+00 0.  1.
         11    1    4    4    0    0  0.63545460639E+01  0.51931979998E+01 -0.72368338638E+00  0.82385240819E+01  0.51100000000E-03 0. -1.
        -11    1    4    4    0    0  0.11630641877E+01  0.71878202644E+00  0.34184186394E+01  0.36817050617E+01  0.51100000000E-03 0.  1.
        -12    1    4    4    0    0 -0.27446191776E+02  0.35064324874E+01 -0.32189231454E+02  0.42446850689E+02  0.00000000000E+00 0.  1.
</event>
<event>
 8    1  0.1290800E-006  0.9118800E+02  0.7816164E-02  0.1184000E+00
        -11   -1    0    0    0    0  0.00000000000E+00  0.00000000000E+00  0.45593999997E+02  0.45594000000E+02  0.51100000000E-03 0. -1.
         11   -1    0    0    0    0 -0.00000000000E+00 -0.00000000000E+00 -0.45593999997E+02  0.45594000000E+02  0.51100000000E-03 0.  1.
         23    2    1    2    0    0  0.00000000000E+00  0.00000000000E+00  0.00000000000E+00  0.91188000000E+02  0.91188000000E+02 0.  0.
    9900012    2    3    3    0    0  0.32426191613E+02 -0.14280627689E+02  0.10019630827E+02  0.54366983832E+02  0.39999771242E+02 0.  0.
         12    1    3    3    0    0 -0.32426191613E+02  0.14280627689E+02 -0.10019630827E+02  0.36821016168E+02  0.00000000000E+00 0. -1.
         11    1    4    4    0    0  0.13525923418E+01 -0.16827833217E+02 -0.37857751415E+01  0.17301374815E+02  0.51100000000E-03 0. -1.
        -11    1    4    4    0    0  0.25539188551E+02 -0.37358375403E+01  0.85977908406E+01  0.27205305394E+02  0.51100000000E-03 0.  1.
         12    1    4    4    0    0  0.55344107208E+01  0.62830430684E+01  0.52076151279E+01  0.98603036234E+01  0.00000000000E+00 0. -1.
</event>
<event>
 8    1  0.1290800E-006  0.9118800E+02  0.7816164E-02  0.1184000E+00
        -11   -1    0    0    0    0  0.00000000000E+00  0.00000000000E+00  0.45593999997E+02  0.45594000000E+02  0.51100000000E-03 0.  1.
         11   -1    0    0    0    0 -0.00000000000E+00 -0.00000000000E+00 -0.45593999997E+02  0.45594000000E+02  0.51100000000E-03 0. -1.
         23    2    1    2    0    0 -0.17763568394E-14  0.17763568394E-14  0.00000000000E+00  0.91188000000E+02  0.91188000000E+02 0.  0.
    9900012    2    3    3    0    0 -0.11824345207E+02 -0.14751085897E+02 -0.31597020030E+02  0.54367063707E+02  0.39999953332E+02 0.  0.
        -12    1    3    3    0    0  0.11824345207E+02  0.14751085897E+02  0.31597020030E+02  0.36820936293E+02  0.00000000000E+00 0.  1.
         11    1    4    4    0    0 -0.16942513665E+02 -0.19789227443E+02 -0.18346829003E+02  0.31863277088E+02  0.51100000000E-03 0. -1.
        -11    1    4    4    0    0  0.73790856795E+01  0.10164723951E+02 -0.86042718127E+01  0.15225176917E+02  0.51100000000E-03 0.  1.
        -12    1    4    4    0    0 -0.22609172214E+01 -0.51265824048E+01 -0.46459192150E+01  0.72786097016E+01  0.00000000000E+00 0.  1.
</event>
<event>
 8    1  0.1290800E-006  0.9118800E+02  0.7816164E-02  0.1184000E+00
        -11   -1    0    0    0    0  0.00000000000E+00  0.00000000000E+00  0.45593999997E+02  0.45594000000E+02  0.51100000000E-03 0. -1.
         11   -1    0    0    0    0 -0.00000000000E+00 -0.00000000000E+00 -0.45593999997E+02  0.45594000000E+02  0.51100000000E-03 0.  1.
         23    2    1    2    0    0  0.17763568394E-14  0.17763568394E-14  0.00000000000E+00  0.91188000000E+02  0.91188000000E+02 0.  0.
    9900012    2    3    3    0    0 -0.81348564997E+01  0.87961143729E+01 -0.34817091377E+02  0.54367117741E+02  0.40000076515E+02 0.  0.
         12    1    3    3    0    0  0.81348564997E+01 -0.87961143729E+01  0.34817091377E+02  0.36820882259E+02  0.00000000000E+00 0. -1.
         11    1    4    4    0    0 -0.64630746461E+01  0.26249189140E+01 -0.20560602582E+00  0.69788113088E+01  0.51100000000E-03 0. -1.
        -11    1    4    4    0    0  0.20942781194E+01 -0.10028385007E+02 -0.27414767808E+02  0.29266431298E+02  0.51100000000E-03 0.  1.
        -12    1    4    4    0    0 -0.37660599730E+01  0.16199580466E+02 -0.71967175432E+01  0.18121875135E+02  0.00000000000E+00 0.  1.
</event>
<event>
 8    1  0.1290800E-006  0.9118800E+02  0.7816164E-02  0.1184000E+00
        -11   -1    0    0    0    0  0.00000000000E+00  0.00000000000E+00  0.45593999997E+02  0.45594000000E+02  0.51100000000E-03 0.  1.
         11   -1    0    0    0    0 -0.00000000000E+00 -0.00000000000E+00 -0.45593999997E+02  0.45594000000E+02  0.51100000000E-03 0. -1.
         23    2    1    2    0    0  0.00000000000E+00  0.00000000000E+00  0.17763568394E-14  0.91188000000E+02  0.91188000000E+02 0.  0.
    9900012    2    3    3    0    0  0.30386173528E+02  0.16027127064E+02  0.13251284295E+02  0.54367015778E+02  0.39999844070E+02 0.  0.
         12    1    3    3    0    0 -0.30386173528E+02 -0.16027127064E+02 -0.13251284295E+02  0.36820984222E+02  0.00000000000E+00 0. -1.
         11    1    4    4    0    0  0.11898097146E+02  0.18885447393E+01 -0.27149589037E+01  0.12349182930E+02  0.51100000000E-03 0. -1.
        -11    1    4    4    0    0  0.61820749077E+01 -0.62831870377E+01 -0.51154323077E+01  0.10191375642E+02  0.51100000000E-03 0.  1.
        -12    1    4    4    0    0  0.12306001474E+02  0.20421769363E+02  0.21081675506E+02  0.31826457206E+02  0.00000000000E+00 0.  1.
</event>
<event>
 8    1  0.1290800E-006  0.9118800E+02  0.7816164E-02  0.1184000E+00
        -11   -1    0    0    0    0  0.00000000000E+00  0.00000000000E+00  0.45593999997E+02  0.45594000000E+02  0.51100000000E-03 0.  1.
         11   -1    0    0    0    0 -0.00000000000E+00 -0.00000000000E+00 -0.45593999997E+02  0.45594000000E+02  0.51100000000E-03 0. -1.
         23    2    1    2    0    0 -0.17763568394E-14 -0.17763568394E-14  0.00000000000E+00  0.91188000000E+02  0.91188000000E+02 0.  0.
    9900012    2    3    3    0    0  0.10271912514E+02  0.13137685094E+02  0.32827841502E+02  0.54367107371E+02  0.40000052873E+02 0.  0.
         12    1    3    3    0    0 -0.10271912514E+02 -0.13137685094E+02 -0.32827841502E+02  0.36820892629E+02  0.00000000000E+00 0. -1.
         11    1    4    4    0    0  0.13421098417E+02 -0.35734879708E+01  0.63220274248E+01  0.15259873198E+02  0.51100000000E-03 0. -1.
        -11    1    4    4    0    0 -0.73073234141E+01 -0.23357226286E+01  0.22638503097E+01  0.79985995125E+01  0.51100000000E-03 0.  1.
        -12    1    4    4    0    0  0.41581375110E+01  0.19046895693E+02  0.24241963768E+02  0.31108634660E+02  0.00000000000E+00 0.  1.
</event>
<event>
 8    1  0.1290800E-006  0.9118800E+02  0.7816164E-02  0.1184000E+00
        -11   -1    0    0    0    0  0.00000000000E+00  0.00000000000E+00  0.45593999997E+02  0.45594000000E+02  0.51100000000E-03 0.  1.
         11   -1    0    0    0    0 -0.00000000000E+00 -0.00000000000E+00 -0.45593999997E+02  0.45594000000E+02  0.51100000000E-03 0. -1.
         23    2    1    2    0    0  0.35527136788E-14  0.00000000000E+00  0.35527136788E-14  0.91188000000E+02  0.91188000000E+02 0.  0.
    9900012    2    3    3    0    0 -0.18006617473E+02 -0.25559071025E+02  0.19449371757E+02  0.54367048814E+02  0.39999919382E+02 0.  0.
         12    1    3    3    0    0  0.18006617473E+02  0.25559071025E+02 -0.19449371757E+02  0.36820951186E+02  0.00000000000E+00 0. -1.
         11    1    4    4    0    0 -0.37009143726E+01  0.45529557969E+01  0.17828719232E+02  0.18769374081E+02  0.51100000000E-03 0. -1.
        -11    1    4    4    0    0 -0.73338296012E+01 -0.18327062789E+02  0.69162775664E+01  0.20916528936E+02  0.51100000000E-03 0.  1.
        -12    1    4    4    0    0 -0.69718734987E+01 -0.11784964033E+02 -0.52956250414E+01  0.14681145797E+02  0.00000000000E+00 0.  1.
</event>
<event>
 8    1  0.1290800E-006  0.9118800E+02  0.7816164E-02  0.1184000E+00
        -11   -1    0    0    0    0  0.00000000000E+00  0.00000000000E+00  0.45593999997E+02  0.45594000000E+02  0.51100000000E-03 0. -1.
         11   -1    0    0    0    0 -0.00000000000E+00 -0.00000000000E+00 -0.45593999997E+02  0.45594000000E+02  0.51100000000E-03 0.  1.
         23    2    1    2    0    0  0.00000000000E+00  0.26645352591E-14  0.00000000000E+00  0.91188000000E+02  0.91188000000E+02 0.  0.
    9900012    2    3    3    0    0  0.35818760898E+02  0.67439222378E+01  0.52264603656E+01  0.54367081932E+02  0.39999994880E+02 0.  0.
        -12    1    3    3    0    0 -0.35818760898E+02 -0.67439222378E+01 -0.52264603656E+01  0.36820918068E+02  0.00000000000E+00 0.  1.
         11    1    4    4    0    0  0.46632837240E+00 -0.45430554546E+01 -0.35925717085E+01  0.58106270536E+01  0.51100000000E-03 0.  1.
        -11    1    4    4    0    0  0.17477983806E+02 -0.81911035203E+01  0.10670323723E+02  0.22055155938E+02  0.51100000000E-03 0. -1.
         12    1    4    4    0    0  0.17874448720E+02  0.19478081213E+02 -0.18512916491E+01  0.26501298940E+02  0.00000000000E+00 0. -1.
</event>
<event>
 8    1  0.1290800E-006  0.9118800E+02  0.7816164E-02  0.1184000E+00
        -11   -1    0    0    0    0  0.00000000000E+00  0.00000000000E+00  0.45593999997E+02  0.45594000000E+02  0.51100000000E-03 0.  1.
         11   -1    0    0    0    0 -0.00000000000E+00 -0.00000000000E+00 -0.45593999997E+02  0.45594000000E+02  0.51100000000E-03 0. -1.
         23    2    1    2    0    0  0.00000000000E+00 -0.35527136788E-14 -0.71054273576E-14  0.91188000000E+02  0.91188000000E+02 0.  0.
    9900012    2    3    3    0    0  0.26275878473E+01  0.24653936032E+02 -0.27222474198E+02  0.54367029328E+02  0.39999874960E+02 0.  0.
        -12    1    3    3    0    0 -0.26275878473E+01 -0.24653936032E+02  0.27222474198E+02  0.36820970672E+02  0.00000000000E+00 0.  1.
         11    1    4    4    0    0  0.95133328219E+01  0.65359208542E+01 -0.77807155831E+01  0.13919816739E+02  0.51100000000E-03 0. -1.
        -11    1    4    4    0    0 -0.11824936874E+02  0.15757258446E+01  0.28371917825E+01  0.12262206225E+02  0.51100000000E-03 0.  1.
        -12    1    4    4    0    0  0.49391918998E+01  0.16542289333E+02 -0.22278950397E+02  0.28185006365E+02  0.00000000000E+00 0.  1.
</event>
<event>
 8    1  0.1290800E-006  0.9118800E+02  0.7816164E-02  0.1184000E+00
        -11   -1    0    0    0    0  0.00000000000E+00  0.00000000000E+00  0.45593999997E+02  0.45594000000E+02  0.51100000000E-03 0. -1.
         11   -1    0    0    0    0 -0.00000000000E+00 -0.00000000000E+00 -0.45593999997E+02  0.45594000000E+02  0.51100000000E-03 0.  1.
         23    2    1    2    0    0  0.00000000000E+00 -0.17763568394E-14 -0.66613381478E-15  0.91188000000E+02  0.91188000000E+02 0.  0.
    9900012    2    3    3    0    0  0.33754797525E+02  0.14707573585E+02 -0.28497339985E+00  0.54367078140E+02  0.39999986237E+02 0.  0.
        -12    1    3    3    0    0 -0.33754797525E+02 -0.14707573585E+02  0.28497339985E+00  0.36820921860E+02  0.00000000000E+00 0.  1.
         11    1    4    4    0    0 -0.35757036310E+00 -0.90989998506E+01  0.36494327118E+01  0.98100975645E+01  0.51100000000E-03 0. -1.
        -11    1    4    4    0    0  0.42010139140E+01  0.10903373650E+02  0.41535498849E+00  0.11692074020E+02  0.51100000000E-03 0.  1.
         12    1    4    4    0    0  0.29911353974E+02  0.12903199786E+02 -0.43497611001E+01  0.32864906556E+02  0.00000000000E+00 0. -1.
</event>
<event>
 8    1  0.1290800E-006  0.9118800E+02  0.7816164E-02  0.1184000E+00
        -11   -1    0    0    0    0  0.00000000000E+00  0.00000000000E+00  0.45593999997E+02  0.45594000000E+02  0.51100000000E-03 0.  1.
         11   -1    0    0    0    0 -0.00000000000E+00 -0.00000000000E+00 -0.45593999997E+02  0.45594000000E+02  0.51100000000E-03 0. -1.
         23    2    1    2    0    0 -0.77715611724E-15 -0.35527136788E-14 -0.35527136788E-14  0.91188000000E+02  0.91188000000E+02 0.  0.
    9900012    2    3    3    0    0 -0.75082670231E+00  0.23637397327E+02  0.28222118282E+02  0.54367105749E+02  0.40000049176E+02 0.  0.
         12    1    3    3    0    0  0.75082670231E+00 -0.23637397327E+02 -0.28222118282E+02  0.36820894251E+02  0.00000000000E+00 0. -1.
         11    1    4    4    0    0 -0.29835730429E+01  0.41536366409E+01 -0.37512767110E+01  0.63424350742E+01  0.51100000000E-03 0. -1.
        -11    1    4    4    0    0 -0.61372384101E+00 -0.73951912468E+01  0.13108376822E+02  0.15063036005E+02  0.51100000000E-03 0.  1.
         12    1    4    4    0    0  0.28464701816E+01  0.26878951933E+02  0.18865018171E+02  0.32961634670E+02  0.00000000000E+00 0. -1.
</event>
<event>
 8    1  0.1290800E-006  0.9118800E+02  0.7816164E-02  0.1184000E+00
        -11   -1    0    0    0    0  0.00000000000E+00  0.00000000000E+00  0.45593999997E+02  0.45594000000E+02  0.51100000000E-03 0.  1.
         11   -1    0    0    0    0 -0.00000000000E+00 -0.00000000000E+00 -0.45593999997E+02  0.45594000000E+02  0.51100000000E-03 0. -1.
         23    2    1    2    0    0  0.00000000000E+00  0.00000000000E+00  0.71054273576E-14  0.91188000000E+02  0.91188000000E+02 0.  0.
    9900012    2    3    3    0    0 -0.91547131837E+01 -0.10160123168E+02  0.34186945741E+02  0.54367025877E+02  0.39999867091E+02 0.  0.
         12    1    3    3    0    0  0.91547131837E+01  0.10160123168E+02 -0.34186945741E+02  0.36820974123E+02  0.00000000000E+00 0. -1.
         11    1    4    4    0    0 -0.84004910016E+01  0.53289866956E+01  0.22741712321E+01  0.10204812753E+02  0.51100000000E-03 0. -1.
        -11    1    4    4    0    0 -0.56079698577E+01 -0.51122081005E+01  0.31813313772E+02  0.32705824114E+02  0.51100000000E-03 0.  1.
        -12    1    4    4    0    0  0.48537476756E+01 -0.10376901763E+02  0.99460737329E-01  0.11456389009E+02  0.00000000000E+00 0.  1.
</event>
<event>
 8    1  0.1290800E-006  0.9118800E+02  0.7816164E-02  0.1184000E+00
        -11   -1    0    0    0    0  0.00000000000E+00  0.00000000000E+00  0.45593999997E+02  0.45594000000E+02  0.51100000000E-03 0. -1.
         11   -1    0    0    0    0 -0.00000000000E+00 -0.00000000000E+00 -0.45593999997E+02  0.45594000000E+02  0.51100000000E-03 0.  1.
         23    2    1    2    0    0  0.00000000000E+00  0.71054273576E-14  0.00000000000E+00  0.91188000000E+02  0.91188000000E+02 0.  0.
    9900012    2    3    3    0    0 -0.43592390342E+01 -0.27767418675E+02 -0.23785439758E+02  0.54367086794E+02  0.40000005965E+02 0.  0.
         12    1    3    3    0    0  0.43592390342E+01  0.27767418675E+02  0.23785439758E+02  0.36820913206E+02  0.00000000000E+00 0. -1.
         11    1    4    4    0    0 -0.61278744764E+01 -0.64444853356E+01 -0.96341662718E+00  0.89448537550E+01  0.51100000000E-03 0. -1.
        -11    1    4    4    0    0  0.84798253722E+01 -0.27032698465E+02 -0.10373799796E+02  0.30171011702E+02  0.51100000000E-03 0.  1.
         12    1    4    4    0    0 -0.67111899300E+01  0.57097651265E+01 -0.12448223335E+02  0.15251221337E+02  0.00000000000E+00 0. -1.
</event>
<event>
 8    1  0.1290800E-006  0.9118800E+02  0.7816164E-02  0.1184000E+00
        -11   -1    0    0    0    0  0.00000000000E+00  0.00000000000E+00  0.45593999997E+02  0.45594000000E+02  0.51100000000E-03 0. -1.
         11   -1    0    0    0    0 -0.00000000000E+00 -0.00000000000E+00 -0.45593999997E+02  0.45594000000E+02  0.51100000000E-03 0.  1.
         23    2    1    2    0    0  0.00000000000E+00  0.35527136788E-14  0.00000000000E+00  0.91188000000E+02  0.91188000000E+02 0.  0.
    9900012    2    3    3    0    0 -0.20559794329E+02  0.29282019499E+02  0.86969685744E+01  0.54367094644E+02  0.40000023860E+02 0.  0.
        -12    1    3    3    0    0  0.20559794329E+02 -0.29282019499E+02 -0.86969685744E+01  0.36820905356E+02  0.00000000000E+00 0.  1.
         11    1    4    4    0    0 -0.11462634872E+02  0.56802534229E+01 -0.77807442377E+01  0.14973218034E+02  0.51100000000E-03 0.  1.
        -11    1    4    4    0    0  0.51917279789E+01  0.20358355751E+02  0.11283010172E+02  0.23847914104E+02  0.51100000000E-03 0. -1.
         12    1    4    4    0    0 -0.14288887437E+02  0.32434103252E+01  0.51947026399E+01  0.15545962506E+02  0.00000000000E+00 0. -1.
</event>
<event>
 8    1  0.1290800E-006  0.9118800E+02  0.7816164E-02  0.1184000E+00
        -11   -1    0    0    0    0  0.00000000000E+00  0.00000000000E+00  0.45593999997E+02  0.45594000000E+02  0.51100000000E-03 0.  1.
         11   -1    0    0    0    0 -0.00000000000E+00 -0.00000000000E+00 -0.45593999997E+02  0.45594000000E+02  0.51100000000E-03 0. -1.
         23    2    1    2    0    0 -0.71054273576E-14  0.88817841970E-15 -0.35527136788E-14  0.91188000000E+02  0.91188000000E+02 0.  0.
    9900012    2    3    3    0    0 -0.28573960022E+02  0.36660163447E+01 -0.22931812920E+02  0.54367096820E+02  0.40000028821E+02 0.  0.
        -12    1    3    3    0    0  0.28573960022E+02 -0.36660163447E+01  0.22931812920E+02  0.36820903180E+02  0.00000000000E+00 0.  1.
         11    1    4    4    0    0  0.27309498060E+01  0.96535535096E+01 -0.72727945536E+01  0.12391235737E+02  0.51100000000E-03 0. -1.
        -11    1    4    4    0    0 -0.29465575043E+02 -0.10193299176E+02 -0.18805027733E+02  0.36410884760E+02  0.51100000000E-03 0.  1.
         12    1    4    4    0    0 -0.18393347853E+01  0.42057620113E+01  0.31460093668E+01  0.55649763238E+01  0.00000000000E+00 0. -1.
</event>
<event>
 8    1  0.1290800E-006  0.9118800E+02  0.7816164E-02  0.1184000E+00
        -11   -1    0    0    0    0  0.00000000000E+00  0.00000000000E+00  0.45593999997E+02  0.45594000000E+02  0.51100000000E-03 0. -1.
         11   -1    0    0    0    0 -0.00000000000E+00 -0.00000000000E+00 -0.45593999997E+02  0.45594000000E+02  0.51100000000E-03 0.  1.
         23    2    1    2    0    0  0.00000000000E+00  0.35527136788E-14  0.00000000000E+00  0.91188000000E+02  0.91188000000E+02 0.  0.
    9900012    2    3    3    0    0 -0.10429937727E+02 -0.11024585481E+02  0.33547806181E+02  0.54367076796E+02  0.39999983172E+02 0.  0.
        -12    1    3    3    0    0  0.10429937727E+02  0.11024585481E+02 -0.33547806181E+02  0.36820923204E+02  0.00000000000E+00 0.  1.
         11    1    4    4    0    0  0.11522412471E+01  0.63738308864E+01 -0.19038746112E+01  0.67511568532E+01  0.51100000000E-03 0. -1.
        -11    1    4    4    0    0  0.11569080353E+01 -0.18641569208E+02  0.17708646333E+02  0.25737962117E+02  0.51100000000E-03 0.  1.
         12    1    4    4    0    0 -0.12739087009E+02  0.12431528407E+01  0.17743034459E+02  0.21877957826E+02  0.00000000000E+00 0. -1.
</event>
<event>
 8    1  0.1290800E-006  0.9118800E+02  0.7816164E-02  0.1184000E+00
        -11   -1    0    0    0    0  0.00000000000E+00  0.00000000000E+00  0.45593999997E+02  0.45594000000E+02  0.51100000000E-03 0.  1.
         11   -1    0    0    0    0 -0.00000000000E+00 -0.00000000000E+00 -0.45593999997E+02  0.45594000000E+02  0.51100000000E-03 0. -1.
         23    2    1    2    0    0 -0.88817841970E-15  0.71054273576E-14 -0.17763568394E-14  0.91188000000E+02  0.91188000000E+02 0.  0.
    9900012    2    3    3    0    0  0.48654715979E+01 -0.34572641648E+02 -0.11697918474E+02  0.54367059477E+02  0.39999943690E+02 0.  0.
        -12    1    3    3    0    0 -0.48654715979E+01  0.34572641648E+02  0.11697918474E+02  0.36820940523E+02  0.00000000000E+00 0.  1.
         11    1    4    4    0    0 -0.11709480366E+02 -0.84572624760E+01 -0.18780079777E+01  0.14565855047E+02  0.51100000000E-03 0. -1.
        -11    1    4    4    0    0  0.85718971711E+01  0.10326602267E+01 -0.74417159706E+01  0.11398374669E+02  0.51100000000E-03 0.  1.
         12    1    4    4    0    0  0.80030547926E+01 -0.27148039399E+02 -0.23781945253E+01  0.28402829760E+02  0.00000000000E+00 0. -1.
</event>
<event>
 8    1  0.1290800E-006  0.9118800E+02  0.7816164E-02  0.1184000E+00
        -11   -1    0    0    0    0  0.00000000000E+00  0.00000000000E+00  0.45593999997E+02  0.45594000000E+02  0.51100000000E-03 0. -1.
         11   -1    0    0    0    0 -0.00000000000E+00 -0.00000000000E+00 -0.45593999997E+02  0.45594000000E+02  0.51100000000E-03 0.  1.
         23    2    1    2    0    0 -0.88817841970E-15 -0.17763568394E-14  0.71054273576E-14  0.91188000000E+02  0.91188000000E+02 0.  0.
    9900012    2    3    3    0    0 -0.66164630772E+01 -0.11685683998E+02  0.34284788362E+02  0.54367088724E+02  0.40000010364E+02 0.  0.
        -12    1    3    3    0    0  0.66164630772E+01  0.11685683998E+02 -0.34284788362E+02  0.36820911276E+02  0.00000000000E+00 0.  1.
         11    1    4    4    0    0 -0.12774831010E+01 -0.23916711753E+01 -0.14524191825E+01  0.30759674619E+01  0.51100000000E-03 0. -1.
        -11    1    4    4    0    0 -0.15331738536E+02  0.74922086155E+01  0.14065041750E+02  0.22113814600E+02  0.51100000000E-03 0.  1.
         12    1    4    4    0    0  0.99927585601E+01 -0.16786221438E+02  0.21672165795E+02  0.29177306662E+02  0.00000000000E+00 0. -1.
</event>
<event>
 8    1  0.1290800E-006  0.9118800E+02  0.7816164E-02  0.1184000E+00
        -11   -1    0    0    0    0  0.00000000000E+00  0.00000000000E+00  0.45593999997E+02  0.45594000000E+02  0.51100000000E-03 0. -1.
         11   -1    0    0    0    0 -0.00000000000E+00 -0.00000000000E+00 -0.45593999997E+02  0.45594000000E+02  0.51100000000E-03 0.  1.
         23    2    1    2    0    0  0.00000000000E+00 -0.35527136788E-14 -0.35527136788E-14  0.91188000000E+02  0.91188000000E+02 0.  0.
    9900012    2    3    3    0    0 -0.20491069376E+02  0.24054430060E+02 -0.18901855946E+02  0.54367086270E+02  0.40000004770E+02 0.  0.
         12    1    3    3    0    0  0.20491069376E+02 -0.24054430060E+02  0.18901855946E+02  0.36820913730E+02  0.00000000000E+00 0. -1.
         11    1    4    4    0    0  0.72633211797E+00  0.16221276457E+02 -0.14007433439E+02  0.21444476213E+02  0.51100000000E-03 0. -1.
        -11    1    4    4    0    0 -0.16718735301E+02  0.79127507181E+01 -0.13710993145E+02  0.23024314698E+02  0.51100000000E-03 0.  1.
         12    1    4    4    0    0 -0.44986661925E+01 -0.79597115130E-01  0.88165706380E+01  0.98982953597E+01  0.00000000000E+00 0. -1.
</event>
<event>
 8    1  0.1290800E-006  0.9118800E+02  0.7816164E-02  0.1184000E+00
        -11   -1    0    0    0    0  0.00000000000E+00  0.00000000000E+00  0.45593999997E+02  0.45594000000E+02  0.51100000000E-03 0.  1.
         11   -1    0    0    0    0 -0.00000000000E+00 -0.00000000000E+00 -0.45593999997E+02  0.45594000000E+02  0.51100000000E-03 0. -1.
         23    2    1    2    0    0  0.00000000000E+00 -0.17763568394E-14 -0.88817841970E-15  0.91188000000E+02  0.91188000000E+02 0.  0.
    9900012    2    3    3    0    0  0.35336030680E+02  0.95637294165E+01  0.39597390583E+01  0.54367088578E+02  0.40000010031E+02 0.  0.
        -12    1    3    3    0    0 -0.35336030680E+02 -0.95637294165E+01 -0.39597390583E+01  0.36820911422E+02  0.00000000000E+00 0.  1.
         11    1    4    4    0    0  0.84155383188E+01  0.71458440877E+01  0.66984503067E+01  0.12913311337E+02  0.51100000000E-03 0. -1.
        -11    1    4    4    0    0  0.81048958333E+01 -0.11925103409E+02  0.68032232894E+01  0.15943063544E+02  0.51100000000E-03 0.  1.
         12    1    4    4    0    0  0.18815596528E+02  0.14342988737E+02 -0.95419345378E+01  0.25510713697E+02  0.00000000000E+00 0. -1.
</event>
<event>
 8    1  0.1290800E-006  0.9118800E+02  0.7816164E-02  0.1184000E+00
        -11   -1    0    0    0    0  0.00000000000E+00  0.00000000000E+00  0.45593999997E+02  0.45594000000E+02  0.51100000000E-03 0.  1.
         11   -1    0    0    0    0 -0.00000000000E+00 -0.00000000000E+00 -0.45593999997E+02  0.45594000000E+02  0.51100000000E-03 0. -1.
         23    2    1    2    0    0 -0.44408920985E-15  0.17763568394E-14  0.00000000000E+00  0.91188000000E+02  0.91188000000E+02 0.  0.
    9900012    2    3    3    0    0 -0.29167317362E+01 -0.14360928204E+02  0.33779222900E+02  0.54367089058E+02  0.40000011125E+02 0.  0.
         12    1    3    3    0    0  0.29167317362E+01  0.14360928204E+02 -0.33779222900E+02  0.36820910942E+02  0.00000000000E+00 0. -1.
         11    1    4    4    0    0  0.10947010376E+02 -0.15987948487E+02  0.27111370620E+01  0.19565321296E+02  0.51100000000E-03 0. -1.
        -11    1    4    4    0    0 -0.94579623890E+01  0.81461217871E+00  0.12472808255E+02  0.15674424761E+02  0.51100000000E-03 0.  1.
         12    1    4    4    0    0 -0.44057797231E+01  0.81240810445E+00  0.18595277583E+02  0.19127343001E+02  0.00000000000E+00 0. -1.
</event>
<event>
 8    1  0.1290800E-006  0.9118800E+02  0.7816164E-02  0.1184000E+00
        -11   -1    0    0    0    0  0.00000000000E+00  0.00000000000E+00  0.45593999997E+02  0.45594000000E+02  0.51100000000E-03 0.  1.
         11   -1    0    0    0    0 -0.00000000000E+00 -0.00000000000E+00 -0.45593999997E+02  0.45594000000E+02  0.51100000000E-03 0. -1.
         23    2    1    2    0    0 -0.35527136788E-14  0.35527136788E-14  0.88817841970E-15  0.91188000000E+02  0.91188000000E+02 0.  0.
    9900012    2    3    3    0    0  0.26626276747E+02 -0.24904632267E+02 -0.51555642553E+01  0.54367093377E+02  0.40000020972E+02 0.  0.
         12    1    3    3    0    0 -0.26626276747E+02  0.24904632267E+02  0.51555642553E+01  0.36820906623E+02  0.00000000000E+00 0. -1.
         11    1    4    4    0    0  0.20409529373E+01 -0.20086379076E+02  0.43027158000E+00  0.20194386526E+02  0.51100000000E-03 0. -1.
        -11    1    4    4    0    0  0.25963917450E+02  0.77352567399E+00 -0.89846147146E+01  0.27485389813E+02  0.51100000000E-03 0.  1.
        -12    1    4    4    0    0 -0.13785936407E+01 -0.55917788648E+01  0.33987788793E+01  0.66873170382E+01  0.00000000000E+00 0.  1.
</event>
<event>
 8    1  0.1290800E-006  0.9118800E+02  0.7816164E-02  0.1184000E+00
        -11   -1    0    0    0    0  0.00000000000E+00  0.00000000000E+00  0.45593999997E+02  0.45594000000E+02  0.51100000000E-03 0. -1.
         11   -1    0    0    0    0 -0.00000000000E+00 -0.00000000000E+00 -0.45593999997E+02  0.45594000000E+02  0.51100000000E-03 0.  1.
         23    2    1    2    0    0  0.00000000000E+00  0.00000000000E+00 -0.17763568394E-14  0.91188000000E+02  0.91188000000E+02 0.  0.
    9900012    2    3    3    0    0  0.93242399786E+01 -0.35373093395E+02 -0.41931174006E+01  0.54367089894E+02  0.40000013031E+02 0.  0.
        -12    1    3    3    0    0 -0.93242399786E+01  0.35373093395E+02  0.41931174006E+01  0.36820910106E+02  0.00000000000E+00 0.  1.
         11    1    4    4    0    0  0.83995218061E+01 -0.13581276529E+02 -0.23978588535E+01  0.16147840911E+02  0.51100000000E-03 0. -1.
        -11    1    4    4    0    0  0.53230908533E+01 -0.24807344893E+02 -0.10942412871E+02  0.27631070493E+02  0.51100000000E-03 0.  1.
        -12    1    4    4    0    0 -0.43983726807E+01  0.30155280275E+01  0.91471543236E+01  0.10588178490E+02  0.00000000000E+00 0.  1.
</event>
<event>
 8    1  0.1290800E-006  0.9118800E+02  0.7816164E-02  0.1184000E+00
        -11   -1    0    0    0    0  0.00000000000E+00  0.00000000000E+00  0.45593999997E+02  0.45594000000E+02  0.51100000000E-03 0.  1.
         11   -1    0    0    0    0 -0.00000000000E+00 -0.00000000000E+00 -0.45593999997E+02  0.45594000000E+02  0.51100000000E-03 0. -1.
         23    2    1    2    0    0  0.00000000000E+00  0.17763568394E-14 -0.17763568394E-14  0.91188000000E+02  0.91188000000E+02 0.  0.
    9900012    2    3    3    0    0  0.33010547277E+02 -0.13209261056E+02 -0.95707104460E+01  0.54367091434E+02  0.40000016542E+02 0.  0.
        -12    1    3    3    0    0 -0.33010547277E+02  0.13209261056E+02  0.95707104460E+01  0.36820908566E+02  0.00000000000E+00 0.  1.
         11    1    4    4    0    0  0.13902123973E+02 -0.17397420040E+01 -0.39689956466E+01  0.14561891357E+02  0.51100000000E-03 0. -1.
        -11    1    4    4    0    0  0.16482761950E+02 -0.16667082981E+02  0.81933152391E+01  0.24831502400E+02  0.51100000000E-03 0.  1.
        -12    1    4    4    0    0  0.26256613548E+01  0.51975639291E+01 -0.13795030038E+02  0.14973697677E+02  0.00000000000E+00 0.  1.
</event>
<event>
 8    1  0.1290800E-006  0.9118800E+02  0.7816164E-02  0.1184000E+00
        -11   -1    0    0    0    0  0.00000000000E+00  0.00000000000E+00  0.45593999997E+02  0.45594000000E+02  0.51100000000E-03 0.  1.
         11   -1    0    0    0    0 -0.00000000000E+00 -0.00000000000E+00 -0.45593999997E+02  0.45594000000E+02  0.51100000000E-03 0. -1.
         23    2    1    2    0    0 -0.35527136788E-14  0.35527136788E-14  0.00000000000E+00  0.91188000000E+02  0.91188000000E+02 0.  0.
    9900012    2    3    3    0    0  0.24730568410E+02 -0.16113769210E+02 -0.22012361912E+02  0.54366828794E+02  0.39999417797E+02 0.  0.
        -12    1    3    3    0    0 -0.24730568410E+02  0.16113769210E+02  0.22012361912E+02  0.36821171206E+02  0.00000000000E+00 0.  1.
         11    1    4    4    0    0  0.63678310520E+01 -0.37991066247E+01 -0.12352413280E+02  0.14407102330E+02  0.51100000000E-03 0. -1.
        -11    1    4    4    0    0  0.22724691010E+02  0.50532234097E+00 -0.12761059741E+02  0.26067442877E+02  0.51100000000E-03 0.  1.
         12    1    4    4    0    0 -0.43619536512E+01 -0.12819984926E+02  0.31011111090E+01  0.13892283587E+02  0.00000000000E+00 0. -1.
</event>
<event>
 8    1  0.1290800E-006  0.9118800E+02  0.7816164E-02  0.1184000E+00
        -11   -1    0    0    0    0  0.00000000000E+00  0.00000000000E+00  0.45593999997E+02  0.45594000000E+02  0.51100000000E-03 0.  1.
         11   -1    0    0    0    0 -0.00000000000E+00 -0.00000000000E+00 -0.45593999997E+02  0.45594000000E+02  0.51100000000E-03 0. -1.
         23    2    1    2    0    0  0.00000000000E+00  0.35527136788E-14  0.35527136788E-14  0.91188000000E+02  0.91188000000E+02 0.  0.
    9900012    2    3    3    0    0 -0.21906080089E+02 -0.24969422622E+02  0.15887854331E+02  0.54367186237E+02  0.40000232663E+02 0.  0.
         12    1    3    3    0    0  0.21906080089E+02  0.24969422622E+02 -0.15887854331E+02  0.36820813763E+02  0.00000000000E+00 0. -1.
         11    1    4    4    0    0 -0.15726201651E+02 -0.65534259854E+01  0.97771197132E+00  0.17065073439E+02  0.51100000000E-03 0. -1.
        -11    1    4    4    0    0  0.51750612219E+01  0.37537285894E+01 -0.25507117064E+01  0.68831582463E+01  0.51100000000E-03 0.  1.
        -12    1    4    4    0    0 -0.11354939660E+02 -0.22169725226E+02  0.17460854066E+02  0.30418954551E+02  0.00000000000E+00 0.  1.
</event>
<event>
 8    1  0.1290800E-006  0.9118800E+02  0.7816164E-02  0.1184000E+00
        -11   -1    0    0    0    0  0.00000000000E+00  0.00000000000E+00  0.45593999997E+02  0.45594000000E+02  0.51100000000E-03 0.  1.
         11   -1    0    0    0    0 -0.00000000000E+00 -0.00000000000E+00 -0.45593999997E+02  0.45594000000E+02  0.51100000000E-03 0. -1.
         23    2    1    2    0    0  0.71054273576E-14  0.00000000000E+00  0.17763568394E-14  0.91188000000E+02  0.91188000000E+02 0.  0.
    9900012    2    3    3    0    0  0.33136870766E+02 -0.42592310180E+01  0.15478477487E+02  0.54367129311E+02  0.40000102890E+02 0.  0.
         12    1    3    3    0    0 -0.33136870766E+02  0.42592310180E+01 -0.15478477487E+02  0.36820870689E+02  0.00000000000E+00 0. -1.
         11    1    4    4    0    0  0.12882259482E+02 -0.12478031183E+02  0.56972035124E+01  0.18817863845E+02  0.51100000000E-03 0.  1.
        -11    1    4    4    0    0  0.15622050972E+02  0.33627896989E+01 -0.70224798481E+01  0.17454857622E+02  0.51100000000E-03 0. -1.
        -12    1    4    4    0    0  0.46325603115E+01  0.48560104657E+01  0.16803753823E+02  0.18094407844E+02  0.00000000000E+00 0.  1.
</event>
<event>
 8    1  0.1290800E-006  0.9118800E+02  0.7816164E-02  0.1184000E+00
        -11   -1    0    0    0    0  0.00000000000E+00  0.00000000000E+00  0.45593999997E+02  0.45594000000E+02  0.51100000000E-03 0. -1.
         11   -1    0    0    0    0 -0.00000000000E+00 -0.00000000000E+00 -0.45593999997E+02  0.45594000000E+02  0.51100000000E-03 0.  1.
         23    2    1    2    0    0 -0.88817841970E-15 -0.53290705182E-14  0.71054273576E-14  0.91188000000E+02  0.91188000000E+02 0.  0.
    9900012    2    3    3    0    0 -0.28260446492E+01 -0.68560509482E+01  0.36066454556E+02  0.54367066997E+02  0.39999960833E+02 0.  0.
        -12    1    3    3    0    0  0.28260446492E+01  0.68560509482E+01 -0.36066454556E+02  0.36820933003E+02  0.00000000000E+00 0.  1.
         11    1    4    4    0    0  0.68286928080E+01 -0.57591943863E+01  0.13977091752E+02  0.16587900999E+02  0.51100000000E-03 0. -1.
        -11    1    4    4    0    0  0.52069536545E+00  0.12465352678E+02  0.42808324984E+01  0.13190211074E+02  0.51100000000E-03 0.  1.
        -12    1    4    4    0    0 -0.10175432823E+02 -0.13562209240E+02  0.17808530305E+02  0.24588954924E+02  0.00000000000E+00 0.  1.
</event>
<event>
 8    1  0.1290800E-006  0.9118800E+02  0.7816164E-02  0.1184000E+00
        -11   -1    0    0    0    0  0.00000000000E+00  0.00000000000E+00  0.45593999997E+02  0.45594000000E+02  0.51100000000E-03 0. -1.
         11   -1    0    0    0    0 -0.00000000000E+00 -0.00000000000E+00 -0.45593999997E+02  0.45594000000E+02  0.51100000000E-03 0.  1.
         23    2    1    2    0    0  0.44408920985E-15  0.26645352591E-14 -0.14210854715E-13  0.91188000000E+02  0.91188000000E+02 0.  0.
    9900012    2    3    3    0    0 -0.27107957853E+01 -0.72084525722E+01  0.36006535251E+02  0.54367071399E+02  0.39999970868E+02 0.  0.
        -12    1    3    3    0    0  0.27107957853E+01  0.72084525722E+01 -0.36006535251E+02  0.36820928601E+02  0.00000000000E+00 0.  1.
         11    1    4    4    0    0 -0.77207883556E+01  0.18729329889E+01  0.20344928124E+02  0.21841120655E+02  0.51100000000E-03 0. -1.
        -11    1    4    4    0    0 -0.10540606719E+01  0.36654281452E+01  0.17839981507E+02  0.18243117820E+02  0.51100000000E-03 0.  1.
        -12    1    4    4    0    0  0.60640532421E+01 -0.12746813706E+02 -0.21783743800E+01  0.14282832924E+02  0.00000000000E+00 0.  1.
</event>
<event>
 8    1  0.1290800E-006  0.9118800E+02  0.7816164E-02  0.1184000E+00
        -11   -1    0    0    0    0  0.00000000000E+00  0.00000000000E+00  0.45593999997E+02  0.45594000000E+02  0.51100000000E-03 0. -1.
         11   -1    0    0    0    0 -0.00000000000E+00 -0.00000000000E+00 -0.45593999997E+02  0.45594000000E+02  0.51100000000E-03 0.  1.
         23    2    1    2    0    0 -0.44408920985E-15 -0.35527136788E-14  0.00000000000E+00  0.91188000000E+02  0.91188000000E+02 0.  0.
    9900012    2    3    3    0    0 -0.18213042976E+01 -0.28294480835E+02  0.23492220417E+02  0.54367092689E+02  0.40000019403E+02 0.  0.
        -12    1    3    3    0    0  0.18213042976E+01  0.28294480835E+02 -0.23492220417E+02  0.36820907311E+02  0.00000000000E+00 0.  1.
         11    1    4    4    0    0 -0.61248065300E+00 -0.96041536403E+01  0.27016528075E+02  0.28679394854E+02  0.51100000000E-03 0. -1.
        -11    1    4    4    0    0  0.55265392983E+01 -0.12754862714E+01  0.23118997344E+01  0.61248985695E+01  0.51100000000E-03 0.  1.
        -12    1    4    4    0    0 -0.67353629428E+01 -0.17414840924E+02 -0.58362073924E+01  0.19562799265E+02  0.00000000000E+00 0.  1.
</event>
<event>
 8    1  0.1290800E-006  0.9118800E+02  0.7816164E-02  0.1184000E+00
        -11   -1    0    0    0    0  0.00000000000E+00  0.00000000000E+00  0.45593999997E+02  0.45594000000E+02  0.51100000000E-03 0.  1.
         11   -1    0    0    0    0 -0.00000000000E+00 -0.00000000000E+00 -0.45593999997E+02  0.45594000000E+02  0.51100000000E-03 0. -1.
         23    2    1    2    0    0  0.00000000000E+00 -0.17763568394E-14  0.00000000000E+00  0.91188000000E+02  0.91188000000E+02 0.  0.
    9900012    2    3    3    0    0 -0.30822117895E+01 -0.63519195261E+01  0.36137691756E+02  0.54367086423E+02  0.40000005118E+02 0.  0.
         12    1    3    3    0    0  0.30822117895E+01  0.63519195261E+01 -0.36137691756E+02  0.36820913577E+02  0.00000000000E+00 0. -1.
         11    1    4    4    0    0 -0.34814920980E+00  0.71459380852E+01  0.20111534657E+02  0.21346181521E+02  0.51100000000E-03 0. -1.
        -11    1    4    4    0    0 -0.20732794796E+01 -0.16701726903E+02  0.21096291189E+02  0.26987027838E+02  0.51100000000E-03 0.  1.
         12    1    4    4    0    0 -0.66078310015E+00  0.32038692918E+01 -0.50701340893E+01  0.60338770643E+01  0.00000000000E+00 0. -1.
</event>
<event>
 8    1  0.1290800E-006  0.9118800E+02  0.7816164E-02  0.1184000E+00
        -11   -1    0    0    0    0  0.00000000000E+00  0.00000000000E+00  0.45593999997E+02  0.45594000000E+02  0.51100000000E-03 0.  1.
         11   -1    0    0    0    0 -0.00000000000E+00 -0.00000000000E+00 -0.45593999997E+02  0.45594000000E+02  0.51100000000E-03 0. -1.
         23    2    1    2    0    0  0.00000000000E+00  0.00000000000E+00 -0.17763568394E-14  0.91188000000E+02  0.91188000000E+02 0.  0.
    9900012    2    3    3    0    0 -0.27708331124E+02  0.22651350082E+02  0.86570510757E+01  0.54367084645E+02  0.40000001066E+02 0.  0.
         12    1    3    3    0    0  0.27708331124E+02 -0.22651350082E+02 -0.86570510757E+01  0.36820915355E+02  0.00000000000E+00 0. -1.
         11    1    4    4    0    0  0.45194341864E+01  0.59228047156E+01 -0.32455852805E+01  0.81264214227E+01  0.51100000000E-03 0. -1.
        -11    1    4    4    0    0 -0.23820233602E+02  0.92950621808E+01  0.19949661658E+02  0.32431322982E+02  0.51100000000E-03 0.  1.
        -12    1    4    4    0    0 -0.84075317077E+01  0.74334831861E+01 -0.80470253015E+01  0.13809340241E+02  0.00000000000E+00 0.  1.
</event>
<event>
 8    1  0.1290800E-006  0.9118800E+02  0.7816164E-02  0.1184000E+00
        -11   -1    0    0    0    0  0.00000000000E+00  0.00000000000E+00  0.45593999997E+02  0.45594000000E+02  0.51100000000E-03 0.  1.
         11   -1    0    0    0    0 -0.00000000000E+00 -0.00000000000E+00 -0.45593999997E+02  0.45594000000E+02  0.51100000000E-03 0. -1.
         23    2    1    2    0    0 -0.17763568394E-14  0.17763568394E-14 -0.71054273576E-14  0.91188000000E+02  0.91188000000E+02 0.  0.
    9900012    2    3    3    0    0 -0.48363357097E+01  0.15305715236E+02  0.33137971728E+02  0.54367078879E+02  0.39999987920E+02 0.  0.
         12    1    3    3    0    0  0.48363357097E+01 -0.15305715236E+02 -0.33137971728E+02  0.36820921121E+02  0.00000000000E+00 0. -1.
         11    1    4    4    0    0 -0.15622098602E+02  0.10672542509E+02  0.53857323693E+01  0.19671279617E+02  0.51100000000E-03 0. -1.
        -11    1    4    4    0    0  0.43351149142E+01 -0.63475795858E+01  0.13865236327E+02  0.15853383443E+02  0.51100000000E-03 0.  1.
         12    1    4    4    0    0  0.64506479785E+01  0.10980752313E+02  0.13887003032E+02  0.18842415819E+02  0.00000000000E+00 0. -1.
</event>
<event>
 8    1  0.1290800E-006  0.9118800E+02  0.7816164E-02  0.1184000E+00
        -11   -1    0    0    0    0  0.00000000000E+00  0.00000000000E+00  0.45593999997E+02  0.45594000000E+02  0.51100000000E-03 0.  1.
         11   -1    0    0    0    0 -0.00000000000E+00 -0.00000000000E+00 -0.45593999997E+02  0.45594000000E+02  0.51100000000E-03 0. -1.
         23    2    1    2    0    0  0.00000000000E+00  0.00000000000E+00  0.44408920985E-15  0.91188000000E+02  0.91188000000E+02 0.  0.
    9900012    2    3    3    0    0  0.15804590648E+02  0.33135988543E+02  0.28282891250E+01  0.54367108626E+02  0.40000055734E+02 0.  0.
         12    1    3    3    0    0 -0.15804590648E+02 -0.33135988543E+02 -0.28282891250E+01  0.36820891374E+02  0.00000000000E+00 0. -1.
         11    1    4    4    0    0  0.14930653063E+02  0.16103706475E+02  0.19583727820E+02  0.29424074475E+02  0.51100000000E-03 0. -1.
        -11    1    4    4    0    0  0.86055556485E+00  0.97797699515E+01 -0.14179721035E+02  0.17246708239E+02  0.51100000000E-03 0.  1.
         12    1    4    4    0    0  0.13382020119E-01  0.72525121165E+01 -0.25757176601E+01  0.76963259119E+01  0.00000000000E+00 0. -1.
</event>
<event>
 8    1  0.1290800E-006  0.9118800E+02  0.7816164E-02  0.1184000E+00
        -11   -1    0    0    0    0  0.00000000000E+00  0.00000000000E+00  0.45593999997E+02  0.45594000000E+02  0.51100000000E-03 0.  1.
         11   -1    0    0    0    0 -0.00000000000E+00 -0.00000000000E+00 -0.45593999997E+02  0.45594000000E+02  0.51100000000E-03 0. -1.
         23    2    1    2    0    0  0.35527136788E-14 -0.17763568394E-14 -0.35527136788E-14  0.91188000000E+02  0.91188000000E+02 0.  0.
    9900012    2    3    3    0    0  0.21174375424E+02 -0.10814201531E+02  0.28115454122E+02  0.54367083528E+02  0.39999998519E+02 0.  0.
         12    1    3    3    0    0 -0.21174375424E+02  0.10814201531E+02 -0.28115454122E+02  0.36820916472E+02  0.00000000000E+00 0. -1.
         11    1    4    4    0    0  0.26094272014E+02 -0.73714328974E+01  0.77885655579E+01  0.28211891263E+02  0.51100000000E-03 0. -1.
        -11    1    4    4    0    0 -0.22034076666E+01 -0.94010746605E+01  0.97997355917E+01  0.13757544405E+02  0.51100000000E-03 0.  1.
        -12    1    4    4    0    0 -0.27164889229E+01  0.59583060269E+01  0.10527152972E+02  0.12397647861E+02  0.00000000000E+00 0.  1.
</event>
<event>
 8    1  0.1290800E-006  0.9118800E+02  0.7816164E-02  0.1184000E+00
        -11   -1    0    0    0    0  0.00000000000E+00  0.00000000000E+00  0.45593999997E+02  0.45594000000E+02  0.51100000000E-03 0.  1.
         11   -1    0    0    0    0 -0.00000000000E+00 -0.00000000000E+00 -0.45593999997E+02  0.45594000000E+02  0.51100000000E-03 0. -1.
         23    2    1    2    0    0 -0.72164496601E-15  0.35527136788E-14  0.00000000000E+00  0.91188000000E+02  0.91188000000E+02 0.  0.
    9900012    2    3    3    0    0  0.18371952341E+00 -0.21560617879E+02  0.29847708612E+02  0.54367086030E+02  0.40000004223E+02 0.  0.
         12    1    3    3    0    0 -0.18371952341E+00  0.21560617879E+02 -0.29847708612E+02  0.36820913970E+02  0.00000000000E+00 0. -1.
         11    1    4    4    0    0  0.68453317792E+01 -0.24959543195E+02  0.52797401761E+01  0.26414257897E+02  0.51100000000E-03 0. -1.
        -11    1    4    4    0    0 -0.69565778339E+01 -0.24480010594E+01  0.15405933031E+02  0.17080089495E+02  0.51100000000E-03 0.  1.
         12    1    4    4    0    0  0.29496557806E+00  0.58469263751E+01  0.91620354052E+01  0.10872738638E+02  0.00000000000E+00 0. -1.
</event>
<event>
 8    1  0.1290800E-006  0.9118800E+02  0.7816164E-02  0.1184000E+00
        -11   -1    0    0    0    0  0.00000000000E+00  0.00000000000E+00  0.45593999997E+02  0.45594000000E+02  0.51100000000E-03 0.  1.
         11   -1    0    0    0    0 -0.00000000000E+00 -0.00000000000E+00 -0.45593999997E+02  0.45594000000E+02  0.51100000000E-03 0. -1.
         23    2    1    2    0    0  0.00000000000E+00  0.26645352591E-14  0.00000000000E+00  0.91188000000E+02  0.91188000000E+02 0.  0.
    9900012    2    3    3    0    0 -0.46803662573E+01  0.79823266225E+01  0.35639262809E+02  0.54367076326E+02  0.39999982101E+02 0.  0.
         12    1    3    3    0    0  0.46803662573E+01 -0.79823266225E+01 -0.35639262809E+02  0.36820923674E+02  0.00000000000E+00 0. -1.
         11    1    4    4    0    0 -0.30973407475E+01  0.22014013152E+02  0.30482452711E+02  0.37727844071E+02  0.51100000000E-03 0. -1.
        -11    1    4    4    0    0 -0.36992836178E+01 -0.12085098721E+02  0.54201837649E+01  0.13751825431E+02  0.51100000000E-03 0.  1.
         12    1    4    4    0    0  0.21162581081E+01 -0.19465878081E+01 -0.26337366629E+00  0.28874068233E+01  0.00000000000E+00 0. -1.
</event>
<event>
 8    1  0.1290800E-006  0.9118800E+02  0.7816164E-02  0.1184000E+00
        -11   -1    0    0    0    0  0.00000000000E+00  0.00000000000E+00  0.45593999997E+02  0.45594000000E+02  0.51100000000E-03 0.  1.
         11   -1    0    0    0    0 -0.00000000000E+00 -0.00000000000E+00 -0.45593999997E+02  0.45594000000E+02  0.51100000000E-03 0. -1.
         23    2    1    2    0    0  0.00000000000E+00  0.88817841970E-15  0.00000000000E+00  0.91188000000E+02  0.91188000000E+02 0.  0.
    9900012    2    3    3    0    0  0.35877810516E+02  0.74763748103E+01  0.35594317823E+01  0.54367040991E+02  0.39999901546E+02 0.  0.
         12    1    3    3    0    0 -0.35877810516E+02 -0.74763748103E+01 -0.35594317823E+01  0.36820959009E+02  0.00000000000E+00 0. -1.
         11    1    4    4    0    0 -0.46667912089E+01  0.11238565311E+02  0.54224478163E+01  0.13322433375E+02  0.51100000000E-03 0. -1.
        -11    1    4    4    0    0  0.28350033977E+02 -0.90540658604E+00 -0.26953146514E+01  0.28492260509E+02  0.51100000000E-03 0.  1.
         12    1    4    4    0    0  0.12194567748E+02 -0.28567839148E+01  0.83229861739E+00  0.12552347107E+02  0.00000000000E+00 0. -1.
</event>
<event>
 8    1  0.1290800E-006  0.9118800E+02  0.7816164E-02  0.1184000E+00
        -11   -1    0    0    0    0  0.00000000000E+00  0.00000000000E+00  0.45593999997E+02  0.45594000000E+02  0.51100000000E-03 0.  1.
         11   -1    0    0    0    0 -0.00000000000E+00 -0.00000000000E+00 -0.45593999997E+02  0.45594000000E+02  0.51100000000E-03 0. -1.
         23    2    1    2    0    0  0.00000000000E+00  0.11102230246E-14  0.00000000000E+00  0.91188000000E+02  0.91188000000E+02 0.  0.
    9900012    2    3    3    0    0 -0.34935422619E+02  0.15253011069E+01 -0.11531220836E+02  0.54367090846E+02  0.40000015201E+02 0.  0.
        -12    1    3    3    0    0  0.34935422619E+02 -0.15253011069E+01  0.11531220836E+02  0.36820909154E+02  0.00000000000E+00 0.  1.
         11    1    4    4    0    0 -0.68078675741E+01  0.44315255194E+01 -0.90545980148E+01  0.12164342350E+02  0.51100000000E-03 0. -1.
        -11    1    4    4    0    0 -0.13356821093E+02 -0.13906155692E+02  0.81575575542E+01  0.20936369822E+02  0.51100000000E-03 0.  1.
         12    1    4    4    0    0 -0.14770733951E+02  0.10999931279E+02 -0.10634180375E+02  0.21266378673E+02  0.00000000000E+00 0. -1.
</event>
<event>
 8    1  0.1290800E-006  0.9118800E+02  0.7816164E-02  0.1184000E+00
        -11   -1    0    0    0    0  0.00000000000E+00  0.00000000000E+00  0.45593999997E+02  0.45594000000E+02  0.51100000000E-03 0.  1.
         11   -1    0    0    0    0 -0.00000000000E+00 -0.00000000000E+00 -0.45593999997E+02  0.45594000000E+02  0.51100000000E-03 0. -1.
         23    2    1    2    0    0  0.00000000000E+00  0.00000000000E+00  0.17763568394E-14  0.91188000000E+02  0.91188000000E+02 0.  0.
    9900012    2    3    3    0    0 -0.18055731564E+02  0.29592801447E+02  0.12411117655E+02  0.54367093150E+02  0.40000020455E+02 0.  0.
         12    1    3    3    0    0  0.18055731564E+02 -0.29592801447E+02 -0.12411117655E+02  0.36820906850E+02  0.00000000000E+00 0. -1.
         11    1    4    4    0    0 -0.35778441568E+01  0.26161642851E+02 -0.56380744580E+01  0.27000377948E+02  0.51100000000E-03 0. -1.
        -11    1    4    4    0    0 -0.13104579056E+02  0.56244769282E+01  0.67544798474E+01  0.15779345082E+02  0.51100000000E-03 0.  1.
         12    1    4    4    0    0 -0.13733083514E+01 -0.21933183326E+01  0.11294712266E+02  0.11587370120E+02  0.00000000000E+00 0. -1.
</event>
<event>
 8    1  0.1290800E-006  0.9118800E+02  0.7816164E-02  0.1184000E+00
        -11   -1    0    0    0    0  0.00000000000E+00  0.00000000000E+00  0.45593999997E+02  0.45594000000E+02  0.51100000000E-03 0. -1.
         11   -1    0    0    0    0 -0.00000000000E+00 -0.00000000000E+00 -0.45593999997E+02  0.45594000000E+02  0.51100000000E-03 0.  1.
         23    2    1    2    0    0  0.00000000000E+00  0.00000000000E+00  0.00000000000E+00  0.91188000000E+02  0.91188000000E+02 0.  0.
    9900012    2    3    3    0    0 -0.14445701106E+02 -0.28272518173E+02  0.18648497051E+02  0.54367081943E+02  0.39999994906E+02 0.  0.
         12    1    3    3    0    0  0.14445701106E+02  0.28272518173E+02 -0.18648497051E+02  0.36820918057E+02  0.00000000000E+00 0. -1.
         11    1    4    4    0    0 -0.14398686752E+01 -0.59896926774E+01 -0.59437614550E+01  0.85602535399E+01  0.51100000000E-03 0. -1.
        -11    1    4    4    0    0 -0.16631599928E+02 -0.11044561809E+02  0.16859474192E+01  0.20035839904E+02  0.51100000000E-03 0.  1.
         12    1    4    4    0    0  0.36257674967E+01 -0.11238263687E+02  0.22906311086E+02  0.25770988499E+02  0.00000000000E+00 0. -1.
</event>
<event>
 8    1  0.1290800E-006  0.9118800E+02  0.7816164E-02  0.1184000E+00
        -11   -1    0    0    0    0  0.00000000000E+00  0.00000000000E+00  0.45593999997E+02  0.45594000000E+02  0.51100000000E-03 0.  1.
         11   -1    0    0    0    0 -0.00000000000E+00 -0.00000000000E+00 -0.45593999997E+02  0.45594000000E+02  0.51100000000E-03 0. -1.
         23    2    1    2    0    0  0.00000000000E+00 -0.71054273576E-14  0.88817841970E-15  0.91188000000E+02  0.91188000000E+02 0.  0.
    9900012    2    3    3    0    0 -0.45687402544E+01 -0.36229652532E+02  0.47244823181E+01  0.54367057002E+02  0.39999938046E+02 0.  0.
         12    1    3    3    0    0  0.45687402544E+01  0.36229652532E+02 -0.47244823181E+01  0.36820942998E+02  0.00000000000E+00 0. -1.
         11    1    4    4    0    0 -0.73106144550E+01 -0.53595039907E+00  0.46410196626E+01  0.86759086158E+01  0.51100000000E-03 0. -1.
        -11    1    4    4    0    0 -0.12659672272E+01  0.44830766825E+01  0.24160105797E+01  0.52476429894E+01  0.51100000000E-03 0.  1.
         12    1    4    4    0    0  0.40078414278E+01 -0.40176778816E+02 -0.23325479243E+01  0.40443505396E+02  0.00000000000E+00 0. -1.
</event>
<event>
 8    1  0.1290800E-006  0.9118800E+02  0.7816164E-02  0.1184000E+00
        -11   -1    0    0    0    0  0.00000000000E+00  0.00000000000E+00  0.45593999997E+02  0.45594000000E+02  0.51100000000E-03 0.  1.
         11   -1    0    0    0    0 -0.00000000000E+00 -0.00000000000E+00 -0.45593999997E+02  0.45594000000E+02  0.51100000000E-03 0. -1.
         23    2    1    2    0    0  0.00000000000E+00  0.00000000000E+00  0.17763568394E-14  0.91188000000E+02  0.91188000000E+02 0.  0.
    9900012    2    3    3    0    0  0.32781734900E+02 -0.11606943476E+02  0.12100755800E+02  0.54366924909E+02  0.39999636913E+02 0.  0.
         12    1    3    3    0    0 -0.32781734900E+02  0.11606943476E+02 -0.12100755800E+02  0.36821075091E+02  0.00000000000E+00 0. -1.
         11    1    4    4    0    0  0.26597400711E+02 -0.41023138030E+01  0.30364590538E+00  0.26913619308E+02  0.51100000000E-03 0.  1.
        -11    1    4    4    0    0 -0.61550739773E+01  0.44502932080E+01  0.40307770088E+01  0.85986748316E+01  0.51100000000E-03 0. -1.
        -12    1    4    4    0    0  0.12339408166E+02 -0.11954922881E+02  0.77663328855E+01  0.18854630770E+02  0.00000000000E+00 0.  1.
</event>
<event>
 8    1  0.1290800E-006  0.9118800E+02  0.7816164E-02  0.1184000E+00
        -11   -1    0    0    0    0  0.00000000000E+00  0.00000000000E+00  0.45593999997E+02  0.45594000000E+02  0.51100000000E-03 0. -1.
         11   -1    0    0    0    0 -0.00000000000E+00 -0.00000000000E+00 -0.45593999997E+02  0.45594000000E+02  0.51100000000E-03 0.  1.
         23    2    1    2    0    0 -0.17763568394E-14  0.71054273576E-14  0.99920072216E-15  0.91188000000E+02  0.91188000000E+02 0.  0.
    9900012    2    3    3    0    0 -0.13264017613E+02 -0.34334727407E+02  0.98653692088E+00  0.54367069479E+02  0.39999966491E+02 0.  0.
        -12    1    3    3    0    0  0.13264017613E+02  0.34334727407E+02 -0.98653692088E+00  0.36820930521E+02  0.00000000000E+00 0.  1.
         11    1    4    4    0    0 -0.24243694365E+02 -0.15673200861E+02  0.94899046730E+01  0.30388554303E+02  0.51100000000E-03 0. -1.
        -11    1    4    4    0    0  0.22310829861E+01 -0.22163145618E+01 -0.34699152928E+01  0.46829578183E+01  0.51100000000E-03 0.  1.
         12    1    4    4    0    0  0.87485937658E+01 -0.16445211984E+02 -0.50334524593E+01  0.19295557357E+02  0.00000000000E+00 0. -1.
</event>
<event>
 8    1  0.1290800E-006  0.9118800E+02  0.7816164E-02  0.1184000E+00
        -11   -1    0    0    0    0  0.00000000000E+00  0.00000000000E+00  0.45593999997E+02  0.45594000000E+02  0.51100000000E-03 0. -1.
         11   -1    0    0    0    0 -0.00000000000E+00 -0.00000000000E+00 -0.45593999997E+02  0.45594000000E+02  0.51100000000E-03 0.  1.
         23    2    1    2    0    0  0.88817841970E-15  0.00000000000E+00  0.00000000000E+00  0.91188000000E+02  0.91188000000E+02 0.  0.
    9900012    2    3    3    0    0 -0.58351386073E+01  0.31110718264E+02  0.18811012948E+02  0.54367084184E+02  0.40000000013E+02 0.  0.
        -12    1    3    3    0    0  0.58351386073E+01 -0.31110718264E+02 -0.18811012948E+02  0.36820915816E+02  0.00000000000E+00 0.  1.
         11    1    4    4    0    0 -0.14362591236E+02  0.23988887210E+01  0.63571241525E+00  0.14575418507E+02  0.51100000000E-03 0. -1.
        -11    1    4    4    0    0 -0.22129628983E+01  0.11615399250E+02 -0.11031375243E+01  0.11875673336E+02  0.51100000000E-03 0.  1.
        -12    1    4    4    0    0  0.10740415527E+02  0.17096430293E+02  0.19278438057E+02  0.27915992341E+02  0.00000000000E+00 0.  1.
</event>
<event>
 8    1  0.1290800E-006  0.9118800E+02  0.7816164E-02  0.1184000E+00
        -11   -1    0    0    0    0  0.00000000000E+00  0.00000000000E+00  0.45593999997E+02  0.45594000000E+02  0.51100000000E-03 0.  1.
         11   -1    0    0    0    0 -0.00000000000E+00 -0.00000000000E+00 -0.45593999997E+02  0.45594000000E+02  0.51100000000E-03 0. -1.
         23    2    1    2    0    0  0.44408920985E-15 -0.17763568394E-14  0.00000000000E+00  0.91188000000E+02  0.91188000000E+02 0.  0.
    9900012    2    3    3    0    0  0.34674973564E+01 -0.15932529245E+02  0.33013874941E+02  0.54367014615E+02  0.39999841418E+02 0.  0.
         12    1    3    3    0    0 -0.34674973564E+01  0.15932529245E+02 -0.33013874941E+02  0.36820985385E+02  0.00000000000E+00 0. -1.
         11    1    4    4    0    0 -0.29877821145E+01  0.13316979029E+01 -0.29618279235E+01  0.44127866681E+01  0.51100000000E-03 0. -1.
        -11    1    4    4    0    0  0.13351818171E+01 -0.14409240651E+02  0.40202120412E+02  0.42727267786E+02  0.51100000000E-03 0.  1.
        -12    1    4    4    0    0  0.51200976538E+01 -0.28549864971E+01 -0.42264175473E+01  0.72269601609E+01  0.00000000000E+00 0.  1.
</event>
<event>
 8    1  0.1290800E-006  0.9118800E+02  0.7816164E-02  0.1184000E+00
        -11   -1    0    0    0    0  0.00000000000E+00  0.00000000000E+00  0.45593999997E+02  0.45594000000E+02  0.51100000000E-03 0.  1.
         11   -1    0    0    0    0 -0.00000000000E+00 -0.00000000000E+00 -0.45593999997E+02  0.45594000000E+02  0.51100000000E-03 0. -1.
         23    2    1    2    0    0  0.17763568394E-14 -0.35527136788E-14  0.00000000000E+00  0.91188000000E+02  0.91188000000E+02 0.  0.
    9900012    2    3    3    0    0  0.80048826851E+01 -0.27179043992E+02 -0.23515994260E+02  0.54367074358E+02  0.39999977614E+02 0.  0.
        -12    1    3    3    0    0 -0.80048826851E+01  0.27179043992E+02  0.23515994260E+02  0.36820925642E+02  0.00000000000E+00 0.  1.
         11    1    4    4    0    0 -0.49561112108E+01 -0.82199070264E+01  0.74492009246E+01  0.12149917882E+02  0.51100000000E-03 0.  1.
        -11    1    4    4    0    0 -0.11354827074E+01 -0.10483357232E+02 -0.54765843593E+01  0.11882048491E+02  0.51100000000E-03 0. -1.
         12    1    4    4    0    0  0.14096476603E+02 -0.84757797336E+01 -0.25488610825E+02  0.30335107986E+02  0.00000000000E+00 0. -1.
</event>
<event>
 8    1  0.1290800E-006  0.9118800E+02  0.7816164E-02  0.1184000E+00
        -11   -1    0    0    0    0  0.00000000000E+00  0.00000000000E+00  0.45593999997E+02  0.45594000000E+02  0.51100000000E-03 0. -1.
         11   -1    0    0    0    0 -0.00000000000E+00 -0.00000000000E+00 -0.45593999997E+02  0.45594000000E+02  0.51100000000E-03 0.  1.
         23    2    1    2    0    0  0.35527136788E-14  0.00000000000E+00  0.13322676296E-14  0.91188000000E+02  0.91188000000E+02 0.  0.
    9900012    2    3    3    0    0  0.28736320281E+02 -0.22702980983E+02  0.38191852178E+01  0.54366978497E+02  0.39999759080E+02 0.  0.
        -12    1    3    3    0    0 -0.28736320281E+02  0.22702980983E+02 -0.38191852178E+01  0.36821021503E+02  0.00000000000E+00 0.  1.
         11    1    4    4    0    0  0.84502292862E+01 -0.20803827768E+02 -0.12955082700E+02  0.25923730303E+02  0.51100000000E-03 0. -1.
        -11    1    4    4    0    0  0.23709981592E+01 -0.28228859602E+01  0.72484186513E+01  0.81320286903E+01  0.51100000000E-03 0.  1.
         12    1    4    4    0    0  0.17915092835E+02  0.92373274534E+00  0.95258492670E+01  0.20311219504E+02  0.00000000000E+00 0. -1.
</event>
<event>
 8    1  0.1290800E-006  0.9118800E+02  0.7816164E-02  0.1184000E+00
        -11   -1    0    0    0    0  0.00000000000E+00  0.00000000000E+00  0.45593999997E+02  0.45594000000E+02  0.51100000000E-03 0.  1.
         11   -1    0    0    0    0 -0.00000000000E+00 -0.00000000000E+00 -0.45593999997E+02  0.45594000000E+02  0.51100000000E-03 0. -1.
         23    2    1    2    0    0  0.35527136788E-14  0.00000000000E+00  0.00000000000E+00  0.91188000000E+02  0.91188000000E+02 0.  0.
    9900012    2    3    3    0    0  0.16710488201E+02  0.17769786029E+02 -0.27582129366E+02  0.54367087847E+02  0.40000008365E+02 0.  0.
        -12    1    3    3    0    0 -0.16710488201E+02 -0.17769786029E+02  0.27582129366E+02  0.36820912153E+02  0.00000000000E+00 0.  1.
         11    1    4    4    0    0  0.86690904714E+01  0.13502523039E+02 -0.97162455447E+01  0.18758376416E+02  0.51100000000E-03 0. -1.
        -11    1    4    4    0    0 -0.95008732408E+01 -0.56487275155E+00  0.78792831234E+00  0.95502096757E+01  0.51100000000E-03 0.  1.
        -12    1    4    4    0    0  0.17542270970E+02  0.48321357408E+01 -0.18653812133E+02  0.26058501755E+02  0.00000000000E+00 0.  1.
</event>
<event>
 8    1  0.1290800E-006  0.9118800E+02  0.7816164E-02  0.1184000E+00
        -11   -1    0    0    0    0  0.00000000000E+00  0.00000000000E+00  0.45593999997E+02  0.45594000000E+02  0.51100000000E-03 0. -1.
         11   -1    0    0    0    0 -0.00000000000E+00 -0.00000000000E+00 -0.45593999997E+02  0.45594000000E+02  0.51100000000E-03 0.  1.
         23    2    1    2    0    0  0.00000000000E+00  0.00000000000E+00  0.88817841970E-15  0.91188000000E+02  0.91188000000E+02 0.  0.
    9900012    2    3    3    0    0 -0.32993596015E+02  0.16207409455E+02  0.21262003591E+01  0.54367106105E+02  0.40000049988E+02 0.  0.
        -12    1    3    3    0    0  0.32993596015E+02 -0.16207409455E+02 -0.21262003591E+01  0.36820893895E+02  0.00000000000E+00 0.  1.
         11    1    4    4    0    0 -0.42276989395E+01  0.15920861173E+02 -0.73228574537E+01  0.18026965922E+02  0.51100000000E-03 0. -1.
        -11    1    4    4    0    0 -0.63160910384E+01 -0.36197158034E+01  0.11339060216E+02  0.13474777747E+02  0.51100000000E-03 0.  1.
        -12    1    4    4    0    0 -0.22449806037E+02  0.39062640853E+01 -0.18900024030E+01  0.22865362435E+02  0.00000000000E+00 0.  1.
</event>
<event>
 8    1  0.1290800E-006  0.9118800E+02  0.7816164E-02  0.1184000E+00
        -11   -1    0    0    0    0  0.00000000000E+00  0.00000000000E+00  0.45593999997E+02  0.45594000000E+02  0.51100000000E-03 0. -1.
         11   -1    0    0    0    0 -0.00000000000E+00 -0.00000000000E+00 -0.45593999997E+02  0.45594000000E+02  0.51100000000E-03 0.  1.
         23    2    1    2    0    0  0.17763568394E-14  0.00000000000E+00  0.00000000000E+00  0.91188000000E+02  0.91188000000E+02 0.  0.
    9900012    2    3    3    0    0  0.75689689182E+01 -0.11562633166E+02 -0.34129069262E+02  0.54367120802E+02  0.40000083493E+02 0.  0.
         12    1    3    3    0    0 -0.75689689182E+01  0.11562633166E+02  0.34129069262E+02  0.36820879198E+02  0.00000000000E+00 0. -1.
         11    1    4    4    0    0  0.14452153944E+02 -0.43602471174E+00 -0.15458993104E+02  0.21166845282E+02  0.51100000000E-03 0.  1.
        -11    1    4    4    0    0 -0.81151292876E+01 -0.17642833603E+01  0.35692182128E+01  0.90392111404E+01  0.51100000000E-03 0. -1.
        -12    1    4    4    0    0  0.12319442622E+01 -0.93623250943E+01 -0.22239294371E+02  0.24161064379E+02  0.00000000000E+00 0.  1.
</event>
<event>
 8    1  0.1290800E-006  0.9118800E+02  0.7816164E-02  0.1184000E+00
        -11   -1    0    0    0    0  0.00000000000E+00  0.00000000000E+00  0.45593999997E+02  0.45594000000E+02  0.51100000000E-03 0. -1.
         11   -1    0    0    0    0 -0.00000000000E+00 -0.00000000000E+00 -0.45593999997E+02  0.45594000000E+02  0.51100000000E-03 0.  1.
         23    2    1    2    0    0  0.00000000000E+00  0.00000000000E+00  0.00000000000E+00  0.91188000000E+02  0.91188000000E+02 0.  0.
    9900012    2    3    3    0    0 -0.23407036195E+02  0.17354146333E+02  0.22510502909E+02  0.54367102678E+02  0.40000042175E+02 0.  0.
        -12    1    3    3    0    0  0.23407036195E+02 -0.17354146333E+02 -0.22510502909E+02  0.36820897322E+02  0.00000000000E+00 0.  1.
         11    1    4    4    0    0 -0.97426633344E+01  0.49569116447E+01  0.15313597772E+02  0.18814801058E+02  0.51100000000E-03 0. -1.
        -11    1    4    4    0    0 -0.32578877421E+00  0.15327579039E+02  0.13577126650E+02  0.20478749616E+02  0.51100000000E-03 0.  1.
        -12    1    4    4    0    0 -0.13338584087E+02 -0.29303443507E+01 -0.63802215122E+01  0.15073552003E+02  0.00000000000E+00 0.  1.
</event>
<event>
 8    1  0.1290800E-006  0.9118800E+02  0.7816164E-02  0.1184000E+00
        -11   -1    0    0    0    0  0.00000000000E+00  0.00000000000E+00  0.45593999997E+02  0.45594000000E+02  0.51100000000E-03 0. -1.
         11   -1    0    0    0    0 -0.00000000000E+00 -0.00000000000E+00 -0.45593999997E+02  0.45594000000E+02  0.51100000000E-03 0.  1.
         23    2    1    2    0    0  0.00000000000E+00  0.35527136788E-14  0.17763568394E-14  0.91188000000E+02  0.91188000000E+02 0.  0.
    9900012    2    3    3    0    0  0.20884082130E+02 -0.26428627206E+02  0.14871449545E+02  0.54367119593E+02  0.40000080736E+02 0.  0.
        -12    1    3    3    0    0 -0.20884082130E+02  0.26428627206E+02 -0.14871449545E+02  0.36820880407E+02  0.00000000000E+00 0.  1.
         11    1    4    4    0    0 -0.28890025206E+00  0.19366040173E+01  0.14981242826E-01  0.19580917175E+01  0.51100000000E-03 0. -1.
        -11    1    4    4    0    0  0.12490848362E+02 -0.21925314687E+00 -0.82513598895E+01  0.14971783629E+02  0.51100000000E-03 0.  1.
        -12    1    4    4    0    0  0.86821340195E+01 -0.28145978077E+02  0.23107828192E+02  0.37437244246E+02  0.00000000000E+00 0.  1.
</event>
<event>
 8    1  0.1290800E-006  0.9118800E+02  0.7816164E-02  0.1184000E+00
        -11   -1    0    0    0    0  0.00000000000E+00  0.00000000000E+00  0.45593999997E+02  0.45594000000E+02  0.51100000000E-03 0.  1.
         11   -1    0    0    0    0 -0.00000000000E+00 -0.00000000000E+00 -0.45593999997E+02  0.45594000000E+02  0.51100000000E-03 0. -1.
         23    2    1    2    0    0  0.00000000000E+00  0.44408920985E-15  0.00000000000E+00  0.91188000000E+02  0.91188000000E+02 0.  0.
    9900012    2    3    3    0    0  0.28374755368E+02  0.23890837057E+01  0.23344066294E+02  0.54367083467E+02  0.39999998381E+02 0.  0.
         12    1    3    3    0    0 -0.28374755368E+02 -0.23890837057E+01 -0.23344066294E+02  0.36820916533E+02  0.00000000000E+00 0. -1.
         11    1    4    4    0    0  0.54895348668E+01 -0.55511939180E+01  0.14556481807E+02  0.16517926923E+02  0.51100000000E-03 0. -1.
        -11    1    4    4    0    0  0.37812265009E+01 -0.92665368105E+01 -0.15698529503E+01  0.10130686890E+02  0.51100000000E-03 0.  1.
         12    1    4    4    0    0  0.19103994001E+02  0.17206814434E+02  0.10357437437E+02  0.27718469655E+02  0.00000000000E+00 0. -1.
</event>
<event>
 8    1  0.1290800E-006  0.9118800E+02  0.7816164E-02  0.1184000E+00
        -11   -1    0    0    0    0  0.00000000000E+00  0.00000000000E+00  0.45593999997E+02  0.45594000000E+02  0.51100000000E-03 0. -1.
         11   -1    0    0    0    0 -0.00000000000E+00 -0.00000000000E+00 -0.45593999997E+02  0.45594000000E+02  0.51100000000E-03 0.  1.
         23    2    1    2    0    0  0.00000000000E+00 -0.35527136788E-14  0.00000000000E+00  0.91188000000E+02  0.91188000000E+02 0.  0.
    9900012    2    3    3    0    0 -0.19512456623E+02  0.29407730368E+02 -0.10499000292E+02  0.54367087790E+02  0.40000008234E+02 0.  0.
        -12    1    3    3    0    0  0.19512456623E+02 -0.29407730368E+02  0.10499000292E+02  0.36820912210E+02  0.00000000000E+00 0.  1.
         11    1    4    4    0    0  0.22200006172E+01  0.20224092442E+02 -0.13210159181E+02  0.24258001230E+02  0.51100000000E-03 0.  1.
        -11    1    4    4    0    0  0.15683049341E+01  0.23599454153E+01  0.49740127428E+01  0.57244847590E+01  0.51100000000E-03 0. -1.
        -12    1    4    4    0    0 -0.23300762175E+02  0.68236925105E+01 -0.22628538542E+01  0.24384601800E+02  0.00000000000E+00 0.  1.
</event>
<event>
 8    1  0.1290800E-006  0.9118800E+02  0.7816164E-02  0.1184000E+00
        -11   -1    0    0    0    0  0.00000000000E+00  0.00000000000E+00  0.45593999997E+02  0.45594000000E+02  0.51100000000E-03 0.  1.
         11   -1    0    0    0    0 -0.00000000000E+00 -0.00000000000E+00 -0.45593999997E+02  0.45594000000E+02  0.51100000000E-03 0. -1.
         23    2    1    2    0    0  0.00000000000E+00  0.35527136788E-14  0.00000000000E+00  0.91188000000E+02  0.91188000000E+02 0.  0.
    9900012    2    3    3    0    0  0.16603910553E+02 -0.16981782156E+02  0.28137319661E+02  0.54367088434E+02  0.40000009704E+02 0.  0.
         12    1    3    3    0    0 -0.16603910553E+02  0.16981782156E+02 -0.28137319661E+02  0.36820911566E+02  0.00000000000E+00 0. -1.
         11    1    4    4    0    0  0.83075962735E+01  0.51659104275E+01 -0.16546178571E+01  0.99217209648E+01  0.51100000000E-03 0. -1.
        -11    1    4    4    0    0 -0.24017042496E+01  0.33216359035E+01  0.41492851920E+00  0.41199046488E+01  0.51100000000E-03 0.  1.
        -12    1    4    4    0    0  0.10698018529E+02 -0.25469328487E+02  0.29377008999E+02  0.40325462821E+02  0.00000000000E+00 0.  1.
</event>
<event>
 8    1  0.1290800E-006  0.9118800E+02  0.7816164E-02  0.1184000E+00
        -11   -1    0    0    0    0  0.00000000000E+00  0.00000000000E+00  0.45593999997E+02  0.45594000000E+02  0.51100000000E-03 0. -1.
         11   -1    0    0    0    0 -0.00000000000E+00 -0.00000000000E+00 -0.45593999997E+02  0.45594000000E+02  0.51100000000E-03 0.  1.
         23    2    1    2    0    0  0.35527136788E-14  0.35527136788E-14  0.00000000000E+00  0.91188000000E+02  0.91188000000E+02 0.  0.
    9900012    2    3    3    0    0 -0.21497141146E+02  0.19683283160E+02 -0.22499391950E+02  0.54367063680E+02  0.39999953270E+02 0.  0.
         12    1    3    3    0    0  0.21497141146E+02 -0.19683283160E+02  0.22499391950E+02  0.36820936320E+02  0.00000000000E+00 0. -1.
         11    1    4    4    0    0  0.59343757040E+01 -0.28531749915E+01 -0.40413235759E+01  0.77259121814E+01  0.51100000000E-03 0. -1.
        -11    1    4    4    0    0 -0.11822178314E+02  0.22372499344E+01 -0.17216543051E+02  0.21004250576E+02  0.51100000000E-03 0.  1.
         12    1    4    4    0    0 -0.15609338536E+02  0.20299208218E+02 -0.12415253227E+01  0.25636900923E+02  0.00000000000E+00 0. -1.
</event>
<event>
 8    1  0.1290800E-006  0.9118800E+02  0.7816164E-02  0.1184000E+00
        -11   -1    0    0    0    0  0.00000000000E+00  0.00000000000E+00  0.45593999997E+02  0.45594000000E+02  0.51100000000E-03 0. -1.
         11   -1    0    0    0    0 -0.00000000000E+00 -0.00000000000E+00 -0.45593999997E+02  0.45594000000E+02  0.51100000000E-03 0.  1.
         23    2    1    2    0    0  0.31086244690E-14  0.00000000000E+00  0.71054273576E-14  0.91188000000E+02  0.91188000000E+02 0.  0.
    9900012    2    3    3    0    0 -0.11382935058E+01  0.14700119721E+02  0.33740073226E+02  0.54367057953E+02  0.39999940216E+02 0.  0.
        -12    1    3    3    0    0  0.11382935058E+01 -0.14700119721E+02 -0.33740073226E+02  0.36820942047E+02  0.00000000000E+00 0.  1.
         11    1    4    4    0    0 -0.13932270270E+02  0.38706451258E+01  0.74544111063E+01  0.16268321787E+02  0.51100000000E-03 0. -1.
        -11    1    4    4    0    0  0.10078740137E+02 -0.43000422232E+01  0.55386612895E+01  0.12277953209E+02  0.51100000000E-03 0.  1.
         12    1    4    4    0    0  0.27152366271E+01  0.15129516819E+02  0.20747000830E+02  0.25820782958E+02  0.00000000000E+00 0. -1.
</event>
<event>
 8    1  0.1290800E-006  0.9118800E+02  0.7816164E-02  0.1184000E+00
        -11   -1    0    0    0    0  0.00000000000E+00  0.00000000000E+00  0.45593999997E+02  0.45594000000E+02  0.51100000000E-03 0. -1.
         11   -1    0    0    0    0 -0.00000000000E+00 -0.00000000000E+00 -0.45593999997E+02  0.45594000000E+02  0.51100000000E-03 0.  1.
         23    2    1    2    0    0  0.71054273576E-14 -0.71054273576E-14 -0.88817841970E-15  0.91188000000E+02  0.91188000000E+02 0.  0.
    9900012    2    3    3    0    0  0.30748666938E+02 -0.18785713289E+02  0.75760953928E+01  0.54367071662E+02  0.39999971469E+02 0.  0.
         12    1    3    3    0    0 -0.30748666938E+02  0.18785713289E+02 -0.75760953928E+01  0.36820928338E+02  0.00000000000E+00 0. -1.
         11    1    4    4    0    0 -0.25422549828E+01  0.50240431651E+01  0.77742691852E+01  0.95991318226E+01  0.51100000000E-03 0. -1.
        -11    1    4    4    0    0  0.13464720216E+02  0.27550903011E+00 -0.14612089829E+01  0.13546576235E+02  0.51100000000E-03 0.  1.
        -12    1    4    4    0    0  0.19826201705E+02 -0.24085265484E+02  0.12630351906E+01  0.31221363605E+02  0.00000000000E+00 0.  1.
</event>
<event>
 8    1  0.1290800E-006  0.9118800E+02  0.7816164E-02  0.1184000E+00
        -11   -1    0    0    0    0  0.00000000000E+00  0.00000000000E+00  0.45593999997E+02  0.45594000000E+02  0.51100000000E-03 0.  1.
         11   -1    0    0    0    0 -0.00000000000E+00 -0.00000000000E+00 -0.45593999997E+02  0.45594000000E+02  0.51100000000E-03 0. -1.
         23    2    1    2    0    0 -0.35527136788E-14  0.00000000000E+00  0.00000000000E+00  0.91188000000E+02  0.91188000000E+02 0.  0.
    9900012    2    3    3    0    0 -0.24106383181E+02 -0.20494645879E+02  0.18831592111E+02  0.54367121667E+02  0.40000085464E+02 0.  0.
         12    1    3    3    0    0  0.24106383181E+02  0.20494645879E+02 -0.18831592111E+02  0.36820878333E+02  0.00000000000E+00 0. -1.
         11    1    4    4    0    0 -0.36249208690E+01 -0.34845562140E+01  0.23709479573E+02  0.24236782072E+02  0.51100000000E-03 0. -1.
        -11    1    4    4    0    0 -0.19333468737E+02 -0.84647841845E+01 -0.37245914216E+01  0.21431476062E+02  0.51100000000E-03 0.  1.
         12    1    4    4    0    0 -0.11479935759E+01 -0.85453054802E+01 -0.11532960404E+01  0.86988635325E+01  0.00000000000E+00 0. -1.
</event>
<event>
 8    1  0.1290800E-006  0.9118800E+02  0.7816164E-02  0.1184000E+00
        -11   -1    0    0    0    0  0.00000000000E+00  0.00000000000E+00  0.45593999997E+02  0.45594000000E+02  0.51100000000E-03 0.  1.
         11   -1    0    0    0    0 -0.00000000000E+00 -0.00000000000E+00 -0.45593999997E+02  0.45594000000E+02  0.51100000000E-03 0. -1.
         23    2    1    2    0    0  0.00000000000E+00  0.26645352591E-14  0.00000000000E+00  0.91188000000E+02  0.91188000000E+02 0.  0.
    9900012    2    3    3    0    0  0.35351194636E+02 -0.76349867614E+01 -0.69123329668E+01  0.54367077523E+02  0.39999984829E+02 0.  0.
        -12    1    3    3    0    0 -0.35351194636E+02  0.76349867614E+01  0.69123329668E+01  0.36820922477E+02  0.00000000000E+00 0.  1.
         11    1    4    4    0    0  0.45098393387E+01  0.39109728830E+01 -0.92107284234E+01  0.10975968208E+02  0.51100000000E-03 0. -1.
        -11    1    4    4    0    0  0.44994951325E+01  0.66332678285E+01 -0.63630066968E+01  0.10233941226E+02  0.51100000000E-03 0.  1.
         12    1    4    4    0    0  0.26341860164E+02 -0.18179227473E+02  0.86614021534E+01  0.33157168089E+02  0.00000000000E+00 0. -1.
</event>
<event>
 8    1  0.1290800E-006  0.9118800E+02  0.7816164E-02  0.1184000E+00
        -11   -1    0    0    0    0  0.00000000000E+00  0.00000000000E+00  0.45593999997E+02  0.45594000000E+02  0.51100000000E-03 0.  1.
         11   -1    0    0    0    0 -0.00000000000E+00 -0.00000000000E+00 -0.45593999997E+02  0.45594000000E+02  0.51100000000E-03 0. -1.
         23    2    1    2    0    0  0.00000000000E+00 -0.35527136788E-14 -0.11102230246E-14  0.91188000000E+02  0.91188000000E+02 0.  0.
    9900012    2    3    3    0    0 -0.19008953218E+02  0.31493695520E+02 -0.16081272721E+01  0.54367092444E+02  0.40000018844E+02 0.  0.
        -12    1    3    3    0    0  0.19008953218E+02 -0.31493695520E+02  0.16081272721E+01  0.36820907556E+02  0.00000000000E+00 0.  1.
         11    1    4    4    0    0 -0.18668627726E+02  0.35737512586E+02  0.37606172719E+01  0.40494810896E+02  0.51100000000E-03 0. -1.
        -11    1    4    4    0    0  0.45145776575E+01 -0.30315229087E+00 -0.60801609073E+01  0.75790282792E+01  0.51100000000E-03 0.  1.
         12    1    4    4    0    0 -0.48549031492E+01 -0.39406647747E+01  0.71141636320E+00  0.62932532681E+01  0.00000000000E+00 0. -1.
</event>
<event>
 8    1  0.1290800E-006  0.9118800E+02  0.7816164E-02  0.1184000E+00
        -11   -1    0    0    0    0  0.00000000000E+00  0.00000000000E+00  0.45593999997E+02  0.45594000000E+02  0.51100000000E-03 0. -1.
         11   -1    0    0    0    0 -0.00000000000E+00 -0.00000000000E+00 -0.45593999997E+02  0.45594000000E+02  0.51100000000E-03 0.  1.
         23    2    1    2    0    0  0.17763568394E-14  0.00000000000E+00  0.00000000000E+00  0.91188000000E+02  0.91188000000E+02 0.  0.
    9900012    2    3    3    0    0  0.14187206594E+02 -0.10043517709E+02 -0.32459645067E+02  0.54367114123E+02  0.40000068265E+02 0.  0.
         12    1    3    3    0    0 -0.14187206594E+02  0.10043517709E+02  0.32459645067E+02  0.36820885877E+02  0.00000000000E+00 0. -1.
         11    1    4    4    0    0  0.90813870480E+01  0.23157365764E+01  0.57960404607E+01  0.11019451524E+02  0.51100000000E-03 0. -1.
        -11    1    4    4    0    0  0.85746415174E+01 -0.50572994497E+01 -0.30732432313E+02  0.32304537623E+02  0.51100000000E-03 0.  1.
         12    1    4    4    0    0 -0.34688219716E+01 -0.73019548361E+01 -0.75232532148E+01  0.11043124976E+02  0.00000000000E+00 0. -1.
</event>
<event>
 8    1  0.1290800E-006  0.9118800E+02  0.7816164E-02  0.1184000E+00
        -11   -1    0    0    0    0  0.00000000000E+00  0.00000000000E+00  0.45593999997E+02  0.45594000000E+02  0.51100000000E-03 0.  1.
         11   -1    0    0    0    0 -0.00000000000E+00 -0.00000000000E+00 -0.45593999997E+02  0.45594000000E+02  0.51100000000E-03 0. -1.
         23    2    1    2    0    0 -0.35527136788E-14  0.00000000000E+00 -0.44408920985E-15  0.91188000000E+02  0.91188000000E+02 0.  0.
    9900012    2    3    3    0    0 -0.31924047851E+02  0.17989053412E+02 -0.36097750659E+01  0.54367063702E+02  0.39999953320E+02 0.  0.
        -12    1    3    3    0    0  0.31924047851E+02 -0.17989053412E+02  0.36097750659E+01  0.36820936298E+02  0.00000000000E+00 0.  1.
         11    1    4    4    0    0  0.97555741867E+00  0.80864200315E+01  0.53310639741E+01  0.97345849711E+01  0.51100000000E-03 0. -1.
        -11    1    4    4    0    0 -0.18591378721E+01  0.47498618833E+01  0.75470379629E+01  0.91090813924E+01  0.51100000000E-03 0.  1.
         12    1    4    4    0    0 -0.31040467398E+02  0.51527714974E+01 -0.16487877003E+02  0.35523397338E+02  0.00000000000E+00 0. -1.
</event>
<event>
 8    1  0.1290800E-006  0.9118800E+02  0.7816164E-02  0.1184000E+00
        -11   -1    0    0    0    0  0.00000000000E+00  0.00000000000E+00  0.45593999997E+02  0.45594000000E+02  0.51100000000E-03 0. -1.
         11   -1    0    0    0    0 -0.00000000000E+00 -0.00000000000E+00 -0.45593999997E+02  0.45594000000E+02  0.51100000000E-03 0.  1.
         23    2    1    2    0    0  0.00000000000E+00  0.71054273576E-14  0.22204460493E-15  0.91188000000E+02  0.91188000000E+02 0.  0.
    9900012    2    3    3    0    0  0.24877839668E+02 -0.27129557471E+02 -0.92775260408E+00  0.54367074971E+02  0.39999979012E+02 0.  0.
        -12    1    3    3    0    0 -0.24877839668E+02  0.27129557471E+02  0.92775260408E+00  0.36820925029E+02  0.00000000000E+00 0.  1.
         11    1    4    4    0    0  0.51243023224E+01  0.32163817989E+01  0.28946105933E+00  0.60570103296E+01  0.51100000000E-03 0. -1.
        -11    1    4    4    0    0  0.25801167910E+02 -0.31281987720E+02 -0.53856683102E+01  0.40905604074E+02  0.51100000000E-03 0.  1.
        -12    1    4    4    0    0 -0.60476305648E+01  0.93604845062E+00  0.41684546468E+01  0.74044605673E+01  0.00000000000E+00 0.  1.
</event>
<event>
 8    1  0.1290800E-006  0.9118800E+02  0.7816164E-02  0.1184000E+00
        -11   -1    0    0    0    0  0.00000000000E+00  0.00000000000E+00  0.45593999997E+02  0.45594000000E+02  0.51100000000E-03 0.  1.
         11   -1    0    0    0    0 -0.00000000000E+00 -0.00000000000E+00 -0.45593999997E+02  0.45594000000E+02  0.51100000000E-03 0. -1.
         23    2    1    2    0    0  0.00000000000E+00  0.00000000000E+00  0.00000000000E+00  0.91188000000E+02  0.91188000000E+02 0.  0.
    9900012    2    3    3    0    0  0.96125116889E+01 -0.17485788289E+02 -0.30945539123E+02  0.54367087943E+02  0.40000008585E+02 0.  0.
        -12    1    3    3    0    0 -0.96125116889E+01  0.17485788289E+02  0.30945539123E+02  0.36820912057E+02  0.00000000000E+00 0.  1.
         11    1    4    4    0    0  0.69719067926E+01  0.31398585247E+01 -0.95547138918E+00  0.77057849514E+01  0.51100000000E-03 0.  1.
        -11    1    4    4    0    0  0.15865931209E+02 -0.12277079692E+02 -0.15671375166E+02  0.25456756642E+02  0.51100000000E-03 0. -1.
        -12    1    4    4    0    0 -0.13225326312E+02 -0.83485671224E+01 -0.14318692567E+02  0.21204546350E+02  0.00000000000E+00 0.  1.
</event>
<event>
 8    1  0.1290800E-006  0.9118800E+02  0.7816164E-02  0.1184000E+00
        -11   -1    0    0    0    0  0.00000000000E+00  0.00000000000E+00  0.45593999997E+02  0.45594000000E+02  0.51100000000E-03 0.  1.
         11   -1    0    0    0    0 -0.00000000000E+00 -0.00000000000E+00 -0.45593999997E+02  0.45594000000E+02  0.51100000000E-03 0. -1.
         23    2    1    2    0    0  0.00000000000E+00  0.35527136788E-14  0.17763568394E-14  0.91188000000E+02  0.91188000000E+02 0.  0.
    9900012    2    3    3    0    0  0.22815321407E+02  0.27212100363E+02  0.97334819507E+01  0.54367109626E+02  0.40000058014E+02 0.  0.
         12    1    3    3    0    0 -0.22815321407E+02 -0.27212100363E+02 -0.97334819507E+01  0.36820890374E+02  0.00000000000E+00 0. -1.
         11    1    4    4    0    0 -0.59127211944E+01 -0.17641456961E+01  0.25961800689E+01  0.66942238662E+01  0.51100000000E-03 0. -1.
        -11    1    4    4    0    0  0.55756875177E+01  0.19763639672E+02 -0.30358286571E+01  0.20758275465E+02  0.51100000000E-03 0.  1.
        -12    1    4    4    0    0  0.23152355084E+02  0.92126063875E+01  0.10173130539E+02  0.26914610295E+02  0.00000000000E+00 0.  1.
</event>
<event>
 8    1  0.1290800E-006  0.9118800E+02  0.7816164E-02  0.1184000E+00
        -11   -1    0    0    0    0  0.00000000000E+00  0.00000000000E+00  0.45593999997E+02  0.45594000000E+02  0.51100000000E-03 0. -1.
         11   -1    0    0    0    0 -0.00000000000E+00 -0.00000000000E+00 -0.45593999997E+02  0.45594000000E+02  0.51100000000E-03 0.  1.
         23    2    1    2    0    0  0.44408920985E-15  0.00000000000E+00  0.88817841970E-15  0.91188000000E+02  0.91188000000E+02 0.  0.
    9900012    2    3    3    0    0 -0.39579050475E+01 -0.35873548489E+02  0.72940699041E+01  0.54367082721E+02  0.39999996678E+02 0.  0.
        -12    1    3    3    0    0  0.39579050475E+01  0.35873548489E+02 -0.72940699041E+01  0.36820917279E+02  0.00000000000E+00 0.  1.
         11    1    4    4    0    0  0.22817368536E+01 -0.18441440924E+02  0.73478517541E+01  0.19982091785E+02  0.51100000000E-03 0. -1.
        -11    1    4    4    0    0  0.87914961329E+01  0.26002883298E+01  0.15105132523E+01  0.92915851284E+01  0.51100000000E-03 0.  1.
         12    1    4    4    0    0 -0.15031138034E+02 -0.20032395894E+02 -0.15642951023E+01  0.25093405807E+02  0.00000000000E+00 0. -1.
</event>
<event>
 8    1  0.1290800E-006  0.9118800E+02  0.7816164E-02  0.1184000E+00
        -11   -1    0    0    0    0  0.00000000000E+00  0.00000000000E+00  0.45593999997E+02  0.45594000000E+02  0.51100000000E-03 0. -1.
         11   -1    0    0    0    0 -0.00000000000E+00 -0.00000000000E+00 -0.45593999997E+02  0.45594000000E+02  0.51100000000E-03 0.  1.
         23    2    1    2    0    0  0.00000000000E+00  0.00000000000E+00  0.53290705182E-14  0.91188000000E+02  0.91188000000E+02 0.  0.
    9900012    2    3    3    0    0 -0.12229747261E+02 -0.33634030113E+02 -0.86583070312E+01  0.54367068720E+02  0.39999964760E+02 0.  0.
         12    1    3    3    0    0  0.12229747261E+02  0.33634030113E+02  0.86583070312E+01  0.36820931280E+02  0.00000000000E+00 0. -1.
         11    1    4    4    0    0  0.18722007504E+01  0.14341115280E+01  0.64218537391E+01  0.68411999848E+01  0.51100000000E-03 0. -1.
        -11    1    4    4    0    0 -0.22679205844E+01 -0.15276905251E+01 -0.11452497071E+02  0.11774421070E+02  0.51100000000E-03 0.  1.
         12    1    4    4    0    0 -0.11834027427E+02 -0.33540451116E+02 -0.36276636990E+01  0.35751447664E+02  0.00000000000E+00 0. -1.
</event>
<event>
 8    1  0.1290800E-006  0.9118800E+02  0.7816164E-02  0.1184000E+00
        -11   -1    0    0    0    0  0.00000000000E+00  0.00000000000E+00  0.45593999997E+02  0.45594000000E+02  0.51100000000E-03 0. -1.
         11   -1    0    0    0    0 -0.00000000000E+00 -0.00000000000E+00 -0.45593999997E+02  0.45594000000E+02  0.51100000000E-03 0.  1.
         23    2    1    2    0    0 -0.17763568394E-14  0.00000000000E+00 -0.17763568394E-14  0.91188000000E+02  0.91188000000E+02 0.  0.
    9900012    2    3    3    0    0  0.10789043868E+02 -0.33797461168E+02 -0.98543095235E+01  0.54367092011E+02  0.40000017857E+02 0.  0.
         12    1    3    3    0    0 -0.10789043868E+02  0.33797461168E+02  0.98543095235E+01  0.36820907989E+02  0.00000000000E+00 0. -1.
         11    1    4    4    0    0  0.12907482512E+02 -0.18589153147E+02  0.66943187349E+01  0.23600288623E+02  0.51100000000E-03 0. -1.
        -11    1    4    4    0    0  0.97768402695E+00 -0.14670765866E+02 -0.81872847407E+00  0.14726084127E+02  0.51100000000E-03 0.  1.
         12    1    4    4    0    0 -0.30961226710E+01 -0.53754215485E+00 -0.15729899784E+02  0.16040719260E+02  0.00000000000E+00 0. -1.
</event>
<event>
 8    1  0.1290800E-006  0.9118800E+02  0.7816164E-02  0.1184000E+00
        -11   -1    0    0    0    0  0.00000000000E+00  0.00000000000E+00  0.45593999997E+02  0.45594000000E+02  0.51100000000E-03 0.  1.
         11   -1    0    0    0    0 -0.00000000000E+00 -0.00000000000E+00 -0.45593999997E+02  0.45594000000E+02  0.51100000000E-03 0. -1.
         23    2    1    2    0    0  0.00000000000E+00 -0.35527136788E-14  0.26645352591E-14  0.91188000000E+02  0.91188000000E+02 0.  0.
    9900012    2    3    3    0    0 -0.27251795943E+02  0.23956643056E+02  0.62609246053E+01  0.54367077883E+02  0.39999985650E+02 0.  0.
        -12    1    3    3    0    0  0.27251795943E+02 -0.23956643056E+02 -0.62609246053E+01  0.36820922117E+02  0.00000000000E+00 0.  1.
         11    1    4    4    0    0 -0.18833450212E+02  0.16520730729E+02 -0.10284732714E+02  0.27081527246E+02  0.51100000000E-03 0. -1.
        -11    1    4    4    0    0  0.15341183645E+01 -0.34785829206E+01 -0.13922961933E+01  0.40487710781E+01  0.51100000000E-03 0.  1.
         12    1    4    4    0    0 -0.99524640951E+01  0.10914495247E+02  0.17937953512E+02  0.23236779559E+02  0.00000000000E+00 0. -1.
</event>
<event>
 8    1  0.1290800E-006  0.9118800E+02  0.7816164E-02  0.1184000E+00
        -11   -1    0    0    0    0  0.00000000000E+00  0.00000000000E+00  0.45593999997E+02  0.45594000000E+02  0.51100000000E-03 0.  1.
         11   -1    0    0    0    0 -0.00000000000E+00 -0.00000000000E+00 -0.45593999997E+02  0.45594000000E+02  0.51100000000E-03 0. -1.
         23    2    1    2    0    0 -0.22204460493E-15  0.00000000000E+00  0.71054273576E-14  0.91188000000E+02  0.91188000000E+02 0.  0.
    9900012    2    3    3    0    0 -0.40116938716E+00 -0.17446988691E+02  0.32422576534E+02  0.54367057313E+02  0.39999938756E+02 0.  0.
         12    1    3    3    0    0  0.40116938716E+00  0.17446988691E+02 -0.32422576534E+02  0.36820942687E+02  0.00000000000E+00 0. -1.
         11    1    4    4    0    0 -0.66329284928E+01 -0.28246983089E+02  0.24574114672E+02  0.38023346857E+02  0.51100000000E-03 0. -1.
        -11    1    4    4    0    0  0.39679034083E+01  0.79204006810E+01  0.88750068833E+01  0.12539647198E+02  0.51100000000E-03 0.  1.
         12    1    4    4    0    0  0.22638556974E+01  0.28795937168E+01 -0.10265450214E+01  0.38040632583E+01  0.00000000000E+00 0. -1.
</event>
<event>
 8    1  0.1290800E-006  0.9118800E+02  0.7816164E-02  0.1184000E+00
        -11   -1    0    0    0    0  0.00000000000E+00  0.00000000000E+00  0.45593999997E+02  0.45594000000E+02  0.51100000000E-03 0.  1.
         11   -1    0    0    0    0 -0.00000000000E+00 -0.00000000000E+00 -0.45593999997E+02  0.45594000000E+02  0.51100000000E-03 0. -1.
         23    2    1    2    0    0  0.00000000000E+00  0.17763568394E-14  0.00000000000E+00  0.91188000000E+02  0.91188000000E+02 0.  0.
    9900012    2    3    3    0    0 -0.35046388348E+02  0.69859946642E+01  0.88728362577E+01  0.54367072786E+02  0.39999974030E+02 0.  0.
        -12    1    3    3    0    0  0.35046388348E+02 -0.69859946642E+01 -0.88728362577E+01  0.36820927214E+02  0.00000000000E+00 0.  1.
         11    1    4    4    0    0  0.12066189899E+01 -0.57504569393E+01  0.29619312779E+01  0.65800244342E+01  0.51100000000E-03 0. -1.
        -11    1    4    4    0    0 -0.30267467985E+02  0.12433324102E+02  0.15712302042E+02  0.36298534436E+02  0.51100000000E-03 0.  1.
         12    1    4    4    0    0 -0.59855393525E+01  0.30312750194E+00 -0.98013970624E+01  0.11488513916E+02  0.00000000000E+00 0. -1.
</event>
<event>
 8    1  0.1290800E-006  0.9118800E+02  0.7816164E-02  0.1184000E+00
        -11   -1    0    0    0    0  0.00000000000E+00  0.00000000000E+00  0.45593999997E+02  0.45594000000E+02  0.51100000000E-03 0. -1.
         11   -1    0    0    0    0 -0.00000000000E+00 -0.00000000000E+00 -0.45593999997E+02  0.45594000000E+02  0.51100000000E-03 0.  1.
         23    2    1    2    0    0  0.44408920985E-15  0.17763568394E-14  0.71054273576E-14  0.91188000000E+02  0.91188000000E+02 0.  0.
    9900012    2    3    3    0    0 -0.27995797875E+01 -0.15734455824E+02 -0.33171719284E+02  0.54367167482E+02  0.40000189909E+02 0.  0.
         12    1    3    3    0    0  0.27995797875E+01  0.15734455824E+02  0.33171719284E+02  0.36820832518E+02  0.00000000000E+00 0. -1.
         11    1    4    4    0    0 -0.19382597335E+01  0.11500521147E+02 -0.93224265714E+01  0.14930722517E+02  0.51100000000E-03 0. -1.
        -11    1    4    4    0    0 -0.77363923994E+01 -0.18739306791E+02 -0.13300639644E+02  0.24247069959E+02  0.51100000000E-03 0.  1.
         12    1    4    4    0    0  0.68750723453E+01 -0.84956701792E+01 -0.10548653068E+02  0.15189375007E+02  0.00000000000E+00 0. -1.
</event>
<event>
 8    1  0.1290800E-006  0.9118800E+02  0.7816164E-02  0.1184000E+00
        -11   -1    0    0    0    0  0.00000000000E+00  0.00000000000E+00  0.45593999997E+02  0.45594000000E+02  0.51100000000E-03 0.  1.
         11   -1    0    0    0    0 -0.00000000000E+00 -0.00000000000E+00 -0.45593999997E+02  0.45594000000E+02  0.51100000000E-03 0. -1.
         23    2    1    2    0    0  0.44408920985E-15  0.11102230246E-14  0.00000000000E+00  0.91188000000E+02  0.91188000000E+02 0.  0.
    9900012    2    3    3    0    0 -0.26877387758E+01  0.19370026430E+01 -0.36671586776E+02  0.54367065796E+02  0.39999958096E+02 0.  0.
        -12    1    3    3    0    0  0.26877387758E+01 -0.19370026430E+01  0.36671586776E+02  0.36820934204E+02  0.00000000000E+00 0.  1.
         11    1    4    4    0    0 -0.17048081369E+01 -0.91002908715E+01 -0.74845778199E+01  0.11905484876E+02  0.51100000000E-03 0. -1.
        -11    1    4    4    0    0  0.12657065844E+02  0.11405978646E+02 -0.18316701507E+02  0.25015979273E+02  0.51100000000E-03 0.  1.
        -12    1    4    4    0    0 -0.13639996483E+02 -0.36868513112E+00 -0.10870307449E+02  0.17445601647E+02  0.00000000000E+00 0.  1.
</event>
<event>
 8    1  0.1290800E-006  0.9118800E+02  0.7816164E-02  0.1184000E+00
        -11   -1    0    0    0    0  0.00000000000E+00  0.00000000000E+00  0.45593999997E+02  0.45594000000E+02  0.51100000000E-03 0.  1.
         11   -1    0    0    0    0 -0.00000000000E+00 -0.00000000000E+00 -0.45593999997E+02  0.45594000000E+02  0.51100000000E-03 0. -1.
         23    2    1    2    0    0  0.17763568394E-14 -0.17763568394E-14 -0.71054273576E-14  0.91188000000E+02  0.91188000000E+02 0.  0.
    9900012    2    3    3    0    0  0.14064700762E+02 -0.10807802054E+02  0.32266945652E+02  0.54367079663E+02  0.39999989707E+02 0.  0.
         12    1    3    3    0    0 -0.14064700762E+02  0.10807802054E+02 -0.32266945652E+02  0.36820920337E+02  0.00000000000E+00 0. -1.
         11    1    4    4    0    0  0.11617119162E+02  0.36654354683E+00 -0.99887452050E+00  0.11665743113E+02  0.51100000000E-03 0. -1.
        -11    1    4    4    0    0  0.26414845436E+00  0.55677678779E+01  0.20384096409E+00  0.55777562646E+01  0.51100000000E-03 0.  1.
        -12    1    4    4    0    0  0.21834331456E+01 -0.16742113479E+02  0.33061979208E+02  0.37123580285E+02  0.00000000000E+00 0.  1.
</event>
<event>
 8    1  0.1290800E-006  0.9118800E+02  0.7816164E-02  0.1184000E+00
        -11   -1    0    0    0    0  0.00000000000E+00  0.00000000000E+00  0.45593999997E+02  0.45594000000E+02  0.51100000000E-03 0. -1.
         11   -1    0    0    0    0 -0.00000000000E+00 -0.00000000000E+00 -0.45593999997E+02  0.45594000000E+02  0.51100000000E-03 0.  1.
         23    2    1    2    0    0  0.00000000000E+00  0.00000000000E+00 -0.17763568394E-14  0.91188000000E+02  0.91188000000E+02 0.  0.
    9900012    2    3    3    0    0  0.10722928566E+02  0.32925349872E+02 -0.12518052618E+02  0.54367333214E+02  0.40000567723E+02 0.  0.
        -12    1    3    3    0    0 -0.10722928566E+02 -0.32925349872E+02  0.12518052618E+02  0.36820666786E+02  0.00000000000E+00 0.  1.
         11    1    4    4    0    0 -0.12378126595E+01  0.82203629168E+01  0.12035447248E+02  0.14627321606E+02  0.51100000000E-03 0. -1.
        -11    1    4    4    0    0  0.14207777755E+02  0.14472861907E+02 -0.12739927119E+02  0.23950582953E+02  0.51100000000E-03 0.  1.
        -12    1    4    4    0    0 -0.22470365298E+01  0.10232125048E+02 -0.11813572747E+02  0.15789428654E+02  0.00000000000E+00 0.  1.
</event>
<event>
 8    1  0.1290800E-006  0.9118800E+02  0.7816164E-02  0.1184000E+00
        -11   -1    0    0    0    0  0.00000000000E+00  0.00000000000E+00  0.45593999997E+02  0.45594000000E+02  0.51100000000E-03 0.  1.
         11   -1    0    0    0    0 -0.00000000000E+00 -0.00000000000E+00 -0.45593999997E+02  0.45594000000E+02  0.51100000000E-03 0. -1.
         23    2    1    2    0    0  0.00000000000E+00  0.00000000000E+00  0.00000000000E+00  0.91188000000E+02  0.91188000000E+02 0.  0.
    9900012    2    3    3    0    0  0.87979001842E+01 -0.26424210250E+02 -0.24086046818E+02  0.54367087650E+02  0.40000007916E+02 0.  0.
        -12    1    3    3    0    0 -0.87979001842E+01  0.26424210250E+02  0.24086046818E+02  0.36820912350E+02  0.00000000000E+00 0.  1.
         11    1    4    4    0    0  0.62796636844E+01  0.24685892927E+01 -0.27245088146E+01  0.72767477369E+01  0.51100000000E-03 0. -1.
        -11    1    4    4    0    0  0.15725390020E+02 -0.12510552075E+02 -0.57895181506E+01  0.20912205172E+02  0.51100000000E-03 0.  1.
         12    1    4    4    0    0 -0.13207153520E+02 -0.16382247468E+02 -0.15572019852E+02  0.26178134741E+02  0.00000000000E+00 0. -1.
</event>
<event>
 8    1  0.1290800E-006  0.9118800E+02  0.7816164E-02  0.1184000E+00
        -11   -1    0    0    0    0  0.00000000000E+00  0.00000000000E+00  0.45593999997E+02  0.45594000000E+02  0.51100000000E-03 0.  1.
         11   -1    0    0    0    0 -0.00000000000E+00 -0.00000000000E+00 -0.45593999997E+02  0.45594000000E+02  0.51100000000E-03 0. -1.
         23    2    1    2    0    0 -0.19984014443E-14 -0.88817841970E-15  0.00000000000E+00  0.91188000000E+02  0.91188000000E+02 0.  0.
    9900012    2    3    3    0    0  0.26810321726E+00  0.76102702824E+01  0.36024870136E+02  0.54367090703E+02  0.40000014876E+02 0.  0.
         12    1    3    3    0    0 -0.26810321726E+00 -0.76102702824E+01 -0.36024870136E+02  0.36820909297E+02  0.00000000000E+00 0. -1.
         11    1    4    4    0    0 -0.70113959767E+01  0.18741040051E+01  0.43787248794E+01  0.84761530893E+01  0.51100000000E-03 0. -1.
        -11    1    4    4    0    0  0.80462158277E+01  0.17533207176E+02  0.27011441953E+02  0.33192965214E+02  0.51100000000E-03 0.  1.
        -12    1    4    4    0    0 -0.76671663381E+00 -0.11797040899E+02  0.46347033039E+01  0.12697972400E+02  0.00000000000E+00 0.  1.
</event>
<event>
 8    1  0.1290800E-006  0.9118800E+02  0.7816164E-02  0.1184000E+00
        -11   -1    0    0    0    0  0.00000000000E+00  0.00000000000E+00  0.45593999997E+02  0.45594000000E+02  0.51100000000E-03 0.  1.
         11   -1    0    0    0    0 -0.00000000000E+00 -0.00000000000E+00 -0.45593999997E+02  0.45594000000E+02  0.51100000000E-03 0. -1.
         23    2    1    2    0    0  0.00000000000E+00 -0.17763568394E-14  0.00000000000E+00  0.91188000000E+02  0.91188000000E+02 0.  0.
    9900012    2    3    3    0    0 -0.16712531805E+02  0.13988852945E+02 -0.29677996549E+02  0.54367079245E+02  0.39999988756E+02 0.  0.
        -12    1    3    3    0    0  0.16712531805E+02 -0.13988852945E+02  0.29677996549E+02  0.36820920755E+02  0.00000000000E+00 0.  1.
         11    1    4    4    0    0 -0.13004621309E+02  0.15426504546E+02 -0.13554616448E+02  0.24306888842E+02  0.51100000000E-03 0. -1.
        -11    1    4    4    0    0 -0.72077179736E+01 -0.93792308957E+00 -0.22017995836E+02  0.23186699614E+02  0.51100000000E-03 0.  1.
        -12    1    4    4    0    0  0.34998074771E+01 -0.49972851087E+00  0.58946157351E+01  0.68734907890E+01  0.00000000000E+00 0.  1.
</event>
<event>
 8    1  0.1290800E-006  0.9118800E+02  0.7816164E-02  0.1184000E+00
        -11   -1    0    0    0    0  0.00000000000E+00  0.00000000000E+00  0.45593999997E+02  0.45594000000E+02  0.51100000000E-03 0.  1.
         11   -1    0    0    0    0 -0.00000000000E+00 -0.00000000000E+00 -0.45593999997E+02  0.45594000000E+02  0.51100000000E-03 0. -1.
         23    2    1    2    0    0  0.17763568394E-14  0.00000000000E+00  0.17763568394E-14  0.91188000000E+02  0.91188000000E+02 0.  0.
    9900012    2    3    3    0    0 -0.58550232010E+01 -0.34540984808E+02 -0.11332180850E+02  0.54367092203E+02  0.40000018294E+02 0.  0.
        -12    1    3    3    0    0  0.58550232010E+01  0.34540984808E+02  0.11332180850E+02  0.36820907797E+02  0.00000000000E+00 0.  1.
         11    1    4    4    0    0 -0.19698069685E+02 -0.76623675600E+01 -0.16623929496E+01  0.21201164509E+02  0.51100000000E-03 0. -1.
        -11    1    4    4    0    0  0.12222575150E+02 -0.13352651343E+02 -0.55789696014E+01  0.18942268694E+02  0.51100000000E-03 0.  1.
         12    1    4    4    0    0  0.16204713340E+01 -0.13525965905E+02 -0.40908182995E+01  0.14223659000E+02  0.00000000000E+00 0. -1.
</event>
<event>
 8    1  0.1290800E-006  0.9118800E+02  0.7816164E-02  0.1184000E+00
        -11   -1    0    0    0    0  0.00000000000E+00  0.00000000000E+00  0.45593999997E+02  0.45594000000E+02  0.51100000000E-03 0.  1.
         11   -1    0    0    0    0 -0.00000000000E+00 -0.00000000000E+00 -0.45593999997E+02  0.45594000000E+02  0.51100000000E-03 0. -1.
         23    2    1    2    0    0 -0.44408920985E-15  0.00000000000E+00  0.88817841970E-15  0.91188000000E+02  0.91188000000E+02 0.  0.
    9900012    2    3    3    0    0  0.21715066680E+01  0.36362854196E+02 -0.53672243116E+01  0.54367086061E+02  0.40000004294E+02 0.  0.
        -12    1    3    3    0    0 -0.21715066680E+01 -0.36362854196E+02  0.53672243116E+01  0.36820913939E+02  0.00000000000E+00 0.  1.
         11    1    4    4    0    0  0.42243304598E+01  0.18116972444E+02 -0.12658435403E+02  0.22501236532E+02  0.51100000000E-03 0. -1.
        -11    1    4    4    0    0 -0.38904874728E+01  0.12690546332E+02 -0.79968166360E+01  0.15496287799E+02  0.51100000000E-03 0.  1.
        -12    1    4    4    0    0  0.18376636811E+01  0.55553354193E+01  0.15288027727E+02  0.16369561730E+02  0.00000000000E+00 0.  1.
</event>
<event>
 8    1  0.1290800E-006  0.9118800E+02  0.7816164E-02  0.1184000E+00
        -11   -1    0    0    0    0  0.00000000000E+00  0.00000000000E+00  0.45593999997E+02  0.45594000000E+02  0.51100000000E-03 0. -1.
         11   -1    0    0    0    0 -0.00000000000E+00 -0.00000000000E+00 -0.45593999997E+02  0.45594000000E+02  0.51100000000E-03 0.  1.
         23    2    1    2    0    0  0.35527136788E-14  0.00000000000E+00  0.44408920985E-15  0.91188000000E+02  0.91188000000E+02 0.  0.
    9900012    2    3    3    0    0 -0.31846993380E+02  0.18434496964E+02 -0.13148069785E+01  0.54366941038E+02  0.39999673684E+02 0.  0.
         12    1    3    3    0    0  0.31846993380E+02 -0.18434496964E+02  0.13148069785E+01  0.36821058962E+02  0.00000000000E+00 0. -1.
         11    1    4    4    0    0  0.32243270785E+01  0.91164961610E+01 -0.32974960163E+01  0.10216666169E+02  0.51100000000E-03 0. -1.
        -11    1    4    4    0    0 -0.96375416612E+01  0.14982557960E+02  0.30389810700E+01  0.18071930126E+02  0.51100000000E-03 0.  1.
         12    1    4    4    0    0 -0.25433778797E+02 -0.56645571565E+01 -0.10562920322E+01  0.26078344743E+02  0.00000000000E+00 0. -1.
</event>
<event>
 8    1  0.1290800E-006  0.9118800E+02  0.7816164E-02  0.1184000E+00
        -11   -1    0    0    0    0  0.00000000000E+00  0.00000000000E+00  0.45593999997E+02  0.45594000000E+02  0.51100000000E-03 0. -1.
         11   -1    0    0    0    0 -0.00000000000E+00 -0.00000000000E+00 -0.45593999997E+02  0.45594000000E+02  0.51100000000E-03 0.  1.
         23    2    1    2    0    0 -0.35527136788E-14  0.00000000000E+00  0.00000000000E+00  0.91188000000E+02  0.91188000000E+02 0.  0.
    9900012    2    3    3    0    0 -0.13048719774E+02 -0.33811570569E+02 -0.65032612230E+01  0.54367030449E+02  0.39999877515E+02 0.  0.
         12    1    3    3    0    0  0.13048719774E+02  0.33811570569E+02  0.65032612230E+01  0.36820969551E+02  0.00000000000E+00 0. -1.
         11    1    4    4    0    0 -0.70200136615E+01  0.61442945026E+01  0.26858301012E+01  0.97080703714E+01  0.51100000000E-03 0. -1.
        -11    1    4    4    0    0 -0.10441884421E+02 -0.21639730399E+02 -0.81413453588E+00  0.24041083530E+02  0.51100000000E-03 0.  1.
        -12    1    4    4    0    0  0.44131783078E+01 -0.18316134673E+02 -0.83749567883E+01  0.20617876548E+02  0.00000000000E+00 0.  1.
</event>
<event>
 8    1  0.1290800E-006  0.9118800E+02  0.7816164E-02  0.1184000E+00
        -11   -1    0    0    0    0  0.00000000000E+00  0.00000000000E+00  0.45593999997E+02  0.45594000000E+02  0.51100000000E-03 0.  1.
         11   -1    0    0    0    0 -0.00000000000E+00 -0.00000000000E+00 -0.45593999997E+02  0.45594000000E+02  0.51100000000E-03 0. -1.
         23    2    1    2    0    0  0.00000000000E+00  0.53290705182E-14 -0.71054273576E-14  0.91188000000E+02  0.91188000000E+02 0.  0.
    9900012    2    3    3    0    0  0.11846987989E+02  0.12934595502E+02 -0.32374762639E+02  0.54367080116E+02  0.39999990740E+02 0.  0.
        -12    1    3    3    0    0 -0.11846987989E+02 -0.12934595502E+02  0.32374762639E+02  0.36820919884E+02  0.00000000000E+00 0.  1.
         11    1    4    4    0    0  0.80121711807E+01 -0.63942390091E+01 -0.89409356326E+01  0.13602261201E+02  0.51100000000E-03 0. -1.
        -11    1    4    4    0    0 -0.66215901500E+01 -0.25002766132E+01 -0.39085272926E-02  0.70779131666E+01  0.51100000000E-03 0.  1.
         12    1    4    4    0    0  0.10456406959E+02  0.21829111124E+02 -0.23429918479E+02  0.33686905748E+02  0.00000000000E+00 0. -1.
</event>
<event>
 8    1  0.1290800E-006  0.9118800E+02  0.7816164E-02  0.1184000E+00
        -11   -1    0    0    0    0  0.00000000000E+00  0.00000000000E+00  0.45593999997E+02  0.45594000000E+02  0.51100000000E-03 0. -1.
         11   -1    0    0    0    0 -0.00000000000E+00 -0.00000000000E+00 -0.45593999997E+02  0.45594000000E+02  0.51100000000E-03 0.  1.
         23    2    1    2    0    0  0.00000000000E+00  0.00000000000E+00  0.00000000000E+00  0.91188000000E+02  0.91188000000E+02 0.  0.
    9900012    2    3    3    0    0  0.54079768757E+01 -0.16886102855E+02  0.32270611950E+02  0.54367094536E+02  0.40000023615E+02 0.  0.
        -12    1    3    3    0    0 -0.54079768757E+01  0.16886102855E+02 -0.32270611950E+02  0.36820905464E+02  0.00000000000E+00 0.  1.
         11    1    4    4    0    0 -0.92633557677E+01 -0.66586502576E+01  0.31123521135E+02  0.33148468312E+02  0.51100000000E-03 0. -1.
        -11    1    4    4    0    0  0.13957980553E+02 -0.35075286487E+01  0.13721022840E+01  0.14457200396E+02  0.51100000000E-03 0.  1.
        -12    1    4    4    0    0  0.71335208990E+00 -0.67199239482E+01 -0.22501146844E+00  0.67614258285E+01  0.00000000000E+00 0.  1.
</event>
<event>
 8    1  0.1290800E-006  0.9118800E+02  0.7816164E-02  0.1184000E+00
        -11   -1    0    0    0    0  0.00000000000E+00  0.00000000000E+00  0.45593999997E+02  0.45594000000E+02  0.51100000000E-03 0.  1.
         11   -1    0    0    0    0 -0.00000000000E+00 -0.00000000000E+00 -0.45593999997E+02  0.45594000000E+02  0.51100000000E-03 0. -1.
         23    2    1    2    0    0  0.00000000000E+00  0.00000000000E+00 -0.35527136788E-14  0.91188000000E+02  0.91188000000E+02 0.  0.
    9900012    2    3    3    0    0 -0.10724013974E+02  0.20950162433E+02  0.28317247530E+02  0.54367078103E+02  0.39999986152E+02 0.  0.
         12    1    3    3    0    0  0.10724013974E+02 -0.20950162433E+02 -0.28317247530E+02  0.36820921897E+02  0.00000000000E+00 0. -1.
         11    1    4    4    0    0 -0.15125266000E+01  0.76648849110E+01 -0.29896672568E+01  0.83651842766E+01  0.51100000000E-03 0. -1.
        -11    1    4    4    0    0 -0.14524226354E+02  0.60947426638E+01  0.26370157727E+01  0.15970375442E+02  0.51100000000E-03 0.  1.
        -12    1    4    4    0    0  0.53127389799E+01  0.71905348583E+01  0.28669899014E+02  0.30031518384E+02  0.00000000000E+00 0.  1.
</event>
<event>
 8    1  0.1290800E-006  0.9118800E+02  0.7816164E-02  0.1184000E+00
        -11   -1    0    0    0    0  0.00000000000E+00  0.00000000000E+00  0.45593999997E+02  0.45594000000E+02  0.51100000000E-03 0.  1.
         11   -1    0    0    0    0 -0.00000000000E+00 -0.00000000000E+00 -0.45593999997E+02  0.45594000000E+02  0.51100000000E-03 0. -1.
         23    2    1    2    0    0 -0.17763568394E-14  0.00000000000E+00 -0.22204460493E-15  0.91188000000E+02  0.91188000000E+02 0.  0.
    9900012    2    3    3    0    0  0.12014532882E+02 -0.34783641359E+02  0.12364273527E+01  0.54367089376E+02  0.40000011851E+02 0.  0.
         12    1    3    3    0    0 -0.12014532882E+02  0.34783641359E+02 -0.12364273527E+01  0.36820910624E+02  0.00000000000E+00 0. -1.
         11    1    4    4    0    0  0.21817828247E+02 -0.31353473327E+02 -0.53817062174E+01  0.38574871110E+02  0.51100000000E-03 0.  1.
        -11    1    4    4    0    0 -0.28058598419E+01 -0.29265153629E+01  0.76919037184E+01  0.86949827312E+01  0.51100000000E-03 0. -1.
         12    1    4    4    0    0 -0.69974355227E+01 -0.50365266870E+00 -0.10737701483E+01  0.70972355348E+01  0.00000000000E+00 0. -1.
</event>
<event>
 8    1  0.1290800E-006  0.9118800E+02  0.7816164E-02  0.1184000E+00
        -11   -1    0    0    0    0  0.00000000000E+00  0.00000000000E+00  0.45593999997E+02  0.45594000000E+02  0.51100000000E-03 0.  1.
         11   -1    0    0    0    0 -0.00000000000E+00 -0.00000000000E+00 -0.45593999997E+02  0.45594000000E+02  0.51100000000E-03 0. -1.
         23    2    1    2    0    0 -0.88817841970E-15  0.00000000000E+00  0.00000000000E+00  0.91188000000E+02  0.91188000000E+02 0.  0.
    9900012    2    3    3    0    0  0.78552635354E+01 -0.13448723842E+02 -0.33364767964E+02  0.54367067373E+02  0.39999961691E+02 0.  0.
        -12    1    3    3    0    0 -0.78552635354E+01  0.13448723842E+02  0.33364767964E+02  0.36820932627E+02  0.00000000000E+00 0.  1.
         11    1    4    4    0    0 -0.39803405346E+01 -0.15651481388E+02 -0.23603276654E+01  0.16321247727E+02  0.51100000000E-03 0. -1.
        -11    1    4    4    0    0  0.10192371296E+02 -0.71349790054E+01 -0.19594668508E+02  0.23210846435E+02  0.51100000000E-03 0.  1.
        -12    1    4    4    0    0  0.16432327736E+01  0.93377365514E+01 -0.11409771791E+02  0.14834973211E+02  0.00000000000E+00 0.  1.
</event>
<event>
 8    1  0.1290800E-006  0.9118800E+02  0.7816164E-02  0.1184000E+00
        -11   -1    0    0    0    0  0.00000000000E+00  0.00000000000E+00  0.45593999997E+02  0.45594000000E+02  0.51100000000E-03 0.  1.
         11   -1    0    0    0    0 -0.00000000000E+00 -0.00000000000E+00 -0.45593999997E+02  0.45594000000E+02  0.51100000000E-03 0. -1.
         23    2    1    2    0    0 -0.17763568394E-14  0.00000000000E+00  0.00000000000E+00  0.91188000000E+02  0.91188000000E+02 0.  0.
    9900012    2    3    3    0    0  0.14850521098E+02 -0.32069316070E+02 -0.10334018541E+02  0.54367204934E+02  0.40000275287E+02 0.  0.
         12    1    3    3    0    0 -0.14850521098E+02  0.32069316070E+02  0.10334018541E+02  0.36820795066E+02  0.00000000000E+00 0. -1.
         11    1    4    4    0    0 -0.83436292595E+01 -0.14689125472E+02  0.21082547958E+01  0.17024432293E+02  0.51100000000E-03 0. -1.
        -11    1    4    4    0    0  0.18070646707E+02 -0.20876956055E+02 -0.57236442417E+01  0.28198504752E+02  0.51100000000E-03 0.  1.
        -12    1    4    4    0    0  0.51235036503E+01  0.34967654568E+01 -0.67186290953E+01  0.91442678895E+01  0.00000000000E+00 0.  1.
</event>
<event>
 8    1  0.1290800E-006  0.9118800E+02  0.7816164E-02  0.1184000E+00
        -11   -1    0    0    0    0  0.00000000000E+00  0.00000000000E+00  0.45593999997E+02  0.45594000000E+02  0.51100000000E-03 0.  1.
         11   -1    0    0    0    0 -0.00000000000E+00 -0.00000000000E+00 -0.45593999997E+02  0.45594000000E+02  0.51100000000E-03 0. -1.
         23    2    1    2    0    0  0.00000000000E+00  0.62172489379E-14  0.00000000000E+00  0.91188000000E+02  0.91188000000E+02 0.  0.
    9900012    2    3    3    0    0 -0.19486534782E+02  0.27783885742E+01  0.31118108623E+02  0.54367066210E+02  0.39999959039E+02 0.  0.
         12    1    3    3    0    0  0.19486534782E+02 -0.27783885742E+01 -0.31118108623E+02  0.36820933790E+02  0.00000000000E+00 0. -1.
         11    1    4    4    0    0  0.41594656467E+01 -0.40545780891E+00  0.20735463701E+01  0.46653129917E+01  0.51100000000E-03 0. -1.
        -11    1    4    4    0    0 -0.19014217514E+02 -0.13238608696E+02  0.18443990583E+02  0.29613882163E+02  0.51100000000E-03 0.  1.
        -12    1    4    4    0    0 -0.46317829152E+01  0.16422455079E+02  0.10600571670E+02  0.20087871055E+02  0.00000000000E+00 0.  1.
</event>
<event>
 8    1  0.1290800E-006  0.9118800E+02  0.7816164E-02  0.1184000E+00
        -11   -1    0    0    0    0  0.00000000000E+00  0.00000000000E+00  0.45593999997E+02  0.45594000000E+02  0.51100000000E-03 0. -1.
         11   -1    0    0    0    0 -0.00000000000E+00 -0.00000000000E+00 -0.45593999997E+02  0.45594000000E+02  0.51100000000E-03 0.  1.
         23    2    1    2    0    0 -0.71054273576E-14 -0.88817841970E-15  0.17763568394E-14  0.91188000000E+02  0.91188000000E+02 0.  0.
    9900012    2    3    3    0    0  0.34385882859E+02 -0.47135295436E+01 -0.12295256229E+02  0.54367087104E+02  0.40000006671E+02 0.  0.
        -12    1    3    3    0    0 -0.34385882859E+02  0.47135295436E+01  0.12295256229E+02  0.36820912896E+02  0.00000000000E+00 0.  1.
         11    1    4    4    0    0  0.11405791868E+02 -0.90979298034E+01  0.41803695679E+01  0.15176953081E+02  0.51100000000E-03 0. -1.
        -11    1    4    4    0    0 -0.13119494843E+01 -0.80986952703E+01 -0.30070857815E+01  0.87379998677E+01  0.51100000000E-03 0.  1.
        -12    1    4    4    0    0  0.24292040476E+02  0.12483095530E+02 -0.13468540015E+02  0.30452134156E+02  0.00000000000E+00 0.  1.
</event>
<event>
 8    1  0.1290800E-006  0.9118800E+02  0.7816164E-02  0.1184000E+00
        -11   -1    0    0    0    0  0.00000000000E+00  0.00000000000E+00  0.45593999997E+02  0.45594000000E+02  0.51100000000E-03 0.  1.
         11   -1    0    0    0    0 -0.00000000000E+00 -0.00000000000E+00 -0.45593999997E+02  0.45594000000E+02  0.51100000000E-03 0. -1.
         23    2    1    2    0    0  0.00000000000E+00  0.00000000000E+00  0.00000000000E+00  0.91188000000E+02  0.91188000000E+02 0.  0.
    9900012    2    3    3    0    0 -0.27187004236E+02  0.19390870463E+02  0.15512615952E+02  0.54367077818E+02  0.39999985502E+02 0.  0.
        -12    1    3    3    0    0  0.27187004236E+02 -0.19390870463E+02 -0.15512615952E+02  0.36820922182E+02  0.00000000000E+00 0.  1.
         11    1    4    4    0    0 -0.19381717046E+02  0.13079210281E+02 -0.51074404818E+00  0.23387551324E+02  0.51100000000E-03 0. -1.
        -11    1    4    4    0    0 -0.53052974609E+01 -0.84275602957E+01  0.13811505055E+01  0.10053732176E+02  0.51100000000E-03 0.  1.
        -12    1    4    4    0    0 -0.24999897299E+01  0.14739220477E+02  0.14642209495E+02  0.20925794318E+02  0.00000000000E+00 0.  1.
</event>
<event>
 8    1  0.1290800E-006  0.9118800E+02  0.7816164E-02  0.1184000E+00
        -11   -1    0    0    0    0  0.00000000000E+00  0.00000000000E+00  0.45593999997E+02  0.45594000000E+02  0.51100000000E-03 0.  1.
         11   -1    0    0    0    0 -0.00000000000E+00 -0.00000000000E+00 -0.45593999997E+02  0.45594000000E+02  0.51100000000E-03 0. -1.
         23    2    1    2    0    0  0.00000000000E+00  0.22204460493E-15 -0.88817841970E-15  0.91188000000E+02  0.91188000000E+02 0.  0.
    9900012    2    3    3    0    0  0.36299672834E+02 -0.19485894189E+01 -0.58578182935E+01  0.54367118917E+02  0.40000079195E+02 0.  0.
        -12    1    3    3    0    0 -0.36299672834E+02  0.19485894189E+01  0.58578182935E+01  0.36820881083E+02  0.00000000000E+00 0.  1.
         11    1    4    4    0    0  0.18705200303E+02 -0.52403967985E+01 -0.14617358302E+02  0.24310768005E+02  0.51100000000E-03 0. -1.
        -11    1    4    4    0    0  0.13196037272E+02  0.15908077551E+01 -0.59843367151E+01  0.14576637307E+02  0.51100000000E-03 0.  1.
        -12    1    4    4    0    0  0.43984352587E+01  0.17009996245E+01  0.14743876724E+02  0.15479713605E+02  0.00000000000E+00 0.  1.
</event>
<event>
 8    1  0.1290800E-006  0.9118800E+02  0.7816164E-02  0.1184000E+00
        -11   -1    0    0    0    0  0.00000000000E+00  0.00000000000E+00  0.45593999997E+02  0.45594000000E+02  0.51100000000E-03 0.  1.
         11   -1    0    0    0    0 -0.00000000000E+00 -0.00000000000E+00 -0.45593999997E+02  0.45594000000E+02  0.51100000000E-03 0. -1.
         23    2    1    2    0    0  0.35527136788E-14  0.00000000000E+00 -0.35527136788E-14  0.91188000000E+02  0.91188000000E+02 0.  0.
    9900012    2    3    3    0    0  0.27619880094E+02 -0.14083578875E+02  0.19863912286E+02  0.54367082281E+02  0.39999995676E+02 0.  0.
         12    1    3    3    0    0 -0.27619880094E+02  0.14083578875E+02 -0.19863912286E+02  0.36820917719E+02  0.00000000000E+00 0. -1.
         11    1    4    4    0    0  0.20317936577E+01 -0.53272753554E+01 -0.19878637859E+01  0.60381827458E+01  0.51100000000E-03 0. -1.
        -11    1    4    4    0    0  0.23409833398E+02 -0.20174010754E+02  0.12214069344E+02  0.33229422201E+02  0.51100000000E-03 0.  1.
        -12    1    4    4    0    0  0.21782530390E+01  0.11417707234E+02  0.96377067283E+01  0.15099477334E+02  0.00000000000E+00 0.  1.
</event>
<event>
 8    1  0.1290800E-006  0.9118800E+02  0.7816164E-02  0.1184000E+00
        -11   -1    0    0    0    0  0.00000000000E+00  0.00000000000E+00  0.45593999997E+02  0.45594000000E+02  0.51100000000E-03 0.  1.
         11   -1    0    0    0    0 -0.00000000000E+00 -0.00000000000E+00 -0.45593999997E+02  0.45594000000E+02  0.51100000000E-03 0. -1.
         23    2    1    2    0    0  0.00000000000E+00  0.00000000000E+00  0.35527136788E-14  0.91188000000E+02  0.91188000000E+02 0.  0.
    9900012    2    3    3    0    0  0.93168353241E+01  0.24347656875E+02  0.26003233936E+02  0.54367082155E+02  0.39999995389E+02 0.  0.
         12    1    3    3    0    0 -0.93168353241E+01 -0.24347656875E+02 -0.26003233936E+02  0.36820917845E+02  0.00000000000E+00 0. -1.
         11    1    4    4    0    0  0.90134584108E+01 -0.51335292582E+01 -0.28090875313E+01  0.10746465846E+02  0.51100000000E-03 0. -1.
        -11    1    4    4    0    0  0.41127416029E+01  0.18528414385E+01  0.20049009614E+01  0.49363238360E+01  0.51100000000E-03 0.  1.
         12    1    4    4    0    0 -0.38093646896E+01  0.27628344695E+02  0.26807420506E+02  0.38684292473E+02  0.00000000000E+00 0. -1.
</event>
<event>
 8    1  0.1290800E-006  0.9118800E+02  0.7816164E-02  0.1184000E+00
        -11   -1    0    0    0    0  0.00000000000E+00  0.00000000000E+00  0.45593999997E+02  0.45594000000E+02  0.51100000000E-03 0.  1.
         11   -1    0    0    0    0 -0.00000000000E+00 -0.00000000000E+00 -0.45593999997E+02  0.45594000000E+02  0.51100000000E-03 0. -1.
         23    2    1    2    0    0 -0.35527136788E-14 -0.44408920985E-15  0.35527136788E-14  0.91188000000E+02  0.91188000000E+02 0.  0.
    9900012    2    3    3    0    0 -0.24160239678E+02 -0.23563540955E+01 -0.27685917484E+02  0.54367087289E+02  0.40000007093E+02 0.  0.
        -12    1    3    3    0    0  0.24160239678E+02  0.23563540955E+01  0.27685917484E+02  0.36820912711E+02  0.00000000000E+00 0.  1.
         11    1    4    4    0    0 -0.10948456777E+02 -0.16665955820E+01 -0.35016162822E+01  0.11614971523E+02  0.51100000000E-03 0.  1.
        -11    1    4    4    0    0 -0.11418091112E+02  0.18169182271E+01 -0.32174086950E+02  0.34188387909E+02  0.51100000000E-03 0. -1.
        -12    1    4    4    0    0 -0.17936917897E+01 -0.25066767405E+01  0.79897857481E+01  0.85637278576E+01  0.00000000000E+00 0.  1.
</event>
<event>
 8    1  0.1290800E-006  0.9118800E+02  0.7816164E-02  0.1184000E+00
        -11   -1    0    0    0    0  0.00000000000E+00  0.00000000000E+00  0.45593999997E+02  0.45594000000E+02  0.51100000000E-03 0.  1.
         11   -1    0    0    0    0 -0.00000000000E+00 -0.00000000000E+00 -0.45593999997E+02  0.45594000000E+02  0.51100000000E-03 0. -1.
         23    2    1    2    0    0  0.00000000000E+00  0.00000000000E+00  0.00000000000E+00  0.91188000000E+02  0.91188000000E+02 0.  0.
    9900012    2    3    3    0    0 -0.60330769533E+01 -0.19268608055E+02 -0.30791273626E+02  0.54367084675E+02  0.40000001133E+02 0.  0.
        -12    1    3    3    0    0  0.60330769533E+01  0.19268608055E+02  0.30791273626E+02  0.36820915325E+02  0.00000000000E+00 0.  1.
         11    1    4    4    0    0  0.13013896155E+02 -0.64376987960E+01 -0.69355194277E+01  0.16090583859E+02  0.51100000000E-03 0. -1.
        -11    1    4    4    0    0 -0.74995783168E+00 -0.68918797964E+01  0.82827313206E+00  0.69818679821E+01  0.51100000000E-03 0.  1.
         12    1    4    4    0    0 -0.18297015277E+02 -0.59390294626E+01 -0.24684027330E+02  0.31294632834E+02  0.00000000000E+00 0. -1.
</event>
<event>
 8    1  0.1290800E-006  0.9118800E+02  0.7816164E-02  0.1184000E+00
        -11   -1    0    0    0    0  0.00000000000E+00  0.00000000000E+00  0.45593999997E+02  0.45594000000E+02  0.51100000000E-03 0.  1.
         11   -1    0    0    0    0 -0.00000000000E+00 -0.00000000000E+00 -0.45593999997E+02  0.45594000000E+02  0.51100000000E-03 0. -1.
         23    2    1    2    0    0  0.00000000000E+00  0.00000000000E+00  0.35527136788E-14  0.91188000000E+02  0.91188000000E+02 0.  0.
    9900012    2    3    3    0    0 -0.11794784795E+02 -0.18158248192E+02 -0.29781566365E+02  0.54367073600E+02  0.39999975886E+02 0.  0.
        -12    1    3    3    0    0  0.11794784795E+02  0.18158248192E+02  0.29781566365E+02  0.36820926400E+02  0.00000000000E+00 0.  1.
         11    1    4    4    0    0 -0.68759312091E+01 -0.19183781433E+02 -0.10526827673E+02  0.22937087896E+02  0.51100000000E-03 0. -1.
        -11    1    4    4    0    0  0.31756449425E+01 -0.82717863081E+01 -0.16605131882E+02  0.18821200137E+02  0.51100000000E-03 0.  1.
         12    1    4    4    0    0 -0.80944985286E+01  0.92973195484E+01 -0.26496068113E+01  0.12608785567E+02  0.00000000000E+00 0. -1.
</event>
<event>
 8    1  0.1290800E-006  0.9118800E+02  0.7816164E-02  0.1184000E+00
        -11   -1    0    0    0    0  0.00000000000E+00  0.00000000000E+00  0.45593999997E+02  0.45594000000E+02  0.51100000000E-03 0.  1.
         11   -1    0    0    0    0 -0.00000000000E+00 -0.00000000000E+00 -0.45593999997E+02  0.45594000000E+02  0.51100000000E-03 0. -1.
         23    2    1    2    0    0  0.35527136788E-14 -0.88817841970E-15  0.00000000000E+00  0.91188000000E+02  0.91188000000E+02 0.  0.
    9900012    2    3    3    0    0 -0.29166391286E+02 -0.28061260689E+01 -0.22298693389E+02  0.54367021591E+02  0.39999857322E+02 0.  0.
        -12    1    3    3    0    0  0.29166391286E+02  0.28061260689E+01  0.22298693389E+02  0.36820978409E+02  0.00000000000E+00 0.  1.
         11    1    4    4    0    0 -0.15406613264E+02  0.11288559124E+02  0.89609114095E+00  0.19120624439E+02  0.51100000000E-03 0. -1.
        -11    1    4    4    0    0  0.84338213370E+00 -0.77732016911E+01 -0.15947441002E+02  0.17761048188E+02  0.51100000000E-03 0.  1.
        -12    1    4    4    0    0 -0.14603160156E+02 -0.63214835019E+01 -0.72473435272E+01  0.17485348964E+02  0.00000000000E+00 0.  1.
</event>
<event>
 8    1  0.1290800E-006  0.9118800E+02  0.7816164E-02  0.1184000E+00
        -11   -1    0    0    0    0  0.00000000000E+00  0.00000000000E+00  0.45593999997E+02  0.45594000000E+02  0.51100000000E-03 0. -1.
         11   -1    0    0    0    0 -0.00000000000E+00 -0.00000000000E+00 -0.45593999997E+02  0.45594000000E+02  0.51100000000E-03 0.  1.
         23    2    1    2    0    0  0.10658141036E-13  0.17763568394E-14 -0.35527136788E-14  0.91188000000E+02  0.91188000000E+02 0.  0.
    9900012    2    3    3    0    0  0.31546336248E+02  0.88536085632E+01  0.16799492276E+02  0.54367073124E+02  0.39999974800E+02 0.  0.
         12    1    3    3    0    0 -0.31546336248E+02 -0.88536085632E+01 -0.16799492276E+02  0.36820926876E+02  0.00000000000E+00 0. -1.
         11    1    4    4    0    0 -0.44045958381E+01  0.28972414197E+01  0.11410634334E+02  0.12569687685E+02  0.51100000000E-03 0. -1.
        -11    1    4    4    0    0  0.14224484504E+01 -0.41827240620E+01  0.37146662644E+01  0.57721127752E+01  0.51100000000E-03 0.  1.
        -12    1    4    4    0    0  0.34528483636E+02  0.10139091206E+02  0.16741916780E+01  0.36025272663E+02  0.00000000000E+00 0.  1.
</event>
<event>
 8    1  0.1290800E-006  0.9118800E+02  0.7816164E-02  0.1184000E+00
        -11   -1    0    0    0    0  0.00000000000E+00  0.00000000000E+00  0.45593999997E+02  0.45594000000E+02  0.51100000000E-03 0.  1.
         11   -1    0    0    0    0 -0.00000000000E+00 -0.00000000000E+00 -0.45593999997E+02  0.45594000000E+02  0.51100000000E-03 0. -1.
         23    2    1    2    0    0  0.00000000000E+00  0.00000000000E+00  0.35527136788E-14  0.91188000000E+02  0.91188000000E+02 0.  0.
    9900012    2    3    3    0    0  0.29483813226E+02  0.10093388252E+02 -0.19611416471E+02  0.54367090386E+02  0.40000014154E+02 0.  0.
        -12    1    3    3    0    0 -0.29483813226E+02 -0.10093388252E+02  0.19611416471E+02  0.36820909614E+02  0.00000000000E+00 0.  1.
         11    1    4    4    0    0  0.12936473123E+02  0.13535307578E+02  0.36545039267E+00  0.18726730690E+02  0.51100000000E-03 0. -1.
        -11    1    4    4    0    0 -0.31812696433E+01 -0.27227109642E+01  0.31452057643E+01  0.52369791960E+01  0.51100000000E-03 0.  1.
         12    1    4    4    0    0  0.19728609747E+02 -0.71920836202E+00 -0.23122072628E+02  0.30403380500E+02  0.00000000000E+00 0. -1.
</event>
<event>
 8    1  0.1290800E-006  0.9118800E+02  0.7816164E-02  0.1184000E+00
        -11   -1    0    0    0    0  0.00000000000E+00  0.00000000000E+00  0.45593999997E+02  0.45594000000E+02  0.51100000000E-03 0.  1.
         11   -1    0    0    0    0 -0.00000000000E+00 -0.00000000000E+00 -0.45593999997E+02  0.45594000000E+02  0.51100000000E-03 0. -1.
         23    2    1    2    0    0  0.00000000000E+00  0.00000000000E+00  0.00000000000E+00  0.91188000000E+02  0.91188000000E+02 0.  0.
    9900012    2    3    3    0    0  0.13771375603E+02 -0.29444415620E+02 -0.17296057757E+02  0.54367109039E+02  0.40000056677E+02 0.  0.
        -12    1    3    3    0    0 -0.13771375603E+02  0.29444415620E+02  0.17296057757E+02  0.36820890961E+02  0.00000000000E+00 0.  1.
         11    1    4    4    0    0 -0.44506785801E+01 -0.20147705341E+02  0.55632953919E+01  0.21370279039E+02  0.51100000000E-03 0.  1.
        -11    1    4    4    0    0  0.98460620984E+01 -0.10495689619E+02 -0.97107823564E+01  0.17360983085E+02  0.51100000000E-03 0. -1.
        -12    1    4    4    0    0  0.83759920847E+01  0.11989793411E+01 -0.13148570793E+02  0.15635846915E+02  0.00000000000E+00 0.  1.
</event>
<event>
 8    1  0.1290800E-006  0.9118800E+02  0.7816164E-02  0.1184000E+00
        -11   -1    0    0    0    0  0.00000000000E+00  0.00000000000E+00  0.45593999997E+02  0.45594000000E+02  0.51100000000E-03 0.  1.
         11   -1    0    0    0    0 -0.00000000000E+00 -0.00000000000E+00 -0.45593999997E+02  0.45594000000E+02  0.51100000000E-03 0. -1.
         23    2    1    2    0    0 -0.17763568394E-14  0.00000000000E+00 -0.71054273576E-14  0.91188000000E+02  0.91188000000E+02 0.  0.
    9900012    2    3    3    0    0  0.14604223622E+02 -0.10863859450E+02  0.32007393331E+02  0.54367081793E+02  0.39999994563E+02 0.  0.
         12    1    3    3    0    0 -0.14604223622E+02  0.10863859450E+02 -0.32007393331E+02  0.36820918207E+02  0.00000000000E+00 0. -1.
         11    1    4    4    0    0 -0.91989101186E+00 -0.56416147332E+01  0.11786026421E+02  0.13099024213E+02  0.51100000000E-03 0. -1.
        -11    1    4    4    0    0  0.33650326815E+01 -0.16785119350E+02  0.32930119072E+01  0.17432945942E+02  0.51100000000E-03 0.  1.
         12    1    4    4    0    0  0.12159081952E+02  0.11562874633E+02  0.16928355003E+02  0.23835111638E+02  0.00000000000E+00 0. -1.
</event>
<event>
 8    1  0.1290800E-006  0.9118800E+02  0.7816164E-02  0.1184000E+00
        -11   -1    0    0    0    0  0.00000000000E+00  0.00000000000E+00  0.45593999997E+02  0.45594000000E+02  0.51100000000E-03 0. -1.
         11   -1    0    0    0    0 -0.00000000000E+00 -0.00000000000E+00 -0.45593999997E+02  0.45594000000E+02  0.51100000000E-03 0.  1.
         23    2    1    2    0    0  0.00000000000E+00  0.71054273576E-14  0.17763568394E-14  0.91188000000E+02  0.91188000000E+02 0.  0.
    9900012    2    3    3    0    0 -0.16925349656E+02  0.30825137403E+02  0.10914372333E+02  0.54367080941E+02  0.39999992621E+02 0.  0.
        -12    1    3    3    0    0  0.16925349656E+02 -0.30825137403E+02 -0.10914372333E+02  0.36820919059E+02  0.00000000000E+00 0.  1.
         11    1    4    4    0    0 -0.10371740785E+00  0.13704769735E+02  0.17743096592E+02  0.22419833802E+02  0.51100000000E-03 0. -1.
        -11    1    4    4    0    0  0.15128504234E+01  0.23729774917E+01  0.49044848815E+01  0.56545301125E+01  0.51100000000E-03 0.  1.
         12    1    4    4    0    0 -0.18334482672E+02  0.14747390177E+02 -0.11733209141E+02  0.26292717026E+02  0.00000000000E+00 0. -1.
</event>
<event>
 8    1  0.1290800E-006  0.9118800E+02  0.7816164E-02  0.1184000E+00
        -11   -1    0    0    0    0  0.00000000000E+00  0.00000000000E+00  0.45593999997E+02  0.45594000000E+02  0.51100000000E-03 0.  1.
         11   -1    0    0    0    0 -0.00000000000E+00 -0.00000000000E+00 -0.45593999997E+02  0.45594000000E+02  0.51100000000E-03 0. -1.
         23    2    1    2    0    0  0.35527136788E-14  0.00000000000E+00  0.00000000000E+00  0.91188000000E+02  0.91188000000E+02 0.  0.
    9900012    2    3    3    0    0  0.28276695345E+02 -0.94485749475E+01 -0.21608755161E+02  0.54367009142E+02  0.39999828941E+02 0.  0.
        -12    1    3    3    0    0 -0.28276695345E+02  0.94485749475E+01  0.21608755161E+02  0.36820990858E+02  0.00000000000E+00 0.  1.
         11    1    4    4    0    0 -0.39071520807E-02  0.75788378790E+01 -0.90621470137E+01  0.11813606885E+02  0.51100000000E-03 0.  1.
        -11    1    4    4    0    0  0.57202084215E+01 -0.13169756857E+02  0.32778214336E+01  0.14727776264E+02  0.51100000000E-03 0. -1.
         12    1    4    4    0    0  0.22560394075E+02 -0.38576559695E+01 -0.15824429581E+02  0.27825625994E+02  0.00000000000E+00 0. -1.
</event>
<event>
 8    1  0.1290800E-006  0.9118800E+02  0.7816164E-02  0.1184000E+00
        -11   -1    0    0    0    0  0.00000000000E+00  0.00000000000E+00  0.45593999997E+02  0.45594000000E+02  0.51100000000E-03 0. -1.
         11   -1    0    0    0    0 -0.00000000000E+00 -0.00000000000E+00 -0.45593999997E+02  0.45594000000E+02  0.51100000000E-03 0.  1.
         23    2    1    2    0    0  0.00000000000E+00  0.35527136788E-14  0.00000000000E+00  0.91188000000E+02  0.91188000000E+02 0.  0.
    9900012    2    3    3    0    0  0.17444756631E+02  0.28705318654E+02 -0.15081898388E+02  0.54367102239E+02  0.40000041174E+02 0.  0.
         12    1    3    3    0    0 -0.17444756631E+02 -0.28705318654E+02  0.15081898388E+02  0.36820897761E+02  0.00000000000E+00 0. -1.
         11    1    4    4    0    0 -0.19404625555E+01  0.16651214028E+02 -0.92835165023E+01  0.19162776480E+02  0.51100000000E-03 0.  1.
        -11    1    4    4    0    0  0.73597821083E+01  0.10112976143E+02  0.94584732154E+01  0.15681243413E+02  0.51100000000E-03 0. -1.
         12    1    4    4    0    0  0.12025437078E+02  0.19411284832E+01 -0.15256855101E+02  0.19523082346E+02  0.00000000000E+00 0. -1.
</event>
<event>
 8    1  0.1290800E-006  0.9118800E+02  0.7816164E-02  0.1184000E+00
        -11   -1    0    0    0    0  0.00000000000E+00  0.00000000000E+00  0.45593999997E+02  0.45594000000E+02  0.51100000000E-03 0. -1.
         11   -1    0    0    0    0 -0.00000000000E+00 -0.00000000000E+00 -0.45593999997E+02  0.45594000000E+02  0.51100000000E-03 0.  1.
         23    2    1    2    0    0  0.17763568394E-14 -0.35527136788E-14  0.00000000000E+00  0.91188000000E+02  0.91188000000E+02 0.  0.
    9900012    2    3    3    0    0  0.94483173031E+01 -0.12970945693E+02  0.33140075695E+02  0.54367071860E+02  0.39999971918E+02 0.  0.
        -12    1    3    3    0    0 -0.94483173031E+01  0.12970945693E+02 -0.33140075695E+02  0.36820928140E+02  0.00000000000E+00 0.  1.
         11    1    4    4    0    0 -0.36079817170E+01  0.43496282488E+01  0.20864763561E+02  0.21616548214E+02  0.51100000000E-03 0. -1.
        -11    1    4    4    0    0 -0.55756179235E+01 -0.11728721375E+01  0.19813129170E+01  0.60323084649E+01  0.51100000000E-03 0.  1.
        -12    1    4    4    0    0  0.18631916944E+02 -0.16147701805E+02  0.10293999217E+02  0.26718215181E+02  0.00000000000E+00 0.  1.
</event>
<event>
 8    1  0.1290800E-006  0.9118800E+02  0.7816164E-02  0.1184000E+00
        -11   -1    0    0    0    0  0.00000000000E+00  0.00000000000E+00  0.45593999997E+02  0.45594000000E+02  0.51100000000E-03 0.  1.
         11   -1    0    0    0    0 -0.00000000000E+00 -0.00000000000E+00 -0.45593999997E+02  0.45594000000E+02  0.51100000000E-03 0. -1.
         23    2    1    2    0    0  0.00000000000E+00 -0.88817841970E-15  0.00000000000E+00  0.91188000000E+02  0.91188000000E+02 0.  0.
    9900012    2    3    3    0    0 -0.21847742691E+02 -0.48302184972E+01  0.29242509126E+02  0.54367092740E+02  0.40000019520E+02 0.  0.
         12    1    3    3    0    0  0.21847742691E+02  0.48302184972E+01 -0.29242509126E+02  0.36820907260E+02  0.00000000000E+00 0. -1.
         11    1    4    4    0    0 -0.12629901659E+01 -0.11304636820E+02  0.46956107496E+01  0.12306043977E+02  0.51100000000E-03 0. -1.
        -11    1    4    4    0    0  0.47754901670E+01 -0.30362372788E+01  0.95516735797E+01  0.11102184991E+02  0.51100000000E-03 0.  1.
         12    1    4    4    0    0 -0.25360242692E+02  0.95106556012E+01  0.14995224797E+02  0.30958863772E+02  0.00000000000E+00 0. -1.
</event>
<event>
 8    1  0.1290800E-006  0.9118800E+02  0.7816164E-02  0.1184000E+00
        -11   -1    0    0    0    0  0.00000000000E+00  0.00000000000E+00  0.45593999997E+02  0.45594000000E+02  0.51100000000E-03 0.  1.
         11   -1    0    0    0    0 -0.00000000000E+00 -0.00000000000E+00 -0.45593999997E+02  0.45594000000E+02  0.51100000000E-03 0. -1.
         23    2    1    2    0    0  0.00000000000E+00  0.00000000000E+00  0.00000000000E+00  0.91188000000E+02  0.91188000000E+02 0.  0.
    9900012    2    3    3    0    0 -0.52960260730E+01 -0.35414441779E+02 -0.85760822445E+01  0.54367085219E+02  0.40000002373E+02 0.  0.
        -12    1    3    3    0    0  0.52960260730E+01  0.35414441779E+02  0.85760822445E+01  0.36820914781E+02  0.00000000000E+00 0.  1.
         11    1    4    4    0    0 -0.17960751839E+01 -0.21604417106E+02 -0.92765384555E+01  0.23580307262E+02  0.51100000000E-03 0. -1.
        -11    1    4    4    0    0  0.89892644643E+01  0.30332944589E+01  0.22848760241E+01  0.97585044750E+01  0.51100000000E-03 0.  1.
         12    1    4    4    0    0 -0.12489215353E+02 -0.16843319131E+02 -0.15844198131E+01  0.21028273482E+02  0.00000000000E+00 0. -1.
</event>
<event>
 8    1  0.1290800E-006  0.9118800E+02  0.7816164E-02  0.1184000E+00
        -11   -1    0    0    0    0  0.00000000000E+00  0.00000000000E+00  0.45593999997E+02  0.45594000000E+02  0.51100000000E-03 0.  1.
         11   -1    0    0    0    0 -0.00000000000E+00 -0.00000000000E+00 -0.45593999997E+02  0.45594000000E+02  0.51100000000E-03 0. -1.
         23    2    1    2    0    0 -0.35527136788E-14  0.00000000000E+00  0.00000000000E+00  0.91188000000E+02  0.91188000000E+02 0.  0.
    9900012    2    3    3    0    0  0.29686222037E+02  0.17471842348E+02 -0.13009756246E+02  0.54366935222E+02  0.39999660423E+02 0.  0.
        -12    1    3    3    0    0 -0.29686222037E+02 -0.17471842348E+02  0.13009756246E+02  0.36821064778E+02  0.00000000000E+00 0.  1.
         11    1    4    4    0    0  0.34730484662E+01  0.84326470542E+01 -0.53886613844E+00  0.91357527860E+01  0.51100000000E-03 0. -1.
        -11    1    4    4    0    0 -0.66495742669E+01 -0.40689084513E+01 -0.25077233226E+00  0.77997269786E+01  0.51100000000E-03 0.  1.
        -12    1    4    4    0    0  0.32862747837E+02  0.13108103745E+02 -0.12220117775E+02  0.37431455457E+02  0.00000000000E+00 0.  1.
</event>
<event>
 8    1  0.1290800E-006  0.9118800E+02  0.7816164E-02  0.1184000E+00
        -11   -1    0    0    0    0  0.00000000000E+00  0.00000000000E+00  0.45593999997E+02  0.45594000000E+02  0.51100000000E-03 0. -1.
         11   -1    0    0    0    0 -0.00000000000E+00 -0.00000000000E+00 -0.45593999997E+02  0.45594000000E+02  0.51100000000E-03 0.  1.
         23    2    1    2    0    0  0.35527136788E-14 -0.35527136788E-14  0.13322676296E-14  0.91188000000E+02  0.91188000000E+02 0.  0.
    9900012    2    3    3    0    0  0.24473127600E+02 -0.27455366498E+02 -0.17460952793E+01  0.54367082402E+02  0.39999995951E+02 0.  0.
        -12    1    3    3    0    0 -0.24473127600E+02  0.27455366498E+02  0.17460952793E+01  0.36820917598E+02  0.00000000000E+00 0.  1.
         11    1    4    4    0    0  0.16627350772E+02 -0.70485425732E+01  0.13945369273E+02  0.22817188050E+02  0.51100000000E-03 0. -1.
        -11    1    4    4    0    0  0.29638715122E+01 -0.49388799883E+01  0.32491972146E+01  0.66131953457E+01  0.51100000000E-03 0.  1.
        -12    1    4    4    0    0  0.48819053165E+01 -0.15467943936E+02 -0.18940661767E+02  0.24936699006E+02  0.00000000000E+00 0.  1.
</event>
<event>
 8    1  0.1290800E-006  0.9118800E+02  0.7816164E-02  0.1184000E+00
        -11   -1    0    0    0    0  0.00000000000E+00  0.00000000000E+00  0.45593999997E+02  0.45594000000E+02  0.51100000000E-03 0. -1.
         11   -1    0    0    0    0 -0.00000000000E+00 -0.00000000000E+00 -0.45593999997E+02  0.45594000000E+02  0.51100000000E-03 0.  1.
         23    2    1    2    0    0  0.00000000000E+00  0.00000000000E+00  0.00000000000E+00  0.91188000000E+02  0.91188000000E+02 0.  0.
    9900012    2    3    3    0    0 -0.32612068935E+02 -0.45341184219E+01  0.16482538944E+02  0.54367090721E+02  0.40000014916E+02 0.  0.
        -12    1    3    3    0    0  0.32612068935E+02  0.45341184219E+01 -0.16482538944E+02  0.36820909279E+02  0.00000000000E+00 0.  1.
         11    1    4    4    0    0 -0.13567984633E+02  0.82154803994E+01  0.28100226126E+00  0.15863898881E+02  0.51100000000E-03 0. -1.
        -11    1    4    4    0    0  0.56287332126E+01 -0.67470387236E+00 -0.14500677017E+01  0.58515433429E+01  0.51100000000E-03 0.  1.
         12    1    4    4    0    0 -0.24672817515E+02 -0.12074894949E+02  0.17651604385E+02  0.32651648496E+02  0.00000000000E+00 0. -1.
</event>
<event>
 8    1  0.1290800E-006  0.9118800E+02  0.7816164E-02  0.1184000E+00
        -11   -1    0    0    0    0  0.00000000000E+00  0.00000000000E+00  0.45593999997E+02  0.45594000000E+02  0.51100000000E-03 0. -1.
         11   -1    0    0    0    0 -0.00000000000E+00 -0.00000000000E+00 -0.45593999997E+02  0.45594000000E+02  0.51100000000E-03 0.  1.
         23    2    1    2    0    0 -0.17763568394E-14 -0.35527136788E-14 -0.35527136788E-14  0.91188000000E+02  0.91188000000E+02 0.  0.
    9900012    2    3    3    0    0  0.10196440753E+02  0.18632765940E+02  0.30077101019E+02  0.54367090502E+02  0.40000014417E+02 0.  0.
        -12    1    3    3    0    0 -0.10196440753E+02 -0.18632765940E+02 -0.30077101019E+02  0.36820909498E+02  0.00000000000E+00 0.  1.
         11    1    4    4    0    0  0.91532350178E+01  0.37760330256E+01 -0.58949914119E+00  0.99190547029E+01  0.51100000000E-03 0. -1.
        -11    1    4    4    0    0 -0.59201357398E+01 -0.62730779744E+01  0.14771841152E+02  0.17105753586E+02  0.51100000000E-03 0.  1.
         12    1    4    4    0    0  0.69633414747E+01  0.21129810889E+02  0.15894759007E+02  0.27342282213E+02  0.00000000000E+00 0. -1.
</event>
<event>
 8    1  0.1290800E-006  0.9118800E+02  0.7816164E-02  0.1184000E+00
        -11   -1    0    0    0    0  0.00000000000E+00  0.00000000000E+00  0.45593999997E+02  0.45594000000E+02  0.51100000000E-03 0.  1.
         11   -1    0    0    0    0 -0.00000000000E+00 -0.00000000000E+00 -0.45593999997E+02  0.45594000000E+02  0.51100000000E-03 0. -1.
         23    2    1    2    0    0  0.00000000000E+00  0.35527136788E-14  0.00000000000E+00  0.91188000000E+02  0.91188000000E+02 0.  0.
    9900012    2    3    3    0    0  0.21495927983E+02  0.18971042794E+02  0.23104205137E+02  0.54367086384E+02  0.40000005029E+02 0.  0.
         12    1    3    3    0    0 -0.21495927983E+02 -0.18971042794E+02 -0.23104205137E+02  0.36820913616E+02  0.00000000000E+00 0. -1.
         11    1    4    4    0    0  0.11726943431E+02  0.11819225739E+02 -0.43391453897E+01  0.17205914166E+02  0.51100000000E-03 0. -1.
        -11    1    4    4    0    0 -0.64646853498E+01  0.14811543986E+01  0.13431301200E+02  0.14979513584E+02  0.51100000000E-03 0.  1.
        -12    1    4    4    0    0  0.16233669901E+02  0.56706626561E+01  0.14012049327E+02  0.22181658634E+02  0.00000000000E+00 0.  1.
</event>
<event>
 8    1  0.1290800E-006  0.9118800E+02  0.7816164E-02  0.1184000E+00
        -11   -1    0    0    0    0  0.00000000000E+00  0.00000000000E+00  0.45593999997E+02  0.45594000000E+02  0.51100000000E-03 0. -1.
         11   -1    0    0    0    0 -0.00000000000E+00 -0.00000000000E+00 -0.45593999997E+02  0.45594000000E+02  0.51100000000E-03 0.  1.
         23    2    1    2    0    0  0.00000000000E+00 -0.44408920985E-14 -0.35527136788E-14  0.91188000000E+02  0.91188000000E+02 0.  0.
    9900012    2    3    3    0    0 -0.20372766744E+02 -0.70993064520E+01 -0.29838349295E+02  0.54367124596E+02  0.40000092140E+02 0.  0.
         12    1    3    3    0    0  0.20372766744E+02  0.70993064520E+01  0.29838349295E+02  0.36820875404E+02  0.00000000000E+00 0. -1.
         11    1    4    4    0    0  0.19645274856E+01 -0.29226005832E+01  0.20345398482E+01  0.40669786164E+01  0.51100000000E-03 0. -1.
        -11    1    4    4    0    0 -0.67455485007E+01  0.77613586946E+01  0.26177802015E+01  0.10611026661E+02  0.51100000000E-03 0.  1.
        -12    1    4    4    0    0 -0.15591745729E+02 -0.11938064563E+02 -0.34490669345E+02  0.39689119318E+02  0.00000000000E+00 0.  1.
</event>
<event>
 8    1  0.1290800E-006  0.9118800E+02  0.7816164E-02  0.1184000E+00
        -11   -1    0    0    0    0  0.00000000000E+00  0.00000000000E+00  0.45593999997E+02  0.45594000000E+02  0.51100000000E-03 0.  1.
         11   -1    0    0    0    0 -0.00000000000E+00 -0.00000000000E+00 -0.45593999997E+02  0.45594000000E+02  0.51100000000E-03 0. -1.
         23    2    1    2    0    0 -0.53290705182E-14 -0.17763568394E-14  0.00000000000E+00  0.91188000000E+02  0.91188000000E+02 0.  0.
    9900012    2    3    3    0    0  0.10295046747E+02  0.97535127405E+01 -0.33980236462E+02  0.54367143569E+02  0.40000135393E+02 0.  0.
        -12    1    3    3    0    0 -0.10295046747E+02 -0.97535127405E+01  0.33980236462E+02  0.36820856431E+02  0.00000000000E+00 0.  1.
         11    1    4    4    0    0  0.14738139784E+02  0.52611472884E+00 -0.17354327196E+00  0.14748548353E+02  0.51100000000E-03 0.  1.
        -11    1    4    4    0    0 -0.69583471182E+01  0.38997221383E+01 -0.34419066006E+01  0.86875283414E+01  0.51100000000E-03 0. -1.
        -12    1    4    4    0    0  0.25152540815E+01  0.53276758734E+01 -0.30364786590E+02  0.30931066874E+02  0.00000000000E+00 0.  1.
</event>
<event>
 8    1  0.1290800E-006  0.9118800E+02  0.7816164E-02  0.1184000E+00
        -11   -1    0    0    0    0  0.00000000000E+00  0.00000000000E+00  0.45593999997E+02  0.45594000000E+02  0.51100000000E-03 0.  1.
         11   -1    0    0    0    0 -0.00000000000E+00 -0.00000000000E+00 -0.45593999997E+02  0.45594000000E+02  0.51100000000E-03 0. -1.
         23    2    1    2    0    0  0.00000000000E+00 -0.17763568394E-14  0.00000000000E+00  0.91188000000E+02  0.91188000000E+02 0.  0.
    9900012    2    3    3    0    0  0.11581636834E+02  0.10056347395E+02 -0.33474086847E+02  0.54367096631E+02  0.40000028389E+02 0.  0.
        -12    1    3    3    0    0 -0.11581636834E+02 -0.10056347395E+02  0.33474086847E+02  0.36820903369E+02  0.00000000000E+00 0.  1.
         11    1    4    4    0    0  0.10967647888E+02  0.14336644279E+02 -0.77269653624E+01  0.19635036627E+02  0.51100000000E-03 0. -1.
        -11    1    4    4    0    0  0.48342974046E+01  0.41899223602E+01 -0.24337514052E+02  0.25164269735E+02  0.51100000000E-03 0.  1.
        -12    1    4    4    0    0 -0.42203084587E+01 -0.84702192436E+01 -0.14096074322E+01  0.95677902691E+01  0.00000000000E+00 0.  1.
</event>
<event>
 8    1  0.1290800E-006  0.9118800E+02  0.7816164E-02  0.1184000E+00
        -11   -1    0    0    0    0  0.00000000000E+00  0.00000000000E+00  0.45593999997E+02  0.45594000000E+02  0.51100000000E-03 0.  1.
         11   -1    0    0    0    0 -0.00000000000E+00 -0.00000000000E+00 -0.45593999997E+02  0.45594000000E+02  0.51100000000E-03 0. -1.
         23    2    1    2    0    0  0.12212453271E-14  0.00000000000E+00  0.00000000000E+00  0.91188000000E+02  0.91188000000E+02 0.  0.
    9900012    2    3    3    0    0  0.56456434722E+00  0.36580781273E+02 -0.41602209969E+01  0.54367085696E+02  0.40000003461E+02 0.  0.
        -12    1    3    3    0    0 -0.56456434722E+00 -0.36580781273E+02  0.41602209969E+01  0.36820914304E+02  0.00000000000E+00 0.  1.
         11    1    4    4    0    0 -0.73695190727E+01  0.13407606559E+02 -0.18899471679E+01  0.15415759000E+02  0.51100000000E-03 0. -1.
        -11    1    4    4    0    0 -0.52181393045E+01  0.24318900922E+02 -0.52423375627E+01  0.25418891070E+02  0.51100000000E-03 0.  1.
         12    1    4    4    0    0  0.13152222724E+02 -0.11457262074E+01  0.29720637337E+01  0.13532435626E+02  0.00000000000E+00 0. -1.
</event>
<event>
 8    1  0.1290800E-006  0.9118800E+02  0.7816164E-02  0.1184000E+00
        -11   -1    0    0    0    0  0.00000000000E+00  0.00000000000E+00  0.45593999997E+02  0.45594000000E+02  0.51100000000E-03 0.  1.
         11   -1    0    0    0    0 -0.00000000000E+00 -0.00000000000E+00 -0.45593999997E+02  0.45594000000E+02  0.51100000000E-03 0. -1.
         23    2    1    2    0    0 -0.88817841970E-15  0.00000000000E+00  0.00000000000E+00  0.91188000000E+02  0.91188000000E+02 0.  0.
    9900012    2    3    3    0    0 -0.61076440449E+01 -0.35102600686E+02 -0.92893654384E+01  0.54366970670E+02  0.39999741235E+02 0.  0.
         12    1    3    3    0    0  0.61076440449E+01  0.35102600686E+02  0.92893654384E+01  0.36821029330E+02  0.00000000000E+00 0. -1.
         11    1    4    4    0    0  0.27425041932E+01 -0.24337267673E+02 -0.11217188952E+02  0.26937877706E+02  0.51100000000E-03 0.  1.
        -11    1    4    4    0    0 -0.99507748987E+01  0.52169827361E+01 -0.38958148594E+00  0.11242179680E+02  0.51100000000E-03 0. -1.
        -12    1    4    4    0    0  0.11006266607E+01 -0.15982315749E+02  0.23174049991E+01  0.16186913284E+02  0.00000000000E+00 0.  1.
</event>
<event>
 8    1  0.1290800E-006  0.9118800E+02  0.7816164E-02  0.1184000E+00
        -11   -1    0    0    0    0  0.00000000000E+00  0.00000000000E+00  0.45593999997E+02  0.45594000000E+02  0.51100000000E-03 0. -1.
         11   -1    0    0    0    0 -0.00000000000E+00 -0.00000000000E+00 -0.45593999997E+02  0.45594000000E+02  0.51100000000E-03 0.  1.
         23    2    1    2    0    0  0.35527136788E-14  0.35527136788E-14 -0.17763568394E-14  0.91188000000E+02  0.91188000000E+02 0.  0.
    9900012    2    3    3    0    0  0.29834480132E+02  0.20516793792E+02 -0.66892627758E+01  0.54367064804E+02  0.39999955834E+02 0.  0.
        -12    1    3    3    0    0 -0.29834480132E+02 -0.20516793792E+02  0.66892627758E+01  0.36820935196E+02  0.00000000000E+00 0.  1.
         11    1    4    4    0    0  0.61450268014E+01 -0.96775862093E+01  0.35650541502E+01  0.12005275531E+02  0.51100000000E-03 0. -1.
        -11    1    4    4    0    0  0.60288232055E+00  0.10887520734E+02 -0.14193722686E+01  0.10996189918E+02  0.51100000000E-03 0.  1.
        -12    1    4    4    0    0  0.23086571010E+02  0.19306859267E+02 -0.88349446574E+01  0.31365599354E+02  0.00000000000E+00 0.  1.
</event>
<event>
 8    1  0.1290800E-006  0.9118800E+02  0.7816164E-02  0.1184000E+00
        -11   -1    0    0    0    0  0.00000000000E+00  0.00000000000E+00  0.45593999997E+02  0.45594000000E+02  0.51100000000E-03 0. -1.
         11   -1    0    0    0    0 -0.00000000000E+00 -0.00000000000E+00 -0.45593999997E+02  0.45594000000E+02  0.51100000000E-03 0.  1.
         23    2    1    2    0    0  0.00000000000E+00 -0.35527136788E-14  0.00000000000E+00  0.91188000000E+02  0.91188000000E+02 0.  0.
    9900012    2    3    3    0    0  0.22781119607E+02 -0.28600405522E+02 -0.43379580904E+01  0.54367075420E+02  0.39999980035E+02 0.  0.
         12    1    3    3    0    0 -0.22781119607E+02  0.28600405522E+02  0.43379580904E+01  0.36820924580E+02  0.00000000000E+00 0. -1.
         11    1    4    4    0    0  0.10012302210E+02  0.44594855838E+01  0.58595759703E+01  0.12428509083E+02  0.51100000000E-03 0.  1.
        -11    1    4    4    0    0  0.34582888438E+00 -0.26390008368E+02 -0.85484755817E+01  0.27742180418E+02  0.51100000000E-03 0. -1.
         12    1    4    4    0    0  0.12422988512E+02 -0.66698827372E+01 -0.16490584791E+01  0.14196385919E+02  0.00000000000E+00 0. -1.
</event>
<event>
 8    1  0.1290800E-006  0.9118800E+02  0.7816164E-02  0.1184000E+00
        -11   -1    0    0    0    0  0.00000000000E+00  0.00000000000E+00  0.45593999997E+02  0.45594000000E+02  0.51100000000E-03 0.  1.
         11   -1    0    0    0    0 -0.00000000000E+00 -0.00000000000E+00 -0.45593999997E+02  0.45594000000E+02  0.51100000000E-03 0. -1.
         23    2    1    2    0    0  0.00000000000E+00  0.00000000000E+00  0.00000000000E+00  0.91188000000E+02  0.91188000000E+02 0.  0.
    9900012    2    3    3    0    0  0.35153853257E+02  0.79962816721E+01  0.74864403979E+01  0.54367072401E+02  0.39999973153E+02 0.  0.
         12    1    3    3    0    0 -0.35153853257E+02 -0.79962816721E+01 -0.74864403979E+01  0.36820927599E+02  0.00000000000E+00 0. -1.
         11    1    4    4    0    0  0.18312589687E+01 -0.12532268377E+02  0.19837636544E+01  0.12819772953E+02  0.51100000000E-03 0. -1.
        -11    1    4    4    0    0  0.96956637081E+01  0.15412726686E+00  0.34087061154E+01  0.10278566417E+02  0.51100000000E-03 0.  1.
        -12    1    4    4    0    0  0.23626930580E+02  0.20374422782E+02  0.20939706281E+01  0.31268733031E+02  0.00000000000E+00 0.  1.
</event>
<event>
 8    1  0.1290800E-006  0.9118800E+02  0.7816164E-02  0.1184000E+00
        -11   -1    0    0    0    0  0.00000000000E+00  0.00000000000E+00  0.45593999997E+02  0.45594000000E+02  0.51100000000E-03 0. -1.
         11   -1    0    0    0    0 -0.00000000000E+00 -0.00000000000E+00 -0.45593999997E+02  0.45594000000E+02  0.51100000000E-03 0.  1.
         23    2    1    2    0    0  0.44408920985E-15  0.17763568394E-14 -0.71054273576E-14  0.91188000000E+02  0.91188000000E+02 0.  0.
    9900012    2    3    3    0    0  0.37467825738E+01  0.98022188816E+01 -0.35293858931E+02  0.54367104398E+02  0.40000046096E+02 0.  0.
         12    1    3    3    0    0 -0.37467825738E+01 -0.98022188816E+01  0.35293858931E+02  0.36820895602E+02  0.00000000000E+00 0. -1.
         11    1    4    4    0    0  0.15114164514E+01  0.13639754793E+02 -0.27229916804E+01  0.13990781767E+02  0.51100000000E-03 0. -1.
        -11    1    4    4    0    0  0.90619054780E+00  0.48441515136E+01  0.15318657026E+01  0.51607749406E+01  0.51100000000E-03 0.  1.
        -12    1    4    4    0    0  0.13291755746E+01 -0.86816874247E+01 -0.34102732954E+02  0.35215547691E+02  0.00000000000E+00 0.  1.
</event>
<event>
 8    1  0.1290800E-006  0.9118800E+02  0.7816164E-02  0.1184000E+00
        -11   -1    0    0    0    0  0.00000000000E+00  0.00000000000E+00  0.45593999997E+02  0.45594000000E+02  0.51100000000E-03 0. -1.
         11   -1    0    0    0    0 -0.00000000000E+00 -0.00000000000E+00 -0.45593999997E+02  0.45594000000E+02  0.51100000000E-03 0.  1.
         23    2    1    2    0    0  0.00000000000E+00  0.00000000000E+00  0.00000000000E+00  0.91188000000E+02  0.91188000000E+02 0.  0.
    9900012    2    3    3    0    0 -0.34498461643E+02 -0.25366396504E+01 -0.12617435266E+02  0.54367108251E+02  0.40000054881E+02 0.  0.
         12    1    3    3    0    0  0.34498461643E+02  0.25366396504E+01  0.12617435266E+02  0.36820891749E+02  0.00000000000E+00 0. -1.
         11    1    4    4    0    0 -0.11229714563E+02  0.59323782793E+01  0.77927037067E+01  0.14900531284E+02  0.51100000000E-03 0. -1.
        -11    1    4    4    0    0 -0.11994874923E+02 -0.15021278393E+02 -0.62411115245E+01  0.20210574022E+02  0.51100000000E-03 0.  1.
        -12    1    4    4    0    0 -0.11273872157E+02  0.65522604636E+01 -0.14169027449E+02  0.19256002946E+02  0.00000000000E+00 0.  1.
</event>
<event>
 8    1  0.1290800E-006  0.9118800E+02  0.7816164E-02  0.1184000E+00
        -11   -1    0    0    0    0  0.00000000000E+00  0.00000000000E+00  0.45593999997E+02  0.45594000000E+02  0.51100000000E-03 0. -1.
         11   -1    0    0    0    0 -0.00000000000E+00 -0.00000000000E+00 -0.45593999997E+02  0.45594000000E+02  0.51100000000E-03 0.  1.
         23    2    1    2    0    0  0.00000000000E+00 -0.17763568394E-14  0.00000000000E+00  0.91188000000E+02  0.91188000000E+02 0.  0.
    9900012    2    3    3    0    0 -0.67862048603E+01  0.14042967905E+02 -0.33354494124E+02  0.54367084717E+02  0.40000001230E+02 0.  0.
         12    1    3    3    0    0  0.67862048603E+01 -0.14042967905E+02  0.33354494124E+02  0.36820915283E+02  0.00000000000E+00 0. -1.
         11    1    4    4    0    0  0.78509530017E+01 -0.31674823275E+01 -0.11444178418E+02  0.14235154627E+02  0.51100000000E-03 0. -1.
        -11    1    4    4    0    0  0.60446720915E+01  0.99895870226E+01 -0.85682576907E+01  0.14482574001E+02  0.51100000000E-03 0.  1.
        -12    1    4    4    0    0 -0.20681829953E+02  0.72208632099E+01 -0.13342058016E+02  0.25649356090E+02  0.00000000000E+00 0.  1.
</event>
<event>
 8    1  0.1290800E-006  0.9118800E+02  0.7816164E-02  0.1184000E+00
        -11   -1    0    0    0    0  0.00000000000E+00  0.00000000000E+00  0.45593999997E+02  0.45594000000E+02  0.51100000000E-03 0.  1.
         11   -1    0    0    0    0 -0.00000000000E+00 -0.00000000000E+00 -0.45593999997E+02  0.45594000000E+02  0.51100000000E-03 0. -1.
         23    2    1    2    0    0  0.44408920985E-15  0.00000000000E+00  0.17763568394E-14  0.91188000000E+02  0.91188000000E+02 0.  0.
    9900012    2    3    3    0    0 -0.37026548783E+01 -0.34847234008E+02 -0.11302227510E+02  0.54367085863E+02  0.40000003842E+02 0.  0.
        -12    1    3    3    0    0  0.37026548783E+01  0.34847234008E+02  0.11302227510E+02  0.36820914137E+02  0.00000000000E+00 0.  1.
         11    1    4    4    0    0 -0.54788249202E+01 -0.88697263945E+01 -0.92558465243E+01  0.13941315001E+02  0.51100000000E-03 0. -1.
        -11    1    4    4    0    0 -0.80665562160E+01 -0.20242052217E+02 -0.12366187830E+02  0.25054592570E+02  0.51100000000E-03 0.  1.
        -12    1    4    4    0    0  0.98427262579E+01 -0.57354553970E+01  0.10319806844E+02  0.15371178292E+02  0.00000000000E+00 0.  1.
</event>
<event>
 8    1  0.1290800E-006  0.9118800E+02  0.7816164E-02  0.1184000E+00
        -11   -1    0    0    0    0  0.00000000000E+00  0.00000000000E+00  0.45593999997E+02  0.45594000000E+02  0.51100000000E-03 0. -1.
         11   -1    0    0    0    0 -0.00000000000E+00 -0.00000000000E+00 -0.45593999997E+02  0.45594000000E+02  0.51100000000E-03 0.  1.
         23    2    1    2    0    0  0.00000000000E+00 -0.35527136788E-14  0.00000000000E+00  0.91188000000E+02  0.91188000000E+02 0.  0.
    9900012    2    3    3    0    0  0.66257973881E+01  0.11487797460E+02 -0.34349802405E+02  0.54367087372E+02  0.40000007281E+02 0.  0.
         12    1    3    3    0    0 -0.66257973881E+01 -0.11487797460E+02  0.34349802405E+02  0.36820912628E+02  0.00000000000E+00 0. -1.
         11    1    4    4    0    0 -0.18371353778E+01  0.17572225017E+02 -0.11857839118E+01  0.17707745260E+02  0.51100000000E-03 0. -1.
        -11    1    4    4    0    0  0.80564519425E+01 -0.77037461893E+00 -0.28332453079E+02  0.29465705365E+02  0.51100000000E-03 0.  1.
         12    1    4    4    0    0  0.40648082344E+00 -0.53140529377E+01 -0.48315654146E+01  0.71936367465E+01  0.00000000000E+00 0. -1.
</event>
<event>
 8    1  0.1290800E-006  0.9118800E+02  0.7816164E-02  0.1184000E+00
        -11   -1    0    0    0    0  0.00000000000E+00  0.00000000000E+00  0.45593999997E+02  0.45594000000E+02  0.51100000000E-03 0. -1.
         11   -1    0    0    0    0 -0.00000000000E+00 -0.00000000000E+00 -0.45593999997E+02  0.45594000000E+02  0.51100000000E-03 0.  1.
         23    2    1    2    0    0  0.00000000000E+00  0.00000000000E+00  0.00000000000E+00  0.91188000000E+02  0.91188000000E+02 0.  0.
    9900012    2    3    3    0    0 -0.27334547224E+02  0.23053505662E+02  0.87827828696E+01  0.54367097374E+02  0.40000030084E+02 0.  0.
        -12    1    3    3    0    0  0.27334547224E+02 -0.23053505662E+02 -0.87827828696E+01  0.36820902626E+02  0.00000000000E+00 0.  1.
         11    1    4    4    0    0 -0.89575898280E+01  0.15353346711E+01  0.94567532551E+01  0.13115862551E+02  0.51100000000E-03 0. -1.
        -11    1    4    4    0    0 -0.21700262883E+02  0.22162601987E+02  0.79216436254E+01  0.32013040687E+02  0.51100000000E-03 0.  1.
        -12    1    4    4    0    0  0.33233054873E+01 -0.64443099600E+00 -0.85956140109E+01  0.92381941360E+01  0.00000000000E+00 0.  1.
</event>
<event>
 8    1  0.1290800E-006  0.9118800E+02  0.7816164E-02  0.1184000E+00
        -11   -1    0    0    0    0  0.00000000000E+00  0.00000000000E+00  0.45593999997E+02  0.45594000000E+02  0.51100000000E-03 0. -1.
         11   -1    0    0    0    0 -0.00000000000E+00 -0.00000000000E+00 -0.45593999997E+02  0.45594000000E+02  0.51100000000E-03 0.  1.
         23    2    1    2    0    0  0.00000000000E+00  0.00000000000E+00  0.35527136788E-14  0.91188000000E+02  0.91188000000E+02 0.  0.
    9900012    2    3    3    0    0 -0.16108893224E+02 -0.17902143894E+02  0.27853049296E+02  0.54367142433E+02  0.40000132804E+02 0.  0.
        -12    1    3    3    0    0  0.16108893224E+02  0.17902143894E+02 -0.27853049296E+02  0.36820857567E+02  0.00000000000E+00 0.  1.
         11    1    4    4    0    0  0.80998323203E+01 -0.66161488689E+01  0.17032682144E+02  0.19987320250E+02  0.51100000000E-03 0. -1.
        -11    1    4    4    0    0 -0.23455899103E+01  0.48843459675E+01  0.13431729827E+01  0.55823598487E+01  0.51100000000E-03 0.  1.
        -12    1    4    4    0    0 -0.21863135634E+02 -0.16170340993E+02  0.94771941685E+01  0.28797462334E+02  0.00000000000E+00 0.  1.
</event>
<event>
 8    1  0.1290800E-006  0.9118800E+02  0.7816164E-02  0.1184000E+00
        -11   -1    0    0    0    0  0.00000000000E+00  0.00000000000E+00  0.45593999997E+02  0.45594000000E+02  0.51100000000E-03 0. -1.
         11   -1    0    0    0    0 -0.00000000000E+00 -0.00000000000E+00 -0.45593999997E+02  0.45594000000E+02  0.51100000000E-03 0.  1.
         23    2    1    2    0    0  0.00000000000E+00  0.00000000000E+00  0.00000000000E+00  0.91188000000E+02  0.91188000000E+02 0.  0.
    9900012    2    3    3    0    0 -0.27952238510E+02  0.12653810171E+02  0.20355304161E+02  0.54367014719E+02  0.39999841654E+02 0.  0.
        -12    1    3    3    0    0  0.27952238510E+02 -0.12653810171E+02 -0.20355304161E+02  0.36820985281E+02  0.00000000000E+00 0.  1.
         11    1    4    4    0    0 -0.49760179601E+01 -0.55413304392E+01 -0.61496914500E+01  0.96584575874E+01  0.51100000000E-03 0. -1.
        -11    1    4    4    0    0 -0.12666277906E+02  0.44961707721E+01  0.36266250502E+00  0.13445507501E+02  0.51100000000E-03 0.  1.
         12    1    4    4    0    0 -0.10309942644E+02  0.13698969838E+02  0.26142333106E+02  0.31263049630E+02  0.00000000000E+00 0. -1.
</event>
<event>
 8    1  0.1290800E-006  0.9118800E+02  0.7816164E-02  0.1184000E+00
        -11   -1    0    0    0    0  0.00000000000E+00  0.00000000000E+00  0.45593999997E+02  0.45594000000E+02  0.51100000000E-03 0. -1.
         11   -1    0    0    0    0 -0.00000000000E+00 -0.00000000000E+00 -0.45593999997E+02  0.45594000000E+02  0.51100000000E-03 0.  1.
         23    2    1    2    0    0 -0.35527136788E-14  0.00000000000E+00  0.00000000000E+00  0.91188000000E+02  0.91188000000E+02 0.  0.
    9900012    2    3    3    0    0  0.19011492594E+02 -0.31377243485E+02  0.31323297923E+01  0.54367085437E+02  0.40000002870E+02 0.  0.
         12    1    3    3    0    0 -0.19011492594E+02  0.31377243485E+02 -0.31323297923E+01  0.36820914563E+02  0.00000000000E+00 0. -1.
         11    1    4    4    0    0  0.18357604723E+02 -0.96540141428E+01  0.72770917181E+01  0.21980848582E+02  0.51100000000E-03 0. -1.
        -11    1    4    4    0    0 -0.60772058230E+00 -0.26476928948E+02 -0.59554600658E+01  0.27145249965E+02  0.51100000000E-03 0.  1.
        -12    1    4    4    0    0  0.12616084531E+01  0.47536996053E+01  0.18106981399E+01  0.52409868899E+01  0.00000000000E+00 0.  1.
</event>
<event>
 8    1  0.1290800E-006  0.9118800E+02  0.7816164E-02  0.1184000E+00
        -11   -1    0    0    0    0  0.00000000000E+00  0.00000000000E+00  0.45593999997E+02  0.45594000000E+02  0.51100000000E-03 0.  1.
         11   -1    0    0    0    0 -0.00000000000E+00 -0.00000000000E+00 -0.45593999997E+02  0.45594000000E+02  0.51100000000E-03 0. -1.
         23    2    1    2    0    0  0.44408920985E-15  0.00000000000E+00  0.00000000000E+00  0.91188000000E+02  0.91188000000E+02 0.  0.
    9900012    2    3    3    0    0 -0.28896497192E+01 -0.30335537657E+02  0.20668449885E+02  0.54367085548E+02  0.40000003124E+02 0.  0.
         12    1    3    3    0    0  0.28896497192E+01  0.30335537657E+02 -0.20668449885E+02  0.36820914452E+02  0.00000000000E+00 0. -1.
         11    1    4    4    0    0  0.73431814832E+01 -0.15076865625E+02  0.18619804575E+02  0.25058557701E+02  0.51100000000E-03 0. -1.
        -11    1    4    4    0    0  0.50542096640E+01 -0.50882933013E+01  0.72773760619E+01  0.10217434446E+02  0.51100000000E-03 0.  1.
         12    1    4    4    0    0 -0.15287040866E+02 -0.10170378730E+02 -0.52287307525E+01  0.19091093401E+02  0.00000000000E+00 0. -1.
</event>
<event>
 8    1  0.1290800E-006  0.9118800E+02  0.7816164E-02  0.1184000E+00
        -11   -1    0    0    0    0  0.00000000000E+00  0.00000000000E+00  0.45593999997E+02  0.45594000000E+02  0.51100000000E-03 0. -1.
         11   -1    0    0    0    0 -0.00000000000E+00 -0.00000000000E+00 -0.45593999997E+02  0.45594000000E+02  0.51100000000E-03 0.  1.
         23    2    1    2    0    0  0.00000000000E+00 -0.35527136788E-14  0.00000000000E+00  0.91188000000E+02  0.91188000000E+02 0.  0.
    9900012    2    3    3    0    0  0.18400472961E+02  0.31860765247E+02  0.14472957228E+01  0.54367076163E+02  0.39999981728E+02 0.  0.
        -12    1    3    3    0    0 -0.18400472961E+02 -0.31860765247E+02 -0.14472957228E+01  0.36820923837E+02  0.00000000000E+00 0.  1.
         11    1    4    4    0    0 -0.55559609698E+01  0.24303779050E+01 -0.51846345917E+00  0.60863982517E+01  0.51100000000E-03 0. -1.
        -11    1    4    4    0    0 -0.67836612828E+01  0.35383341718E+01 -0.19597050039E+01  0.78979942438E+01  0.51100000000E-03 0.  1.
         12    1    4    4    0    0  0.30740095213E+02  0.25892053170E+02  0.39254641858E+01  0.40382683667E+02  0.00000000000E+00 0. -1.
</event>
<event>
 8    1  0.1290800E-006  0.9118800E+02  0.7816164E-02  0.1184000E+00
        -11   -1    0    0    0    0  0.00000000000E+00  0.00000000000E+00  0.45593999997E+02  0.45594000000E+02  0.51100000000E-03 0. -1.
         11   -1    0    0    0    0 -0.00000000000E+00 -0.00000000000E+00 -0.45593999997E+02  0.45594000000E+02  0.51100000000E-03 0.  1.
         23    2    1    2    0    0  0.71054273576E-14  0.00000000000E+00  0.35527136788E-14  0.91188000000E+02  0.91188000000E+02 0.  0.
    9900012    2    3    3    0    0 -0.33504276396E+02 -0.92254237586E+01 -0.12171138034E+02  0.54367060558E+02  0.39999946154E+02 0.  0.
        -12    1    3    3    0    0  0.33504276396E+02  0.92254237586E+01  0.12171138034E+02  0.36820939442E+02  0.00000000000E+00 0.  1.
         11    1    4    4    0    0 -0.10892119652E+02 -0.20885073371E+01 -0.22016230930E+01  0.11306957058E+02  0.51100000000E-03 0. -1.
        -11    1    4    4    0    0 -0.21280745344E+02 -0.19797009589E+02 -0.82579331529E+01  0.30215644479E+02  0.51100000000E-03 0.  1.
         12    1    4    4    0    0 -0.13314113999E+01  0.12660093167E+02 -0.17115817885E+01  0.12844459021E+02  0.00000000000E+00 0. -1.
</event>
<event>
 8    1  0.1290800E-006  0.9118800E+02  0.7816164E-02  0.1184000E+00
        -11   -1    0    0    0    0  0.00000000000E+00  0.00000000000E+00  0.45593999997E+02  0.45594000000E+02  0.51100000000E-03 0.  1.
         11   -1    0    0    0    0 -0.00000000000E+00 -0.00000000000E+00 -0.45593999997E+02  0.45594000000E+02  0.51100000000E-03 0. -1.
         23    2    1    2    0    0 -0.17763568394E-14 -0.88817841970E-15  0.00000000000E+00  0.91188000000E+02  0.91188000000E+02 0.  0.
    9900012    2    3    3    0    0  0.94694477664E+01 -0.70563279696E+01  0.34875752010E+02  0.54367078180E+02  0.39999986326E+02 0.  0.
         12    1    3    3    0    0 -0.94694477664E+01  0.70563279696E+01 -0.34875752010E+02  0.36820921820E+02  0.00000000000E+00 0. -1.
         11    1    4    4    0    0  0.18877082322E+02 -0.23661944873E+01  0.23818908691E+02  0.30484152028E+02  0.51100000000E-03 0. -1.
        -11    1    4    4    0    0 -0.24401083338E+01  0.57989294657E+01 -0.10919952122E+01  0.63854651697E+01  0.51100000000E-03 0.  1.
         12    1    4    4    0    0 -0.69675262218E+01 -0.10489062948E+02  0.12148838531E+02  0.17497460982E+02  0.00000000000E+00 0. -1.
</event>
<event>
 8    1  0.1290800E-006  0.9118800E+02  0.7816164E-02  0.1184000E+00
        -11   -1    0    0    0    0  0.00000000000E+00  0.00000000000E+00  0.45593999997E+02  0.45594000000E+02  0.51100000000E-03 0.  1.
         11   -1    0    0    0    0 -0.00000000000E+00 -0.00000000000E+00 -0.45593999997E+02  0.45594000000E+02  0.51100000000E-03 0. -1.
         23    2    1    2    0    0  0.44408920985E-15 -0.35527136788E-14 -0.71054273576E-14  0.91188000000E+02  0.91188000000E+02 0.  0.
    9900012    2    3    3    0    0  0.21757336993E+01 -0.17079578551E+02  0.32547428926E+02  0.54367069128E+02  0.39999965691E+02 0.  0.
         12    1    3    3    0    0 -0.21757336993E+01  0.17079578551E+02 -0.32547428926E+02  0.36820930872E+02  0.00000000000E+00 0. -1.
         11    1    4    4    0    0  0.40498734157E+01 -0.16094182430E+02  0.93634739867E+01  0.19055152273E+02  0.51100000000E-03 0. -1.
        -11    1    4    4    0    0  0.45763536223E+01 -0.75932247480E+01  0.24434646059E+02  0.25993306886E+02  0.51100000000E-03 0.  1.
         12    1    4    4    0    0 -0.64504933387E+01  0.66078286275E+01 -0.12506911205E+01  0.93186099694E+01  0.00000000000E+00 0. -1.
</event>
<event>
 8    1  0.1290800E-006  0.9118800E+02  0.7816164E-02  0.1184000E+00
        -11   -1    0    0    0    0  0.00000000000E+00  0.00000000000E+00  0.45593999997E+02  0.45594000000E+02  0.51100000000E-03 0.  1.
         11   -1    0    0    0    0 -0.00000000000E+00 -0.00000000000E+00 -0.45593999997E+02  0.45594000000E+02  0.51100000000E-03 0. -1.
         23    2    1    2    0    0  0.71054273576E-14 -0.35527136788E-14 -0.17763568394E-14  0.91188000000E+02  0.91188000000E+02 0.  0.
    9900012    2    3    3    0    0  0.32386080744E+02 -0.16641800990E+02 -0.54746460859E+01  0.54367088606E+02  0.40000010095E+02 0.  0.
         12    1    3    3    0    0 -0.32386080744E+02  0.16641800990E+02  0.54746460859E+01  0.36820911394E+02  0.00000000000E+00 0. -1.
         11    1    4    4    0    0  0.31804300926E+01 -0.16151037539E+02  0.77012276228E+01  0.18173608786E+02  0.51100000000E-03 0. -1.
        -11    1    4    4    0    0  0.15471315366E+02 -0.70541666165E+01 -0.16172646573E+01  0.17080351608E+02  0.51100000000E-03 0.  1.
        -12    1    4    4    0    0  0.13734335285E+02  0.65634031655E+01 -0.11558609051E+02  0.19113128212E+02  0.00000000000E+00 0.  1.
</event>
<event>
 8    1  0.1290800E-006  0.9118800E+02  0.7816164E-02  0.1184000E+00
        -11   -1    0    0    0    0  0.00000000000E+00  0.00000000000E+00  0.45593999997E+02  0.45594000000E+02  0.51100000000E-03 0. -1.
         11   -1    0    0    0    0 -0.00000000000E+00 -0.00000000000E+00 -0.45593999997E+02  0.45594000000E+02  0.51100000000E-03 0.  1.
         23    2    1    2    0    0  0.00000000000E+00  0.17763568394E-14  0.00000000000E+00  0.91188000000E+02  0.91188000000E+02 0.  0.
    9900012    2    3    3    0    0  0.26376936023E+02 -0.12919693681E+02 -0.22206255196E+02  0.54367095495E+02  0.40000025800E+02 0.  0.
         12    1    3    3    0    0 -0.26376936023E+02  0.12919693681E+02  0.22206255196E+02  0.36820904505E+02  0.00000000000E+00 0. -1.
         11    1    4    4    0    0  0.61672958816E+01  0.20223687960E+01 -0.39941384344E+01  0.76209353843E+01  0.51100000000E-03 0. -1.
        -11    1    4    4    0    0  0.20697513371E+02 -0.25224304604E+02 -0.12265929557E+02  0.34858365289E+02  0.51100000000E-03 0.  1.
        -12    1    4    4    0    0 -0.48787322965E+00  0.10282242127E+02 -0.59461872046E+01  0.11887794821E+02  0.00000000000E+00 0.  1.
</event>
<event>
 8    1  0.1290800E-006  0.9118800E+02  0.7816164E-02  0.1184000E+00
        -11   -1    0    0    0    0  0.00000000000E+00  0.00000000000E+00  0.45593999997E+02  0.45594000000E+02  0.51100000000E-03 0. -1.
         11   -1    0    0    0    0 -0.00000000000E+00 -0.00000000000E+00 -0.45593999997E+02  0.45594000000E+02  0.51100000000E-03 0.  1.
         23    2    1    2    0    0 -0.35527136788E-14 -0.35527136788E-14  0.00000000000E+00  0.91188000000E+02  0.91188000000E+02 0.  0.
    9900012    2    3    3    0    0 -0.29720349841E+02  0.18987258339E+02  0.10581312474E+02  0.54367090892E+02  0.40000015306E+02 0.  0.
        -12    1    3    3    0    0  0.29720349841E+02 -0.18987258339E+02 -0.10581312474E+02  0.36820909108E+02  0.00000000000E+00 0.  1.
         11    1    4    4    0    0 -0.10983034112E+02 -0.25549622008E+01  0.16238376001E+02  0.19769666804E+02  0.51100000000E-03 0. -1.
        -11    1    4    4    0    0 -0.89556891112E+01  0.24625496538E+01  0.51141623950E+01  0.10602979558E+02  0.51100000000E-03 0.  1.
        -12    1    4    4    0    0 -0.97816266178E+01  0.19079670886E+02 -0.10771225922E+02  0.23994444529E+02  0.00000000000E+00 0.  1.
</event>
<event>
 8    1  0.1290800E-006  0.9118800E+02  0.7816164E-02  0.1184000E+00
        -11   -1    0    0    0    0  0.00000000000E+00  0.00000000000E+00  0.45593999997E+02  0.45594000000E+02  0.51100000000E-03 0.  1.
         11   -1    0    0    0    0 -0.00000000000E+00 -0.00000000000E+00 -0.45593999997E+02  0.45594000000E+02  0.51100000000E-03 0. -1.
         23    2    1    2    0    0  0.71054273576E-14 -0.44408920985E-15 -0.35527136788E-14  0.91188000000E+02  0.91188000000E+02 0.  0.
    9900012    2    3    3    0    0 -0.31335472549E+02 -0.24745094073E+01  0.19176710400E+02  0.54367064943E+02  0.39999956151E+02 0.  0.
         12    1    3    3    0    0  0.31335472549E+02  0.24745094073E+01 -0.19176710400E+02  0.36820935057E+02  0.00000000000E+00 0. -1.
         11    1    4    4    0    0 -0.28892151299E+01  0.68874318264E+01  0.15324690155E+02  0.17047885788E+02  0.51100000000E-03 0. -1.
        -11    1    4    4    0    0 -0.77945543333E+00 -0.51578583649E+01  0.74602817478E+01  0.91031235135E+01  0.51100000000E-03 0.  1.
         12    1    4    4    0    0 -0.27666801986E+02 -0.42040828688E+01 -0.36082615025E+01  0.28216055642E+02  0.00000000000E+00 0. -1.
</event>
<event>
 8    1  0.1290800E-006  0.9118800E+02  0.7816164E-02  0.1184000E+00
        -11   -1    0    0    0    0  0.00000000000E+00  0.00000000000E+00  0.45593999997E+02  0.45594000000E+02  0.51100000000E-03 0.  1.
         11   -1    0    0    0    0 -0.00000000000E+00 -0.00000000000E+00 -0.45593999997E+02  0.45594000000E+02  0.51100000000E-03 0. -1.
         23    2    1    2    0    0  0.00000000000E+00  0.17763568394E-14 -0.88817841970E-15  0.91188000000E+02  0.91188000000E+02 0.  0.
    9900012    2    3    3    0    0 -0.33059154743E+02  0.15132885087E+02  0.58196112172E+01  0.54367084774E+02  0.40000001359E+02 0.  0.
        -12    1    3    3    0    0  0.33059154743E+02 -0.15132885087E+02 -0.58196112172E+01  0.36820915226E+02  0.00000000000E+00 0.  1.
         11    1    4    4    0    0 -0.11664126140E+02  0.15087990617E+02 -0.16449897151E+01  0.19141715986E+02  0.51100000000E-03 0. -1.
        -11    1    4    4    0    0 -0.19716088717E+02 -0.23192275262E+01  0.16451136578E+02  0.25782607811E+02  0.51100000000E-03 0.  1.
         12    1    4    4    0    0 -0.16789398858E+01  0.23641219970E+01 -0.89865356452E+01  0.94427609765E+01  0.00000000000E+00 0. -1.
</event>
<event>
 8    1  0.1290800E-006  0.9118800E+02  0.7816164E-02  0.1184000E+00
        -11   -1    0    0    0    0  0.00000000000E+00  0.00000000000E+00  0.45593999997E+02  0.45594000000E+02  0.51100000000E-03 0. -1.
         11   -1    0    0    0    0 -0.00000000000E+00 -0.00000000000E+00 -0.45593999997E+02  0.45594000000E+02  0.51100000000E-03 0.  1.
         23    2    1    2    0    0  0.00000000000E+00  0.00000000000E+00  0.00000000000E+00  0.91188000000E+02  0.91188000000E+02 0.  0.
    9900012    2    3    3    0    0  0.24637600747E+02 -0.23093491821E+02 -0.14678440911E+02  0.54367117846E+02  0.40000076753E+02 0.  0.
        -12    1    3    3    0    0 -0.24637600747E+02  0.23093491821E+02  0.14678440911E+02  0.36820882154E+02  0.00000000000E+00 0.  1.
         11    1    4    4    0    0 -0.50441627172E+01 -0.15733474896E+02  0.52726951501E+01  0.17343215510E+02  0.51100000000E-03 0. -1.
        -11    1    4    4    0    0  0.18883114980E+02 -0.18261259926E+01 -0.13475316954E+02  0.23269957773E+02  0.51100000000E-03 0.  1.
         12    1    4    4    0    0  0.10798648483E+02 -0.55338909322E+01 -0.64758191073E+01  0.13753944562E+02  0.00000000000E+00 0. -1.
</event>
<event>
 8    1  0.1290800E-006  0.9118800E+02  0.7816164E-02  0.1184000E+00
        -11   -1    0    0    0    0  0.00000000000E+00  0.00000000000E+00  0.45593999997E+02  0.45594000000E+02  0.51100000000E-03 0.  1.
         11   -1    0    0    0    0 -0.00000000000E+00 -0.00000000000E+00 -0.45593999997E+02  0.45594000000E+02  0.51100000000E-03 0. -1.
         23    2    1    2    0    0  0.00000000000E+00  0.35527136788E-14  0.00000000000E+00  0.91188000000E+02  0.91188000000E+02 0.  0.
    9900012    2    3    3    0    0 -0.33250626849E+02 -0.13167069254E+02  0.87638452407E+01  0.54367070055E+02  0.39999967805E+02 0.  0.
         12    1    3    3    0    0  0.33250626849E+02  0.13167069254E+02 -0.87638452407E+01  0.36820929945E+02  0.00000000000E+00 0. -1.
         11    1    4    4    0    0  0.38397356434E+01 -0.13975165167E+01  0.18079982453E+01  0.44682748507E+01  0.51100000000E-03 0. -1.
        -11    1    4    4    0    0 -0.13079871352E+02  0.37673686006E+01 -0.97819179413E+01  0.16761921717E+02  0.51100000000E-03 0.  1.
        -12    1    4    4    0    0 -0.24010491140E+02 -0.15536921338E+02  0.16737764937E+02  0.33136873488E+02  0.00000000000E+00 0.  1.
</event>
<event>
 8    1  0.1290800E-006  0.9118800E+02  0.7816164E-02  0.1184000E+00
        -11   -1    0    0    0    0  0.00000000000E+00  0.00000000000E+00  0.45593999997E+02  0.45594000000E+02  0.51100000000E-03 0.  1.
         11   -1    0    0    0    0 -0.00000000000E+00 -0.00000000000E+00 -0.45593999997E+02  0.45594000000E+02  0.51100000000E-03 0. -1.
         23    2    1    2    0    0 -0.35527136788E-14 -0.17763568394E-14  0.35527136788E-14  0.91188000000E+02  0.91188000000E+02 0.  0.
    9900012    2    3    3    0    0 -0.24746582659E+02 -0.82510068367E+01  0.25986700497E+02  0.54367067505E+02  0.39999961990E+02 0.  0.
         12    1    3    3    0    0  0.24746582659E+02  0.82510068367E+01 -0.25986700497E+02  0.36820932495E+02  0.00000000000E+00 0. -1.
         11    1    4    4    0    0 -0.11700452458E+02 -0.12984486614E+02 -0.52792708455E+01  0.18258372909E+02  0.51100000000E-03 0. -1.
        -11    1    4    4    0    0 -0.13400774468E+01  0.47733900113E+01  0.37824887520E+01  0.62360469196E+01  0.51100000000E-03 0.  1.
        -12    1    4    4    0    0 -0.11706052753E+02 -0.39910234477E-01  0.27483482591E+02  0.29872647676E+02  0.00000000000E+00 0.  1.
</event>
<event>
 8    1  0.1290800E-006  0.9118800E+02  0.7816164E-02  0.1184000E+00
        -11   -1    0    0    0    0  0.00000000000E+00  0.00000000000E+00  0.45593999997E+02  0.45594000000E+02  0.51100000000E-03 0.  1.
         11   -1    0    0    0    0 -0.00000000000E+00 -0.00000000000E+00 -0.45593999997E+02  0.45594000000E+02  0.51100000000E-03 0. -1.
         23    2    1    2    0    0  0.00000000000E+00  0.00000000000E+00 -0.88817841970E-15  0.91188000000E+02  0.91188000000E+02 0.  0.
    9900012    2    3    3    0    0  0.35570347643E+02 -0.67865682858E+01  0.66687267308E+01  0.54367094840E+02  0.40000024308E+02 0.  0.
         12    1    3    3    0    0 -0.35570347643E+02  0.67865682858E+01 -0.66687267308E+01  0.36820905160E+02  0.00000000000E+00 0. -1.
         11    1    4    4    0    0  0.12635556064E+02 -0.57802804090E+01 -0.10547714421E+02  0.17444861663E+02  0.51100000000E-03 0. -1.
        -11    1    4    4    0    0  0.19503506815E+02 -0.24158738916E+01  0.22874004970E+02  0.30156978104E+02  0.51100000000E-03 0.  1.
        -12    1    4    4    0    0  0.34312847636E+01  0.14095860148E+01 -0.56575638177E+01  0.67652550738E+01  0.00000000000E+00 0.  1.
</event>
<event>
 8    1  0.1290800E-006  0.9118800E+02  0.7816164E-02  0.1184000E+00
        -11   -1    0    0    0    0  0.00000000000E+00  0.00000000000E+00  0.45593999997E+02  0.45594000000E+02  0.51100000000E-03 0.  1.
         11   -1    0    0    0    0 -0.00000000000E+00 -0.00000000000E+00 -0.45593999997E+02  0.45594000000E+02  0.51100000000E-03 0. -1.
         23    2    1    2    0    0  0.00000000000E+00  0.00000000000E+00  0.35527136788E-14  0.91188000000E+02  0.91188000000E+02 0.  0.
    9900012    2    3    3    0    0 -0.17626440900E+02  0.14170274800E+02  0.29056696045E+02  0.54367086218E+02  0.40000004650E+02 0.  0.
         12    1    3    3    0    0  0.17626440900E+02 -0.14170274800E+02 -0.29056696045E+02  0.36820913782E+02  0.00000000000E+00 0. -1.
         11    1    4    4    0    0 -0.20743065850E+02  0.88150726948E+01  0.76292187143E+01  0.23794647842E+02  0.51100000000E-03 0. -1.
        -11    1    4    4    0    0  0.28544991043E+01  0.13223256857E+02  0.10603058129E+02  0.17188005382E+02  0.51100000000E-03 0.  1.
        -12    1    4    4    0    0  0.26212584519E+00 -0.78680547516E+01  0.10824419201E+02  0.13384432994E+02  0.00000000000E+00 0.  1.
</event>
<event>
 8    1  0.1290800E-006  0.9118800E+02  0.7816164E-02  0.1184000E+00
        -11   -1    0    0    0    0  0.00000000000E+00  0.00000000000E+00  0.45593999997E+02  0.45594000000E+02  0.51100000000E-03 0.  1.
         11   -1    0    0    0    0 -0.00000000000E+00 -0.00000000000E+00 -0.45593999997E+02  0.45594000000E+02  0.51100000000E-03 0. -1.
         23    2    1    2    0    0 -0.71054273576E-14 -0.17763568394E-14  0.00000000000E+00  0.91188000000E+02  0.91188000000E+02 0.  0.
    9900012    2    3    3    0    0 -0.34458304786E+02 -0.10599725444E+02 -0.74867156424E+01  0.54367083943E+02  0.39999999464E+02 0.  0.
        -12    1    3    3    0    0  0.34458304786E+02  0.10599725444E+02  0.74867156424E+01  0.36820916057E+02  0.00000000000E+00 0.  1.
         11    1    4    4    0    0 -0.25687909733E+01  0.20448162166E+01 -0.22677112156E+01  0.39902975882E+01  0.51100000000E-03 0. -1.
        -11    1    4    4    0    0 -0.12167278940E+02 -0.72827783155E+01  0.15682875709E+02  0.21143181586E+02  0.51100000000E-03 0.  1.
         12    1    4    4    0    0 -0.19722234873E+02 -0.53617633454E+01 -0.20901880136E+02  0.29233604769E+02  0.00000000000E+00 0. -1.
</event>
<event>
 8    1  0.1290800E-006  0.9118800E+02  0.7816164E-02  0.1184000E+00
        -11   -1    0    0    0    0  0.00000000000E+00  0.00000000000E+00  0.45593999997E+02  0.45594000000E+02  0.51100000000E-03 0.  1.
         11   -1    0    0    0    0 -0.00000000000E+00 -0.00000000000E+00 -0.45593999997E+02  0.45594000000E+02  0.51100000000E-03 0. -1.
         23    2    1    2    0    0  0.44408920985E-15  0.00000000000E+00  0.00000000000E+00  0.91188000000E+02  0.91188000000E+02 0.  0.
    9900012    2    3    3    0    0  0.35017818391E+01 -0.32089161949E+02  0.17714480106E+02  0.54367087518E+02  0.40000007614E+02 0.  0.
         12    1    3    3    0    0 -0.35017818391E+01  0.32089161949E+02 -0.17714480106E+02  0.36820912482E+02  0.00000000000E+00 0. -1.
         11    1    4    4    0    0 -0.24186691356E+01 -0.90978497016E+01 -0.11414433636E+02  0.14795611683E+02  0.51100000000E-03 0. -1.
        -11    1    4    4    0    0  0.32837980764E+01 -0.17702851854E+02  0.12485990346E+02  0.21910596723E+02  0.51100000000E-03 0.  1.
         12    1    4    4    0    0  0.26366528983E+01 -0.52884603927E+01  0.16642923396E+02  0.17660879112E+02  0.00000000000E+00 0. -1.
</event>
<event>
 8    1  0.1290800E-006  0.9118800E+02  0.7816164E-02  0.1184000E+00
        -11   -1    0    0    0    0  0.00000000000E+00  0.00000000000E+00  0.45593999997E+02  0.45594000000E+02  0.51100000000E-03 0.  1.
         11   -1    0    0    0    0 -0.00000000000E+00 -0.00000000000E+00 -0.45593999997E+02  0.45594000000E+02  0.51100000000E-03 0. -1.
         23    2    1    2    0    0 -0.17763568394E-14  0.00000000000E+00  0.17763568394E-14  0.91188000000E+02  0.91188000000E+02 0.  0.
    9900012    2    3    3    0    0 -0.64769023356E+01 -0.34193022511E+02  0.12027783709E+02  0.54367073433E+02  0.39999975506E+02 0.  0.
        -12    1    3    3    0    0  0.64769023356E+01  0.34193022511E+02 -0.12027783709E+02  0.36820926567E+02  0.00000000000E+00 0.  1.
         11    1    4    4    0    0 -0.14415395504E+01 -0.16319610279E+02 -0.80409259768E+01  0.18250046760E+02  0.51100000000E-03 0. -1.
        -11    1    4    4    0    0  0.28539116621E+01 -0.17092594596E+02  0.21952876429E+02  0.27968381890E+02  0.51100000000E-03 0.  1.
        -12    1    4    4    0    0 -0.78892744473E+01 -0.78081763578E+00 -0.18841667426E+01  0.81486447829E+01  0.00000000000E+00 0.  1.
</event>
<event>
 8    1  0.1290800E-006  0.9118800E+02  0.7816164E-02  0.1184000E+00
        -11   -1    0    0    0    0  0.00000000000E+00  0.00000000000E+00  0.45593999997E+02  0.45594000000E+02  0.51100000000E-03 0.  1.
         11   -1    0    0    0    0 -0.00000000000E+00 -0.00000000000E+00 -0.45593999997E+02  0.45594000000E+02  0.51100000000E-03 0. -1.
         23    2    1    2    0    0 -0.17763568394E-14 -0.17763568394E-14  0.71054273576E-14  0.91188000000E+02  0.91188000000E+02 0.  0.
    9900012    2    3    3    0    0  0.59185357004E+01  0.58058246788E+01 -0.35875545467E+02  0.54366926855E+02  0.39999641349E+02 0.  0.
        -12    1    3    3    0    0 -0.59185357004E+01 -0.58058246788E+01  0.35875545467E+02  0.36821073145E+02  0.00000000000E+00 0.  1.
         11    1    4    4    0    0 -0.23177244062E+01  0.18067126787E+01 -0.21649178793E+02  0.21847722989E+02  0.51100000000E-03 0. -1.
        -11    1    4    4    0    0 -0.95430193897E+01 -0.31498461324E+01 -0.55994555587E+01  0.11504114592E+02  0.51100000000E-03 0.  1.
        -12    1    4    4    0    0  0.17779279496E+02  0.71489581325E+01 -0.86269111148E+01  0.21015089273E+02  0.00000000000E+00 0.  1.
</event>
<event>
 8    1  0.1290800E-006  0.9118800E+02  0.7816164E-02  0.1184000E+00
        -11   -1    0    0    0    0  0.00000000000E+00  0.00000000000E+00  0.45593999997E+02  0.45594000000E+02  0.51100000000E-03 0. -1.
         11   -1    0    0    0    0 -0.00000000000E+00 -0.00000000000E+00 -0.45593999997E+02  0.45594000000E+02  0.51100000000E-03 0.  1.
         23    2    1    2    0    0 -0.35527136788E-14  0.17763568394E-14  0.35527136788E-14  0.91188000000E+02  0.91188000000E+02 0.  0.
    9900012    2    3    3    0    0 -0.24509260611E+02  0.10676444342E+02  0.25319772824E+02  0.54367065528E+02  0.39999957485E+02 0.  0.
        -12    1    3    3    0    0  0.24509260611E+02 -0.10676444342E+02 -0.25319772824E+02  0.36820934472E+02  0.00000000000E+00 0.  1.
         11    1    4    4    0    0 -0.28066312910E+02 -0.37936927048E+01  0.15813978693E+02  0.32437508336E+02  0.51100000000E-03 0. -1.
        -11    1    4    4    0    0  0.65964297275E+01  0.84219230912E+01  0.10614802465E+02  0.15070358501E+02  0.51100000000E-03 0.  1.
         12    1    4    4    0    0 -0.30393774287E+01  0.60482139558E+01 -0.11090083337E+01  0.68591986918E+01  0.00000000000E+00 0. -1.
</event>
<event>
 8    1  0.1290800E-006  0.9118800E+02  0.7816164E-02  0.1184000E+00
        -11   -1    0    0    0    0  0.00000000000E+00  0.00000000000E+00  0.45593999997E+02  0.45594000000E+02  0.51100000000E-03 0.  1.
         11   -1    0    0    0    0 -0.00000000000E+00 -0.00000000000E+00 -0.45593999997E+02  0.45594000000E+02  0.51100000000E-03 0. -1.
         23    2    1    2    0    0  0.00000000000E+00  0.71054273576E-14  0.35527136788E-14  0.91188000000E+02  0.91188000000E+02 0.  0.
    9900012    2    3    3    0    0  0.83815388941E+01 -0.31418168149E+02 -0.17274985410E+02  0.54367128134E+02  0.40000100206E+02 0.  0.
        -12    1    3    3    0    0 -0.83815388941E+01  0.31418168149E+02  0.17274985410E+02  0.36820871866E+02  0.00000000000E+00 0.  1.
         11    1    4    4    0    0  0.77669353140E+01 -0.93087508205E+01  0.87562034217E+01  0.14954906373E+02  0.51100000000E-03 0. -1.
        -11    1    4    4    0    0  0.28551292370E+01  0.25611116048E+01 -0.55080337548E+00  0.38748471237E+01  0.51100000000E-03 0.  1.
         12    1    4    4    0    0 -0.22405256569E+01 -0.24670528933E+02 -0.25480385456E+02  0.35537374637E+02  0.00000000000E+00 0. -1.
</event>
<event>
 8    1  0.1290800E-006  0.9118800E+02  0.7816164E-02  0.1184000E+00
        -11   -1    0    0    0    0  0.00000000000E+00  0.00000000000E+00  0.45593999997E+02  0.45594000000E+02  0.51100000000E-03 0. -1.
         11   -1    0    0    0    0 -0.00000000000E+00 -0.00000000000E+00 -0.45593999997E+02  0.45594000000E+02  0.51100000000E-03 0.  1.
         23    2    1    2    0    0 -0.88817841970E-15 -0.17763568394E-14 -0.71054273576E-14  0.91188000000E+02  0.91188000000E+02 0.  0.
    9900012    2    3    3    0    0 -0.47857858031E+01 -0.81580246524E+01  0.35585428115E+02  0.54367084665E+02  0.40000001111E+02 0.  0.
        -12    1    3    3    0    0  0.47857858031E+01  0.81580246524E+01 -0.35585428115E+02  0.36820915335E+02  0.00000000000E+00 0.  1.
         11    1    4    4    0    0 -0.19253532616E+01  0.49198622156E+01  0.21179571377E+02  0.21828565537E+02  0.51100000000E-03 0. -1.
        -11    1    4    4    0    0 -0.77929643273E+01 -0.76458400989E+01  0.20351323285E+02  0.23094707695E+02  0.51100000000E-03 0.  1.
        -12    1    4    4    0    0  0.49325317857E+01 -0.54320467691E+01 -0.59454665473E+01  0.94438114331E+01  0.00000000000E+00 0.  1.
</event>
<event>
 8    1  0.1290800E-006  0.9118800E+02  0.7816164E-02  0.1184000E+00
        -11   -1    0    0    0    0  0.00000000000E+00  0.00000000000E+00  0.45593999997E+02  0.45594000000E+02  0.51100000000E-03 0. -1.
         11   -1    0    0    0    0 -0.00000000000E+00 -0.00000000000E+00 -0.45593999997E+02  0.45594000000E+02  0.51100000000E-03 0.  1.
         23    2    1    2    0    0  0.00000000000E+00  0.00000000000E+00  0.00000000000E+00  0.91188000000E+02  0.91188000000E+02 0.  0.
    9900012    2    3    3    0    0  0.20829330958E+01 -0.32859087695E+02 -0.16483971712E+02  0.54367087764E+02  0.40000008177E+02 0.  0.
         12    1    3    3    0    0 -0.20829330958E+01  0.32859087695E+02  0.16483971712E+02  0.36820912236E+02  0.00000000000E+00 0. -1.
         11    1    4    4    0    0  0.13700136465E+01 -0.20212807817E+01  0.55405924288E+01  0.60548061995E+01  0.51100000000E-03 0. -1.
        -11    1    4    4    0    0 -0.28221877022E+01 -0.21445428407E+02 -0.28935950080E+02  0.36127003062E+02  0.51100000000E-03 0.  1.
        -12    1    4    4    0    0  0.35351071515E+01 -0.93923785070E+01  0.69113859390E+01  0.12185278503E+02  0.00000000000E+00 0.  1.
</event>
<event>
 8    1  0.1290800E-006  0.9118800E+02  0.7816164E-02  0.1184000E+00
        -11   -1    0    0    0    0  0.00000000000E+00  0.00000000000E+00  0.45593999997E+02  0.45594000000E+02  0.51100000000E-03 0.  1.
         11   -1    0    0    0    0 -0.00000000000E+00 -0.00000000000E+00 -0.45593999997E+02  0.45594000000E+02  0.51100000000E-03 0. -1.
         23    2    1    2    0    0  0.17763568394E-14 -0.71054273576E-14  0.00000000000E+00  0.91188000000E+02  0.91188000000E+02 0.  0.
    9900012    2    3    3    0    0  0.10864999495E+02 -0.34526557776E+02  0.67563418751E+01  0.54367087988E+02  0.40000008685E+02 0.  0.
         12    1    3    3    0    0 -0.10864999495E+02  0.34526557776E+02 -0.67563418751E+01  0.36820912012E+02  0.00000000000E+00 0. -1.
         11    1    4    4    0    0  0.23815881561E+02 -0.10173530583E+02  0.18095883695E+01  0.25960962027E+02  0.51100000000E-03 0. -1.
        -11    1    4    4    0    0 -0.29110553163E+01 -0.10069273870E+02  0.25071211649E+01  0.10777299111E+02  0.51100000000E-03 0.  1.
         12    1    4    4    0    0 -0.10039826749E+02 -0.14283753323E+02  0.24396323407E+01  0.17628826850E+02  0.00000000000E+00 0. -1.
</event>
<event>
 8    1  0.1290800E-006  0.9118800E+02  0.7816164E-02  0.1184000E+00
        -11   -1    0    0    0    0  0.00000000000E+00  0.00000000000E+00  0.45593999997E+02  0.45594000000E+02  0.51100000000E-03 0.  1.
         11   -1    0    0    0    0 -0.00000000000E+00 -0.00000000000E+00 -0.45593999997E+02  0.45594000000E+02  0.51100000000E-03 0. -1.
         23    2    1    2    0    0  0.14988010832E-14  0.00000000000E+00  0.71054273576E-14  0.91188000000E+02  0.91188000000E+02 0.  0.
    9900012    2    3    3    0    0 -0.27588112051E+00  0.17587767935E+02 -0.32347692173E+02  0.54367097238E+02  0.40000029773E+02 0.  0.
        -12    1    3    3    0    0  0.27588112051E+00 -0.17587767935E+02  0.32347692173E+02  0.36820902762E+02  0.00000000000E+00 0.  1.
         11    1    4    4    0    0  0.87826879315E+01  0.13178758666E+02 -0.27319744557E+02  0.31578216071E+02  0.51100000000E-03 0. -1.
        -11    1    4    4    0    0  0.53580925343E+00 -0.71408627384E+01 -0.90380052613E+00  0.72177467299E+01  0.51100000000E-03 0.  1.
        -12    1    4    4    0    0 -0.95943783055E+01  0.11549872007E+02 -0.41241470896E+01  0.15571134437E+02  0.00000000000E+00 0.  1.
</event>
<event>
 8    1  0.1290800E-006  0.9118800E+02  0.7816164E-02  0.1184000E+00
        -11   -1    0    0    0    0  0.00000000000E+00  0.00000000000E+00  0.45593999997E+02  0.45594000000E+02  0.51100000000E-03 0. -1.
         11   -1    0    0    0    0 -0.00000000000E+00 -0.00000000000E+00 -0.45593999997E+02  0.45594000000E+02  0.51100000000E-03 0.  1.
         23    2    1    2    0    0 -0.44408920985E-15  0.00000000000E+00  0.23314683517E-14  0.91188000000E+02  0.91188000000E+02 0.  0.
    9900012    2    3    3    0    0  0.29221126153E+01 -0.36700594546E+02 -0.55461789320E+00  0.54367082260E+02  0.39999995629E+02 0.  0.
        -12    1    3    3    0    0 -0.29221126153E+01  0.36700594546E+02  0.55461789320E+00  0.36820917740E+02  0.00000000000E+00 0.  1.
         11    1    4    4    0    0  0.17777086278E+01 -0.17776442889E+02 -0.30319019028E+01  0.18120557363E+02  0.51100000000E-03 0. -1.
        -11    1    4    4    0    0 -0.36041367233E+01 -0.36568927199E+01 -0.13010193113E+02  0.13986700504E+02  0.51100000000E-03 0.  1.
        -12    1    4    4    0    0  0.47485407107E+01 -0.15267258938E+02  0.15487477123E+02  0.22259824393E+02  0.00000000000E+00 0.  1.
</event>
<event>
 8    1  0.1290800E-006  0.9118800E+02  0.7816164E-02  0.1184000E+00
        -11   -1    0    0    0    0  0.00000000000E+00  0.00000000000E+00  0.45593999997E+02  0.45594000000E+02  0.51100000000E-03 0.  1.
         11   -1    0    0    0    0 -0.00000000000E+00 -0.00000000000E+00 -0.45593999997E+02  0.45594000000E+02  0.51100000000E-03 0. -1.
         23    2    1    2    0    0 -0.88817841970E-15 -0.17763568394E-14  0.00000000000E+00  0.91188000000E+02  0.91188000000E+02 0.  0.
    9900012    2    3    3    0    0 -0.70986422175E+01  0.14514287254E+02 -0.33086618540E+02  0.54367087705E+02  0.40000008040E+02 0.  0.
        -12    1    3    3    0    0  0.70986422175E+01 -0.14514287254E+02  0.33086618540E+02  0.36820912295E+02  0.00000000000E+00 0.  1.
         11    1    4    4    0    0 -0.12070384862E+02  0.98120406583E+00 -0.34055115629E+01  0.12579922949E+02  0.51100000000E-03 0. -1.
        -11    1    4    4    0    0  0.84360846263E+01 -0.54194592101E+01 -0.84018156806E+01  0.13081611863E+02  0.51100000000E-03 0.  1.
         12    1    4    4    0    0 -0.34643419814E+01  0.18952542399E+02 -0.21279291297E+02  0.28705552892E+02  0.00000000000E+00 0. -1.
</event>
<event>
 8    1  0.1290800E-006  0.9118800E+02  0.7816164E-02  0.1184000E+00
        -11   -1    0    0    0    0  0.00000000000E+00  0.00000000000E+00  0.45593999997E+02  0.45594000000E+02  0.51100000000E-03 0. -1.
         11   -1    0    0    0    0 -0.00000000000E+00 -0.00000000000E+00 -0.45593999997E+02  0.45594000000E+02  0.51100000000E-03 0.  1.
         23    2    1    2    0    0  0.35527136788E-14 -0.35527136788E-14  0.00000000000E+00  0.91188000000E+02  0.91188000000E+02 0.  0.
    9900012    2    3    3    0    0  0.27621829750E+02  0.23936969306E+02 -0.44545417373E+01  0.54366988059E+02  0.39999780877E+02 0.  0.
        -12    1    3    3    0    0 -0.27621829750E+02 -0.23936969306E+02  0.44545417373E+01  0.36821011941E+02  0.00000000000E+00 0.  1.
         11    1    4    4    0    0  0.10806412211E+02  0.25291794840E+02 -0.10881367447E+02  0.29577991630E+02  0.51100000000E-03 0. -1.
        -11    1    4    4    0    0  0.19579957632E+02 -0.40694084064E+01  0.46786018612E+01  0.20538357804E+02  0.51100000000E-03 0.  1.
        -12    1    4    4    0    0 -0.27645400926E+01  0.27145828721E+01  0.17482238489E+01  0.42506386249E+01  0.00000000000E+00 0.  1.
</event>
<event>
 8    1  0.1290800E-006  0.9118800E+02  0.7816164E-02  0.1184000E+00
        -11   -1    0    0    0    0  0.00000000000E+00  0.00000000000E+00  0.45593999997E+02  0.45594000000E+02  0.51100000000E-03 0. -1.
         11   -1    0    0    0    0 -0.00000000000E+00 -0.00000000000E+00 -0.45593999997E+02  0.45594000000E+02  0.51100000000E-03 0.  1.
         23    2    1    2    0    0 -0.71054273576E-14  0.88817841970E-15  0.11102230246E-15  0.91188000000E+02  0.91188000000E+02 0.  0.
    9900012    2    3    3    0    0 -0.36450889581E+02 -0.51648308695E+01 -0.66098028695E+00  0.54367085779E+02  0.40000003650E+02 0.  0.
         12    1    3    3    0    0  0.36450889581E+02  0.51648308695E+01  0.66098028695E+00  0.36820914221E+02  0.00000000000E+00 0. -1.
         11    1    4    4    0    0  0.32650401855E+01 -0.45108276616E+01  0.98707108556E+01  0.11333092546E+02  0.51100000000E-03 0. -1.
        -11    1    4    4    0    0 -0.12878379194E+02  0.46644166941E+00  0.25819075429E+01  0.13142924534E+02  0.51100000000E-03 0.  1.
        -12    1    4    4    0    0 -0.26837550573E+02 -0.11204448773E+01 -0.13113598685E+02  0.29891068699E+02  0.00000000000E+00 0.  1.
</event>
<event>
 8    1  0.1290800E-006  0.9118800E+02  0.7816164E-02  0.1184000E+00
        -11   -1    0    0    0    0  0.00000000000E+00  0.00000000000E+00  0.45593999997E+02  0.45594000000E+02  0.51100000000E-03 0.  1.
         11   -1    0    0    0    0 -0.00000000000E+00 -0.00000000000E+00 -0.45593999997E+02  0.45594000000E+02  0.51100000000E-03 0. -1.
         23    2    1    2    0    0  0.88817841970E-15 -0.88817841970E-15  0.71054273576E-14  0.91188000000E+02  0.91188000000E+02 0.  0.
    9900012    2    3    3    0    0 -0.42786911950E+01 -0.45979380057E+01 -0.36281289348E+02  0.54367079466E+02  0.39999989258E+02 0.  0.
        -12    1    3    3    0    0  0.42786911950E+01  0.45979380057E+01  0.36281289348E+02  0.36820920534E+02  0.00000000000E+00 0.  1.
         11    1    4    4    0    0 -0.76941293184E+01 -0.10669012146E+02 -0.16495130265E+02  0.21097790615E+02  0.51100000000E-03 0. -1.
        -11    1    4    4    0    0 -0.12270128334E+01 -0.85923760175E+01 -0.14696685515E+02  0.17068305466E+02  0.51100000000E-03 0.  1.
        -12    1    4    4    0    0  0.46424509568E+01  0.14663450157E+02 -0.50894735689E+01  0.16200983384E+02  0.00000000000E+00 0.  1.
</event>
<event>
 8    1  0.1290800E-006  0.9118800E+02  0.7816164E-02  0.1184000E+00
        -11   -1    0    0    0    0  0.00000000000E+00  0.00000000000E+00  0.45593999997E+02  0.45594000000E+02  0.51100000000E-03 0.  1.
         11   -1    0    0    0    0 -0.00000000000E+00 -0.00000000000E+00 -0.45593999997E+02  0.45594000000E+02  0.51100000000E-03 0. -1.
         23    2    1    2    0    0  0.35527136788E-14  0.00000000000E+00 -0.71054273576E-14  0.91188000000E+02  0.91188000000E+02 0.  0.
    9900012    2    3    3    0    0  0.16216601623E+02  0.47598077323E+01 -0.32713139508E+02  0.54367035397E+02  0.39999888795E+02 0.  0.
        -12    1    3    3    0    0 -0.16216601623E+02 -0.47598077323E+01  0.32713139508E+02  0.36820964603E+02  0.00000000000E+00 0.  1.
         11    1    4    4    0    0  0.30175247681E+01 -0.64659310049E+01  0.34105515349E+00  0.71435312252E+01  0.51100000000E-03 0. -1.
        -11    1    4    4    0    0 -0.33961543368E+01  0.49527052616E+01 -0.28196935236E+02  0.28829330736E+02  0.51100000000E-03 0.  1.
         12    1    4    4    0    0  0.16595231191E+02  0.62730334756E+01 -0.48572594247E+01  0.18394173436E+02  0.00000000000E+00 0. -1.
</event>
<event>
 8    1  0.1290800E-006  0.9118800E+02  0.7816164E-02  0.1184000E+00
        -11   -1    0    0    0    0  0.00000000000E+00  0.00000000000E+00  0.45593999997E+02  0.45594000000E+02  0.51100000000E-03 0.  1.
         11   -1    0    0    0    0 -0.00000000000E+00 -0.00000000000E+00 -0.45593999997E+02  0.45594000000E+02  0.51100000000E-03 0. -1.
         23    2    1    2    0    0 -0.35527136788E-14 -0.35527136788E-14  0.17763568394E-14  0.91188000000E+02  0.91188000000E+02 0.  0.
    9900012    2    3    3    0    0 -0.24783728288E+02 -0.26253698593E+02  0.72309032686E+01  0.54367138525E+02  0.40000123895E+02 0.  0.
        -12    1    3    3    0    0  0.24783728288E+02  0.26253698593E+02 -0.72309032686E+01  0.36820861475E+02  0.00000000000E+00 0.  1.
         11    1    4    4    0    0 -0.29851296381E+01 -0.10406607233E+02  0.28733606364E+01  0.11201101493E+02  0.51100000000E-03 0. -1.
        -11    1    4    4    0    0 -0.21358473340E+02 -0.66121292196E+01  0.16583895582E+02  0.27837568665E+02  0.51100000000E-03 0.  1.
        -12    1    4    4    0    0 -0.44012530994E+00 -0.92349621409E+01 -0.12226352949E+02  0.15328468367E+02  0.00000000000E+00 0.  1.
</event>
<event>
 8    1  0.1290800E-006  0.9118800E+02  0.7816164E-02  0.1184000E+00
        -11   -1    0    0    0    0  0.00000000000E+00  0.00000000000E+00  0.45593999997E+02  0.45594000000E+02  0.51100000000E-03 0.  1.
         11   -1    0    0    0    0 -0.00000000000E+00 -0.00000000000E+00 -0.45593999997E+02  0.45594000000E+02  0.51100000000E-03 0. -1.
         23    2    1    2    0    0  0.00000000000E+00  0.00000000000E+00  0.00000000000E+00  0.91188000000E+02  0.91188000000E+02 0.  0.
    9900012    2    3    3    0    0 -0.46131777168E+01  0.24833307054E+02 -0.26791892893E+02  0.54367081045E+02  0.39999992859E+02 0.  0.
        -12    1    3    3    0    0  0.46131777168E+01 -0.24833307054E+02  0.26791892893E+02  0.36820918955E+02  0.00000000000E+00 0.  1.
         11    1    4    4    0    0  0.11174916054E+02  0.22106823066E+02 -0.16734456732E+02  0.29893685240E+02  0.51100000000E-03 0. -1.
        -11    1    4    4    0    0 -0.10060050485E+02  0.91352737709E+01 -0.48775220576E+01  0.14437730581E+02  0.51100000000E-03 0.  1.
        -12    1    4    4    0    0 -0.57280432853E+01 -0.64087897836E+01 -0.51799141040E+01  0.10035665224E+02  0.00000000000E+00 0.  1.
</event>
<event>
 8    1  0.1290800E-006  0.9118800E+02  0.7816164E-02  0.1184000E+00
        -11   -1    0    0    0    0  0.00000000000E+00  0.00000000000E+00  0.45593999997E+02  0.45594000000E+02  0.51100000000E-03 0.  1.
         11   -1    0    0    0    0 -0.00000000000E+00 -0.00000000000E+00 -0.45593999997E+02  0.45594000000E+02  0.51100000000E-03 0. -1.
         23    2    1    2    0    0  0.00000000000E+00  0.17763568394E-14  0.00000000000E+00  0.91188000000E+02  0.91188000000E+02 0.  0.
    9900012    2    3    3    0    0 -0.15974492750E+02  0.10246395377E+02 -0.31553210752E+02  0.54367107214E+02  0.40000052515E+02 0.  0.
        -12    1    3    3    0    0  0.15974492750E+02 -0.10246395377E+02  0.31553210752E+02  0.36820892786E+02  0.00000000000E+00 0.  1.
         11    1    4    4    0    0 -0.13905760295E+01  0.29811477855E+01  0.39580296420E+01  0.51465466792E+01  0.51100000000E-03 0. -1.
        -11    1    4    4    0    0  0.37907566337E+01  0.11428586178E+02 -0.24749694896E+02  0.27523259537E+02  0.51100000000E-03 0.  1.
        -12    1    4    4    0    0 -0.18374673354E+02 -0.41633385867E+01 -0.10761545498E+02  0.21697300997E+02  0.00000000000E+00 0.  1.
</event>
<event>
 8    1  0.1290800E-006  0.9118800E+02  0.7816164E-02  0.1184000E+00
        -11   -1    0    0    0    0  0.00000000000E+00  0.00000000000E+00  0.45593999997E+02  0.45594000000E+02  0.51100000000E-03 0.  1.
         11   -1    0    0    0    0 -0.00000000000E+00 -0.00000000000E+00 -0.45593999997E+02  0.45594000000E+02  0.51100000000E-03 0. -1.
         23    2    1    2    0    0  0.17763568394E-14  0.35527136788E-14 -0.71054273576E-14  0.91188000000E+02  0.91188000000E+02 0.  0.
    9900012    2    3    3    0    0 -0.11428622419E+02 -0.21221707819E+02  0.27835333380E+02  0.54367080979E+02  0.39999992708E+02 0.  0.
         12    1    3    3    0    0  0.11428622419E+02  0.21221707819E+02 -0.27835333380E+02  0.36820919021E+02  0.00000000000E+00 0. -1.
         11    1    4    4    0    0 -0.54027665129E+01 -0.91379692699E+01  0.11353301135E+02  0.15543159759E+02  0.51100000000E-03 0. -1.
        -11    1    4    4    0    0 -0.13890606908E+02 -0.13882377276E+02  0.21660033632E+02  0.29237414665E+02  0.51100000000E-03 0.  1.
         12    1    4    4    0    0  0.78647510015E+01  0.17986387269E+01 -0.51780013864E+01  0.95865065557E+01  0.00000000000E+00 0. -1.
</event>
<event>
 8    1  0.1290800E-006  0.9118800E+02  0.7816164E-02  0.1184000E+00
        -11   -1    0    0    0    0  0.00000000000E+00  0.00000000000E+00  0.45593999997E+02  0.45594000000E+02  0.51100000000E-03 0.  1.
         11   -1    0    0    0    0 -0.00000000000E+00 -0.00000000000E+00 -0.45593999997E+02  0.45594000000E+02  0.51100000000E-03 0. -1.
         23    2    1    2    0    0  0.35527136788E-14  0.00000000000E+00  0.00000000000E+00  0.91188000000E+02  0.91188000000E+02 0.  0.
    9900012    2    3    3    0    0  0.15354345694E+02  0.66880392154E+01 -0.32791666580E+02  0.54367092931E+02  0.40000019956E+02 0.  0.
        -12    1    3    3    0    0 -0.15354345694E+02 -0.66880392154E+01  0.32791666580E+02  0.36820907069E+02  0.00000000000E+00 0.  1.
         11    1    4    4    0    0 -0.10676862345E+02  0.76304861919E+01 -0.32365395713E+01  0.13516467650E+02  0.51100000000E-03 0. -1.
        -11    1    4    4    0    0  0.22743674859E+01 -0.34093032703E+01 -0.26846368680E+01  0.48993235884E+01  0.51100000000E-03 0.  1.
         12    1    4    4    0    0  0.23756840553E+02  0.24668562938E+01 -0.26870490141E+02  0.35951301694E+02  0.00000000000E+00 0. -1.
</event>
<event>
 8    1  0.1290800E-006  0.9118800E+02  0.7816164E-02  0.1184000E+00
        -11   -1    0    0    0    0  0.00000000000E+00  0.00000000000E+00  0.45593999997E+02  0.45594000000E+02  0.51100000000E-03 0. -1.
         11   -1    0    0    0    0 -0.00000000000E+00 -0.00000000000E+00 -0.45593999997E+02  0.45594000000E+02  0.51100000000E-03 0.  1.
         23    2    1    2    0    0 -0.22204460493E-15  0.00000000000E+00  0.00000000000E+00  0.91188000000E+02  0.91188000000E+02 0.  0.
    9900012    2    3    3    0    0  0.10824213967E+01 -0.91971505884E+01  0.35637391146E+02  0.54367043158E+02  0.39999906488E+02 0.  0.
        -12    1    3    3    0    0 -0.10824213967E+01  0.91971505884E+01 -0.35637391146E+02  0.36820956842E+02  0.00000000000E+00 0.  1.
         11    1    4    4    0    0 -0.23399995848E+01 -0.11172612506E+02  0.33768518823E+02  0.35645697244E+02  0.51100000000E-03 0. -1.
        -11    1    4    4    0    0 -0.50045447638E+01  0.64678412195E+01 -0.19981239777E+01  0.84184878705E+01  0.51100000000E-03 0.  1.
         12    1    4    4    0    0  0.84269657454E+01 -0.44923793021E+01  0.38669963009E+01  0.10302858043E+02  0.00000000000E+00 0. -1.
</event>
<event>
 8    1  0.1290800E-006  0.9118800E+02  0.7816164E-02  0.1184000E+00
        -11   -1    0    0    0    0  0.00000000000E+00  0.00000000000E+00  0.45593999997E+02  0.45594000000E+02  0.51100000000E-03 0. -1.
         11   -1    0    0    0    0 -0.00000000000E+00 -0.00000000000E+00 -0.45593999997E+02  0.45594000000E+02  0.51100000000E-03 0.  1.
         23    2    1    2    0    0  0.00000000000E+00 -0.13322676296E-14  0.00000000000E+00  0.91188000000E+02  0.91188000000E+02 0.  0.
    9900012    2    3    3    0    0  0.16065148802E+02  0.11037413696E+01  0.33113028967E+02  0.54367082869E+02  0.39999997016E+02 0.  0.
        -12    1    3    3    0    0 -0.16065148802E+02 -0.11037413696E+01 -0.33113028967E+02  0.36820917131E+02  0.00000000000E+00 0.  1.
         11    1    4    4    0    0  0.82731486040E+01 -0.93592287021E+01  0.22536606682E+02  0.25767009736E+02  0.51100000000E-03 0. -1.
        -11    1    4    4    0    0 -0.88787090205E+00 -0.57995467385E+00 -0.64449914603E+01  0.65316596165E+01  0.51100000000E-03 0.  1.
        -12    1    4    4    0    0  0.86798710998E+01  0.11042924746E+02  0.17021413745E+02  0.22068413516E+02  0.00000000000E+00 0.  1.
</event>
<event>
 8    1  0.1290800E-006  0.9118800E+02  0.7816164E-02  0.1184000E+00
        -11   -1    0    0    0    0  0.00000000000E+00  0.00000000000E+00  0.45593999997E+02  0.45594000000E+02  0.51100000000E-03 0.  1.
         11   -1    0    0    0    0 -0.00000000000E+00 -0.00000000000E+00 -0.45593999997E+02  0.45594000000E+02  0.51100000000E-03 0. -1.
         23    2    1    2    0    0  0.00000000000E+00  0.71054273576E-14  0.77715611724E-15  0.91188000000E+02  0.91188000000E+02 0.  0.
    9900012    2    3    3    0    0  0.12608082249E+02  0.34593351151E+02 -0.34207761168E+00  0.54367072541E+02  0.39999973473E+02 0.  0.
        -12    1    3    3    0    0 -0.12608082249E+02 -0.34593351151E+02  0.34207761168E+00  0.36820927459E+02  0.00000000000E+00 0.  1.
         11    1    4    4    0    0  0.40684214235E+01  0.13534402510E+02  0.33047589566E+01  0.14513908371E+02  0.51100000000E-03 0. -1.
        -11    1    4    4    0    0  0.21179737574E+01  0.22030303329E+02  0.10342854448E+02  0.24429382227E+02  0.51100000000E-03 0.  1.
         12    1    4    4    0    0  0.64216870678E+01 -0.97135468805E+00 -0.13989691016E+02  0.15423781944E+02  0.00000000000E+00 0. -1.
</event>
<event>
 8    1  0.1290800E-006  0.9118800E+02  0.7816164E-02  0.1184000E+00
        -11   -1    0    0    0    0  0.00000000000E+00  0.00000000000E+00  0.45593999997E+02  0.45594000000E+02  0.51100000000E-03 0.  1.
         11   -1    0    0    0    0 -0.00000000000E+00 -0.00000000000E+00 -0.45593999997E+02  0.45594000000E+02  0.51100000000E-03 0. -1.
         23    2    1    2    0    0  0.35527136788E-14  0.00000000000E+00  0.00000000000E+00  0.91188000000E+02  0.91188000000E+02 0.  0.
    9900012    2    3    3    0    0 -0.24993287351E+02  0.13002629465E+02  0.23707534873E+02  0.54367082095E+02  0.39999995252E+02 0.  0.
         12    1    3    3    0    0  0.24993287351E+02 -0.13002629465E+02 -0.23707534873E+02  0.36820917905E+02  0.00000000000E+00 0. -1.
         11    1    4    4    0    0 -0.21224123614E+01  0.71350247898E+01  0.77430889624E+01  0.10740979468E+02  0.51100000000E-03 0. -1.
        -11    1    4    4    0    0 -0.21177814580E+02 -0.91259909443E+01  0.16773568334E+02  0.28515542008E+02  0.51100000000E-03 0.  1.
         12    1    4    4    0    0 -0.16930604091E+01  0.14993595619E+02 -0.80912242286E+00  0.15110560619E+02  0.00000000000E+00 0. -1.
</event>
<event>
 8    1  0.1290800E-006  0.9118800E+02  0.7816164E-02  0.1184000E+00
        -11   -1    0    0    0    0  0.00000000000E+00  0.00000000000E+00  0.45593999997E+02  0.45594000000E+02  0.51100000000E-03 0.  1.
         11   -1    0    0    0    0 -0.00000000000E+00 -0.00000000000E+00 -0.45593999997E+02  0.45594000000E+02  0.51100000000E-03 0. -1.
         23    2    1    2    0    0  0.00000000000E+00  0.00000000000E+00  0.00000000000E+00  0.91188000000E+02  0.91188000000E+02 0.  0.
    9900012    2    3    3    0    0  0.19068442561E+02  0.25749058856E+02  0.18142772230E+02  0.54367085863E+02  0.40000003842E+02 0.  0.
        -12    1    3    3    0    0 -0.19068442561E+02 -0.25749058856E+02 -0.18142772230E+02  0.36820914137E+02  0.00000000000E+00 0.  1.
         11    1    4    4    0    0  0.20225409496E+01 -0.23261946553E+01 -0.78613619504E+01  0.84441024061E+01  0.51100000000E-03 0. -1.
        -11    1    4    4    0    0 -0.13455435784E+01 -0.20546449017E+01  0.93812148014E+00  0.26290921182E+01  0.51100000000E-03 0.  1.
        -12    1    4    4    0    0  0.18391445190E+02  0.30129898413E+02  0.25066012701E+02  0.43293891339E+02  0.00000000000E+00 0.  1.
</event>
<event>
 8    1  0.1290800E-006  0.9118800E+02  0.7816164E-02  0.1184000E+00
        -11   -1    0    0    0    0  0.00000000000E+00  0.00000000000E+00  0.45593999997E+02  0.45594000000E+02  0.51100000000E-03 0. -1.
         11   -1    0    0    0    0 -0.00000000000E+00 -0.00000000000E+00 -0.45593999997E+02  0.45594000000E+02  0.51100000000E-03 0.  1.
         23    2    1    2    0    0  0.00000000000E+00 -0.44408920985E-15  0.00000000000E+00  0.91188000000E+02  0.91188000000E+02 0.  0.
    9900012    2    3    3    0    0  0.17442094462E+02  0.31712106889E+01 -0.32272286800E+02  0.54367031358E+02  0.39999879587E+02 0.  0.
         12    1    3    3    0    0 -0.17442094462E+02 -0.31712106889E+01  0.32272286800E+02  0.36820968642E+02  0.00000000000E+00 0. -1.
         11    1    4    4    0    0  0.13125891462E+02  0.10395670581E+02 -0.14350473061E+01  0.16805307333E+02  0.51100000000E-03 0. -1.
        -11    1    4    4    0    0  0.44657069171E+00  0.14024231774E+01 -0.27493516200E+02  0.27532883057E+02  0.51100000000E-03 0.  1.
         12    1    4    4    0    0  0.38696323078E+01 -0.86268830697E+01 -0.33437232935E+01  0.10028840968E+02  0.00000000000E+00 0. -1.
</event>
<event>
 8    1  0.1290800E-006  0.9118800E+02  0.7816164E-02  0.1184000E+00
        -11   -1    0    0    0    0  0.00000000000E+00  0.00000000000E+00  0.45593999997E+02  0.45594000000E+02  0.51100000000E-03 0.  1.
         11   -1    0    0    0    0 -0.00000000000E+00 -0.00000000000E+00 -0.45593999997E+02  0.45594000000E+02  0.51100000000E-03 0. -1.
         23    2    1    2    0    0  0.00000000000E+00  0.00000000000E+00 -0.71054273576E-14  0.91188000000E+02  0.91188000000E+02 0.  0.
    9900012    2    3    3    0    0  0.57626567449E+01  0.16191152565E+02 -0.32564062952E+02  0.54367084340E+02  0.40000000369E+02 0.  0.
        -12    1    3    3    0    0 -0.57626567449E+01 -0.16191152565E+02  0.32564062952E+02  0.36820915660E+02  0.00000000000E+00 0.  1.
         11    1    4    4    0    0 -0.13023562066E+01  0.17968170080E+02 -0.20573276221E+02  0.27346132495E+02  0.51100000000E-03 0. -1.
        -11    1    4    4    0    0 -0.65457185163E+01  0.22431179832E+01  0.18862438940E+01  0.71718843737E+01  0.51100000000E-03 0.  1.
        -12    1    4    4    0    0  0.13610731468E+02 -0.40201354982E+01 -0.13877030625E+02  0.19849067471E+02  0.00000000000E+00 0.  1.
</event>
<event>
 8    1  0.1290800E-006  0.9118800E+02  0.7816164E-02  0.1184000E+00
        -11   -1    0    0    0    0  0.00000000000E+00  0.00000000000E+00  0.45593999997E+02  0.45594000000E+02  0.51100000000E-03 0. -1.
         11   -1    0    0    0    0 -0.00000000000E+00 -0.00000000000E+00 -0.45593999997E+02  0.45594000000E+02  0.51100000000E-03 0.  1.
         23    2    1    2    0    0  0.00000000000E+00 -0.22204460493E-15 -0.17763568394E-14  0.91188000000E+02  0.91188000000E+02 0.  0.
    9900012    2    3    3    0    0  0.35877529569E+02 -0.19789861179E+01  0.80415763809E+01  0.54367075722E+02  0.39999980723E+02 0.  0.
        -12    1    3    3    0    0 -0.35877529569E+02  0.19789861179E+01 -0.80415763809E+01  0.36820924278E+02  0.00000000000E+00 0.  1.
         11    1    4    4    0    0  0.20271840677E+01 -0.60307333075E+01  0.53093864309E+01  0.82866642266E+01  0.51100000000E-03 0. -1.
        -11    1    4    4    0    0  0.57031468062E+01 -0.11664552755E+02 -0.30271218727E+01  0.13332334438E+02  0.51100000000E-03 0.  1.
         12    1    4    4    0    0  0.28147198695E+02  0.15716299945E+02  0.57593118227E+01  0.32748077058E+02  0.00000000000E+00 0. -1.
</event>
<event>
 8    1  0.1290800E-006  0.9118800E+02  0.7816164E-02  0.1184000E+00
        -11   -1    0    0    0    0  0.00000000000E+00  0.00000000000E+00  0.45593999997E+02  0.45594000000E+02  0.51100000000E-03 0.  1.
         11   -1    0    0    0    0 -0.00000000000E+00 -0.00000000000E+00 -0.45593999997E+02  0.45594000000E+02  0.51100000000E-03 0. -1.
         23    2    1    2    0    0  0.35527136788E-14 -0.35527136788E-14  0.88817841970E-15  0.91188000000E+02  0.91188000000E+02 0.  0.
    9900012    2    3    3    0    0  0.22562547503E+02  0.28950244482E+02 -0.29313867821E+01  0.54367106015E+02  0.40000049783E+02 0.  0.
        -12    1    3    3    0    0 -0.22562547503E+02 -0.28950244482E+02  0.29313867821E+01  0.36820893985E+02  0.00000000000E+00 0.  1.
         11    1    4    4    0    0  0.56959808561E+01  0.20338952982E+02  0.31897065817E+01  0.21360979253E+02  0.51100000000E-03 0. -1.
        -11    1    4    4    0    0  0.12740605216E+02  0.16048948179E+02  0.27982935483E+01  0.20681445935E+02  0.51100000000E-03 0.  1.
         12    1    4    4    0    0  0.41259614301E+01 -0.74376566793E+01 -0.89193869121E+01  0.12324680827E+02  0.00000000000E+00 0. -1.
</event>
<event>
 8    1  0.1290800E-006  0.9118800E+02  0.7816164E-02  0.1184000E+00
        -11   -1    0    0    0    0  0.00000000000E+00  0.00000000000E+00  0.45593999997E+02  0.45594000000E+02  0.51100000000E-03 0.  1.
         11   -1    0    0    0    0 -0.00000000000E+00 -0.00000000000E+00 -0.45593999997E+02  0.45594000000E+02  0.51100000000E-03 0. -1.
         23    2    1    2    0    0  0.00000000000E+00 -0.17763568394E-14  0.00000000000E+00  0.91188000000E+02  0.91188000000E+02 0.  0.
    9900012    2    3    3    0    0  0.23525788974E+02  0.11280335030E+02  0.25982160101E+02  0.54367063717E+02  0.39999953354E+02 0.  0.
         12    1    3    3    0    0 -0.23525788974E+02 -0.11280335030E+02 -0.25982160101E+02  0.36820936283E+02  0.00000000000E+00 0. -1.
         11    1    4    4    0    0  0.19568548220E+02 -0.71783010923E-01 -0.19901262200E+01  0.19669617050E+02  0.51100000000E-03 0. -1.
        -11    1    4    4    0    0  0.29993301996E+00 -0.24129082443E+01  0.15728948923E+02  0.15915775837E+02  0.51100000000E-03 0.  1.
         12    1    4    4    0    0  0.36573077338E+01  0.13765026286E+02  0.12243337399E+02  0.18781670830E+02  0.00000000000E+00 0. -1.
</event>
<event>
 8    1  0.1290800E-006  0.9118800E+02  0.7816164E-02  0.1184000E+00
        -11   -1    0    0    0    0  0.00000000000E+00  0.00000000000E+00  0.45593999997E+02  0.45594000000E+02  0.51100000000E-03 0.  1.
         11   -1    0    0    0    0 -0.00000000000E+00 -0.00000000000E+00 -0.45593999997E+02  0.45594000000E+02  0.51100000000E-03 0. -1.
         23    2    1    2    0    0  0.00000000000E+00  0.35527136788E-14 -0.66613381478E-15  0.91188000000E+02  0.91188000000E+02 0.  0.
    9900012    2    3    3    0    0 -0.34291715220E+02 -0.13278963508E+02  0.18781844793E+01  0.54367079567E+02  0.39999989490E+02 0.  0.
         12    1    3    3    0    0  0.34291715220E+02  0.13278963508E+02 -0.18781844793E+01  0.36820920433E+02  0.00000000000E+00 0. -1.
         11    1    4    4    0    0 -0.36262350730E+01  0.10162264961E+02  0.88738983420E+01  0.13970228416E+02  0.51100000000E-03 0. -1.
        -11    1    4    4    0    0 -0.11716202336E+02 -0.34711294359E+01 -0.13460475179E+01  0.12293493438E+02  0.51100000000E-03 0.  1.
         12    1    4    4    0    0 -0.18949277811E+02 -0.19970099033E+02 -0.56496663447E+01  0.28103357713E+02  0.00000000000E+00 0. -1.
</event>
<event>
 8    1  0.1290800E-006  0.9118800E+02  0.7816164E-02  0.1184000E+00
        -11   -1    0    0    0    0  0.00000000000E+00  0.00000000000E+00  0.45593999997E+02  0.45594000000E+02  0.51100000000E-03 0. -1.
         11   -1    0    0    0    0 -0.00000000000E+00 -0.00000000000E+00 -0.45593999997E+02  0.45594000000E+02  0.51100000000E-03 0.  1.
         23    2    1    2    0    0  0.00000000000E+00 -0.17763568394E-14  0.00000000000E+00  0.91188000000E+02  0.91188000000E+02 0.  0.
    9900012    2    3    3    0    0 -0.29843859470E+02  0.11202539195E+02  0.18428973283E+02  0.54367083543E+02  0.39999998553E+02 0.  0.
        -12    1    3    3    0    0  0.29843859470E+02 -0.11202539195E+02 -0.18428973283E+02  0.36820916457E+02  0.00000000000E+00 0.  1.
         11    1    4    4    0    0 -0.20748145372E+02 -0.10943803411E+02  0.18164463412E+01  0.23527682569E+02  0.51100000000E-03 0. -1.
        -11    1    4    4    0    0 -0.26445045045E+01  0.13250243081E+02  0.39577766409E+01  0.14079287695E+02  0.51100000000E-03 0.  1.
         12    1    4    4    0    0 -0.64512095931E+01  0.88960995246E+01  0.12654750301E+02  0.16760113280E+02  0.00000000000E+00 0. -1.
</event>
<event>
 8    1  0.1290800E-006  0.9118800E+02  0.7816164E-02  0.1184000E+00
        -11   -1    0    0    0    0  0.00000000000E+00  0.00000000000E+00  0.45593999997E+02  0.45594000000E+02  0.51100000000E-03 0.  1.
         11   -1    0    0    0    0 -0.00000000000E+00 -0.00000000000E+00 -0.45593999997E+02  0.45594000000E+02  0.51100000000E-03 0. -1.
         23    2    1    2    0    0  0.00000000000E+00 -0.35527136788E-14  0.88817841970E-15  0.91188000000E+02  0.91188000000E+02 0.  0.
    9900012    2    3    3    0    0  0.24303328232E+02  0.27229338880E+02 -0.48669529168E+01  0.54367137847E+02  0.40000122350E+02 0.  0.
        -12    1    3    3    0    0 -0.24303328232E+02 -0.27229338880E+02  0.48669529168E+01  0.36820862153E+02  0.00000000000E+00 0.  1.
         11    1    4    4    0    0  0.66651492450E+01  0.10321799820E+02 -0.41653614375E+01  0.12973588638E+02  0.51100000000E-03 0. -1.
        -11    1    4    4    0    0  0.18346656936E+02  0.17989906660E+02 -0.13159384258E+02  0.28868771305E+02  0.51100000000E-03 0.  1.
        -12    1    4    4    0    0 -0.70847794834E+00 -0.10823676000E+01  0.12457792779E+02  0.12524777904E+02  0.00000000000E+00 0.  1.
</event>
<event>
 8    1  0.1290800E-006  0.9118800E+02  0.7816164E-02  0.1184000E+00
        -11   -1    0    0    0    0  0.00000000000E+00  0.00000000000E+00  0.45593999997E+02  0.45594000000E+02  0.51100000000E-03 0.  1.
         11   -1    0    0    0    0 -0.00000000000E+00 -0.00000000000E+00 -0.45593999997E+02  0.45594000000E+02  0.51100000000E-03 0. -1.
         23    2    1    2    0    0  0.00000000000E+00  0.00000000000E+00 -0.71054273576E-14  0.91188000000E+02  0.91188000000E+02 0.  0.
    9900012    2    3    3    0    0 -0.20033431891E+02  0.45161832187E+01 -0.30562169471E+02  0.54367075148E+02  0.39999979415E+02 0.  0.
        -12    1    3    3    0    0  0.20033431891E+02 -0.45161832187E+01  0.30562169471E+02  0.36820924852E+02  0.00000000000E+00 0.  1.
         11    1    4    4    0    0 -0.13571172638E+01  0.53120829380E+01 -0.23136014670E+02  0.23776777904E+02  0.51100000000E-03 0. -1.
        -11    1    4    4    0    0 -0.11012636358E+02 -0.19622156994E+01 -0.15683775569E+02  0.19264196489E+02  0.51100000000E-03 0.  1.
        -12    1    4    4    0    0 -0.76636782687E+01  0.11663159801E+01  0.82576207679E+01  0.11326100755E+02  0.00000000000E+00 0.  1.
</event>
<event>
 8    1  0.1290800E-006  0.9118800E+02  0.7816164E-02  0.1184000E+00
        -11   -1    0    0    0    0  0.00000000000E+00  0.00000000000E+00  0.45593999997E+02  0.45594000000E+02  0.51100000000E-03 0. -1.
         11   -1    0    0    0    0 -0.00000000000E+00 -0.00000000000E+00 -0.45593999997E+02  0.45594000000E+02  0.51100000000E-03 0.  1.
         23    2    1    2    0    0  0.35527136788E-14  0.35527136788E-14  0.17763568394E-14  0.91188000000E+02  0.91188000000E+02 0.  0.
    9900012    2    3    3    0    0  0.22217076600E+02  0.26409131713E+02  0.12835091366E+02  0.54367077947E+02  0.39999985795E+02 0.  0.
        -12    1    3    3    0    0 -0.22217076600E+02 -0.26409131713E+02 -0.12835091366E+02  0.36820922053E+02  0.00000000000E+00 0.  1.
         11    1    4    4    0    0  0.77908432917E+01  0.20870111892E+02  0.68523306038E+01  0.23306935546E+02  0.51100000000E-03 0. -1.
        -11    1    4    4    0    0  0.17698306420E+02  0.89832736855E+01 -0.37785738722E+01  0.20204130197E+02  0.51100000000E-03 0.  1.
        -12    1    4    4    0    0 -0.32720731118E+01 -0.34442538642E+01  0.97613346341E+01  0.10856012204E+02  0.00000000000E+00 0.  1.
</event>
<event>
 8    1  0.1290800E-006  0.9118800E+02  0.7816164E-02  0.1184000E+00
        -11   -1    0    0    0    0  0.00000000000E+00  0.00000000000E+00  0.45593999997E+02  0.45594000000E+02  0.51100000000E-03 0. -1.
         11   -1    0    0    0    0 -0.00000000000E+00 -0.00000000000E+00 -0.45593999997E+02  0.45594000000E+02  0.51100000000E-03 0.  1.
         23    2    1    2    0    0  0.00000000000E+00  0.88817841970E-15 -0.17763568394E-14  0.91188000000E+02  0.91188000000E+02 0.  0.
    9900012    2    3    3    0    0  0.32812799054E+02 -0.53227045808E+01  0.15835676521E+02  0.54367087238E+02  0.40000006975E+02 0.  0.
        -12    1    3    3    0    0 -0.32812799054E+02  0.53227045808E+01 -0.15835676521E+02  0.36820912762E+02  0.00000000000E+00 0.  1.
         11    1    4    4    0    0  0.11486762630E+02  0.11370800019E+02  0.77172715313E+01  0.17910809276E+02  0.51100000000E-03 0. -1.
        -11    1    4    4    0    0  0.17322058193E+02 -0.87014593121E+01 -0.55147075695E+01  0.20153934951E+02  0.51100000000E-03 0.  1.
        -12    1    4    4    0    0  0.40039782311E+01 -0.79920452876E+01  0.13633112559E+02  0.16302343010E+02  0.00000000000E+00 0.  1.
</event>
<event>
 8    1  0.1290800E-006  0.9118800E+02  0.7816164E-02  0.1184000E+00
        -11   -1    0    0    0    0  0.00000000000E+00  0.00000000000E+00  0.45593999997E+02  0.45594000000E+02  0.51100000000E-03 0.  1.
         11   -1    0    0    0    0 -0.00000000000E+00 -0.00000000000E+00 -0.45593999997E+02  0.45594000000E+02  0.51100000000E-03 0. -1.
         23    2    1    2    0    0  0.00000000000E+00 -0.35527136788E-14  0.00000000000E+00  0.91188000000E+02  0.91188000000E+02 0.  0.
    9900012    2    3    3    0    0 -0.34311004990E+02 -0.80252885736E+01  0.10683164774E+02  0.54367077555E+02  0.39999984902E+02 0.  0.
         12    1    3    3    0    0  0.34311004990E+02  0.80252885736E+01 -0.10683164774E+02  0.36820922445E+02  0.00000000000E+00 0. -1.
         11    1    4    4    0    0  0.60632814332E+01 -0.54733851398E+00  0.32933395858E+01  0.69216361559E+01  0.51100000000E-03 0. -1.
        -11    1    4    4    0    0 -0.27482369717E+02  0.57843556928E+01  0.18838478669E+01  0.28147616224E+02  0.51100000000E-03 0.  1.
        -12    1    4    4    0    0 -0.12891916706E+02 -0.13262305752E+02  0.55059773214E+01  0.19297825175E+02  0.00000000000E+00 0.  1.
</event>
<event>
 8    1  0.1290800E-006  0.9118800E+02  0.7816164E-02  0.1184000E+00
        -11   -1    0    0    0    0  0.00000000000E+00  0.00000000000E+00  0.45593999997E+02  0.45594000000E+02  0.51100000000E-03 0. -1.
         11   -1    0    0    0    0 -0.00000000000E+00 -0.00000000000E+00 -0.45593999997E+02  0.45594000000E+02  0.51100000000E-03 0.  1.
         23    2    1    2    0    0  0.35527136788E-14 -0.35527136788E-14  0.35527136788E-14  0.91188000000E+02  0.91188000000E+02 0.  0.
    9900012    2    3    3    0    0  0.23268480719E+02 -0.23814630858E+02  0.15723297859E+02  0.54367069356E+02  0.39999966212E+02 0.  0.
        -12    1    3    3    0    0 -0.23268480719E+02  0.23814630858E+02 -0.15723297859E+02  0.36820930644E+02  0.00000000000E+00 0.  1.
         11    1    4    4    0    0  0.58542872743E+01 -0.27493256946E+02  0.85551871527E+01  0.29382700429E+02  0.51100000000E-03 0. -1.
        -11    1    4    4    0    0  0.57080901258E+01 -0.21657206499E+01 -0.43954724553E+01  0.75228197628E+01  0.51100000000E-03 0.  1.
        -12    1    4    4    0    0  0.11706103319E+02  0.58443467377E+01  0.11563583161E+02  0.17461549165E+02  0.00000000000E+00 0.  1.
</event>
<event>
 8    1  0.1290800E-006  0.9118800E+02  0.7816164E-02  0.1184000E+00
        -11   -1    0    0    0    0  0.00000000000E+00  0.00000000000E+00  0.45593999997E+02  0.45594000000E+02  0.51100000000E-03 0.  1.
         11   -1    0    0    0    0 -0.00000000000E+00 -0.00000000000E+00 -0.45593999997E+02  0.45594000000E+02  0.51100000000E-03 0. -1.
         23    2    1    2    0    0  0.00000000000E+00  0.17763568394E-14 -0.71054273576E-14  0.91188000000E+02  0.91188000000E+02 0.  0.
    9900012    2    3    3    0    0 -0.23636668943E+02  0.85359696872E+01 -0.26911441803E+02  0.54367073924E+02  0.39999976624E+02 0.  0.
        -12    1    3    3    0    0  0.23636668943E+02 -0.85359696872E+01  0.26911441803E+02  0.36820926076E+02  0.00000000000E+00 0.  1.
         11    1    4    4    0    0 -0.11003101852E+01 -0.49392794539E+01 -0.58631933253E+01  0.77449467564E+01  0.51100000000E-03 0. -1.
        -11    1    4    4    0    0 -0.21578101931E+02 -0.35178952179E+01 -0.34388175042E+01  0.22131776607E+02  0.51100000000E-03 0.  1.
        -12    1    4    4    0    0 -0.95825682632E+00  0.16993144359E+02 -0.17609430973E+02  0.24490350560E+02  0.00000000000E+00 0.  1.
</event>
<event>
 8    1  0.1290800E-006  0.9118800E+02  0.7816164E-02  0.1184000E+00
        -11   -1    0    0    0    0  0.00000000000E+00  0.00000000000E+00  0.45593999997E+02  0.45594000000E+02  0.51100000000E-03 0.  1.
         11   -1    0    0    0    0 -0.00000000000E+00 -0.00000000000E+00 -0.45593999997E+02  0.45594000000E+02  0.51100000000E-03 0. -1.
         23    2    1    2    0    0  0.00000000000E+00  0.44408920985E-15 -0.35527136788E-14  0.91188000000E+02  0.91188000000E+02 0.  0.
    9900012    2    3    3    0    0 -0.26930207018E+02 -0.30682996680E+01  0.24922474804E+02  0.54367078457E+02  0.39999986959E+02 0.  0.
         12    1    3    3    0    0  0.26930207018E+02  0.30682996680E+01 -0.24922474804E+02  0.36820921543E+02  0.00000000000E+00 0. -1.
         11    1    4    4    0    0 -0.42783785349E+01 -0.90109559539E+00 -0.15180722399E+00  0.43748762101E+01  0.51100000000E-03 0.  1.
        -11    1    4    4    0    0 -0.91470596003E+01  0.11866580589E+02  0.26522755216E+02  0.30462123674E+02  0.51100000000E-03 0. -1.
         12    1    4    4    0    0 -0.13504768883E+02 -0.14033784662E+02 -0.14484731872E+01  0.19530078574E+02  0.00000000000E+00 0. -1.
</event>
<event>
 8    1  0.1290800E-006  0.9118800E+02  0.7816164E-02  0.1184000E+00
        -11   -1    0    0    0    0  0.00000000000E+00  0.00000000000E+00  0.45593999997E+02  0.45594000000E+02  0.51100000000E-03 0.  1.
         11   -1    0    0    0    0 -0.00000000000E+00 -0.00000000000E+00 -0.45593999997E+02  0.45594000000E+02  0.51100000000E-03 0. -1.
         23    2    1    2    0    0 -0.71054273576E-14  0.00000000000E+00  0.17763568394E-14  0.91188000000E+02  0.91188000000E+02 0.  0.
    9900012    2    3    3    0    0  0.32306279295E+02 -0.13315827191E+02 -0.11609177263E+02  0.54367082950E+02  0.39999997201E+02 0.  0.
        -12    1    3    3    0    0 -0.32306279295E+02  0.13315827191E+02  0.11609177263E+02  0.36820917050E+02  0.00000000000E+00 0.  1.
         11    1    4    4    0    0  0.29919034035E+01 -0.18997652699E+02  0.46266363368E+01  0.19780496912E+02  0.51100000000E-03 0. -1.
        -11    1    4    4    0    0  0.23684825911E+02  0.29127278702E+01 -0.10445787729E+02  0.26049365513E+02  0.51100000000E-03 0.  1.
         12    1    4    4    0    0  0.56295499806E+01  0.27690976373E+01 -0.57900258711E+01  0.85372205253E+01  0.00000000000E+00 0. -1.
</event>
<event>
 8    1  0.1290800E-006  0.9118800E+02  0.7816164E-02  0.1184000E+00
        -11   -1    0    0    0    0  0.00000000000E+00  0.00000000000E+00  0.45593999997E+02  0.45594000000E+02  0.51100000000E-03 0. -1.
         11   -1    0    0    0    0 -0.00000000000E+00 -0.00000000000E+00 -0.45593999997E+02  0.45594000000E+02  0.51100000000E-03 0.  1.
         23    2    1    2    0    0  0.00000000000E+00  0.22204460493E-15 -0.71054273576E-14  0.91188000000E+02  0.91188000000E+02 0.  0.
    9900012    2    3    3    0    0  0.12620110069E+02 -0.89034817224E+00 -0.34579177760E+02  0.54367089737E+02  0.40000012673E+02 0.  0.
         12    1    3    3    0    0 -0.12620110069E+02  0.89034817224E+00  0.34579177760E+02  0.36820910263E+02  0.00000000000E+00 0. -1.
         11    1    4    4    0    0 -0.90597292082E+01 -0.51621884483E+01 -0.88367178980E+01  0.13668008866E+02  0.51100000000E-03 0. -1.
        -11    1    4    4    0    0 -0.24394069356E+01 -0.40677284772E+01 -0.90108901456E+01  0.10182988885E+02  0.51100000000E-03 0.  1.
        -12    1    4    4    0    0  0.24119246213E+02  0.83395687533E+01 -0.16731569717E+02  0.30516091985E+02  0.00000000000E+00 0.  1.
</event>
<event>
 8    1  0.1290800E-006  0.9118800E+02  0.7816164E-02  0.1184000E+00
        -11   -1    0    0    0    0  0.00000000000E+00  0.00000000000E+00  0.45593999997E+02  0.45594000000E+02  0.51100000000E-03 0.  1.
         11   -1    0    0    0    0 -0.00000000000E+00 -0.00000000000E+00 -0.45593999997E+02  0.45594000000E+02  0.51100000000E-03 0. -1.
         23    2    1    2    0    0  0.00000000000E+00  0.71054273576E-14 -0.13322676296E-14  0.91188000000E+02  0.91188000000E+02 0.  0.
    9900012    2    3    3    0    0 -0.88350084539E+01  0.35718736410E+02  0.13758755152E+01  0.54367101878E+02  0.40000040351E+02 0.  0.
         12    1    3    3    0    0  0.88350084539E+01 -0.35718736410E+02 -0.13758755152E+01  0.36820898122E+02  0.00000000000E+00 0. -1.
         11    1    4    4    0    0  0.26370800734E+01  0.11112599335E+02  0.74963199297E+01  0.13661583658E+02  0.51100000000E-03 0. -1.
        -11    1    4    4    0    0  0.10313379848E+01  0.21636372979E+02  0.65791047615E+01  0.22638041290E+02  0.51100000000E-03 0.  1.
         12    1    4    4    0    0 -0.12503426512E+02  0.29697640956E+01 -0.12699549176E+02  0.18067476930E+02  0.00000000000E+00 0. -1.
</event>
<event>
 8    1  0.1290800E-006  0.9118800E+02  0.7816164E-02  0.1184000E+00
        -11   -1    0    0    0    0  0.00000000000E+00  0.00000000000E+00  0.45593999997E+02  0.45594000000E+02  0.51100000000E-03 0.  1.
         11   -1    0    0    0    0 -0.00000000000E+00 -0.00000000000E+00 -0.45593999997E+02  0.45594000000E+02  0.51100000000E-03 0. -1.
         23    2    1    2    0    0 -0.35527136788E-14  0.00000000000E+00 -0.88817841970E-15  0.91188000000E+02  0.91188000000E+02 0.  0.
    9900012    2    3    3    0    0  0.21186139323E+02  0.29513378526E+02 -0.59908752903E+01  0.54367046750E+02  0.39999914677E+02 0.  0.
         12    1    3    3    0    0 -0.21186139323E+02 -0.29513378526E+02  0.59908752903E+01  0.36820953250E+02  0.00000000000E+00 0. -1.
         11    1    4    4    0    0  0.16163235141E+02  0.12997013219E+02 -0.18789838244E+02  0.27986256347E+02  0.51100000000E-03 0. -1.
        -11    1    4    4    0    0 -0.15136723329E+01  0.10583505405E+02 -0.17004281222E+00  0.10692553737E+02  0.51100000000E-03 0.  1.
         12    1    4    4    0    0  0.65365765150E+01  0.59328599022E+01  0.12969005766E+02  0.15688236667E+02  0.00000000000E+00 0. -1.
</event>
<event>
 8    1  0.1290800E-006  0.9118800E+02  0.7816164E-02  0.1184000E+00
        -11   -1    0    0    0    0  0.00000000000E+00  0.00000000000E+00  0.45593999997E+02  0.45594000000E+02  0.51100000000E-03 0. -1.
         11   -1    0    0    0    0 -0.00000000000E+00 -0.00000000000E+00 -0.45593999997E+02  0.45594000000E+02  0.51100000000E-03 0.  1.
         23    2    1    2    0    0  0.88817841970E-15  0.00000000000E+00  0.00000000000E+00  0.91188000000E+02  0.91188000000E+02 0.  0.
    9900012    2    3    3    0    0  0.65364601941E+01  0.13282871312E+02  0.33713870694E+02  0.54367013330E+02  0.39999838488E+02 0.  0.
        -12    1    3    3    0    0 -0.65364601941E+01 -0.13282871312E+02 -0.33713870694E+02  0.36820986670E+02  0.00000000000E+00 0.  1.
         11    1    4    4    0    0  0.10991458333E+02  0.63981084327E+01  0.25153587845E+01  0.12964373409E+02  0.51100000000E-03 0. -1.
        -11    1    4    4    0    0  0.59636953599E+01  0.11097613102E+02  0.63011471668E+01  0.14086416676E+02  0.51100000000E-03 0.  1.
        -12    1    4    4    0    0 -0.10418693499E+02 -0.42128502224E+01  0.24897364743E+02  0.27316223245E+02  0.00000000000E+00 0.  1.
</event>
<event>
 8    1  0.1290800E-006  0.9118800E+02  0.7816164E-02  0.1184000E+00
        -11   -1    0    0    0    0  0.00000000000E+00  0.00000000000E+00  0.45593999997E+02  0.45594000000E+02  0.51100000000E-03 0.  1.
         11   -1    0    0    0    0 -0.00000000000E+00 -0.00000000000E+00 -0.45593999997E+02  0.45594000000E+02  0.51100000000E-03 0. -1.
         23    2    1    2    0    0  0.00000000000E+00  0.00000000000E+00  0.71054273576E-14  0.91188000000E+02  0.91188000000E+02 0.  0.
    9900012    2    3    3    0    0  0.25746287519E+02  0.62087692853E+01  0.25580440070E+02  0.54367094916E+02  0.40000024480E+02 0.  0.
         12    1    3    3    0    0 -0.25746287519E+02 -0.62087692853E+01 -0.25580440070E+02  0.36820905084E+02  0.00000000000E+00 0. -1.
         11    1    4    4    0    0  0.20095786545E+02  0.22814324344E+01  0.75623550389E+01  0.21592470558E+02  0.51100000000E-03 0. -1.
        -11    1    4    4    0    0  0.49983733262E+01 -0.10170007728E+02  0.14175901485E+02  0.18148525457E+02  0.51100000000E-03 0.  1.
        -12    1    4    4    0    0  0.65212764810E+00  0.14097344579E+02  0.38421835463E+01  0.14626098901E+02  0.00000000000E+00 0.  1.
</event>
<event>
 8    1  0.1290800E-006  0.9118800E+02  0.7816164E-02  0.1184000E+00
        -11   -1    0    0    0    0  0.00000000000E+00  0.00000000000E+00  0.45593999997E+02  0.45594000000E+02  0.51100000000E-03 0.  1.
         11   -1    0    0    0    0 -0.00000000000E+00 -0.00000000000E+00 -0.45593999997E+02  0.45594000000E+02  0.51100000000E-03 0. -1.
         23    2    1    2    0    0 -0.66613381478E-15  0.17763568394E-14  0.00000000000E+00  0.91188000000E+02  0.91188000000E+02 0.  0.
    9900012    2    3    3    0    0 -0.12351596379E+01  0.83647056679E+01  0.35836954380E+02  0.54367065473E+02  0.39999957358E+02 0.  0.
         12    1    3    3    0    0  0.12351596379E+01 -0.83647056679E+01 -0.35836954380E+02  0.36820934527E+02  0.00000000000E+00 0. -1.
         11    1    4    4    0    0  0.54279013219E+01  0.16640423854E+02  0.10820657601E+01  0.17536723906E+02  0.51100000000E-03 0. -1.
        -11    1    4    4    0    0 -0.74843307147E+01 -0.63822932892E+01  0.31266235242E+02  0.32776917798E+02  0.51100000000E-03 0.  1.
         12    1    4    4    0    0  0.82126975487E+00 -0.18934248970E+01  0.34886533776E+01  0.40534237676E+01  0.00000000000E+00 0. -1.
</event>
<event>
 8    1  0.1290800E-006  0.9118800E+02  0.7816164E-02  0.1184000E+00
        -11   -1    0    0    0    0  0.00000000000E+00  0.00000000000E+00  0.45593999997E+02  0.45594000000E+02  0.51100000000E-03 0. -1.
         11   -1    0    0    0    0 -0.00000000000E+00 -0.00000000000E+00 -0.45593999997E+02  0.45594000000E+02  0.51100000000E-03 0.  1.
         23    2    1    2    0    0  0.00000000000E+00  0.00000000000E+00  0.00000000000E+00  0.91188000000E+02  0.91188000000E+02 0.  0.
    9900012    2    3    3    0    0 -0.10550276129E+02 -0.23399524419E+02 -0.26399526544E+02  0.54367067486E+02  0.39999961948E+02 0.  0.
         12    1    3    3    0    0  0.10550276129E+02  0.23399524419E+02  0.26399526544E+02  0.36820932514E+02  0.00000000000E+00 0. -1.
         11    1    4    4    0    0 -0.56639324421E+01 -0.42473544900E+01 -0.35481792245E+01  0.79189473380E+01  0.51100000000E-03 0. -1.
        -11    1    4    4    0    0 -0.14105160215E+02 -0.23088957915E+02 -0.24241768390E+02  0.36327934943E+02  0.51100000000E-03 0.  1.
         12    1    4    4    0    0  0.92188165283E+01  0.39367879858E+01  0.13904210708E+01  0.10120185205E+02  0.00000000000E+00 0. -1.
</event>
<event>
 8    1  0.1290800E-006  0.9118800E+02  0.7816164E-02  0.1184000E+00
        -11   -1    0    0    0    0  0.00000000000E+00  0.00000000000E+00  0.45593999997E+02  0.45594000000E+02  0.51100000000E-03 0. -1.
         11   -1    0    0    0    0 -0.00000000000E+00 -0.00000000000E+00 -0.45593999997E+02  0.45594000000E+02  0.51100000000E-03 0.  1.
         23    2    1    2    0    0  0.00000000000E+00 -0.71054273576E-14  0.17763568394E-14  0.91188000000E+02  0.91188000000E+02 0.  0.
    9900012    2    3    3    0    0  0.13734404467E+02  0.31619930049E+02 -0.12935542274E+02  0.54367053566E+02  0.39999930215E+02 0.  0.
         12    1    3    3    0    0 -0.13734404467E+02 -0.31619930049E+02  0.12935542274E+02  0.36820946434E+02  0.00000000000E+00 0. -1.
         11    1    4    4    0    0 -0.96714687598E+01  0.20455916774E+01  0.41001888453E+01  0.10702023272E+02  0.51100000000E-03 0. -1.
        -11    1    4    4    0    0  0.15640529480E+02  0.10668795558E+02 -0.37854541160E+01  0.19307486222E+02  0.51100000000E-03 0.  1.
        -12    1    4    4    0    0  0.77653437464E+01  0.18905542814E+02 -0.13250277003E+02  0.24357544072E+02  0.00000000000E+00 0.  1.
</event>
<event>
 8    1  0.1290800E-006  0.9118800E+02  0.7816164E-02  0.1184000E+00
        -11   -1    0    0    0    0  0.00000000000E+00  0.00000000000E+00  0.45593999997E+02  0.45594000000E+02  0.51100000000E-03 0. -1.
         11   -1    0    0    0    0 -0.00000000000E+00 -0.00000000000E+00 -0.45593999997E+02  0.45594000000E+02  0.51100000000E-03 0.  1.
         23    2    1    2    0    0  0.00000000000E+00  0.00000000000E+00  0.88817841970E-15  0.91188000000E+02  0.91188000000E+02 0.  0.
    9900012    2    3    3    0    0  0.21214727304E+02  0.29451092266E+02  0.61926329402E+01  0.54367079412E+02  0.39999989135E+02 0.  0.
         12    1    3    3    0    0 -0.21214727304E+02 -0.29451092266E+02 -0.61926329402E+01  0.36820920588E+02  0.00000000000E+00 0. -1.
         11    1    4    4    0    0 -0.41040729646E+01  0.10894281990E+02  0.98451735933E+00  0.11683238834E+02  0.51100000000E-03 0. -1.
        -11    1    4    4    0    0  0.18354970536E+02  0.15534999023E+02 -0.97196984115E+01  0.25936724456E+02  0.51100000000E-03 0.  1.
        -12    1    4    4    0    0  0.69638297325E+01  0.30218112527E+01  0.14927813992E+02  0.16747116121E+02  0.00000000000E+00 0.  1.
</event>
<event>
 8    1  0.1290800E-006  0.9118800E+02  0.7816164E-02  0.1184000E+00
        -11   -1    0    0    0    0  0.00000000000E+00  0.00000000000E+00  0.45593999997E+02  0.45594000000E+02  0.51100000000E-03 0. -1.
         11   -1    0    0    0    0 -0.00000000000E+00 -0.00000000000E+00 -0.45593999997E+02  0.45594000000E+02  0.51100000000E-03 0.  1.
         23    2    1    2    0    0  0.68001160258E-15  0.00000000000E+00  0.00000000000E+00  0.91188000000E+02  0.91188000000E+02 0.  0.
    9900012    2    3    3    0    0  0.10226832521E+00  0.44522396973E+01  0.36550605843E+02  0.54367086315E+02  0.40000004872E+02 0.  0.
        -12    1    3    3    0    0 -0.10226832521E+00 -0.44522396973E+01 -0.36550605843E+02  0.36820913685E+02  0.00000000000E+00 0.  1.
         11    1    4    4    0    0 -0.93365874299E+01  0.39231641353E+01  0.16344922854E+02  0.19228093640E+02  0.51100000000E-03 0. -1.
        -11    1    4    4    0    0 -0.86309865444E+01 -0.21483813602E+01  0.15485656007E+01  0.90281519083E+01  0.51100000000E-03 0.  1.
        -12    1    4    4    0    0  0.18069842300E+02  0.26774569222E+01  0.18657117388E+02  0.26110840767E+02  0.00000000000E+00 0.  1.
</event>
<event>
 8    1  0.1290800E-006  0.9118800E+02  0.7816164E-02  0.1184000E+00
        -11   -1    0    0    0    0  0.00000000000E+00  0.00000000000E+00  0.45593999997E+02  0.45594000000E+02  0.51100000000E-03 0.  1.
         11   -1    0    0    0    0 -0.00000000000E+00 -0.00000000000E+00 -0.45593999997E+02  0.45594000000E+02  0.51100000000E-03 0. -1.
         23    2    1    2    0    0  0.00000000000E+00  0.00000000000E+00  0.00000000000E+00  0.91188000000E+02  0.91188000000E+02 0.  0.
    9900012    2    3    3    0    0  0.10247570065E+02  0.34671597958E+02 -0.69748093284E+01  0.54367077112E+02  0.39999983891E+02 0.  0.
        -12    1    3    3    0    0 -0.10247570065E+02 -0.34671597958E+02  0.69748093284E+01  0.36820922888E+02  0.00000000000E+00 0.  1.
         11    1    4    4    0    0  0.11350237226E+02  0.21954695597E+02  0.12306652890E+01  0.24745728544E+02  0.51100000000E-03 0. -1.
        -11    1    4    4    0    0  0.10324179950E+02 -0.10405287158E+01 -0.13308078834E+01  0.10461474157E+02  0.51100000000E-03 0.  1.
         12    1    4    4    0    0 -0.11426847111E+02  0.13757431076E+02 -0.68746667341E+01  0.19159874410E+02  0.00000000000E+00 0. -1.
</event>
<event>
 8    1  0.1290800E-006  0.9118800E+02  0.7816164E-02  0.1184000E+00
        -11   -1    0    0    0    0  0.00000000000E+00  0.00000000000E+00  0.45593999997E+02  0.45594000000E+02  0.51100000000E-03 0. -1.
         11   -1    0    0    0    0 -0.00000000000E+00 -0.00000000000E+00 -0.45593999997E+02  0.45594000000E+02  0.51100000000E-03 0.  1.
         23    2    1    2    0    0 -0.35527136788E-14  0.17763568394E-14  0.00000000000E+00  0.91188000000E+02  0.91188000000E+02 0.  0.
    9900012    2    3    3    0    0 -0.27696989535E+02  0.11233842932E+02 -0.21504776028E+02  0.54367111250E+02  0.40000061716E+02 0.  0.
         12    1    3    3    0    0  0.27696989535E+02 -0.11233842932E+02  0.21504776028E+02  0.36820888750E+02  0.00000000000E+00 0. -1.
         11    1    4    4    0    0  0.34365999356E+00  0.75807798527E+01  0.46594272622E+01  0.89048631679E+01  0.51100000000E-03 0. -1.
        -11    1    4    4    0    0 -0.35171783183E+01  0.90767748128E+01 -0.80054212874E+00  0.97672540811E+01  0.51100000000E-03 0.  1.
        -12    1    4    4    0    0 -0.24523471210E+02 -0.54237117335E+01 -0.25363661162E+02  0.35694994001E+02  0.00000000000E+00 0.  1.
</event>
<event>
 8    1  0.1290800E-006  0.9118800E+02  0.7816164E-02  0.1184000E+00
        -11   -1    0    0    0    0  0.00000000000E+00  0.00000000000E+00  0.45593999997E+02  0.45594000000E+02  0.51100000000E-03 0.  1.
         11   -1    0    0    0    0 -0.00000000000E+00 -0.00000000000E+00 -0.45593999997E+02  0.45594000000E+02  0.51100000000E-03 0. -1.
         23    2    1    2    0    0 -0.17763568394E-14  0.00000000000E+00  0.00000000000E+00  0.91188000000E+02  0.91188000000E+02 0.  0.
    9900012    2    3    3    0    0 -0.97583531227E+01  0.21146117094E+02  0.28520134517E+02  0.54367057634E+02  0.39999939489E+02 0.  0.
         12    1    3    3    0    0  0.97583531227E+01 -0.21146117094E+02 -0.28520134517E+02  0.36820942366E+02  0.00000000000E+00 0. -1.
         11    1    4    4    0    0  0.37399783173E+01 -0.40271064051E+01  0.10484103589E+02  0.11837290744E+02  0.51100000000E-03 0. -1.
        -11    1    4    4    0    0 -0.11436974092E+02  0.79903092824E+01 -0.39967714335E+01  0.14512877074E+02  0.51100000000E-03 0.  1.
        -12    1    4    4    0    0 -0.20613573476E+01  0.17182914217E+02  0.22032802362E+02  0.28016889816E+02  0.00000000000E+00 0.  1.
</event>
<event>
 8    1  0.1290800E-006  0.9118800E+02  0.7816164E-02  0.1184000E+00
        -11   -1    0    0    0    0  0.00000000000E+00  0.00000000000E+00  0.45593999997E+02  0.45594000000E+02  0.51100000000E-03 0. -1.
         11   -1    0    0    0    0 -0.00000000000E+00 -0.00000000000E+00 -0.45593999997E+02  0.45594000000E+02  0.51100000000E-03 0.  1.
         23    2    1    2    0    0  0.00000000000E+00  0.00000000000E+00 -0.71054273576E-14  0.91188000000E+02  0.91188000000E+02 0.  0.
    9900012    2    3    3    0    0  0.13637263994E+02 -0.80704531084E+01  0.33236553491E+02  0.54367140822E+02  0.40000129133E+02 0.  0.
        -12    1    3    3    0    0 -0.13637263994E+02  0.80704531084E+01 -0.33236553491E+02  0.36820859178E+02  0.00000000000E+00 0.  1.
         11    1    4    4    0    0  0.81224576798E+01 -0.45982721191E+01  0.27961759328E+02  0.29478439752E+02  0.51100000000E-03 0. -1.
        -11    1    4    4    0    0  0.80020838635E+01 -0.68205998398E+01  0.12629541706E+02  0.16433479616E+02  0.51100000000E-03 0.  1.
        -12    1    4    4    0    0 -0.24872775492E+01  0.33484188505E+01 -0.73547475433E+01  0.84552214537E+01  0.00000000000E+00 0.  1.
</event>
<event>
 8    1  0.1290800E-006  0.9118800E+02  0.7816164E-02  0.1184000E+00
        -11   -1    0    0    0    0  0.00000000000E+00  0.00000000000E+00  0.45593999997E+02  0.45594000000E+02  0.51100000000E-03 0. -1.
         11   -1    0    0    0    0 -0.00000000000E+00 -0.00000000000E+00 -0.45593999997E+02  0.45594000000E+02  0.51100000000E-03 0.  1.
         23    2    1    2    0    0  0.00000000000E+00  0.35527136788E-14 -0.35527136788E-14  0.91188000000E+02  0.91188000000E+02 0.  0.
    9900012    2    3    3    0    0  0.13333717319E+02 -0.28674460913E+02 -0.18861800718E+02  0.54367078603E+02  0.39999987292E+02 0.  0.
         12    1    3    3    0    0 -0.13333717319E+02  0.28674460913E+02  0.18861800718E+02  0.36820921397E+02  0.00000000000E+00 0. -1.
         11    1    4    4    0    0  0.83509947963E+01 -0.91211723283E+01  0.97471862984E+01  0.15746191277E+02  0.51100000000E-03 0. -1.
        -11    1    4    4    0    0  0.22763610158E+01 -0.61367264489E+01  0.38720981718E+00  0.65567646508E+01  0.51100000000E-03 0.  1.
        -12    1    4    4    0    0  0.27063615069E+01 -0.13416562135E+02 -0.28996196834E+02  0.32064122676E+02  0.00000000000E+00 0.  1.
</event>
<event>
 8    1  0.1290800E-006  0.9118800E+02  0.7816164E-02  0.1184000E+00
        -11   -1    0    0    0    0  0.00000000000E+00  0.00000000000E+00  0.45593999997E+02  0.45594000000E+02  0.51100000000E-03 0.  1.
         11   -1    0    0    0    0 -0.00000000000E+00 -0.00000000000E+00 -0.45593999997E+02  0.45594000000E+02  0.51100000000E-03 0. -1.
         23    2    1    2    0    0  0.00000000000E+00  0.00000000000E+00 -0.35527136788E-14  0.91188000000E+02  0.91188000000E+02 0.  0.
    9900012    2    3    3    0    0  0.80224225080E+01 -0.22471349997E+02  0.28043882433E+02  0.54367079649E+02  0.39999989676E+02 0.  0.
         12    1    3    3    0    0 -0.80224225080E+01  0.22471349997E+02 -0.28043882433E+02  0.36820920351E+02  0.00000000000E+00 0. -1.
         11    1    4    4    0    0  0.24286851234E+01  0.65458661795E+01  0.45586732158E+01  0.83383677790E+01  0.51100000000E-03 0. -1.
        -11    1    4    4    0    0  0.66183992170E+01 -0.30933050720E+02  0.27203933092E+02  0.41721826554E+02  0.51100000000E-03 0.  1.
         12    1    4    4    0    0 -0.10246618324E+01  0.19158345438E+01 -0.37187238750E+01  0.43068853164E+01  0.00000000000E+00 0. -1.
</event>
<event>
 8    1  0.1290800E-006  0.9118800E+02  0.7816164E-02  0.1184000E+00
        -11   -1    0    0    0    0  0.00000000000E+00  0.00000000000E+00  0.45593999997E+02  0.45594000000E+02  0.51100000000E-03 0.  1.
         11   -1    0    0    0    0 -0.00000000000E+00 -0.00000000000E+00 -0.45593999997E+02  0.45594000000E+02  0.51100000000E-03 0. -1.
         23    2    1    2    0    0  0.00000000000E+00  0.00000000000E+00  0.00000000000E+00  0.91188000000E+02  0.91188000000E+02 0.  0.
    9900012    2    3    3    0    0  0.16908060429E+02 -0.25506801267E+02 -0.20476816791E+02  0.54367089579E+02  0.40000012313E+02 0.  0.
        -12    1    3    3    0    0 -0.16908060429E+02  0.25506801267E+02  0.20476816791E+02  0.36820910421E+02  0.00000000000E+00 0.  1.
         11    1    4    4    0    0 -0.56789726753E+01 -0.18695300376E+02 -0.10619268892E+02  0.22238117251E+02  0.51100000000E-03 0. -1.
        -11    1    4    4    0    0  0.88504647783E+01 -0.88425877398E+01  0.33640977951E+01  0.12955278421E+02  0.51100000000E-03 0.  1.
        -12    1    4    4    0    0  0.13736568326E+02  0.20310868493E+01 -0.13221645695E+02  0.19173693907E+02  0.00000000000E+00 0.  1.
</event>
<event>
 8    1  0.1290800E-006  0.9118800E+02  0.7816164E-02  0.1184000E+00
        -11   -1    0    0    0    0  0.00000000000E+00  0.00000000000E+00  0.45593999997E+02  0.45594000000E+02  0.51100000000E-03 0.  1.
         11   -1    0    0    0    0 -0.00000000000E+00 -0.00000000000E+00 -0.45593999997E+02  0.45594000000E+02  0.51100000000E-03 0. -1.
         23    2    1    2    0    0  0.00000000000E+00  0.17763568394E-14  0.00000000000E+00  0.91188000000E+02  0.91188000000E+02 0.  0.
    9900012    2    3    3    0    0  0.58754468743E+01  0.48656388951E+01  0.36022000218E+02  0.54367084510E+02  0.40000000758E+02 0.  0.
         12    1    3    3    0    0 -0.58754468743E+01 -0.48656388951E+01 -0.36022000218E+02  0.36820915490E+02  0.00000000000E+00 0. -1.
         11    1    4    4    0    0 -0.43798696034E+01  0.10693556336E+02  0.67462808334E+01  0.13380871055E+02  0.51100000000E-03 0. -1.
        -11    1    4    4    0    0  0.10873698759E+02 -0.41780310241E+01  0.34002082715E+02  0.35942104796E+02  0.51100000000E-03 0.  1.
        -12    1    4    4    0    0 -0.61838228098E+00 -0.16498864167E+01 -0.47263633306E+01  0.50441086592E+01  0.00000000000E+00 0.  1.
</event>
<event>
 8    1  0.1290800E-006  0.9118800E+02  0.7816164E-02  0.1184000E+00
        -11   -1    0    0    0    0  0.00000000000E+00  0.00000000000E+00  0.45593999997E+02  0.45594000000E+02  0.51100000000E-03 0.  1.
         11   -1    0    0    0    0 -0.00000000000E+00 -0.00000000000E+00 -0.45593999997E+02  0.45594000000E+02  0.51100000000E-03 0. -1.
         23    2    1    2    0    0 -0.35527136788E-14  0.00000000000E+00  0.00000000000E+00  0.91188000000E+02  0.91188000000E+02 0.  0.
    9900012    2    3    3    0    0 -0.30312031614E+02 -0.11100442401E+02  0.17712720118E+02  0.54367088332E+02  0.40000009470E+02 0.  0.
         12    1    3    3    0    0  0.30312031614E+02  0.11100442401E+02 -0.17712720118E+02  0.36820911668E+02  0.00000000000E+00 0. -1.
         11    1    4    4    0    0 -0.97660431021E+00 -0.82176973965E+01 -0.10019927266E+02  0.12995508808E+02  0.51100000000E-03 0. -1.
        -11    1    4    4    0    0 -0.14814927793E+02  0.40323124251E+00  0.19053433566E+02  0.24138724321E+02  0.51100000000E-03 0.  1.
         12    1    4    4    0    0 -0.14520499511E+02 -0.32859762470E+01  0.86792138189E+01  0.17232855204E+02  0.00000000000E+00 0. -1.
</event>
<event>
 8    1  0.1290800E-006  0.9118800E+02  0.7816164E-02  0.1184000E+00
        -11   -1    0    0    0    0  0.00000000000E+00  0.00000000000E+00  0.45593999997E+02  0.45594000000E+02  0.51100000000E-03 0.  1.
         11   -1    0    0    0    0 -0.00000000000E+00 -0.00000000000E+00 -0.45593999997E+02  0.45594000000E+02  0.51100000000E-03 0. -1.
         23    2    1    2    0    0 -0.88817841970E-15 -0.17763568394E-14  0.00000000000E+00  0.91188000000E+02  0.91188000000E+02 0.  0.
    9900012    2    3    3    0    0  0.71995370458E+01 -0.14950991461E+02  0.32869652937E+02  0.54367087959E+02  0.40000008620E+02 0.  0.
         12    1    3    3    0    0 -0.71995370458E+01  0.14950991461E+02 -0.32869652937E+02  0.36820912041E+02  0.00000000000E+00 0. -1.
         11    1    4    4    0    0  0.10215228637E+02 -0.18285715433E+02  0.10281457346E+02  0.23332952029E+02  0.51100000000E-03 0. -1.
        -11    1    4    4    0    0 -0.10058546759E+02 -0.18373193802E+01  0.49716424491E+01  0.11369579338E+02  0.51100000000E-03 0.  1.
        -12    1    4    4    0    0  0.70428551687E+01  0.51720433520E+01  0.17616553142E+02  0.19664556592E+02  0.00000000000E+00 0.  1.
</event>
<event>
 8    1  0.1290800E-006  0.9118800E+02  0.7816164E-02  0.1184000E+00
        -11   -1    0    0    0    0  0.00000000000E+00  0.00000000000E+00  0.45593999997E+02  0.45594000000E+02  0.51100000000E-03 0.  1.
         11   -1    0    0    0    0 -0.00000000000E+00 -0.00000000000E+00 -0.45593999997E+02  0.45594000000E+02  0.51100000000E-03 0. -1.
         23    2    1    2    0    0  0.00000000000E+00  0.00000000000E+00  0.17763568394E-14  0.91188000000E+02  0.91188000000E+02 0.  0.
    9900012    2    3    3    0    0  0.12771065121E+02 -0.33016109569E+02 -0.10129964230E+02  0.54367085146E+02  0.40000002208E+02 0.  0.
         12    1    3    3    0    0 -0.12771065121E+02  0.33016109569E+02  0.10129964230E+02  0.36820914854E+02  0.00000000000E+00 0. -1.
         11    1    4    4    0    0 -0.68008129284E-02  0.84656184769E-01  0.22393968658E+01  0.22410068060E+01  0.51100000000E-03 0. -1.
        -11    1    4    4    0    0  0.20099773802E+02 -0.26030797666E+02 -0.20797017537E+02  0.38911685555E+02  0.51100000000E-03 0.  1.
        -12    1    4    4    0    0 -0.73219078681E+01 -0.70699680876E+01  0.84276564419E+01  0.13214392786E+02  0.00000000000E+00 0.  1.
</event>
<event>
 8    1  0.1290800E-006  0.9118800E+02  0.7816164E-02  0.1184000E+00
        -11   -1    0    0    0    0  0.00000000000E+00  0.00000000000E+00  0.45593999997E+02  0.45594000000E+02  0.51100000000E-03 0. -1.
         11   -1    0    0    0    0 -0.00000000000E+00 -0.00000000000E+00 -0.45593999997E+02  0.45594000000E+02  0.51100000000E-03 0.  1.
         23    2    1    2    0    0  0.00000000000E+00  0.00000000000E+00  0.35527136788E-14  0.91188000000E+02  0.91188000000E+02 0.  0.
    9900012    2    3    3    0    0  0.12040850104E+02 -0.26755929230E+02 -0.22246752782E+02  0.54367084347E+02  0.40000000385E+02 0.  0.
         12    1    3    3    0    0 -0.12040850104E+02  0.26755929230E+02  0.22246752782E+02  0.36820915653E+02  0.00000000000E+00 0. -1.
         11    1    4    4    0    0 -0.18299591892E+01 -0.16371365271E+01 -0.10119029650E+02  0.10412671509E+02  0.51100000000E-03 0. -1.
        -11    1    4    4    0    0  0.90880717236E+01 -0.28586775700E+02 -0.18517657572E+02  0.35251956468E+02  0.51100000000E-03 0.  1.
        -12    1    4    4    0    0  0.47827375695E+01  0.34679829973E+01  0.63899344391E+01  0.87024563696E+01  0.00000000000E+00 0.  1.
</event>
<event>
 8    1  0.1290800E-006  0.9118800E+02  0.7816164E-02  0.1184000E+00
        -11   -1    0    0    0    0  0.00000000000E+00  0.00000000000E+00  0.45593999997E+02  0.45594000000E+02  0.51100000000E-03 0. -1.
         11   -1    0    0    0    0 -0.00000000000E+00 -0.00000000000E+00 -0.45593999997E+02  0.45594000000E+02  0.51100000000E-03 0.  1.
         23    2    1    2    0    0  0.00000000000E+00  0.17763568394E-14  0.44408920985E-15  0.91188000000E+02  0.91188000000E+02 0.  0.
    9900012    2    3    3    0    0 -0.34822901206E+02 -0.11667619459E+02  0.26479416040E+01  0.54367090357E+02  0.40000014086E+02 0.  0.
         12    1    3    3    0    0  0.34822901206E+02  0.11667619459E+02 -0.26479416040E+01  0.36820909643E+02  0.00000000000E+00 0. -1.
         11    1    4    4    0    0  0.24396996005E+01  0.46744701858E+01  0.81208098540E+01  0.96824768837E+01  0.51100000000E-03 0. -1.
        -11    1    4    4    0    0 -0.11008590710E+02  0.20429493454E+01  0.28835981560E+01  0.11561913771E+02  0.51100000000E-03 0.  1.
         12    1    4    4    0    0 -0.26254010096E+02 -0.18385038990E+02 -0.83564664059E+01  0.33122699702E+02  0.00000000000E+00 0. -1.
</event>
<event>
 8    1  0.1290800E-006  0.9118800E+02  0.7816164E-02  0.1184000E+00
        -11   -1    0    0    0    0  0.00000000000E+00  0.00000000000E+00  0.45593999997E+02  0.45594000000E+02  0.51100000000E-03 0. -1.
         11   -1    0    0    0    0 -0.00000000000E+00 -0.00000000000E+00 -0.45593999997E+02  0.45594000000E+02  0.51100000000E-03 0.  1.
         23    2    1    2    0    0  0.00000000000E+00  0.88817841970E-15  0.00000000000E+00  0.91188000000E+02  0.91188000000E+02 0.  0.
    9900012    2    3    3    0    0 -0.41691937678E+01 -0.26560758755E+01  0.36487600138E+02  0.54367056509E+02  0.39999936923E+02 0.  0.
        -12    1    3    3    0    0  0.41691937678E+01  0.26560758755E+01 -0.36487600138E+02  0.36820943491E+02  0.00000000000E+00 0.  1.
         11    1    4    4    0    0 -0.29208663424E+01 -0.79990538093E+01  0.20632529182E+02  0.22320788130E+02  0.51100000000E-03 0. -1.
        -11    1    4    4    0    0 -0.12367922069E+02 -0.30616916967E+01  0.12191205641E+02  0.17634198240E+02  0.51100000000E-03 0.  1.
        -12    1    4    4    0    0  0.11119594643E+02  0.84046696305E+01  0.36638653150E+01  0.14412070138E+02  0.00000000000E+00 0.  1.
</event>
<event>
 8    1  0.1290800E-006  0.9118800E+02  0.7816164E-02  0.1184000E+00
        -11   -1    0    0    0    0  0.00000000000E+00  0.00000000000E+00  0.45593999997E+02  0.45594000000E+02  0.51100000000E-03 0. -1.
         11   -1    0    0    0    0 -0.00000000000E+00 -0.00000000000E+00 -0.45593999997E+02  0.45594000000E+02  0.51100000000E-03 0.  1.
         23    2    1    2    0    0  0.71054273576E-14 -0.66613381478E-15  0.00000000000E+00  0.91188000000E+02  0.91188000000E+02 0.  0.
    9900012    2    3    3    0    0 -0.36566246083E+02  0.11214901009E+01  0.41751319011E+01  0.54367084490E+02  0.40000000711E+02 0.  0.
        -12    1    3    3    0    0  0.36566246083E+02 -0.11214901009E+01 -0.41751319011E+01  0.36820915510E+02  0.00000000000E+00 0.  1.
         11    1    4    4    0    0  0.45690685254E+00 -0.18482590615E+01 -0.40540559125E+01  0.44788609079E+01  0.51100000000E-03 0. -1.
        -11    1    4    4    0    0 -0.14446205585E+02 -0.12085869230E+02 -0.52993765558E+01  0.19566412113E+02  0.51100000000E-03 0.  1.
         12    1    4    4    0    0 -0.22576947351E+02  0.15055618392E+02  0.13528564369E+02  0.30321811469E+02  0.00000000000E+00 0. -1.
</event>
<event>
 8    1  0.1290800E-006  0.9118800E+02  0.7816164E-02  0.1184000E+00
        -11   -1    0    0    0    0  0.00000000000E+00  0.00000000000E+00  0.45593999997E+02  0.45594000000E+02  0.51100000000E-03 0. -1.
         11   -1    0    0    0    0 -0.00000000000E+00 -0.00000000000E+00 -0.45593999997E+02  0.45594000000E+02  0.51100000000E-03 0.  1.
         23    2    1    2    0    0  0.35527136788E-14  0.88817841970E-15  0.00000000000E+00  0.91188000000E+02  0.91188000000E+02 0.  0.
    9900012    2    3    3    0    0  0.21046603125E+02  0.41607119515E+01  0.29925060281E+02  0.54367078503E+02  0.39999987063E+02 0.  0.
        -12    1    3    3    0    0 -0.21046603125E+02 -0.41607119515E+01 -0.29925060281E+02  0.36820921497E+02  0.00000000000E+00 0.  1.
         11    1    4    4    0    0  0.12315948940E+02  0.72577851970E+01  0.19928900531E+02  0.24525886751E+02  0.51100000000E-03 0. -1.
        -11    1    4    4    0    0 -0.89942646615E+01  0.28015426894E+01  0.28774857339E+01  0.98501453112E+01  0.51100000000E-03 0.  1.
         12    1    4    4    0    0  0.17724918847E+02 -0.58986159349E+01  0.71186740161E+01  0.19991046441E+02  0.00000000000E+00 0. -1.
</event>
<event>
 8    1  0.1290800E-006  0.9118800E+02  0.7816164E-02  0.1184000E+00
        -11   -1    0    0    0    0  0.00000000000E+00  0.00000000000E+00  0.45593999997E+02  0.45594000000E+02  0.51100000000E-03 0. -1.
         11   -1    0    0    0    0 -0.00000000000E+00 -0.00000000000E+00 -0.45593999997E+02  0.45594000000E+02  0.51100000000E-03 0.  1.
         23    2    1    2    0    0 -0.88817841970E-15  0.71054273576E-14 -0.17763568394E-14  0.91188000000E+02  0.91188000000E+02 0.  0.
    9900012    2    3    3    0    0  0.73269860444E+01 -0.32410258811E+02  0.15864114888E+02  0.54367085537E+02  0.40000003099E+02 0.  0.
        -12    1    3    3    0    0 -0.73269860444E+01  0.32410258811E+02 -0.15864114888E+02  0.36820914463E+02  0.00000000000E+00 0.  1.
         11    1    4    4    0    0  0.17005196732E+02 -0.81498073449E+01  0.17658022849E+02  0.25834121755E+02  0.51100000000E-03 0. -1.
        -11    1    4    4    0    0 -0.31395087847E+01 -0.17724457553E+02  0.27874210517E+01  0.18214901244E+02  0.51100000000E-03 0.  1.
        -12    1    4    4    0    0 -0.65387019030E+01 -0.65359939131E+01 -0.45813290129E+01  0.10318062538E+02  0.00000000000E+00 0.  1.
</event>
<event>
 8    1  0.1290800E-006  0.9118800E+02  0.7816164E-02  0.1184000E+00
        -11   -1    0    0    0    0  0.00000000000E+00  0.00000000000E+00  0.45593999997E+02  0.45594000000E+02  0.51100000000E-03 0. -1.
         11   -1    0    0    0    0 -0.00000000000E+00 -0.00000000000E+00 -0.45593999997E+02  0.45594000000E+02  0.51100000000E-03 0.  1.
         23    2    1    2    0    0  0.88817841970E-15 -0.35527136788E-14 -0.35527136788E-14  0.91188000000E+02  0.91188000000E+02 0.  0.
    9900012    2    3    3    0    0 -0.75887378885E+01 -0.26105088199E+02 -0.24833747768E+02  0.54367087452E+02  0.40000007465E+02 0.  0.
         12    1    3    3    0    0  0.75887378885E+01  0.26105088199E+02  0.24833747768E+02  0.36820912548E+02  0.00000000000E+00 0. -1.
         11    1    4    4    0    0  0.68720952773E+01  0.69422392662E+01 -0.23017881159E+01  0.10035866097E+02  0.51100000000E-03 0. -1.
        -11    1    4    4    0    0  0.56212878482E+00 -0.10718145145E+02 -0.99004308317E+01  0.14601820265E+02  0.51100000000E-03 0.  1.
         12    1    4    4    0    0 -0.15022961951E+02 -0.22329182320E+02 -0.12631528821E+02  0.29729401091E+02  0.00000000000E+00 0. -1.
</event>
<event>
 8    1  0.1290800E-006  0.9118800E+02  0.7816164E-02  0.1184000E+00
        -11   -1    0    0    0    0  0.00000000000E+00  0.00000000000E+00  0.45593999997E+02  0.45594000000E+02  0.51100000000E-03 0. -1.
         11   -1    0    0    0    0 -0.00000000000E+00 -0.00000000000E+00 -0.45593999997E+02  0.45594000000E+02  0.51100000000E-03 0.  1.
         23    2    1    2    0    0  0.88817841970E-15  0.71054273576E-14  0.00000000000E+00  0.91188000000E+02  0.91188000000E+02 0.  0.
    9900012    2    3    3    0    0 -0.22783658075E+01  0.34560402200E+02  0.12496684596E+02  0.54367089135E+02  0.40000011301E+02 0.  0.
        -12    1    3    3    0    0  0.22783658075E+01 -0.34560402200E+02 -0.12496684596E+02  0.36820910865E+02  0.00000000000E+00 0.  1.
         11    1    4    4    0    0 -0.80870565615E+01  0.62613789951E+01  0.11635396689E+02  0.15491539856E+02  0.51100000000E-03 0. -1.
        -11    1    4    4    0    0  0.99966880253E+01  0.21213646067E+02  0.10928160702E+02  0.25872325901E+02  0.51100000000E-03 0.  1.
         12    1    4    4    0    0 -0.41879972712E+01  0.70853771382E+01 -0.10066872795E+02  0.13003223378E+02  0.00000000000E+00 0. -1.
</event>
<event>
 8    1  0.1290800E-006  0.9118800E+02  0.7816164E-02  0.1184000E+00
        -11   -1    0    0    0    0  0.00000000000E+00  0.00000000000E+00  0.45593999997E+02  0.45594000000E+02  0.51100000000E-03 0. -1.
         11   -1    0    0    0    0 -0.00000000000E+00 -0.00000000000E+00 -0.45593999997E+02  0.45594000000E+02  0.51100000000E-03 0.  1.
         23    2    1    2    0    0  0.88817841970E-15  0.35527136788E-14  0.00000000000E+00  0.91188000000E+02  0.91188000000E+02 0.  0.
    9900012    2    3    3    0    0 -0.46560933931E+01  0.28131524590E+02  0.23296315474E+02  0.54367079369E+02  0.39999989038E+02 0.  0.
        -12    1    3    3    0    0  0.46560933931E+01 -0.28131524590E+02 -0.23296315474E+02  0.36820920631E+02  0.00000000000E+00 0.  1.
         11    1    4    4    0    0 -0.95532142652E+01 -0.67735394231E+01  0.47515385218E+01  0.12638111319E+02  0.51100000000E-03 0. -1.
        -11    1    4    4    0    0  0.71790814147E+01  0.12577759892E+02  0.10495447100E+02  0.17885571390E+02  0.51100000000E-03 0.  1.
        -12    1    4    4    0    0 -0.22819605426E+01  0.22327304121E+02  0.80493298514E+01  0.23843396660E+02  0.00000000000E+00 0.  1.
</event>
<event>
 8    1  0.1290800E-006  0.9118800E+02  0.7816164E-02  0.1184000E+00
        -11   -1    0    0    0    0  0.00000000000E+00  0.00000000000E+00  0.45593999997E+02  0.45594000000E+02  0.51100000000E-03 0.  1.
         11   -1    0    0    0    0 -0.00000000000E+00 -0.00000000000E+00 -0.45593999997E+02  0.45594000000E+02  0.51100000000E-03 0. -1.
         23    2    1    2    0    0  0.17763568394E-14 -0.35527136788E-14  0.00000000000E+00  0.91188000000E+02  0.91188000000E+02 0.  0.
    9900012    2    3    3    0    0  0.14082560778E+02 -0.18291572045E+02  0.28685869918E+02  0.54367092096E+02  0.40000018051E+02 0.  0.
         12    1    3    3    0    0 -0.14082560778E+02  0.18291572045E+02 -0.28685869918E+02  0.36820907904E+02  0.00000000000E+00 0. -1.
         11    1    4    4    0    0 -0.31020418152E+01  0.18451749302E+01  0.18242591987E+01  0.40441631807E+01  0.51100000000E-03 0. -1.
        -11    1    4    4    0    0  0.18165735273E+02 -0.20201763800E+02  0.40243776482E+01  0.27464537396E+02  0.51100000000E-03 0.  1.
        -12    1    4    4    0    0 -0.98113268015E+00  0.65016825001E-01  0.22837233071E+02  0.22858391519E+02  0.00000000000E+00 0.  1.
</event>
<event>
 8    1  0.1290800E-006  0.9118800E+02  0.7816164E-02  0.1184000E+00
        -11   -1    0    0    0    0  0.00000000000E+00  0.00000000000E+00  0.45593999997E+02  0.45594000000E+02  0.51100000000E-03 0.  1.
         11   -1    0    0    0    0 -0.00000000000E+00 -0.00000000000E+00 -0.45593999997E+02  0.45594000000E+02  0.51100000000E-03 0. -1.
         23    2    1    2    0    0  0.00000000000E+00  0.00000000000E+00  0.00000000000E+00  0.91188000000E+02  0.91188000000E+02 0.  0.
    9900012    2    3    3    0    0 -0.93103974989E+01 -0.26799741187E+02 -0.23470329377E+02  0.54367272273E+02  0.40000428798E+02 0.  0.
        -12    1    3    3    0    0  0.93103974989E+01  0.26799741187E+02  0.23470329377E+02  0.36820727727E+02  0.00000000000E+00 0.  1.
         11    1    4    4    0    0 -0.11510975033E+02  0.61565817211E+00 -0.35063388162E+01  0.12048900088E+02  0.51100000000E-03 0. -1.
        -11    1    4    4    0    0 -0.75613539758E+01 -0.56559580073E+01  0.22712908682E+01  0.97119873042E+01  0.51100000000E-03 0.  1.
         12    1    4    4    0    0  0.97619315094E+01 -0.21759441352E+02 -0.22235281429E+02  0.32606384880E+02  0.00000000000E+00 0. -1.
</event>
<event>
 8    1  0.1290800E-006  0.9118800E+02  0.7816164E-02  0.1184000E+00
        -11   -1    0    0    0    0  0.00000000000E+00  0.00000000000E+00  0.45593999997E+02  0.45594000000E+02  0.51100000000E-03 0.  1.
         11   -1    0    0    0    0 -0.00000000000E+00 -0.00000000000E+00 -0.45593999997E+02  0.45594000000E+02  0.51100000000E-03 0. -1.
         23    2    1    2    0    0  0.00000000000E+00  0.35527136788E-14  0.00000000000E+00  0.91188000000E+02  0.91188000000E+02 0.  0.
    9900012    2    3    3    0    0  0.10881067349E+02 -0.30053148282E+02 -0.18280874173E+02  0.54367085985E+02  0.40000004121E+02 0.  0.
        -12    1    3    3    0    0 -0.10881067349E+02  0.30053148282E+02  0.18280874173E+02  0.36820914015E+02  0.00000000000E+00 0.  1.
         11    1    4    4    0    0 -0.84878539305E+01  0.28911715451E+01 -0.46797889070E+01  0.10114492658E+02  0.51100000000E-03 0. -1.
        -11    1    4    4    0    0  0.45433648137E+01 -0.18034642184E+02  0.10463583837E+01  0.18627542744E+02  0.51100000000E-03 0.  1.
        -12    1    4    4    0    0  0.14825556466E+02 -0.14909677643E+02 -0.14647443650E+02  0.25625050584E+02  0.00000000000E+00 0.  1.
</event>
<event>
 8    1  0.1290800E-006  0.9118800E+02  0.7816164E-02  0.1184000E+00
        -11   -1    0    0    0    0  0.00000000000E+00  0.00000000000E+00  0.45593999997E+02  0.45594000000E+02  0.51100000000E-03 0.  1.
         11   -1    0    0    0    0 -0.00000000000E+00 -0.00000000000E+00 -0.45593999997E+02  0.45594000000E+02  0.51100000000E-03 0. -1.
         23    2    1    2    0    0 -0.22204460493E-15 -0.35527136788E-14 -0.35527136788E-14  0.91188000000E+02  0.91188000000E+02 0.  0.
    9900012    2    3    3    0    0  0.96236237606E+00 -0.21953316474E+02 -0.29544991843E+02  0.54367071324E+02  0.39999970698E+02 0.  0.
        -12    1    3    3    0    0 -0.96236237606E+00  0.21953316474E+02  0.29544991843E+02  0.36820928676E+02  0.00000000000E+00 0.  1.
         11    1    4    4    0    0 -0.25791016714E+01  0.60282623447E+01 -0.43699328268E+01  0.78795955162E+01  0.51100000000E-03 0. -1.
        -11    1    4    4    0    0 -0.89885219667E+01 -0.11819792870E+01 -0.31227461188E+01  0.95886467118E+01  0.51100000000E-03 0.  1.
         12    1    4    4    0    0  0.12529986014E+02 -0.26799599531E+02 -0.22052312898E+02  0.36898829096E+02  0.00000000000E+00 0. -1.
</event>
<event>
 8    1  0.1290800E-006  0.9118800E+02  0.7816164E-02  0.1184000E+00
        -11   -1    0    0    0    0  0.00000000000E+00  0.00000000000E+00  0.45593999997E+02  0.45594000000E+02  0.51100000000E-03 0.  1.
         11   -1    0    0    0    0 -0.00000000000E+00 -0.00000000000E+00 -0.45593999997E+02  0.45594000000E+02  0.51100000000E-03 0. -1.
         23    2    1    2    0    0  0.00000000000E+00  0.00000000000E+00  0.00000000000E+00  0.91188000000E+02  0.91188000000E+02 0.  0.
    9900012    2    3    3    0    0 -0.28477025030E+02 -0.21079699516E+02  0.10024290512E+02  0.54367067277E+02  0.39999961472E+02 0.  0.
         12    1    3    3    0    0  0.28477025030E+02  0.21079699516E+02 -0.10024290512E+02  0.36820932723E+02  0.00000000000E+00 0. -1.
         11    1    4    4    0    0  0.48072880645E+01  0.35124658161E+01 -0.30396546466E+01  0.66848287395E+01  0.51100000000E-03 0. -1.
        -11    1    4    4    0    0  0.12756421023E+00 -0.64208578676E+01  0.64050358195E+01  0.90701804003E+01  0.51100000000E-03 0.  1.
        -12    1    4    4    0    0 -0.33411877305E+02 -0.18171307465E+02  0.66589093392E+01  0.38612058138E+02  0.00000000000E+00 0.  1.
</event>
<event>
 8    1  0.1290800E-006  0.9118800E+02  0.7816164E-02  0.1184000E+00
        -11   -1    0    0    0    0  0.00000000000E+00  0.00000000000E+00  0.45593999997E+02  0.45594000000E+02  0.51100000000E-03 0. -1.
         11   -1    0    0    0    0 -0.00000000000E+00 -0.00000000000E+00 -0.45593999997E+02  0.45594000000E+02  0.51100000000E-03 0.  1.
         23    2    1    2    0    0 -0.88817841970E-15  0.00000000000E+00  0.17763568394E-14  0.91188000000E+02  0.91188000000E+02 0.  0.
    9900012    2    3    3    0    0 -0.28943852547E+01  0.36515207493E+02 -0.37479938756E+01  0.54367010031E+02  0.39999830966E+02 0.  0.
        -12    1    3    3    0    0  0.28943852547E+01 -0.36515207493E+02  0.37479938756E+01  0.36820989969E+02  0.00000000000E+00 0.  1.
         11    1    4    4    0    0  0.10543577405E+02  0.27187477237E+02  0.97607839786E+01  0.30750591005E+02  0.51100000000E-03 0. -1.
        -11    1    4    4    0    0  0.17495507784E+01  0.72139484548E+00 -0.16715847637E+01  0.25249820460E+01  0.51100000000E-03 0.  1.
         12    1    4    4    0    0 -0.15187513438E+02  0.86063354098E+01 -0.11837193090E+02  0.21091436980E+02  0.00000000000E+00 0. -1.
</event>
<event>
 8    1  0.1290800E-006  0.9118800E+02  0.7816164E-02  0.1184000E+00
        -11   -1    0    0    0    0  0.00000000000E+00  0.00000000000E+00  0.45593999997E+02  0.45594000000E+02  0.51100000000E-03 0. -1.
         11   -1    0    0    0    0 -0.00000000000E+00 -0.00000000000E+00 -0.45593999997E+02  0.45594000000E+02  0.51100000000E-03 0.  1.
         23    2    1    2    0    0 -0.88817841970E-15  0.00000000000E+00 -0.88817841970E-15  0.91188000000E+02  0.91188000000E+02 0.  0.
    9900012    2    3    3    0    0  0.32591813773E+01 -0.36295506711E+02 -0.52719917995E+01  0.54367082464E+02  0.39999996094E+02 0.  0.
         12    1    3    3    0    0 -0.32591813773E+01  0.36295506711E+02  0.52719917995E+01  0.36820917536E+02  0.00000000000E+00 0. -1.
         11    1    4    4    0    0 -0.46594304518E+01 -0.34078862532E+02 -0.18783298617E+01  0.34447166603E+02  0.51100000000E-03 0. -1.
        -11    1    4    4    0    0 -0.26217327143E+01 -0.32576665614E+01  0.49187005842E+01  0.64559654235E+01  0.51100000000E-03 0.  1.
         12    1    4    4    0    0  0.10540344543E+02  0.10410223830E+01 -0.83123625221E+01  0.13463950438E+02  0.00000000000E+00 0. -1.
</event>
<event>
 8    1  0.1290800E-006  0.9118800E+02  0.7816164E-02  0.1184000E+00
        -11   -1    0    0    0    0  0.00000000000E+00  0.00000000000E+00  0.45593999997E+02  0.45594000000E+02  0.51100000000E-03 0. -1.
         11   -1    0    0    0    0 -0.00000000000E+00 -0.00000000000E+00 -0.45593999997E+02  0.45594000000E+02  0.51100000000E-03 0.  1.
         23    2    1    2    0    0  0.00000000000E+00  0.00000000000E+00  0.17763568394E-14  0.91188000000E+02  0.91188000000E+02 0.  0.
    9900012    2    3    3    0    0  0.26545521173E+02  0.21568195180E+02  0.13635619300E+02  0.54367056892E+02  0.39999937797E+02 0.  0.
        -12    1    3    3    0    0 -0.26545521173E+02 -0.21568195180E+02 -0.13635619300E+02  0.36820943108E+02  0.00000000000E+00 0.  1.
         11    1    4    4    0    0  0.23869447489E+02  0.30472324802E+02  0.40609103354E+01  0.38920484263E+02  0.51100000000E-03 0. -1.
        -11    1    4    4    0    0  0.26788810455E+01 -0.70021416459E+00  0.57770054571E+01  0.64062856512E+01  0.51100000000E-03 0.  1.
         12    1    4    4    0    0 -0.28073617375E-02 -0.82039154573E+01  0.37977035072E+01  0.90402869778E+01  0.00000000000E+00 0. -1.
</event>
<event>
 8    1  0.1290800E-006  0.9118800E+02  0.7816164E-02  0.1184000E+00
        -11   -1    0    0    0    0  0.00000000000E+00  0.00000000000E+00  0.45593999997E+02  0.45594000000E+02  0.51100000000E-03 0.  1.
         11   -1    0    0    0    0 -0.00000000000E+00 -0.00000000000E+00 -0.45593999997E+02  0.45594000000E+02  0.51100000000E-03 0. -1.
         23    2    1    2    0    0  0.00000000000E+00  0.00000000000E+00  0.17763568394E-14  0.91188000000E+02  0.91188000000E+02 0.  0.
    9900012    2    3    3    0    0  0.32276486952E+02 -0.14124842433E+02 -0.10700273639E+02  0.54367100504E+02  0.40000037218E+02 0.  0.
         12    1    3    3    0    0 -0.32276486952E+02  0.14124842433E+02  0.10700273639E+02  0.36820899496E+02  0.00000000000E+00 0. -1.
         11    1    4    4    0    0  0.29830339094E+01  0.46200684966E+01 -0.66769338385E+01  0.86501427712E+01  0.51100000000E-03 0. -1.
        -11    1    4    4    0    0  0.11472184283E+02 -0.20053321855E+02 -0.12131245022E+02  0.26094325737E+02  0.51100000000E-03 0.  1.
         12    1    4    4    0    0  0.17821268760E+02  0.13084109255E+01  0.81079052205E+01  0.19622631995E+02  0.00000000000E+00 0. -1.
</event>
<event>
 8    1  0.1290800E-006  0.9118800E+02  0.7816164E-02  0.1184000E+00
        -11   -1    0    0    0    0  0.00000000000E+00  0.00000000000E+00  0.45593999997E+02  0.45594000000E+02  0.51100000000E-03 0.  1.
         11   -1    0    0    0    0 -0.00000000000E+00 -0.00000000000E+00 -0.45593999997E+02  0.45594000000E+02  0.51100000000E-03 0. -1.
         23    2    1    2    0    0  0.00000000000E+00  0.00000000000E+00  0.35527136788E-14  0.91188000000E+02  0.91188000000E+02 0.  0.
    9900012    2    3    3    0    0  0.27648694083E+02  0.10868633122E+02 -0.21753217948E+02  0.54367082555E+02  0.39999996300E+02 0.  0.
        -12    1    3    3    0    0 -0.27648694083E+02 -0.10868633122E+02  0.21753217948E+02  0.36820917445E+02  0.00000000000E+00 0.  1.
         11    1    4    4    0    0  0.17113763434E+01  0.29274618784E+01  0.28162999989E+01  0.44079913774E+01  0.51100000000E-03 0. -1.
        -11    1    4    4    0    0  0.27125297332E+02  0.18256286098E+02 -0.21497953423E+02  0.39131007386E+02  0.51100000000E-03 0.  1.
         12    1    4    4    0    0 -0.11879795923E+01 -0.10315114854E+02 -0.30715645232E+01  0.10828083791E+02  0.00000000000E+00 0. -1.
</event>
<event>
 8    1  0.1290800E-006  0.9118800E+02  0.7816164E-02  0.1184000E+00
        -11   -1    0    0    0    0  0.00000000000E+00  0.00000000000E+00  0.45593999997E+02  0.45594000000E+02  0.51100000000E-03 0.  1.
         11   -1    0    0    0    0 -0.00000000000E+00 -0.00000000000E+00 -0.45593999997E+02  0.45594000000E+02  0.51100000000E-03 0. -1.
         23    2    1    2    0    0 -0.35527136788E-14  0.00000000000E+00  0.00000000000E+00  0.91188000000E+02  0.91188000000E+02 0.  0.
    9900012    2    3    3    0    0  0.20978499259E+02 -0.28765088946E+02 -0.93942294314E+01  0.54367091268E+02  0.40000016163E+02 0.  0.
        -12    1    3    3    0    0 -0.20978499259E+02  0.28765088946E+02  0.93942294314E+01  0.36820908732E+02  0.00000000000E+00 0.  1.
         11    1    4    4    0    0  0.54226585341E+01 -0.66638657432E+01 -0.10907800382E+02  0.13884971792E+02  0.51100000000E-03 0. -1.
        -11    1    4    4    0    0 -0.70024973621E+01 -0.60006739194E+01 -0.69010492065E+01  0.11518139485E+02  0.51100000000E-03 0.  1.
        -12    1    4    4    0    0  0.22558338087E+02 -0.16100549284E+02  0.84146201575E+01  0.28963979990E+02  0.00000000000E+00 0.  1.
</event>
<event>
 8    1  0.1290800E-006  0.9118800E+02  0.7816164E-02  0.1184000E+00
        -11   -1    0    0    0    0  0.00000000000E+00  0.00000000000E+00  0.45593999997E+02  0.45594000000E+02  0.51100000000E-03 0. -1.
         11   -1    0    0    0    0 -0.00000000000E+00 -0.00000000000E+00 -0.45593999997E+02  0.45594000000E+02  0.51100000000E-03 0.  1.
         23    2    1    2    0    0  0.35527136788E-14 -0.35527136788E-14  0.35527136788E-14  0.91188000000E+02  0.91188000000E+02 0.  0.
    9900012    2    3    3    0    0  0.28823309518E+02 -0.15640438288E+02  0.16744358865E+02  0.54367081554E+02  0.39999994018E+02 0.  0.
        -12    1    3    3    0    0 -0.28823309518E+02  0.15640438288E+02 -0.16744358865E+02  0.36820918446E+02  0.00000000000E+00 0.  1.
         11    1    4    4    0    0  0.13985678691E+02 -0.19204905187E+02  0.15147605997E+02  0.28175832896E+02  0.51100000000E-03 0. -1.
        -11    1    4    4    0    0 -0.19777909492E+01 -0.63236967740E+01  0.98316464379E-01  0.66264971377E+01  0.51100000000E-03 0.  1.
        -12    1    4    4    0    0  0.16815421777E+02  0.98881636732E+01  0.14984364029E+01  0.19564751520E+02  0.00000000000E+00 0.  1.
</event>
<event>
 8    1  0.1290800E-006  0.9118800E+02  0.7816164E-02  0.1184000E+00
        -11   -1    0    0    0    0  0.00000000000E+00  0.00000000000E+00  0.45593999997E+02  0.45594000000E+02  0.51100000000E-03 0.  1.
         11   -1    0    0    0    0 -0.00000000000E+00 -0.00000000000E+00 -0.45593999997E+02  0.45594000000E+02  0.51100000000E-03 0. -1.
         23    2    1    2    0    0  0.00000000000E+00  0.71054273576E-14  0.00000000000E+00  0.91188000000E+02  0.91188000000E+02 0.  0.
    9900012    2    3    3    0    0 -0.11243421725E+02 -0.33287869040E+02  0.11012827246E+02  0.54367093965E+02  0.40000022312E+02 0.  0.
         12    1    3    3    0    0  0.11243421725E+02  0.33287869040E+02 -0.11012827246E+02  0.36820906035E+02  0.00000000000E+00 0. -1.
         11    1    4    4    0    0  0.48974846244E+00 -0.16834384608E+02 -0.12542297628E+02  0.20998704454E+02  0.51100000000E-03 0. -1.
        -11    1    4    4    0    0 -0.10792552315E+02 -0.90659793578E+01  0.82104492281E+01  0.16312039847E+02  0.51100000000E-03 0.  1.
        -12    1    4    4    0    0 -0.94061787271E+00 -0.73875050740E+01  0.15344675645E+02  0.17056349664E+02  0.00000000000E+00 0.  1.
</event>
<event>
 8    1  0.1290800E-006  0.9118800E+02  0.7816164E-02  0.1184000E+00
        -11   -1    0    0    0    0  0.00000000000E+00  0.00000000000E+00  0.45593999997E+02  0.45594000000E+02  0.51100000000E-03 0. -1.
         11   -1    0    0    0    0 -0.00000000000E+00 -0.00000000000E+00 -0.45593999997E+02  0.45594000000E+02  0.51100000000E-03 0.  1.
         23    2    1    2    0    0  0.71054273576E-14  0.00000000000E+00  0.00000000000E+00  0.91188000000E+02  0.91188000000E+02 0.  0.
    9900012    2    3    3    0    0  0.27612170529E+02  0.91813368876E+01 -0.22562153630E+02  0.54367086312E+02  0.40000004866E+02 0.  0.
         12    1    3    3    0    0 -0.27612170529E+02 -0.91813368876E+01  0.22562153630E+02  0.36820913688E+02  0.00000000000E+00 0. -1.
         11    1    4    4    0    0  0.18634142976E+02  0.81917872327E+01 -0.51604171936E+01  0.20999203994E+02  0.51100000000E-03 0. -1.
        -11    1    4    4    0    0  0.69043094742E+01  0.11724481958E+02 -0.17827014545E+02  0.22426221580E+02  0.51100000000E-03 0.  1.
        -12    1    4    4    0    0  0.20737180788E+01 -0.10734932303E+02  0.42527810913E+00  0.10941660738E+02  0.00000000000E+00 0.  1.
</event>
<event>
 8    1  0.1290800E-006  0.9118800E+02  0.7816164E-02  0.1184000E+00
        -11   -1    0    0    0    0  0.00000000000E+00  0.00000000000E+00  0.45593999997E+02  0.45594000000E+02  0.51100000000E-03 0. -1.
         11   -1    0    0    0    0 -0.00000000000E+00 -0.00000000000E+00 -0.45593999997E+02  0.45594000000E+02  0.51100000000E-03 0.  1.
         23    2    1    2    0    0  0.00000000000E+00  0.66613381478E-15  0.17763568394E-14  0.91188000000E+02  0.91188000000E+02 0.  0.
    9900012    2    3    3    0    0 -0.33935837651E+02  0.56232586274E+00  0.14276567411E+02  0.54367113746E+02  0.40000067408E+02 0.  0.
        -12    1    3    3    0    0  0.33935837651E+02 -0.56232586274E+00 -0.14276567411E+02  0.36820886254E+02  0.00000000000E+00 0.  1.
         11    1    4    4    0    0 -0.24243071091E+02  0.33757415272E+01  0.24561394097E+02  0.34675412139E+02  0.51100000000E-03 0. -1.
        -11    1    4    4    0    0 -0.14244393466E+01  0.49130227339E+01 -0.13982407924E+01  0.53030083359E+01  0.51100000000E-03 0.  1.
         12    1    4    4    0    0 -0.82683272138E+01 -0.77264383983E+01 -0.88865858929E+01  0.14388693272E+02  0.00000000000E+00 0. -1.
</event>
<event>
 8    1  0.1290800E-006  0.9118800E+02  0.7816164E-02  0.1184000E+00
        -11   -1    0    0    0    0  0.00000000000E+00  0.00000000000E+00  0.45593999997E+02  0.45594000000E+02  0.51100000000E-03 0. -1.
         11   -1    0    0    0    0 -0.00000000000E+00 -0.00000000000E+00 -0.45593999997E+02  0.45594000000E+02  0.51100000000E-03 0.  1.
         23    2    1    2    0    0  0.00000000000E+00  0.00000000000E+00  0.00000000000E+00  0.91188000000E+02  0.91188000000E+02 0.  0.
    9900012    2    3    3    0    0 -0.21664976135E+02 -0.27358417957E+02 -0.11744185698E+02  0.54367080378E+02  0.39999991339E+02 0.  0.
         12    1    3    3    0    0  0.21664976135E+02  0.27358417957E+02  0.11744185698E+02  0.36820919622E+02  0.00000000000E+00 0. -1.
         11    1    4    4    0    0 -0.13906732763E+02 -0.28104362583E+02 -0.45489493107E+01  0.31685096693E+02  0.51100000000E-03 0. -1.
        -11    1    4    4    0    0 -0.70601180630E+01 -0.43968788754E+00  0.60848516782E+01  0.93308098635E+01  0.51100000000E-03 0.  1.
        -12    1    4    4    0    0 -0.69812530978E+00  0.11856325134E+01 -0.13280088065E+02  0.13351173822E+02  0.00000000000E+00 0.  1.
</event>
<event>
 8    1  0.1290800E-006  0.9118800E+02  0.7816164E-02  0.1184000E+00
        -11   -1    0    0    0    0  0.00000000000E+00  0.00000000000E+00  0.45593999997E+02  0.45594000000E+02  0.51100000000E-03 0.  1.
         11   -1    0    0    0    0 -0.00000000000E+00 -0.00000000000E+00 -0.45593999997E+02  0.45594000000E+02  0.51100000000E-03 0. -1.
         23    2    1    2    0    0  0.00000000000E+00 -0.35527136788E-14  0.00000000000E+00  0.91188000000E+02  0.91188000000E+02 0.  0.
    9900012    2    3    3    0    0 -0.26541221231E+02 -0.96336339203E+01 -0.23633359266E+02  0.54367095650E+02  0.40000026153E+02 0.  0.
        -12    1    3    3    0    0  0.26541221231E+02  0.96336339203E+01  0.23633359266E+02  0.36820904350E+02  0.00000000000E+00 0.  1.
         11    1    4    4    0    0 -0.19589760248E+02  0.91300185359E+01 -0.80819445613E+01  0.23074526500E+02  0.51100000000E-03 0. -1.
        -11    1    4    4    0    0  0.60135322587E+01 -0.30041669808E+01 -0.32766101568E+01  0.74782192971E+01  0.51100000000E-03 0.  1.
         12    1    4    4    0    0 -0.12964993242E+02 -0.15759485475E+02 -0.12274804548E+02  0.23814349853E+02  0.00000000000E+00 0. -1.
</event>
<event>
 8    1  0.1290800E-006  0.9118800E+02  0.7816164E-02  0.1184000E+00
        -11   -1    0    0    0    0  0.00000000000E+00  0.00000000000E+00  0.45593999997E+02  0.45594000000E+02  0.51100000000E-03 0. -1.
         11   -1    0    0    0    0 -0.00000000000E+00 -0.00000000000E+00 -0.45593999997E+02  0.45594000000E+02  0.51100000000E-03 0.  1.
         23    2    1    2    0    0  0.00000000000E+00 -0.88817841970E-15  0.00000000000E+00  0.91188000000E+02  0.91188000000E+02 0.  0.
    9900012    2    3    3    0    0 -0.21403109325E+02 -0.49195656980E+01 -0.29554459872E+02  0.54367335778E+02  0.40000573569E+02 0.  0.
         12    1    3    3    0    0  0.21403109325E+02  0.49195656980E+01  0.29554459872E+02  0.36820664222E+02  0.00000000000E+00 0. -1.
         11    1    4    4    0    0 -0.15301276660E+02 -0.13233677629E+02 -0.23879877914E+02  0.31297090288E+02  0.51100000000E-03 0. -1.
        -11    1    4    4    0    0 -0.10420310986E+02  0.98850732075E+01 -0.93905827616E+01  0.17160437006E+02  0.51100000000E-03 0.  1.
         12    1    4    4    0    0  0.43184783214E+01 -0.15709612763E+01  0.37160008043E+01  0.59098084843E+01  0.00000000000E+00 0. -1.
</event>
<event>
 8    1  0.1290800E-006  0.9118800E+02  0.7816164E-02  0.1184000E+00
        -11   -1    0    0    0    0  0.00000000000E+00  0.00000000000E+00  0.45593999997E+02  0.45594000000E+02  0.51100000000E-03 0.  1.
         11   -1    0    0    0    0 -0.00000000000E+00 -0.00000000000E+00 -0.45593999997E+02  0.45594000000E+02  0.51100000000E-03 0. -1.
         23    2    1    2    0    0  0.00000000000E+00  0.00000000000E+00  0.35527136788E-14  0.91188000000E+02  0.91188000000E+02 0.  0.
    9900012    2    3    3    0    0 -0.30931233110E+02  0.15743103340E+02  0.12296085169E+02  0.54367079385E+02  0.39999989074E+02 0.  0.
         12    1    3    3    0    0  0.30931233110E+02 -0.15743103340E+02 -0.12296085169E+02  0.36820920615E+02  0.00000000000E+00 0. -1.
         11    1    4    4    0    0 -0.18944853092E+02  0.97953571152E+01 -0.98357039030E+00  0.21350032568E+02  0.51100000000E-03 0. -1.
        -11    1    4    4    0    0 -0.20670607966E+02  0.31351478185E+01  0.10927481203E+02  0.23590528422E+02  0.51100000000E-03 0.  1.
         12    1    4    4    0    0  0.86842279478E+01  0.28125984068E+01  0.23521743556E+01  0.94265183948E+01  0.00000000000E+00 0. -1.
</event>
<event>
 8    1  0.1290800E-006  0.9118800E+02  0.7816164E-02  0.1184000E+00
        -11   -1    0    0    0    0  0.00000000000E+00  0.00000000000E+00  0.45593999997E+02  0.45594000000E+02  0.51100000000E-03 0.  1.
         11   -1    0    0    0    0 -0.00000000000E+00 -0.00000000000E+00 -0.45593999997E+02  0.45594000000E+02  0.51100000000E-03 0. -1.
         23    2    1    2    0    0  0.00000000000E+00  0.00000000000E+00  0.00000000000E+00  0.91188000000E+02  0.91188000000E+02 0.  0.
    9900012    2    3    3    0    0 -0.33078993336E+02  0.93438428625E+01 -0.13200045397E+02  0.54367239578E+02  0.40000354265E+02 0.  0.
        -12    1    3    3    0    0  0.33078993336E+02 -0.93438428625E+01  0.13200045397E+02  0.36820760422E+02  0.00000000000E+00 0.  1.
         11    1    4    4    0    0 -0.37776429430E+00  0.92928497814E+01 -0.18666687506E+02  0.20855334705E+02  0.51100000000E-03 0. -1.
        -11    1    4    4    0    0 -0.25468723415E+02  0.11261790272E+00  0.62849907071E+01  0.26232988080E+02  0.51100000000E-03 0.  1.
         12    1    4    4    0    0 -0.72325056265E+01 -0.61624821621E-01 -0.81834859793E+00  0.72789167933E+01  0.00000000000E+00 0. -1.
</event>
<event>
 8    1  0.1290800E-006  0.9118800E+02  0.7816164E-02  0.1184000E+00
        -11   -1    0    0    0    0  0.00000000000E+00  0.00000000000E+00  0.45593999997E+02  0.45594000000E+02  0.51100000000E-03 0.  1.
         11   -1    0    0    0    0 -0.00000000000E+00 -0.00000000000E+00 -0.45593999997E+02  0.45594000000E+02  0.51100000000E-03 0. -1.
         23    2    1    2    0    0  0.17763568394E-14 -0.35527136788E-14 -0.35527136788E-14  0.91188000000E+02  0.91188000000E+02 0.  0.
    9900012    2    3    3    0    0  0.15746259044E+02  0.26034334099E+02 -0.20737638660E+02  0.54367070041E+02  0.39999967772E+02 0.  0.
         12    1    3    3    0    0 -0.15746259044E+02 -0.26034334099E+02  0.20737638660E+02  0.36820929959E+02  0.00000000000E+00 0. -1.
         11    1    4    4    0    0  0.11656874009E+02 -0.16931527016E+01 -0.88805615471E+01  0.14751740622E+02  0.51100000000E-03 0. -1.
        -11    1    4    4    0    0  0.74150455897E+00  0.16846772916E+02  0.64523204929E+01  0.18055360055E+02  0.51100000000E-03 0.  1.
        -12    1    4    4    0    0  0.33478804765E+01  0.10880713885E+02 -0.18309397605E+02  0.21559969365E+02  0.00000000000E+00 0.  1.
</event>
<event>
 8    1  0.1290800E-006  0.9118800E+02  0.7816164E-02  0.1184000E+00
        -11   -1    0    0    0    0  0.00000000000E+00  0.00000000000E+00  0.45593999997E+02  0.45594000000E+02  0.51100000000E-03 0. -1.
         11   -1    0    0    0    0 -0.00000000000E+00 -0.00000000000E+00 -0.45593999997E+02  0.45594000000E+02  0.51100000000E-03 0.  1.
         23    2    1    2    0    0  0.35527136788E-14  0.00000000000E+00  0.00000000000E+00  0.91188000000E+02  0.91188000000E+02 0.  0.
    9900012    2    3    3    0    0  0.24894611805E+02  0.18452241553E+02  0.19888515366E+02  0.54367082593E+02  0.39999996387E+02 0.  0.
         12    1    3    3    0    0 -0.24894611805E+02 -0.18452241553E+02 -0.19888515366E+02  0.36820917407E+02  0.00000000000E+00 0. -1.
         11    1    4    4    0    0  0.34610149630E+01 -0.18930028227E+01  0.48030552099E+01  0.62154182379E+01  0.51100000000E-03 0. -1.
        -11    1    4    4    0    0  0.29196791056E+02  0.73981418024E+01  0.66001622786E+01  0.30834189668E+02  0.51100000000E-03 0.  1.
        -12    1    4    4    0    0 -0.77631942149E+01  0.12947102573E+02  0.84852978780E+01  0.17317474687E+02  0.00000000000E+00 0.  1.
</event>
<event>
 8    1  0.1290800E-006  0.9118800E+02  0.7816164E-02  0.1184000E+00
        -11   -1    0    0    0    0  0.00000000000E+00  0.00000000000E+00  0.45593999997E+02  0.45594000000E+02  0.51100000000E-03 0. -1.
         11   -1    0    0    0    0 -0.00000000000E+00 -0.00000000000E+00 -0.45593999997E+02  0.45594000000E+02  0.51100000000E-03 0.  1.
         23    2    1    2    0    0  0.00000000000E+00 -0.17763568394E-14 -0.35527136788E-14  0.91188000000E+02  0.91188000000E+02 0.  0.
    9900012    2    3    3    0    0  0.17592983024E+02 -0.66870861210E+01 -0.31647272621E+02  0.54367081532E+02  0.39999993970E+02 0.  0.
         12    1    3    3    0    0 -0.17592983024E+02  0.66870861210E+01  0.31647272621E+02  0.36820918468E+02  0.00000000000E+00 0. -1.
         11    1    4    4    0    0  0.85508028245E+01  0.57073756101E+00  0.50518572868E+01  0.99480265689E+01  0.51100000000E-03 0. -1.
        -11    1    4    4    0    0  0.14382247519E+02 -0.50698853423E+00 -0.13730411782E+02  0.19890457236E+02  0.51100000000E-03 0.  1.
        -12    1    4    4    0    0 -0.53400673199E+01 -0.67508351478E+01 -0.22968718125E+02  0.24528597728E+02  0.00000000000E+00 0.  1.
</event>
<event>
 8    1  0.1290800E-006  0.9118800E+02  0.7816164E-02  0.1184000E+00
        -11   -1    0    0    0    0  0.00000000000E+00  0.00000000000E+00  0.45593999997E+02  0.45594000000E+02  0.51100000000E-03 0.  1.
         11   -1    0    0    0    0 -0.00000000000E+00 -0.00000000000E+00 -0.45593999997E+02  0.45594000000E+02  0.51100000000E-03 0. -1.
         23    2    1    2    0    0  0.35527136788E-14  0.17763568394E-14 -0.71054273576E-14  0.91188000000E+02  0.91188000000E+02 0.  0.
    9900012    2    3    3    0    0  0.25133841636E+02  0.89516363816E+01 -0.25375960241E+02  0.54367066450E+02  0.39999959587E+02 0.  0.
        -12    1    3    3    0    0 -0.25133841636E+02 -0.89516363816E+01  0.25375960241E+02  0.36820933550E+02  0.00000000000E+00 0.  1.
         11    1    4    4    0    0 -0.80384190514E-01 -0.17228690234E+01 -0.21266989821E+02  0.21336813155E+02  0.51100000000E-03 0. -1.
        -11    1    4    4    0    0  0.11527725475E+02 -0.21183596213E+01  0.43140082626E+01  0.12489458342E+02  0.51100000000E-03 0.  1.
        -12    1    4    4    0    0  0.13686500351E+02  0.12792865026E+02 -0.84229786829E+01  0.20540794954E+02  0.00000000000E+00 0.  1.
</event>
<event>
 8    1  0.1290800E-006  0.9118800E+02  0.7816164E-02  0.1184000E+00
        -11   -1    0    0    0    0  0.00000000000E+00  0.00000000000E+00  0.45593999997E+02  0.45594000000E+02  0.51100000000E-03 0.  1.
         11   -1    0    0    0    0 -0.00000000000E+00 -0.00000000000E+00 -0.45593999997E+02  0.45594000000E+02  0.51100000000E-03 0. -1.
         23    2    1    2    0    0  0.35527136788E-14  0.00000000000E+00 -0.44408920985E-15  0.91188000000E+02  0.91188000000E+02 0.  0.
    9900012    2    3    3    0    0  0.29546822184E+02  0.21693336022E+02 -0.34877246352E+01  0.54367085398E+02  0.40000002783E+02 0.  0.
        -12    1    3    3    0    0 -0.29546822184E+02 -0.21693336022E+02  0.34877246352E+01  0.36820914602E+02  0.00000000000E+00 0.  1.
         11    1    4    4    0    0  0.73367659512E+01  0.84286076411E+01  0.12877161253E+02  0.17049658166E+02  0.51100000000E-03 0.  1.
        -11    1    4    4    0    0  0.23549184672E+02  0.53248793794E+01 -0.73666394410E+01  0.25242539809E+02  0.51100000000E-03 0. -1.
        -12    1    4    4    0    0 -0.13391284386E+01  0.79398490017E+01 -0.89982464472E+01  0.12074887423E+02  0.00000000000E+00 0.  1.
</event>
<event>
 8    1  0.1290800E-006  0.9118800E+02  0.7816164E-02  0.1184000E+00
        -11   -1    0    0    0    0  0.00000000000E+00  0.00000000000E+00  0.45593999997E+02  0.45594000000E+02  0.51100000000E-03 0. -1.
         11   -1    0    0    0    0 -0.00000000000E+00 -0.00000000000E+00 -0.45593999997E+02  0.45594000000E+02  0.51100000000E-03 0.  1.
         23    2    1    2    0    0  0.35527136788E-14 -0.88817841970E-15  0.00000000000E+00  0.91188000000E+02  0.91188000000E+02 0.  0.
    9900012    2    3    3    0    0  0.29157236515E+02 -0.64617038331E+01 -0.21537905089E+02  0.54367090000E+02  0.40000013272E+02 0.  0.
         12    1    3    3    0    0 -0.29157236515E+02  0.64617038331E+01  0.21537905089E+02  0.36820910000E+02  0.00000000000E+00 0. -1.
         11    1    4    4    0    0  0.63001308645E+01 -0.11195591084E+02  0.64050580929E+01  0.14354709264E+02  0.51100000000E-03 0. -1.
        -11    1    4    4    0    0 -0.21261147904E+01 -0.17877010812E+01 -0.33785184177E+01  0.43738571328E+01  0.51100000000E-03 0.  1.
         12    1    4    4    0    0  0.24983220441E+02  0.65215883322E+01 -0.24564444764E+02  0.35638523602E+02  0.00000000000E+00 0. -1.
</event>
<event>
 8    1  0.1290800E-006  0.9118800E+02  0.7816164E-02  0.1184000E+00
        -11   -1    0    0    0    0  0.00000000000E+00  0.00000000000E+00  0.45593999997E+02  0.45594000000E+02  0.51100000000E-03 0.  1.
         11   -1    0    0    0    0 -0.00000000000E+00 -0.00000000000E+00 -0.45593999997E+02  0.45594000000E+02  0.51100000000E-03 0. -1.
         23    2    1    2    0    0 -0.88817841970E-15  0.00000000000E+00  0.00000000000E+00  0.91188000000E+02  0.91188000000E+02 0.  0.
    9900012    2    3    3    0    0  0.20160176585E+01 -0.12597016788E+02 -0.34540270766E+02  0.54367089314E+02  0.40000011709E+02 0.  0.
        -12    1    3    3    0    0 -0.20160176585E+01  0.12597016788E+02  0.34540270766E+02  0.36820910686E+02  0.00000000000E+00 0.  1.
         11    1    4    4    0    0  0.97390871699E+01  0.73477886564E+01 -0.14012724423E+02  0.18579458094E+02  0.51100000000E-03 0. -1.
        -11    1    4    4    0    0 -0.29648686667E+01 -0.13726191869E+02 -0.24365194670E+00  0.14044862263E+02  0.51100000000E-03 0.  1.
        -12    1    4    4    0    0 -0.47582008447E+01 -0.62186135745E+01 -0.20283894396E+02  0.21742768957E+02  0.00000000000E+00 0.  1.
</event>
<event>
 8    1  0.1290800E-006  0.9118800E+02  0.7816164E-02  0.1184000E+00
        -11   -1    0    0    0    0  0.00000000000E+00  0.00000000000E+00  0.45593999997E+02  0.45594000000E+02  0.51100000000E-03 0. -1.
         11   -1    0    0    0    0 -0.00000000000E+00 -0.00000000000E+00 -0.45593999997E+02  0.45594000000E+02  0.51100000000E-03 0.  1.
         23    2    1    2    0    0 -0.17763568394E-14 -0.17763568394E-14  0.00000000000E+00  0.91188000000E+02  0.91188000000E+02 0.  0.
    9900012    2    3    3    0    0  0.63733481603E+01 -0.15731047204E+02 -0.32675581529E+02  0.54367095052E+02  0.40000024790E+02 0.  0.
         12    1    3    3    0    0 -0.63733481603E+01  0.15731047204E+02  0.32675581529E+02  0.36820904948E+02  0.00000000000E+00 0. -1.
         11    1    4    4    0    0  0.57214916428E+01 -0.44938276718E+01  0.16291314760E+01  0.74554693607E+01  0.51100000000E-03 0. -1.
        -11    1    4    4    0    0 -0.91143678495E+01  0.54921884878E+01 -0.49376425868E+01  0.11730991018E+02  0.51100000000E-03 0.  1.
        -12    1    4    4    0    0  0.97662243670E+01 -0.16729408020E+02 -0.29367070418E+02  0.35180634674E+02  0.00000000000E+00 0.  1.
</event>
<event>
 8    1  0.1290800E-006  0.9118800E+02  0.7816164E-02  0.1184000E+00
        -11   -1    0    0    0    0  0.00000000000E+00  0.00000000000E+00  0.45593999997E+02  0.45594000000E+02  0.51100000000E-03 0.  1.
         11   -1    0    0    0    0 -0.00000000000E+00 -0.00000000000E+00 -0.45593999997E+02  0.45594000000E+02  0.51100000000E-03 0. -1.
         23    2    1    2    0    0  0.00000000000E+00  0.17763568394E-14  0.00000000000E+00  0.91188000000E+02  0.91188000000E+02 0.  0.
    9900012    2    3    3    0    0  0.97142763436E+01 -0.12770939883E+02 -0.33140839887E+02  0.54367091011E+02  0.40000015577E+02 0.  0.
        -12    1    3    3    0    0 -0.97142763436E+01  0.12770939883E+02  0.33140839887E+02  0.36820908989E+02  0.00000000000E+00 0.  1.
         11    1    4    4    0    0  0.13096367619E+02 -0.55832792374E+01 -0.22521001435E+01  0.14413875509E+02  0.51100000000E-03 0. -1.
        -11    1    4    4    0    0 -0.13347688890E+02 -0.13547823088E+01 -0.13141977525E+02  0.18780516695E+02  0.51100000000E-03 0.  1.
         12    1    4    4    0    0  0.99655976142E+01 -0.58328783373E+01 -0.17746762219E+02  0.21172698806E+02  0.00000000000E+00 0. -1.
</event>
<event>
 8    1  0.1290800E-006  0.9118800E+02  0.7816164E-02  0.1184000E+00
        -11   -1    0    0    0    0  0.00000000000E+00  0.00000000000E+00  0.45593999997E+02  0.45594000000E+02  0.51100000000E-03 0. -1.
         11   -1    0    0    0    0 -0.00000000000E+00 -0.00000000000E+00 -0.45593999997E+02  0.45594000000E+02  0.51100000000E-03 0.  1.
         23    2    1    2    0    0 -0.35527136788E-14  0.00000000000E+00  0.17763568394E-14  0.91188000000E+02  0.91188000000E+02 0.  0.
    9900012    2    3    3    0    0  0.19531798997E+02  0.29475341616E+02 -0.10270921505E+02  0.54367098816E+02  0.40000033371E+02 0.  0.
         12    1    3    3    0    0 -0.19531798997E+02 -0.29475341616E+02  0.10270921505E+02  0.36820901184E+02  0.00000000000E+00 0. -1.
         11    1    4    4    0    0  0.26644231979E+01  0.17931762584E+02  0.33432589625E+01  0.18434333215E+02  0.51100000000E-03 0. -1.
        -11    1    4    4    0    0  0.22580699812E+02  0.10609791854E+02 -0.16035217490E+02  0.29657779543E+02  0.51100000000E-03 0.  1.
         12    1    4    4    0    0 -0.57133240129E+01  0.93378717808E+00  0.24210370221E+01  0.62749860583E+01  0.00000000000E+00 0. -1.
</event>
<event>
 8    1  0.1290800E-006  0.9118800E+02  0.7816164E-02  0.1184000E+00
        -11   -1    0    0    0    0  0.00000000000E+00  0.00000000000E+00  0.45593999997E+02  0.45594000000E+02  0.51100000000E-03 0. -1.
         11   -1    0    0    0    0 -0.00000000000E+00 -0.00000000000E+00 -0.45593999997E+02  0.45594000000E+02  0.51100000000E-03 0.  1.
         23    2    1    2    0    0  0.35527136788E-14 -0.71054273576E-14  0.00000000000E+00  0.91188000000E+02  0.91188000000E+02 0.  0.
    9900012    2    3    3    0    0 -0.21869089236E+02  0.26167842762E+02 -0.13884061749E+02  0.54367078916E+02  0.39999988005E+02 0.  0.
         12    1    3    3    0    0  0.21869089236E+02 -0.26167842762E+02  0.13884061749E+02  0.36820921084E+02  0.00000000000E+00 0. -1.
         11    1    4    4    0    0 -0.12535889529E+02 -0.51095028361E+01 -0.89395207367E+01  0.16222532995E+02  0.51100000000E-03 0. -1.
        -11    1    4    4    0    0 -0.12573756184E+02  0.11098076210E+02 -0.56426784257E+01  0.17694814501E+02  0.51100000000E-03 0.  1.
         12    1    4    4    0    0  0.32405564770E+01  0.20179269388E+02  0.69813741376E+00  0.20449731420E+02  0.00000000000E+00 0. -1.
</event>
<event>
 8    1  0.1290800E-006  0.9118800E+02  0.7816164E-02  0.1184000E+00
        -11   -1    0    0    0    0  0.00000000000E+00  0.00000000000E+00  0.45593999997E+02  0.45594000000E+02  0.51100000000E-03 0. -1.
         11   -1    0    0    0    0 -0.00000000000E+00 -0.00000000000E+00 -0.45593999997E+02  0.45594000000E+02  0.51100000000E-03 0.  1.
         23    2    1    2    0    0 -0.17763568394E-14 -0.71054273576E-14 -0.35527136788E-14  0.91188000000E+02  0.91188000000E+02 0.  0.
    9900012    2    3    3    0    0  0.15883804316E+02  0.22160916086E+02  0.24746277420E+02  0.54367086276E+02  0.40000004783E+02 0.  0.
        -12    1    3    3    0    0 -0.15883804316E+02 -0.22160916086E+02 -0.24746277420E+02  0.36820913724E+02  0.00000000000E+00 0.  1.
         11    1    4    4    0    0 -0.40623080368E+01 -0.37241425866E+01  0.16704961970E+02  0.17590546872E+02  0.51100000000E-03 0. -1.
        -11    1    4    4    0    0  0.69623930573E+01  0.17396910290E+02 -0.11011118320E+01  0.18770717948E+02  0.51100000000E-03 0.  1.
         12    1    4    4    0    0  0.12983719295E+02  0.84881483820E+01  0.91424272822E+01  0.18005821456E+02  0.00000000000E+00 0. -1.
</event>
<event>
 8    1  0.1290800E-006  0.9118800E+02  0.7816164E-02  0.1184000E+00
        -11   -1    0    0    0    0  0.00000000000E+00  0.00000000000E+00  0.45593999997E+02  0.45594000000E+02  0.51100000000E-03 0. -1.
         11   -1    0    0    0    0 -0.00000000000E+00 -0.00000000000E+00 -0.45593999997E+02  0.45594000000E+02  0.51100000000E-03 0.  1.
         23    2    1    2    0    0 -0.35527136788E-14 -0.17763568394E-14 -0.17763568394E-14  0.91188000000E+02  0.91188000000E+02 0.  0.
    9900012    2    3    3    0    0  0.30734662532E+02  0.12527411651E+02  0.15944649853E+02  0.54366981783E+02  0.39999766570E+02 0.  0.
         12    1    3    3    0    0 -0.30734662532E+02 -0.12527411651E+02 -0.15944649853E+02  0.36821018217E+02  0.00000000000E+00 0. -1.
         11    1    4    4    0    0  0.10515336744E+01  0.15918891764E+02  0.86983253593E+01  0.18170792564E+02  0.51100000000E-03 0.  1.
        -11    1    4    4    0    0  0.12513874174E+01  0.27578631543E+01  0.64164004102E+01  0.70952078286E+01  0.51100000000E-03 0. -1.
        -12    1    4    4    0    0  0.28431741440E+02 -0.61493432673E+01  0.82992408349E+00  0.29100981391E+02  0.00000000000E+00 0.  1.
</event>
<event>
 8    1  0.1290800E-006  0.9118800E+02  0.7816164E-02  0.1184000E+00
        -11   -1    0    0    0    0  0.00000000000E+00  0.00000000000E+00  0.45593999997E+02  0.45594000000E+02  0.51100000000E-03 0. -1.
         11   -1    0    0    0    0 -0.00000000000E+00 -0.00000000000E+00 -0.45593999997E+02  0.45594000000E+02  0.51100000000E-03 0.  1.
         23    2    1    2    0    0 -0.17763568394E-14  0.00000000000E+00  0.00000000000E+00  0.91188000000E+02  0.91188000000E+02 0.  0.
    9900012    2    3    3    0    0  0.48549532555E+01  0.15579154699E+02 -0.33007561373E+02  0.54367085562E+02  0.40000003156E+02 0.  0.
         12    1    3    3    0    0 -0.48549532555E+01 -0.15579154699E+02  0.33007561373E+02  0.36820914438E+02  0.00000000000E+00 0. -1.
         11    1    4    4    0    0  0.52860504748E+01 -0.94736118639E+01 -0.19088469179E+02  0.21955894589E+02  0.51100000000E-03 0. -1.
        -11    1    4    4    0    0  0.36995076738E+00  0.33289718232E+01  0.32827563368E+01  0.46899260547E+01  0.51100000000E-03 0.  1.
        -12    1    4    4    0    0 -0.80104798673E+00  0.21723794740E+02 -0.17201848531E+02  0.27721264918E+02  0.00000000000E+00 0.  1.
</event>
<event>
 8    1  0.1290800E-006  0.9118800E+02  0.7816164E-02  0.1184000E+00
        -11   -1    0    0    0    0  0.00000000000E+00  0.00000000000E+00  0.45593999997E+02  0.45594000000E+02  0.51100000000E-03 0.  1.
         11   -1    0    0    0    0 -0.00000000000E+00 -0.00000000000E+00 -0.45593999997E+02  0.45594000000E+02  0.51100000000E-03 0. -1.
         23    2    1    2    0    0  0.00000000000E+00  0.00000000000E+00  0.00000000000E+00  0.91188000000E+02  0.91188000000E+02 0.  0.
    9900012    2    3    3    0    0 -0.22640643352E+02 -0.27647959851E+02 -0.88752564130E+01  0.54367101155E+02  0.40000038704E+02 0.  0.
        -12    1    3    3    0    0  0.22640643352E+02  0.27647959851E+02  0.88752564130E+01  0.36820898845E+02  0.00000000000E+00 0.  1.
         11    1    4    4    0    0 -0.21245811185E+02 -0.25117195742E+02 -0.74560014870E+01  0.33732031859E+02  0.51100000000E-03 0. -1.
        -11    1    4    4    0    0  0.61922240915E+01  0.91609150365E+00 -0.78993008842E+01  0.10078780559E+02  0.51100000000E-03 0.  1.
        -12    1    4    4    0    0 -0.75870562587E+01 -0.34468556125E+01  0.64800459582E+01  0.10556288737E+02  0.00000000000E+00 0.  1.
</event>
<event>
 8    1  0.1290800E-006  0.9118800E+02  0.7816164E-02  0.1184000E+00
        -11   -1    0    0    0    0  0.00000000000E+00  0.00000000000E+00  0.45593999997E+02  0.45594000000E+02  0.51100000000E-03 0.  1.
         11   -1    0    0    0    0 -0.00000000000E+00 -0.00000000000E+00 -0.45593999997E+02  0.45594000000E+02  0.51100000000E-03 0. -1.
         23    2    1    2    0    0  0.00000000000E+00  0.00000000000E+00 -0.35527136788E-14  0.91188000000E+02  0.91188000000E+02 0.  0.
    9900012    2    3    3    0    0  0.31244070336E+02 -0.10304023533E+02 -0.16535251109E+02  0.54367090704E+02  0.40000014879E+02 0.  0.
         12    1    3    3    0    0 -0.31244070336E+02  0.10304023533E+02  0.16535251109E+02  0.36820909296E+02  0.00000000000E+00 0. -1.
         11    1    4    4    0    0  0.14222689141E+02 -0.63004866655E+01  0.39774713462E+01  0.16056191865E+02  0.51100000000E-03 0. -1.
        -11    1    4    4    0    0 -0.57306285209E+01 -0.73346268047E+01 -0.49210405711E+01  0.10528698598E+02  0.51100000000E-03 0.  1.
         12    1    4    4    0    0  0.22752009716E+02  0.33310899370E+01 -0.15591681884E+02  0.27782200241E+02  0.00000000000E+00 0. -1.
</event>
<event>
 8    1  0.1290800E-006  0.9118800E+02  0.7816164E-02  0.1184000E+00
        -11   -1    0    0    0    0  0.00000000000E+00  0.00000000000E+00  0.45593999997E+02  0.45594000000E+02  0.51100000000E-03 0. -1.
         11   -1    0    0    0    0 -0.00000000000E+00 -0.00000000000E+00 -0.45593999997E+02  0.45594000000E+02  0.51100000000E-03 0.  1.
         23    2    1    2    0    0  0.00000000000E+00  0.00000000000E+00 -0.11102230246E-15  0.91188000000E+02  0.91188000000E+02 0.  0.
    9900012    2    3    3    0    0 -0.22788727785E+02 -0.28907781161E+02  0.89142274499E+00  0.54367074425E+02  0.39999977767E+02 0.  0.
        -12    1    3    3    0    0  0.22788727785E+02  0.28907781161E+02 -0.89142274499E+00  0.36820925575E+02  0.00000000000E+00 0.  1.
         11    1    4    4    0    0 -0.62563848693E+01 -0.83216645036E+01 -0.46047238897E+01  0.11384020999E+02  0.51100000000E-03 0. -1.
        -11    1    4    4    0    0 -0.23289197101E+02 -0.20957076631E+02 -0.37189024419E+01  0.31550213916E+02  0.51100000000E-03 0.  1.
         12    1    4    4    0    0  0.67568541851E+01  0.37095997405E+00  0.92150490767E+01  0.11432839510E+02  0.00000000000E+00 0. -1.
</event>
<event>
 8    1  0.1290800E-006  0.9118800E+02  0.7816164E-02  0.1184000E+00
        -11   -1    0    0    0    0  0.00000000000E+00  0.00000000000E+00  0.45593999997E+02  0.45594000000E+02  0.51100000000E-03 0. -1.
         11   -1    0    0    0    0 -0.00000000000E+00 -0.00000000000E+00 -0.45593999997E+02  0.45594000000E+02  0.51100000000E-03 0.  1.
         23    2    1    2    0    0 -0.35527136788E-14 -0.71054273576E-14  0.88817841970E-15  0.91188000000E+02  0.91188000000E+02 0.  0.
    9900012    2    3    3    0    0 -0.25444355941E+02 -0.26058686057E+02  0.54136700553E+01  0.54367106587E+02  0.40000051087E+02 0.  0.
        -12    1    3    3    0    0  0.25444355941E+02  0.26058686057E+02 -0.54136700553E+01  0.36820893413E+02  0.00000000000E+00 0.  1.
         11    1    4    4    0    0 -0.14444152604E+02 -0.11258576569E+02  0.15894671026E+02  0.24249322838E+02  0.51100000000E-03 0. -1.
        -11    1    4    4    0    0 -0.11113712045E+02 -0.55465182795E+01  0.38979778586E+01  0.13018167770E+02  0.51100000000E-03 0.  1.
        -12    1    4    4    0    0  0.11350870833E+00 -0.92535912081E+01 -0.14378978829E+02  0.17099615979E+02  0.00000000000E+00 0.  1.
</event>
<event>
 8    1  0.1290800E-006  0.9118800E+02  0.7816164E-02  0.1184000E+00
        -11   -1    0    0    0    0  0.00000000000E+00  0.00000000000E+00  0.45593999997E+02  0.45594000000E+02  0.51100000000E-03 0.  1.
         11   -1    0    0    0    0 -0.00000000000E+00 -0.00000000000E+00 -0.45593999997E+02  0.45594000000E+02  0.51100000000E-03 0. -1.
         23    2    1    2    0    0  0.35527136788E-14 -0.17763568394E-14  0.00000000000E+00  0.91188000000E+02  0.91188000000E+02 0.  0.
    9900012    2    3    3    0    0 -0.19790821928E+02  0.10962715116E+02 -0.29050302058E+02  0.54367111839E+02  0.40000063059E+02 0.  0.
        -12    1    3    3    0    0  0.19790821928E+02 -0.10962715116E+02  0.29050302058E+02  0.36820888161E+02  0.00000000000E+00 0.  1.
         11    1    4    4    0    0 -0.18258635067E+02  0.46995812566E+00 -0.13026960329E+02  0.22434355592E+02  0.51100000000E-03 0. -1.
        -11    1    4    4    0    0 -0.31662561405E+01 -0.52158447561E+01 -0.14898307544E+02  0.16099372112E+02  0.51100000000E-03 0.  1.
        -12    1    4    4    0    0  0.16340692792E+01  0.15708601747E+02 -0.11250341845E+01  0.15833384135E+02  0.00000000000E+00 0.  1.
</event>
<event>
 8    1  0.1290800E-006  0.9118800E+02  0.7816164E-02  0.1184000E+00
        -11   -1    0    0    0    0  0.00000000000E+00  0.00000000000E+00  0.45593999997E+02  0.45594000000E+02  0.51100000000E-03 0. -1.
         11   -1    0    0    0    0 -0.00000000000E+00 -0.00000000000E+00 -0.45593999997E+02  0.45594000000E+02  0.51100000000E-03 0.  1.
         23    2    1    2    0    0  0.00000000000E+00 -0.88817841970E-15  0.00000000000E+00  0.91188000000E+02  0.91188000000E+02 0.  0.
    9900012    2    3    3    0    0 -0.26904578093E+02 -0.33158682510E+01 -0.24918444523E+02  0.54367079560E+02  0.39999989472E+02 0.  0.
         12    1    3    3    0    0  0.26904578093E+02  0.33158682510E+01  0.24918444523E+02  0.36820920440E+02  0.00000000000E+00 0. -1.
         11    1    4    4    0    0  0.57585184233E+01  0.43709860657E+01  0.22023151607E+00  0.72328801870E+01  0.51100000000E-03 0. -1.
        -11    1    4    4    0    0 -0.14259663441E+01 -0.83454506873E+01 -0.71503370282E+01  0.11081843126E+02  0.51100000000E-03 0.  1.
         12    1    4    4    0    0 -0.31237130173E+02  0.65859637059E+00 -0.17988339010E+02  0.36052356247E+02  0.00000000000E+00 0. -1.
</event>
<event>
 8    1  0.1290800E-006  0.9118800E+02  0.7816164E-02  0.1184000E+00
        -11   -1    0    0    0    0  0.00000000000E+00  0.00000000000E+00  0.45593999997E+02  0.45594000000E+02  0.51100000000E-03 0.  1.
         11   -1    0    0    0    0 -0.00000000000E+00 -0.00000000000E+00 -0.45593999997E+02  0.45594000000E+02  0.51100000000E-03 0. -1.
         23    2    1    2    0    0 -0.71054273576E-14 -0.17763568394E-14  0.17763568394E-14  0.91188000000E+02  0.91188000000E+02 0.  0.
    9900012    2    3    3    0    0  0.33209281649E+02 -0.12802701874E+02 -0.94352930743E+01  0.54366941918E+02  0.39999675688E+02 0.  0.
        -12    1    3    3    0    0 -0.33209281649E+02  0.12802701874E+02  0.94352930743E+01  0.36821058082E+02  0.00000000000E+00 0.  1.
         11    1    4    4    0    0 -0.59970205535E+01 -0.16947728760E+01  0.38428219461E+00  0.62437315515E+01  0.51100000000E-03 0. -1.
        -11    1    4    4    0    0  0.14189060851E+02  0.63393518456E+01  0.14480916088E+01  0.15608132471E+02  0.51100000000E-03 0.  1.
         12    1    4    4    0    0  0.25017241351E+02 -0.17447280844E+02 -0.11267666878E+02  0.32515077895E+02  0.00000000000E+00 0. -1.
</event>
<event>
 8    1  0.1290800E-006  0.9118800E+02  0.7816164E-02  0.1184000E+00
        -11   -1    0    0    0    0  0.00000000000E+00  0.00000000000E+00  0.45593999997E+02  0.45594000000E+02  0.51100000000E-03 0. -1.
         11   -1    0    0    0    0 -0.00000000000E+00 -0.00000000000E+00 -0.45593999997E+02  0.45594000000E+02  0.51100000000E-03 0.  1.
         23    2    1    2    0    0  0.00000000000E+00  0.00000000000E+00 -0.13322676296E-14  0.91188000000E+02  0.91188000000E+02 0.  0.
    9900012    2    3    3    0    0  0.23689166059E+02 -0.27910991279E+02 -0.39470863631E+01  0.54367088638E+02  0.40000010168E+02 0.  0.
         12    1    3    3    0    0 -0.23689166059E+02  0.27910991279E+02  0.39470863631E+01  0.36820911362E+02  0.00000000000E+00 0. -1.
         11    1    4    4    0    0 -0.12302192741E+01 -0.45459287140E+01  0.12529820114E+02  0.13385637814E+02  0.51100000000E-03 0. -1.
        -11    1    4    4    0    0  0.20367920554E+02 -0.98411986109E+01 -0.63868252359E+01  0.23505167829E+02  0.51100000000E-03 0.  1.
         12    1    4    4    0    0  0.45514647792E+01 -0.13523863954E+02 -0.10090081241E+02  0.17476282996E+02  0.00000000000E+00 0. -1.
</event>
<event>
 8    1  0.1290800E-006  0.9118800E+02  0.7816164E-02  0.1184000E+00
        -11   -1    0    0    0    0  0.00000000000E+00  0.00000000000E+00  0.45593999997E+02  0.45594000000E+02  0.51100000000E-03 0. -1.
         11   -1    0    0    0    0 -0.00000000000E+00 -0.00000000000E+00 -0.45593999997E+02  0.45594000000E+02  0.51100000000E-03 0.  1.
         23    2    1    2    0    0  0.00000000000E+00  0.17763568394E-14  0.00000000000E+00  0.91188000000E+02  0.91188000000E+02 0.  0.
    9900012    2    3    3    0    0 -0.30440412994E+02 -0.11390511142E+02  0.17303626654E+02  0.54367109425E+02  0.40000057557E+02 0.  0.
        -12    1    3    3    0    0  0.30440412994E+02  0.11390511142E+02 -0.17303626654E+02  0.36820890575E+02  0.00000000000E+00 0.  1.
         11    1    4    4    0    0 -0.11455832100E+02  0.29831034628E+01  0.80016229392E+01  0.14288490659E+02  0.51100000000E-03 0. -1.
        -11    1    4    4    0    0 -0.10249257877E+02 -0.22874500987E+02  0.11690441287E+02  0.27657846991E+02  0.51100000000E-03 0.  1.
        -12    1    4    4    0    0 -0.87353230167E+01  0.85008863818E+01 -0.23884375716E+01  0.12420771776E+02  0.00000000000E+00 0.  1.
</event>
<event>
 8    1  0.1290800E-006  0.9118800E+02  0.7816164E-02  0.1184000E+00
        -11   -1    0    0    0    0  0.00000000000E+00  0.00000000000E+00  0.45593999997E+02  0.45594000000E+02  0.51100000000E-03 0.  1.
         11   -1    0    0    0    0 -0.00000000000E+00 -0.00000000000E+00 -0.45593999997E+02  0.45594000000E+02  0.51100000000E-03 0. -1.
         23    2    1    2    0    0  0.00000000000E+00  0.00000000000E+00  0.00000000000E+00  0.91188000000E+02  0.91188000000E+02 0.  0.
    9900012    2    3    3    0    0  0.13551746064E+02  0.32472693545E+02 -0.10846866535E+02  0.54367079845E+02  0.39999990123E+02 0.  0.
        -12    1    3    3    0    0 -0.13551746064E+02 -0.32472693545E+02  0.10846866535E+02  0.36820920155E+02  0.00000000000E+00 0.  1.
         11    1    4    4    0    0 -0.50489689479E+01  0.97341224770E+01 -0.92586527596E+01  0.14351581063E+02  0.51100000000E-03 0. -1.
        -11    1    4    4    0    0  0.13194207585E+01  0.24878487537E+01 -0.11324123717E+02  0.11669020558E+02  0.51100000000E-03 0.  1.
        -12    1    4    4    0    0  0.17281294253E+02  0.20250722314E+02  0.97359099420E+01  0.28346478224E+02  0.00000000000E+00 0.  1.
</event>
<event>
 8    1  0.1290800E-006  0.9118800E+02  0.7816164E-02  0.1184000E+00
        -11   -1    0    0    0    0  0.00000000000E+00  0.00000000000E+00  0.45593999997E+02  0.45594000000E+02  0.51100000000E-03 0. -1.
         11   -1    0    0    0    0 -0.00000000000E+00 -0.00000000000E+00 -0.45593999997E+02  0.45594000000E+02  0.51100000000E-03 0.  1.
         23    2    1    2    0    0  0.49960036108E-15  0.17763568394E-14 -0.71054273576E-14  0.91188000000E+02  0.91188000000E+02 0.  0.
    9900012    2    3    3    0    0  0.30971926611E+00 -0.13938942147E+02  0.34079177886E+02  0.54367076606E+02  0.39999982738E+02 0.  0.
        -12    1    3    3    0    0 -0.30971926611E+00  0.13938942147E+02 -0.34079177886E+02  0.36820923394E+02  0.00000000000E+00 0.  1.
         11    1    4    4    0    0  0.58992183244E+01 -0.41259443639E+01 -0.22784458539E+01  0.75508615073E+01  0.51100000000E-03 0. -1.
        -11    1    4    4    0    0 -0.12998712077E+02  0.12601141622E+01  0.75701018856E+01  0.15095060324E+02  0.51100000000E-03 0.  1.
         12    1    4    4    0    0  0.74092130187E+01 -0.11073111946E+02  0.28787521854E+02  0.31721154775E+02  0.00000000000E+00 0. -1.
</event>
<event>
 8    1  0.1290800E-006  0.9118800E+02  0.7816164E-02  0.1184000E+00
        -11   -1    0    0    0    0  0.00000000000E+00  0.00000000000E+00  0.45593999997E+02  0.45594000000E+02  0.51100000000E-03 0. -1.
         11   -1    0    0    0    0 -0.00000000000E+00 -0.00000000000E+00 -0.45593999997E+02  0.45594000000E+02  0.51100000000E-03 0.  1.
         23    2    1    2    0    0  0.00000000000E+00  0.00000000000E+00 -0.71054273576E-14  0.91188000000E+02  0.91188000000E+02 0.  0.
    9900012    2    3    3    0    0 -0.35166773641E+01 -0.12110736972E+02 -0.34593968728E+02  0.54367086892E+02  0.40000006189E+02 0.  0.
         12    1    3    3    0    0  0.35166773641E+01  0.12110736972E+02  0.34593968728E+02  0.36820913108E+02  0.00000000000E+00 0. -1.
         11    1    4    4    0    0 -0.77520152015E+01 -0.49878414742E+01  0.35581533635E+01  0.98809289986E+01  0.51100000000E-03 0. -1.
        -11    1    4    4    0    0 -0.66071907488E+01 -0.64226102916E+01 -0.72347822972E+01  0.11715245098E+02  0.51100000000E-03 0.  1.
        -12    1    4    4    0    0  0.10842528586E+02 -0.70028520647E+00 -0.30917339795E+02  0.32770912796E+02  0.00000000000E+00 0.  1.
</event>
<event>
 8    1  0.1290800E-006  0.9118800E+02  0.7816164E-02  0.1184000E+00
        -11   -1    0    0    0    0  0.00000000000E+00  0.00000000000E+00  0.45593999997E+02  0.45594000000E+02  0.51100000000E-03 0. -1.
         11   -1    0    0    0    0 -0.00000000000E+00 -0.00000000000E+00 -0.45593999997E+02  0.45594000000E+02  0.51100000000E-03 0.  1.
         23    2    1    2    0    0  0.00000000000E+00 -0.88817841970E-15 -0.35527136788E-14  0.91188000000E+02  0.91188000000E+02 0.  0.
    9900012    2    3    3    0    0  0.29644321959E+02 -0.65402491142E+01 -0.20837927166E+02  0.54367083506E+02  0.39999998469E+02 0.  0.
         12    1    3    3    0    0 -0.29644321959E+02  0.65402491142E+01  0.20837927166E+02  0.36820916494E+02  0.00000000000E+00 0. -1.
         11    1    4    4    0    0  0.12083462122E+02  0.43905555269E+01  0.47121424843E+01  0.13692747049E+02  0.51100000000E-03 0. -1.
        -11    1    4    4    0    0 -0.11713480498E+01 -0.69742819635E+01  0.17921414501E+01  0.72955079603E+01  0.51100000000E-03 0.  1.
        -12    1    4    4    0    0  0.18732207887E+02 -0.39565226777E+01 -0.27342211100E+02  0.33378828497E+02  0.00000000000E+00 0.  1.
</event>
<event>
 8    1  0.1290800E-006  0.9118800E+02  0.7816164E-02  0.1184000E+00
        -11   -1    0    0    0    0  0.00000000000E+00  0.00000000000E+00  0.45593999997E+02  0.45594000000E+02  0.51100000000E-03 0. -1.
         11   -1    0    0    0    0 -0.00000000000E+00 -0.00000000000E+00 -0.45593999997E+02  0.45594000000E+02  0.51100000000E-03 0.  1.
         23    2    1    2    0    0  0.00000000000E+00  0.00000000000E+00  0.14210854715E-13  0.91188000000E+02  0.91188000000E+02 0.  0.
    9900012    2    3    3    0    0 -0.71924298061E+01  0.13244101536E+02 -0.33595278397E+02  0.54367081997E+02  0.39999995028E+02 0.  0.
         12    1    3    3    0    0  0.71924298061E+01 -0.13244101536E+02  0.33595278397E+02  0.36820918003E+02  0.00000000000E+00 0. -1.
         11    1    4    4    0    0  0.79597623076E+01  0.90409632764E+01 -0.88020742940E+00  0.12077731506E+02  0.51100000000E-03 0. -1.
        -11    1    4    4    0    0 -0.26446981709E+01  0.85367575592E-01  0.31320763827E+01  0.41001974058E+01  0.51100000000E-03 0.  1.
        -12    1    4    4    0    0 -0.12507493943E+02  0.41177706845E+01 -0.35847147351E+02  0.38189153085E+02  0.00000000000E+00 0.  1.
</event>
<event>
 8    1  0.1290800E-006  0.9118800E+02  0.7816164E-02  0.1184000E+00
        -11   -1    0    0    0    0  0.00000000000E+00  0.00000000000E+00  0.45593999997E+02  0.45594000000E+02  0.51100000000E-03 0. -1.
         11   -1    0    0    0    0 -0.00000000000E+00 -0.00000000000E+00 -0.45593999997E+02  0.45594000000E+02  0.51100000000E-03 0.  1.
         23    2    1    2    0    0  0.35527136788E-14 -0.17763568394E-14  0.00000000000E+00  0.91188000000E+02  0.91188000000E+02 0.  0.
    9900012    2    3    3    0    0  0.27262565008E+02 -0.13908658182E+02 -0.20471425641E+02  0.54367116102E+02  0.40000072777E+02 0.  0.
         12    1    3    3    0    0 -0.27262565008E+02  0.13908658182E+02  0.20471425641E+02  0.36820883898E+02  0.00000000000E+00 0. -1.
         11    1    4    4    0    0 -0.21385060149E+00 -0.35202462130E+01 -0.35656366941E+01  0.50151401551E+01  0.51100000000E-03 0. -1.
        -11    1    4    4    0    0  0.34985619412E+01  0.20494677328E+01 -0.21563616992E+02  0.21941509330E+02  0.51100000000E-03 0.  1.
         12    1    4    4    0    0  0.23977853669E+02 -0.12437879702E+02  0.46578280451E+01  0.27410466616E+02  0.00000000000E+00 0. -1.
</event>
<event>
 8    1  0.1290800E-006  0.9118800E+02  0.7816164E-02  0.1184000E+00
        -11   -1    0    0    0    0  0.00000000000E+00  0.00000000000E+00  0.45593999997E+02  0.45594000000E+02  0.51100000000E-03 0.  1.
         11   -1    0    0    0    0 -0.00000000000E+00 -0.00000000000E+00 -0.45593999997E+02  0.45594000000E+02  0.51100000000E-03 0. -1.
         23    2    1    2    0    0  0.00000000000E+00  0.12212453271E-14  0.00000000000E+00  0.91188000000E+02  0.91188000000E+02 0.  0.
    9900012    2    3    3    0    0  0.16014900740E+02 -0.78155869531E+00  0.33146519321E+02  0.54367087154E+02  0.40000006784E+02 0.  0.
         12    1    3    3    0    0 -0.16014900740E+02  0.78155869531E+00 -0.33146519321E+02  0.36820912846E+02  0.00000000000E+00 0. -1.
         11    1    4    4    0    0  0.18246351877E+02  0.12983068367E+02  0.11620248594E+02  0.25229340037E+02  0.51100000000E-03 0. -1.
        -11    1    4    4    0    0  0.58500550380E+01 -0.55463167703E+01  0.98914350857E+01  0.12760300231E+02  0.51100000000E-03 0.  1.
         12    1    4    4    0    0 -0.80815061746E+01 -0.82183102918E+01  0.11634835641E+02  0.16377446886E+02  0.00000000000E+00 0. -1.
</event>
<event>
 8    1  0.1290800E-006  0.9118800E+02  0.7816164E-02  0.1184000E+00
        -11   -1    0    0    0    0  0.00000000000E+00  0.00000000000E+00  0.45593999997E+02  0.45594000000E+02  0.51100000000E-03 0.  1.
         11   -1    0    0    0    0 -0.00000000000E+00 -0.00000000000E+00 -0.45593999997E+02  0.45594000000E+02  0.51100000000E-03 0. -1.
         23    2    1    2    0    0  0.00000000000E+00 -0.35527136788E-14 -0.35527136788E-14  0.91188000000E+02  0.91188000000E+02 0.  0.
    9900012    2    3    3    0    0  0.12444663234E+02  0.23410298746E+02 -0.25551262528E+02  0.54367099045E+02  0.40000033893E+02 0.  0.
         12    1    3    3    0    0 -0.12444663234E+02 -0.23410298746E+02  0.25551262528E+02  0.36820900955E+02  0.00000000000E+00 0. -1.
         11    1    4    4    0    0  0.38775087581E+01 -0.73506089622E+01 -0.37962553280E+01  0.91366340115E+01  0.51100000000E-03 0. -1.
        -11    1    4    4    0    0  0.77482451025E+01  0.25220533693E+02 -0.40901724038E+01  0.26699066135E+02  0.51100000000E-03 0.  1.
        -12    1    4    4    0    0  0.81890937355E+00  0.55403740151E+01 -0.17664834796E+02  0.18531398899E+02  0.00000000000E+00 0.  1.
</event>
<event>
 8    1  0.1290800E-006  0.9118800E+02  0.7816164E-02  0.1184000E+00
        -11   -1    0    0    0    0  0.00000000000E+00  0.00000000000E+00  0.45593999997E+02  0.45594000000E+02  0.51100000000E-03 0. -1.
         11   -1    0    0    0    0 -0.00000000000E+00 -0.00000000000E+00 -0.45593999997E+02  0.45594000000E+02  0.51100000000E-03 0.  1.
         23    2    1    2    0    0  0.44408920985E-15 -0.17763568394E-14  0.00000000000E+00  0.91188000000E+02  0.91188000000E+02 0.  0.
    9900012    2    3    3    0    0 -0.34020133907E+01  0.77767469022E+01 -0.35829033983E+02  0.54367202023E+02  0.40000268652E+02 0.  0.
         12    1    3    3    0    0  0.34020133907E+01 -0.77767469022E+01  0.35829033983E+02  0.36820797977E+02  0.00000000000E+00 0. -1.
         11    1    4    4    0    0  0.28217135685E+01 -0.92015894498E+01  0.15094077473E+01  0.97421572495E+01  0.51100000000E-03 0. -1.
        -11    1    4    4    0    0 -0.55452909748E-01  0.17172392356E+02 -0.32592969150E+02  0.36840138064E+02  0.51100000000E-03 0.  1.
        -12    1    4    4    0    0 -0.61682740495E+01 -0.19405600411E+00 -0.47454725796E+01  0.77849067102E+01  0.00000000000E+00 0.  1.
</event>
<event>
 8    1  0.1290800E-006  0.9118800E+02  0.7816164E-02  0.1184000E+00
        -11   -1    0    0    0    0  0.00000000000E+00  0.00000000000E+00  0.45593999997E+02  0.45594000000E+02  0.51100000000E-03 0.  1.
         11   -1    0    0    0    0 -0.00000000000E+00 -0.00000000000E+00 -0.45593999997E+02  0.45594000000E+02  0.51100000000E-03 0. -1.
         23    2    1    2    0    0  0.00000000000E+00  0.00000000000E+00  0.00000000000E+00  0.91188000000E+02  0.91188000000E+02 0.  0.
    9900012    2    3    3    0    0 -0.21085132094E+02  0.16594596812E+02  0.25215427871E+02  0.54367065174E+02  0.39999956677E+02 0.  0.
         12    1    3    3    0    0  0.21085132094E+02 -0.16594596812E+02 -0.25215427871E+02  0.36820934826E+02  0.00000000000E+00 0. -1.
         11    1    4    4    0    0 -0.59373866981E+01 -0.93807292878E+01 -0.33470621281E+01  0.11595407191E+02  0.51100000000E-03 0. -1.
        -11    1    4    4    0    0 -0.12352115253E+02  0.12401365211E+02  0.19547224281E+02  0.26238570610E+02  0.51100000000E-03 0.  1.
         12    1    4    4    0    0 -0.27956301431E+01  0.13573960888E+02  0.90152657179E+01  0.16533087372E+02  0.00000000000E+00 0. -1.
</event>
<event>
 8    1  0.1290800E-006  0.9118800E+02  0.7816164E-02  0.1184000E+00
        -11   -1    0    0    0    0  0.00000000000E+00  0.00000000000E+00  0.45593999997E+02  0.45594000000E+02  0.51100000000E-03 0. -1.
         11   -1    0    0    0    0 -0.00000000000E+00 -0.00000000000E+00 -0.45593999997E+02  0.45594000000E+02  0.51100000000E-03 0.  1.
         23    2    1    2    0    0  0.17763568394E-14  0.00000000000E+00  0.00000000000E+00  0.91188000000E+02  0.91188000000E+02 0.  0.
    9900012    2    3    3    0    0 -0.12116083241E+02  0.32091636065E+02 -0.13383032105E+02  0.54367107470E+02  0.40000053099E+02 0.  0.
         12    1    3    3    0    0  0.12116083241E+02 -0.32091636065E+02  0.13383032105E+02  0.36820892530E+02  0.00000000000E+00 0. -1.
         11    1    4    4    0    0 -0.10093410903E+02  0.22945911697E+02 -0.15671267708E+02  0.29563160168E+02  0.51100000000E-03 0. -1.
        -11    1    4    4    0    0 -0.10174659005E+02  0.12033188074E+02 -0.35041901086E+00  0.15762109467E+02  0.51100000000E-03 0.  1.
         12    1    4    4    0    0  0.81519866672E+01 -0.28874637059E+01  0.26386546138E+01  0.90418378357E+01  0.00000000000E+00 0. -1.
</event>
<event>
 8    1  0.1290800E-006  0.9118800E+02  0.7816164E-02  0.1184000E+00
        -11   -1    0    0    0    0  0.00000000000E+00  0.00000000000E+00  0.45593999997E+02  0.45594000000E+02  0.51100000000E-03 0.  1.
         11   -1    0    0    0    0 -0.00000000000E+00 -0.00000000000E+00 -0.45593999997E+02  0.45594000000E+02  0.51100000000E-03 0. -1.
         23    2    1    2    0    0 -0.71054273576E-14 -0.35527136788E-14 -0.17763568394E-14  0.91188000000E+02  0.91188000000E+02 0.  0.
    9900012    2    3    3    0    0 -0.30888984557E+02 -0.14321179497E+02 -0.14019872656E+02  0.54367049735E+02  0.39999921481E+02 0.  0.
        -12    1    3    3    0    0  0.30888984557E+02  0.14321179497E+02  0.14019872656E+02  0.36820950265E+02  0.00000000000E+00 0.  1.
         11    1    4    4    0    0 -0.80202212168E+01 -0.14331695029E+01 -0.19773629512E+02  0.21386312154E+02  0.51100000000E-03 0. -1.
        -11    1    4    4    0    0 -0.85162755184E+01 -0.93605806013E+01  0.11522919376E+02  0.17115054458E+02  0.51100000000E-03 0.  1.
        -12    1    4    4    0    0 -0.14352487821E+02 -0.35274293926E+01 -0.57691625197E+01  0.15865683123E+02  0.00000000000E+00 0.  1.
</event>
<event>
 8    1  0.1290800E-006  0.9118800E+02  0.7816164E-02  0.1184000E+00
        -11   -1    0    0    0    0  0.00000000000E+00  0.00000000000E+00  0.45593999997E+02  0.45594000000E+02  0.51100000000E-03 0.  1.
         11   -1    0    0    0    0 -0.00000000000E+00 -0.00000000000E+00 -0.45593999997E+02  0.45594000000E+02  0.51100000000E-03 0. -1.
         23    2    1    2    0    0  0.00000000000E+00  0.00000000000E+00 -0.17763568394E-14  0.91188000000E+02  0.91188000000E+02 0.  0.
    9900012    2    3    3    0    0 -0.32569516044E+02  0.10255377936E+02 -0.13778013517E+02  0.54367084634E+02  0.40000001039E+02 0.  0.
         12    1    3    3    0    0  0.32569516044E+02 -0.10255377936E+02  0.13778013517E+02  0.36820915366E+02  0.00000000000E+00 0. -1.
         11    1    4    4    0    0 -0.13373955374E+02  0.29961319813E+01  0.10114656588E+02  0.17033665705E+02  0.51100000000E-03 0. -1.
        -11    1    4    4    0    0 -0.69940388946E+01  0.13070555771E+02 -0.95903615224E+01  0.17655906734E+02  0.51100000000E-03 0.  1.
         12    1    4    4    0    0 -0.12201521775E+02 -0.58113098157E+01 -0.14302308582E+02  0.19677512195E+02  0.00000000000E+00 0. -1.
</event>
<event>
 8    1  0.1290800E-006  0.9118800E+02  0.7816164E-02  0.1184000E+00
        -11   -1    0    0    0    0  0.00000000000E+00  0.00000000000E+00  0.45593999997E+02  0.45594000000E+02  0.51100000000E-03 0.  1.
         11   -1    0    0    0    0 -0.00000000000E+00 -0.00000000000E+00 -0.45593999997E+02  0.45594000000E+02  0.51100000000E-03 0. -1.
         23    2    1    2    0    0  0.00000000000E+00  0.00000000000E+00  0.00000000000E+00  0.91188000000E+02  0.91188000000E+02 0.  0.
    9900012    2    3    3    0    0  0.16962658807E+02 -0.32439639538E+02 -0.39646810753E+01  0.54367072483E+02  0.39999973341E+02 0.  0.
        -12    1    3    3    0    0 -0.16962658807E+02  0.32439639538E+02  0.39646810753E+01  0.36820927517E+02  0.00000000000E+00 0.  1.
         11    1    4    4    0    0 -0.40273568401E+01 -0.15366593701E+02 -0.45754273020E+01  0.16531374424E+02  0.51100000000E-03 0. -1.
        -11    1    4    4    0    0 -0.43583201241E+01 -0.10827847873E+02  0.11087643547E+01  0.11724615240E+02  0.51100000000E-03 0.  1.
         12    1    4    4    0    0  0.25348335771E+02 -0.62451979643E+01 -0.49801812796E+00  0.26111082820E+02  0.00000000000E+00 0. -1.
</event>
<event>
 8    1  0.1290800E-006  0.9118800E+02  0.7816164E-02  0.1184000E+00
        -11   -1    0    0    0    0  0.00000000000E+00  0.00000000000E+00  0.45593999997E+02  0.45594000000E+02  0.51100000000E-03 0.  1.
         11   -1    0    0    0    0 -0.00000000000E+00 -0.00000000000E+00 -0.45593999997E+02  0.45594000000E+02  0.51100000000E-03 0. -1.
         23    2    1    2    0    0  0.19984014443E-14  0.17763568394E-14  0.00000000000E+00  0.91188000000E+02  0.91188000000E+02 0.  0.
    9900012    2    3    3    0    0 -0.13517921637E+01 -0.68775752445E+01  0.36147633951E+02  0.54367084428E+02  0.40000000570E+02 0.  0.
         12    1    3    3    0    0  0.13517921637E+01  0.68775752445E+01 -0.36147633951E+02  0.36820915572E+02  0.00000000000E+00 0. -1.
         11    1    4    4    0    0  0.75595235981E+01  0.10488039011E+02  0.58562084606E+01  0.14192974922E+02  0.51100000000E-03 0. -1.
        -11    1    4    4    0    0 -0.19489431496E+00 -0.14318604231E+02  0.26639737161E+02  0.30244602943E+02  0.51100000000E-03 0.  1.
         12    1    4    4    0    0 -0.87164214469E+01 -0.30470100242E+01  0.36516883297E+01  0.99295065630E+01  0.00000000000E+00 0. -1.
</event>
<event>
 8    1  0.1290800E-006  0.9118800E+02  0.7816164E-02  0.1184000E+00
        -11   -1    0    0    0    0  0.00000000000E+00  0.00000000000E+00  0.45593999997E+02  0.45594000000E+02  0.51100000000E-03 0.  1.
         11   -1    0    0    0    0 -0.00000000000E+00 -0.00000000000E+00 -0.45593999997E+02  0.45594000000E+02  0.51100000000E-03 0. -1.
         23    2    1    2    0    0  0.00000000000E+00  0.71054273576E-14  0.00000000000E+00  0.91188000000E+02  0.91188000000E+02 0.  0.
    9900012    2    3    3    0    0 -0.21559046511E+02 -0.27089101505E+02 -0.12536653730E+02  0.54367087552E+02  0.40000007691E+02 0.  0.
        -12    1    3    3    0    0  0.21559046511E+02  0.27089101505E+02  0.12536653730E+02  0.36820912448E+02  0.00000000000E+00 0.  1.
         11    1    4    4    0    0 -0.12458568018E+01  0.37617279451E+01 -0.80549610444E+01  0.89769234146E+01  0.51100000000E-03 0. -1.
        -11    1    4    4    0    0 -0.13644233434E+02 -0.13759005189E+02 -0.14761845115E+02  0.24359544357E+02  0.51100000000E-03 0.  1.
        -12    1    4    4    0    0 -0.66689562757E+01 -0.17091824261E+02  0.10280152430E+02  0.21030619780E+02  0.00000000000E+00 0.  1.
</event>
<event>
 8    1  0.1290800E-006  0.9118800E+02  0.7816164E-02  0.1184000E+00
        -11   -1    0    0    0    0  0.00000000000E+00  0.00000000000E+00  0.45593999997E+02  0.45594000000E+02  0.51100000000E-03 0. -1.
         11   -1    0    0    0    0 -0.00000000000E+00 -0.00000000000E+00 -0.45593999997E+02  0.45594000000E+02  0.51100000000E-03 0.  1.
         23    2    1    2    0    0  0.00000000000E+00  0.35527136788E-14 -0.35527136788E-14  0.91188000000E+02  0.91188000000E+02 0.  0.
    9900012    2    3    3    0    0 -0.20062303034E+02  0.20514822584E+02 -0.23074343995E+02  0.54367091544E+02  0.40000016793E+02 0.  0.
         12    1    3    3    0    0  0.20062303034E+02 -0.20514822584E+02  0.23074343995E+02  0.36820908456E+02  0.00000000000E+00 0. -1.
         11    1    4    4    0    0  0.10480489304E+01  0.49180495569E+01 -0.11851137845E+02  0.12873813984E+02  0.51100000000E-03 0. -1.
        -11    1    4    4    0    0 -0.52877345010E-01  0.13067089761E+02 -0.15061454858E+02  0.19939885996E+02  0.51100000000E-03 0.  1.
         12    1    4    4    0    0 -0.21057474620E+02  0.25296832663E+01  0.38382487077E+01  0.21553391564E+02  0.00000000000E+00 0. -1.
</event>
<event>
 8    1  0.1290800E-006  0.9118800E+02  0.7816164E-02  0.1184000E+00
        -11   -1    0    0    0    0  0.00000000000E+00  0.00000000000E+00  0.45593999997E+02  0.45594000000E+02  0.51100000000E-03 0. -1.
         11   -1    0    0    0    0 -0.00000000000E+00 -0.00000000000E+00 -0.45593999997E+02  0.45594000000E+02  0.51100000000E-03 0.  1.
         23    2    1    2    0    0  0.35527136788E-14  0.00000000000E+00  0.00000000000E+00  0.91188000000E+02  0.91188000000E+02 0.  0.
    9900012    2    3    3    0    0 -0.31578873660E+02  0.17760494114E+02  0.65665972289E+01  0.54367073722E+02  0.39999976163E+02 0.  0.
        -12    1    3    3    0    0  0.31578873660E+02 -0.17760494114E+02 -0.65665972289E+01  0.36820926278E+02  0.00000000000E+00 0.  1.
         11    1    4    4    0    0 -0.36402810756E+01  0.60660999285E+00  0.10081701175E+02  0.10735935956E+02  0.51100000000E-03 0. -1.
        -11    1    4    4    0    0  0.16702901199E+01  0.98158259094E+01  0.60636153943E+01  0.11657947473E+02  0.51100000000E-03 0.  1.
        -12    1    4    4    0    0 -0.29608882704E+02  0.73380582120E+01 -0.95787193407E+01  0.31973190293E+02  0.00000000000E+00 0.  1.
</event>
<event>
 8    1  0.1290800E-006  0.9118800E+02  0.7816164E-02  0.1184000E+00
        -11   -1    0    0    0    0  0.00000000000E+00  0.00000000000E+00  0.45593999997E+02  0.45594000000E+02  0.51100000000E-03 0.  1.
         11   -1    0    0    0    0 -0.00000000000E+00 -0.00000000000E+00 -0.45593999997E+02  0.45594000000E+02  0.51100000000E-03 0. -1.
         23    2    1    2    0    0  0.00000000000E+00  0.00000000000E+00  0.00000000000E+00  0.91188000000E+02  0.91188000000E+02 0.  0.
    9900012    2    3    3    0    0  0.24687005690E+02  0.25274436437E+02 -0.10369850010E+02  0.54367093217E+02  0.40000020606E+02 0.  0.
        -12    1    3    3    0    0 -0.24687005690E+02 -0.25274436437E+02  0.10369850010E+02  0.36820906783E+02  0.00000000000E+00 0.  1.
         11    1    4    4    0    0  0.21218202262E+02  0.26914391816E+01 -0.55113697282E+01  0.22086899933E+02  0.51100000000E-03 0. -1.
        -11    1    4    4    0    0  0.42431282736E+01  0.72001458228E+01 -0.12539122281E+02  0.15069035313E+02  0.51100000000E-03 0.  1.
         12    1    4    4    0    0 -0.77432484569E+00  0.15382851432E+02  0.76806420000E+01  0.17211157971E+02  0.00000000000E+00 0. -1.
</event>
<event>
 8    1  0.1290800E-006  0.9118800E+02  0.7816164E-02  0.1184000E+00
        -11   -1    0    0    0    0  0.00000000000E+00  0.00000000000E+00  0.45593999997E+02  0.45594000000E+02  0.51100000000E-03 0.  1.
         11   -1    0    0    0    0 -0.00000000000E+00 -0.00000000000E+00 -0.45593999997E+02  0.45594000000E+02  0.51100000000E-03 0. -1.
         23    2    1    2    0    0  0.00000000000E+00  0.00000000000E+00 -0.62172489379E-14  0.91188000000E+02  0.91188000000E+02 0.  0.
    9900012    2    3    3    0    0 -0.55724161327E+01  0.36199176436E+02  0.37875972266E+01  0.54367107983E+02  0.40000054268E+02 0.  0.
         12    1    3    3    0    0  0.55724161327E+01 -0.36199176436E+02 -0.37875972266E+01  0.36820892017E+02  0.00000000000E+00 0. -1.
         11    1    4    4    0    0 -0.17617165827E+01 -0.35499103928E+00 -0.67873289398E+00  0.19210264335E+01  0.51100000000E-03 0. -1.
        -11    1    4    4    0    0 -0.23885548833E+00  0.14270899797E+02 -0.16378301257E+02  0.21724741317E+02  0.51100000000E-03 0.  1.
        -12    1    4    4    0    0 -0.35718440617E+01  0.22283267678E+02  0.20844631378E+02  0.30721340232E+02  0.00000000000E+00 0.  1.
</event>
<event>
 8    1  0.1290800E-006  0.9118800E+02  0.7816164E-02  0.1184000E+00
        -11   -1    0    0    0    0  0.00000000000E+00  0.00000000000E+00  0.45593999997E+02  0.45594000000E+02  0.51100000000E-03 0. -1.
         11   -1    0    0    0    0 -0.00000000000E+00 -0.00000000000E+00 -0.45593999997E+02  0.45594000000E+02  0.51100000000E-03 0.  1.
         23    2    1    2    0    0  0.00000000000E+00  0.00000000000E+00  0.00000000000E+00  0.91188000000E+02  0.91188000000E+02 0.  0.
    9900012    2    3    3    0    0 -0.99921910961E+01  0.29939388108E+02  0.18962272058E+02  0.54367100979E+02  0.40000038301E+02 0.  0.
        -12    1    3    3    0    0  0.99921910961E+01 -0.29939388108E+02 -0.18962272058E+02  0.36820899021E+02  0.00000000000E+00 0.  1.
         11    1    4    4    0    0  0.54334634615E+01  0.22014477687E+02  0.11105556864E+02  0.25248626627E+02  0.51100000000E-03 0. -1.
        -11    1    4    4    0    0 -0.12848804737E+02  0.15281891812E+02  0.37754666682E+01  0.20319501700E+02  0.51100000000E-03 0.  1.
         12    1    4    4    0    0 -0.25768498208E+01 -0.73569813916E+01  0.40812485259E+01  0.87989726516E+01  0.00000000000E+00 0. -1.
</event>
<event>
 8    1  0.1290800E-006  0.9118800E+02  0.7816164E-02  0.1184000E+00
        -11   -1    0    0    0    0  0.00000000000E+00  0.00000000000E+00  0.45593999997E+02  0.45594000000E+02  0.51100000000E-03 0.  1.
         11   -1    0    0    0    0 -0.00000000000E+00 -0.00000000000E+00 -0.45593999997E+02  0.45594000000E+02  0.51100000000E-03 0. -1.
         23    2    1    2    0    0  0.00000000000E+00  0.00000000000E+00  0.71054273576E-14  0.91188000000E+02  0.91188000000E+02 0.  0.
    9900012    2    3    3    0    0  0.41799144904E+01  0.28714664909E+02  0.22666624609E+02  0.54367088317E+02  0.40000009436E+02 0.  0.
         12    1    3    3    0    0 -0.41799144904E+01 -0.28714664909E+02 -0.22666624609E+02  0.36820911683E+02  0.00000000000E+00 0. -1.
         11    1    4    4    0    0 -0.34246186862E+01  0.52927829743E+01  0.67153684890E+01  0.92107404134E+01  0.51100000000E-03 0. -1.
        -11    1    4    4    0    0  0.17095080970E+02  0.73285523245E+01  0.18578802169E+02  0.26289187184E+02  0.51100000000E-03 0.  1.
         12    1    4    4    0    0 -0.94905477930E+01  0.16093329610E+02 -0.26275460489E+01  0.18867160719E+02  0.00000000000E+00 0. -1.
</event>
<event>
 8    1  0.1290800E-006  0.9118800E+02  0.7816164E-02  0.1184000E+00
        -11   -1    0    0    0    0  0.00000000000E+00  0.00000000000E+00  0.45593999997E+02  0.45594000000E+02  0.51100000000E-03 0. -1.
         11   -1    0    0    0    0 -0.00000000000E+00 -0.00000000000E+00 -0.45593999997E+02  0.45594000000E+02  0.51100000000E-03 0.  1.
         23    2    1    2    0    0  0.00000000000E+00  0.00000000000E+00  0.00000000000E+00  0.91188000000E+02  0.91188000000E+02 0.  0.
    9900012    2    3    3    0    0  0.10645279362E+02 -0.13452564652E+02  0.32580456539E+02  0.54367087237E+02  0.40000006974E+02 0.  0.
        -12    1    3    3    0    0 -0.10645279362E+02  0.13452564652E+02 -0.32580456539E+02  0.36820912763E+02  0.00000000000E+00 0.  1.
         11    1    4    4    0    0  0.77470265299E+01  0.73618742608E+01  0.27749219713E+02  0.29736052321E+02  0.51100000000E-03 0. -1.
        -11    1    4    4    0    0  0.19573737285E+01 -0.14335912478E+02  0.88390159344E+01  0.16955173294E+02  0.51100000000E-03 0.  1.
         12    1    4    4    0    0  0.94087910379E+00 -0.64785264351E+01 -0.40077791082E+01  0.76758616219E+01  0.00000000000E+00 0. -1.
</event>
<event>
 8    1  0.1290800E-006  0.9118800E+02  0.7816164E-02  0.1184000E+00
        -11   -1    0    0    0    0  0.00000000000E+00  0.00000000000E+00  0.45593999997E+02  0.45594000000E+02  0.51100000000E-03 0.  1.
         11   -1    0    0    0    0 -0.00000000000E+00 -0.00000000000E+00 -0.45593999997E+02  0.45594000000E+02  0.51100000000E-03 0. -1.
         23    2    1    2    0    0  0.00000000000E+00 -0.44408920985E-15  0.00000000000E+00  0.91188000000E+02  0.91188000000E+02 0.  0.
    9900012    2    3    3    0    0  0.36047794674E+02 -0.26226478201E+00 -0.75012221519E+01  0.54367073648E+02  0.39999975995E+02 0.  0.
        -12    1    3    3    0    0 -0.36047794674E+02  0.26226478201E+00  0.75012221519E+01  0.36820926352E+02  0.00000000000E+00 0.  1.
         11    1    4    4    0    0  0.22780975477E+01 -0.66214643469E+01  0.41715930014E+01  0.81508102029E+01  0.51100000000E-03 0. -1.
        -11    1    4    4    0    0  0.35286361123E+02  0.11795499611E+02 -0.14466006573E+02  0.39918998469E+02  0.51100000000E-03 0.  1.
        -12    1    4    4    0    0 -0.15166639968E+01 -0.54363000457E+01  0.27931914202E+01  0.62972649758E+01  0.00000000000E+00 0.  1.
</event>
<event>
 8    1  0.1290800E-006  0.9118800E+02  0.7816164E-02  0.1184000E+00
        -11   -1    0    0    0    0  0.00000000000E+00  0.00000000000E+00  0.45593999997E+02  0.45594000000E+02  0.51100000000E-03 0.  1.
         11   -1    0    0    0    0 -0.00000000000E+00 -0.00000000000E+00 -0.45593999997E+02  0.45594000000E+02  0.51100000000E-03 0. -1.
         23    2    1    2    0    0  0.00000000000E+00  0.71054273576E-14  0.35527136788E-14  0.91188000000E+02  0.91188000000E+02 0.  0.
    9900012    2    3    3    0    0  0.42127761805E+01  0.32443495628E+02  0.16895311751E+02  0.54367089489E+02  0.40000012107E+02 0.  0.
         12    1    3    3    0    0 -0.42127761805E+01 -0.32443495628E+02 -0.16895311751E+02  0.36820910511E+02  0.00000000000E+00 0. -1.
         11    1    4    4    0    0 -0.19026465623E+01  0.89540945675E+01 -0.42016341951E+01  0.10072219400E+02  0.51100000000E-03 0. -1.
        -11    1    4    4    0    0  0.16001731525E+02  0.19633360018E+02  0.63244290138E+01  0.26105988585E+02  0.51100000000E-03 0.  1.
         12    1    4    4    0    0 -0.98863087822E+01  0.38560410429E+01  0.14772516932E+02  0.18188881504E+02  0.00000000000E+00 0. -1.
</event>
<event>
 8    1  0.1290800E-006  0.9118800E+02  0.7816164E-02  0.1184000E+00
        -11   -1    0    0    0    0  0.00000000000E+00  0.00000000000E+00  0.45593999997E+02  0.45594000000E+02  0.51100000000E-03 0. -1.
         11   -1    0    0    0    0 -0.00000000000E+00 -0.00000000000E+00 -0.45593999997E+02  0.45594000000E+02  0.51100000000E-03 0.  1.
         23    2    1    2    0    0  0.00000000000E+00 -0.35527136788E-14 -0.35527136788E-14  0.91188000000E+02  0.91188000000E+02 0.  0.
    9900012    2    3    3    0    0  0.85683387224E+01  0.31819389499E+02  0.16428347646E+02  0.54367074116E+02  0.39999977062E+02 0.  0.
         12    1    3    3    0    0 -0.85683387224E+01 -0.31819389499E+02 -0.16428347646E+02  0.36820925884E+02  0.00000000000E+00 0. -1.
         11    1    4    4    0    0  0.10407022067E+02  0.17776895391E+02  0.16282573038E+00  0.20599772585E+02  0.51100000000E-03 0.  1.
        -11    1    4    4    0    0 -0.57302091480E+01  0.15194797752E+02 -0.76743328999E+00  0.16257494571E+02  0.51100000000E-03 0. -1.
         12    1    4    4    0    0  0.38915258032E+01 -0.11523036438E+01  0.17032955206E+02  0.17509806961E+02  0.00000000000E+00 0. -1.
</event>
<event>
 8    1  0.1290800E-006  0.9118800E+02  0.7816164E-02  0.1184000E+00
        -11   -1    0    0    0    0  0.00000000000E+00  0.00000000000E+00  0.45593999997E+02  0.45594000000E+02  0.51100000000E-03 0.  1.
         11   -1    0    0    0    0 -0.00000000000E+00 -0.00000000000E+00 -0.45593999997E+02  0.45594000000E+02  0.51100000000E-03 0. -1.
         23    2    1    2    0    0  0.44408920985E-15  0.00000000000E+00  0.00000000000E+00  0.91188000000E+02  0.91188000000E+02 0.  0.
    9900012    2    3    3    0    0 -0.31533021492E+01  0.12860302855E+02 -0.34357644456E+02  0.54367103263E+02  0.40000043508E+02 0.  0.
        -12    1    3    3    0    0  0.31533021492E+01 -0.12860302855E+02  0.34357644456E+02  0.36820896737E+02  0.00000000000E+00 0.  1.
         11    1    4    4    0    0 -0.90238276559E+00 -0.89841533228E+01 -0.89574926642E+01  0.12718725592E+02  0.51100000000E-03 0. -1.
        -11    1    4    4    0    0  0.35773487371E+01 -0.19326750285E+01  0.23073199354E+01  0.46750809937E+01  0.51100000000E-03 0.  1.
        -12    1    4    4    0    0 -0.58282681206E+01  0.23777131206E+02 -0.27707471727E+02  0.36973296678E+02  0.00000000000E+00 0.  1.
</event>
<event>
 8    1  0.1290800E-006  0.9118800E+02  0.7816164E-02  0.1184000E+00
        -11   -1    0    0    0    0  0.00000000000E+00  0.00000000000E+00  0.45593999997E+02  0.45594000000E+02  0.51100000000E-03 0. -1.
         11   -1    0    0    0    0 -0.00000000000E+00 -0.00000000000E+00 -0.45593999997E+02  0.45594000000E+02  0.51100000000E-03 0.  1.
         23    2    1    2    0    0 -0.35527136788E-14 -0.35527136788E-14  0.35527136788E-14  0.91188000000E+02  0.91188000000E+02 0.  0.
    9900012    2    3    3    0    0  0.19432109605E+02  0.22126249938E+02 -0.22104341907E+02  0.54367085411E+02  0.40000002812E+02 0.  0.
         12    1    3    3    0    0 -0.19432109605E+02 -0.22126249938E+02  0.22104341907E+02  0.36820914589E+02  0.00000000000E+00 0. -1.
         11    1    4    4    0    0  0.14967331324E+02  0.77685154790E+01 -0.17710380561E+02  0.24454619596E+02  0.51100000000E-03 0.  1.
        -11    1    4    4    0    0  0.50215182922E+01 -0.67503044456E+01 -0.21110890582E+01  0.86740390442E+01  0.51100000000E-03 0. -1.
         12    1    4    4    0    0 -0.55674001159E+00  0.21108038904E+02 -0.22828722877E+01  0.21238426771E+02  0.00000000000E+00 0. -1.
</event>
<event>
 8    1  0.1290800E-006  0.9118800E+02  0.7816164E-02  0.1184000E+00
        -11   -1    0    0    0    0  0.00000000000E+00  0.00000000000E+00  0.45593999997E+02  0.45594000000E+02  0.51100000000E-03 0.  1.
         11   -1    0    0    0    0 -0.00000000000E+00 -0.00000000000E+00 -0.45593999997E+02  0.45594000000E+02  0.51100000000E-03 0. -1.
         23    2    1    2    0    0  0.00000000000E+00  0.88817841970E-15 -0.88817841970E-15  0.91188000000E+02  0.91188000000E+02 0.  0.
    9900012    2    3    3    0    0 -0.35877054504E+02  0.72824586843E+01 -0.39475952385E+01  0.54367071813E+02  0.39999971813E+02 0.  0.
         12    1    3    3    0    0  0.35877054504E+02 -0.72824586843E+01  0.39475952385E+01  0.36820928187E+02  0.00000000000E+00 0. -1.
         11    1    4    4    0    0 -0.12172385394E+01  0.96021527338E+01  0.51154607415E+01  0.10947645667E+02  0.51100000000E-03 0. -1.
        -11    1    4    4    0    0 -0.20181450425E+02  0.21364225158E+01  0.68784890071E+01  0.21428225631E+02  0.51100000000E-03 0.  1.
         12    1    4    4    0    0 -0.14478365539E+02 -0.44561165653E+01 -0.15941544987E+02  0.21991200515E+02  0.00000000000E+00 0. -1.
</event>
<event>
 8    1  0.1290800E-006  0.9118800E+02  0.7816164E-02  0.1184000E+00
        -11   -1    0    0    0    0  0.00000000000E+00  0.00000000000E+00  0.45593999997E+02  0.45594000000E+02  0.51100000000E-03 0. -1.
         11   -1    0    0    0    0 -0.00000000000E+00 -0.00000000000E+00 -0.45593999997E+02  0.45594000000E+02  0.51100000000E-03 0.  1.
         23    2    1    2    0    0  0.17763568394E-14  0.00000000000E+00  0.35527136788E-14  0.91188000000E+02  0.91188000000E+02 0.  0.
    9900012    2    3    3    0    0  0.15873406297E+02 -0.23306200845E+02  0.23677754472E+02  0.54367080917E+02  0.39999992566E+02 0.  0.
        -12    1    3    3    0    0 -0.15873406297E+02  0.23306200845E+02 -0.23677754472E+02  0.36820919083E+02  0.00000000000E+00 0.  1.
         11    1    4    4    0    0  0.16042009000E+01 -0.15403796137E+02  0.15278347812E+01  0.15562283744E+02  0.51100000000E-03 0. -1.
        -11    1    4    4    0    0  0.21656691557E+02 -0.78136833904E+01  0.11218608232E+02  0.25610995846E+02  0.51100000000E-03 0.  1.
         12    1    4    4    0    0 -0.73874861596E+01 -0.88721318026E-01  0.10931311459E+02  0.13193801326E+02  0.00000000000E+00 0. -1.
</event>
<event>
 8    1  0.1290800E-006  0.9118800E+02  0.7816164E-02  0.1184000E+00
        -11   -1    0    0    0    0  0.00000000000E+00  0.00000000000E+00  0.45593999997E+02  0.45594000000E+02  0.51100000000E-03 0.  1.
         11   -1    0    0    0    0 -0.00000000000E+00 -0.00000000000E+00 -0.45593999997E+02  0.45594000000E+02  0.51100000000E-03 0. -1.
         23    2    1    2    0    0 -0.17763568394E-14  0.00000000000E+00  0.00000000000E+00  0.91188000000E+02  0.91188000000E+02 0.  0.
    9900012    2    3    3    0    0  0.13750659775E+02 -0.34155001900E+02 -0.36717992057E+00  0.54367087190E+02  0.40000006868E+02 0.  0.
        -12    1    3    3    0    0 -0.13750659775E+02  0.34155001900E+02  0.36717992057E+00  0.36820912810E+02  0.00000000000E+00 0.  1.
         11    1    4    4    0    0 -0.47572062110E+01 -0.22252794516E+02 -0.97290824783E+01  0.24748190254E+02  0.51100000000E-03 0. -1.
        -11    1    4    4    0    0  0.11908000799E+02 -0.16278827145E+02  0.63317556825E+01  0.21139816142E+02  0.51100000000E-03 0.  1.
         12    1    4    4    0    0  0.65998651873E+01  0.43766197615E+01  0.30301468752E+01  0.84790807941E+01  0.00000000000E+00 0. -1.
</event>
<event>
 8    1  0.1290800E-006  0.9118800E+02  0.7816164E-02  0.1184000E+00
        -11   -1    0    0    0    0  0.00000000000E+00  0.00000000000E+00  0.45593999997E+02  0.45594000000E+02  0.51100000000E-03 0.  1.
         11   -1    0    0    0    0 -0.00000000000E+00 -0.00000000000E+00 -0.45593999997E+02  0.45594000000E+02  0.51100000000E-03 0. -1.
         23    2    1    2    0    0 -0.17763568394E-14  0.00000000000E+00  0.00000000000E+00  0.91188000000E+02  0.91188000000E+02 0.  0.
    9900012    2    3    3    0    0 -0.93425278607E+01 -0.10846628318E+02  0.33924145746E+02  0.54367084242E+02  0.40000000147E+02 0.  0.
         12    1    3    3    0    0  0.93425278607E+01  0.10846628318E+02 -0.33924145746E+02  0.36820915758E+02  0.00000000000E+00 0. -1.
         11    1    4    4    0    0  0.58477188218E+00  0.39044545051E+01 -0.38944437955E+01  0.55455762436E+01  0.51100000000E-03 0. -1.
        -11    1    4    4    0    0  0.55241724145E+01 -0.75210398595E+01  0.25975574942E+01  0.96865797178E+01  0.51100000000E-03 0.  1.
        -12    1    4    4    0    0 -0.15451472157E+02 -0.72300429634E+01  0.35221032047E+02  0.39134928281E+02  0.00000000000E+00 0.  1.
</event>
<event>
 8    1  0.1290800E-006  0.9118800E+02  0.7816164E-02  0.1184000E+00
        -11   -1    0    0    0    0  0.00000000000E+00  0.00000000000E+00  0.45593999997E+02  0.45594000000E+02  0.51100000000E-03 0.  1.
         11   -1    0    0    0    0 -0.00000000000E+00 -0.00000000000E+00 -0.45593999997E+02  0.45594000000E+02  0.51100000000E-03 0. -1.
         23    2    1    2    0    0  0.00000000000E+00  0.00000000000E+00  0.44408920985E-15  0.91188000000E+02  0.91188000000E+02 0.  0.
    9900012    2    3    3    0    0 -0.35118434941E+02  0.10779507026E+02  0.25053381148E+01  0.54367096107E+02  0.40000027196E+02 0.  0.
         12    1    3    3    0    0  0.35118434941E+02 -0.10779507026E+02 -0.25053381148E+01  0.36820903893E+02  0.00000000000E+00 0. -1.
         11    1    4    4    0    0 -0.30077244273E+02  0.46242922810E+01 -0.15566806742E+02  0.34181137702E+02  0.51100000000E-03 0. -1.
        -11    1    4    4    0    0 -0.51440543712E+01  0.33270425648E+01  0.11488910965E+02  0.13020199039E+02  0.51100000000E-03 0.  1.
         12    1    4    4    0    0  0.10286370353E+00  0.28281721800E+01  0.65832338924E+01  0.71657593668E+01  0.00000000000E+00 0. -1.
</event>
<event>
 8    1  0.1290800E-006  0.9118800E+02  0.7816164E-02  0.1184000E+00
        -11   -1    0    0    0    0  0.00000000000E+00  0.00000000000E+00  0.45593999997E+02  0.45594000000E+02  0.51100000000E-03 0.  1.
         11   -1    0    0    0    0 -0.00000000000E+00 -0.00000000000E+00 -0.45593999997E+02  0.45594000000E+02  0.51100000000E-03 0. -1.
         23    2    1    2    0    0  0.00000000000E+00 -0.44408920985E-15 -0.17763568394E-14  0.91188000000E+02  0.91188000000E+02 0.  0.
    9900012    2    3    3    0    0 -0.34796859526E+02  0.37380616391E+01  0.11444879442E+02  0.54367084705E+02  0.40000001202E+02 0.  0.
         12    1    3    3    0    0  0.34796859526E+02 -0.37380616391E+01 -0.11444879442E+02  0.36820915295E+02  0.00000000000E+00 0. -1.
         11    1    4    4    0    0  0.21998183407E+01  0.84217557784E+01 -0.43253756429E+01  0.97197760179E+01  0.51100000000E-03 0. -1.
        -11    1    4    4    0    0 -0.35256206554E+02 -0.87933128974E+01  0.10670793163E+02  0.37870678358E+02  0.51100000000E-03 0.  1.
        -12    1    4    4    0    0 -0.17404713129E+01  0.41096187581E+01  0.50994619220E+01  0.67766303294E+01  0.00000000000E+00 0.  1.
</event>
<event>
 8    1  0.1290800E-006  0.9118800E+02  0.7816164E-02  0.1184000E+00
        -11   -1    0    0    0    0  0.00000000000E+00  0.00000000000E+00  0.45593999997E+02  0.45594000000E+02  0.51100000000E-03 0. -1.
         11   -1    0    0    0    0 -0.00000000000E+00 -0.00000000000E+00 -0.45593999997E+02  0.45594000000E+02  0.51100000000E-03 0.  1.
         23    2    1    2    0    0  0.88817841970E-15  0.00000000000E+00  0.00000000000E+00  0.91188000000E+02  0.91188000000E+02 0.  0.
    9900012    2    3    3    0    0  0.36871858909E+01 -0.23944626245E+02 -0.27727955226E+02  0.54367082483E+02  0.39999996137E+02 0.  0.
         12    1    3    3    0    0 -0.36871858909E+01  0.23944626245E+02  0.27727955226E+02  0.36820917517E+02  0.00000000000E+00 0. -1.
         11    1    4    4    0    0  0.83873097659E+00 -0.63897136754E+01 -0.19797316141E+02  0.20819837587E+02  0.51100000000E-03 0. -1.
        -11    1    4    4    0    0  0.51321540789E+01 -0.23161586762E+02 -0.11662966823E+02  0.26435258694E+02  0.51100000000E-03 0.  1.
         12    1    4    4    0    0 -0.22836991646E+01  0.56066741932E+01  0.37323277389E+01  0.71119862017E+01  0.00000000000E+00 0. -1.
</event>
<event>
 8    1  0.1290800E-006  0.9118800E+02  0.7816164E-02  0.1184000E+00
        -11   -1    0    0    0    0  0.00000000000E+00  0.00000000000E+00  0.45593999997E+02  0.45594000000E+02  0.51100000000E-03 0. -1.
         11   -1    0    0    0    0 -0.00000000000E+00 -0.00000000000E+00 -0.45593999997E+02  0.45594000000E+02  0.51100000000E-03 0.  1.
         23    2    1    2    0    0  0.44408920985E-15  0.88817841970E-15 -0.71054273576E-14  0.91188000000E+02  0.91188000000E+02 0.  0.
    9900012    2    3    3    0    0  0.33563157639E+01  0.43373629189E+01 -0.36410228843E+02  0.54367050298E+02  0.39999922764E+02 0.  0.
         12    1    3    3    0    0 -0.33563157639E+01 -0.43373629189E+01  0.36410228843E+02  0.36820949702E+02  0.00000000000E+00 0. -1.
         11    1    4    4    0    0  0.16879072204E+01 -0.80314642874E+00  0.20032864873E+01  0.27399328426E+01  0.51100000000E-03 0. -1.
        -11    1    4    4    0    0  0.71311713820E+00  0.10866610504E+02 -0.42918751043E+02  0.44278786696E+02  0.51100000000E-03 0.  1.
        -12    1    4    4    0    0  0.95529140536E+00 -0.57261011561E+01  0.45052357131E+01  0.73483307594E+01  0.00000000000E+00 0.  1.
</event>
<event>
 8    1  0.1290800E-006  0.9118800E+02  0.7816164E-02  0.1184000E+00
        -11   -1    0    0    0    0  0.00000000000E+00  0.00000000000E+00  0.45593999997E+02  0.45594000000E+02  0.51100000000E-03 0. -1.
         11   -1    0    0    0    0 -0.00000000000E+00 -0.00000000000E+00 -0.45593999997E+02  0.45594000000E+02  0.51100000000E-03 0.  1.
         23    2    1    2    0    0  0.00000000000E+00 -0.17763568394E-14  0.00000000000E+00  0.91188000000E+02  0.91188000000E+02 0.  0.
    9900012    2    3    3    0    0  0.13161099295E+02 -0.84282243960E+01  0.33339648413E+02  0.54367059526E+02  0.39999943801E+02 0.  0.
        -12    1    3    3    0    0 -0.13161099295E+02  0.84282243960E+01 -0.33339648413E+02  0.36820940474E+02  0.00000000000E+00 0.  1.
         11    1    4    4    0    0 -0.31481164026E+01 -0.83379934938E+01  0.27601351231E+01  0.93301188923E+01  0.51100000000E-03 0. -1.
        -11    1    4    4    0    0  0.23324415678E+02  0.56143170678E+01  0.23071470112E+02  0.33284255380E+02  0.51100000000E-03 0.  1.
        -12    1    4    4    0    0 -0.70151999799E+01 -0.57045479700E+01  0.75080431776E+01  0.11752685253E+02  0.00000000000E+00 0.  1.
</event>
<event>
 8    1  0.1290800E-006  0.9118800E+02  0.7816164E-02  0.1184000E+00
        -11   -1    0    0    0    0  0.00000000000E+00  0.00000000000E+00  0.45593999997E+02  0.45594000000E+02  0.51100000000E-03 0. -1.
         11   -1    0    0    0    0 -0.00000000000E+00 -0.00000000000E+00 -0.45593999997E+02  0.45594000000E+02  0.51100000000E-03 0.  1.
         23    2    1    2    0    0  0.00000000000E+00  0.00000000000E+00 -0.13322676296E-14  0.91188000000E+02  0.91188000000E+02 0.  0.
    9900012    2    3    3    0    0 -0.55133370399E+01  0.36301602471E+02 -0.27525282069E+01  0.54367086936E+02  0.40000006289E+02 0.  0.
         12    1    3    3    0    0  0.55133370399E+01 -0.36301602471E+02  0.27525282069E+01  0.36820913064E+02  0.00000000000E+00 0. -1.
         11    1    4    4    0    0 -0.29194004521E+01  0.13285608503E+02  0.14178333297E+02  0.19648293250E+02  0.51100000000E-03 0. -1.
        -11    1    4    4    0    0 -0.70517109501E+01  0.24121919814E+02 -0.11591819634E+02  0.27676053287E+02  0.51100000000E-03 0.  1.
         12    1    4    4    0    0  0.44577743623E+01 -0.11059258458E+01 -0.53390418704E+01  0.70427403996E+01  0.00000000000E+00 0. -1.
</event>
<event>
 8    1  0.1290800E-006  0.9118800E+02  0.7816164E-02  0.1184000E+00
        -11   -1    0    0    0    0  0.00000000000E+00  0.00000000000E+00  0.45593999997E+02  0.45594000000E+02  0.51100000000E-03 0.  1.
         11   -1    0    0    0    0 -0.00000000000E+00 -0.00000000000E+00 -0.45593999997E+02  0.45594000000E+02  0.51100000000E-03 0. -1.
         23    2    1    2    0    0  0.00000000000E+00  0.17763568394E-14 -0.71054273576E-14  0.91188000000E+02  0.91188000000E+02 0.  0.
    9900012    2    3    3    0    0 -0.23112908196E+02 -0.96320339625E+01  0.26996230743E+02  0.54367094554E+02  0.40000023655E+02 0.  0.
         12    1    3    3    0    0  0.23112908196E+02  0.96320339625E+01 -0.26996230743E+02  0.36820905446E+02  0.00000000000E+00 0. -1.
         11    1    4    4    0    0  0.17498585577E+01 -0.10674893136E+02  0.99244676101E+01  0.14680272683E+02  0.51100000000E-03 0. -1.
        -11    1    4    4    0    0 -0.56406731132E+01  0.57715176585E+00 -0.69165226382E+01  0.89436336573E+01  0.51100000000E-03 0.  1.
        -12    1    4    4    0    0 -0.19222093640E+02  0.46570740802E+00  0.23988285771E+02  0.30743188214E+02  0.00000000000E+00 0.  1.
</event>
<event>
 8    1  0.1290800E-006  0.9118800E+02  0.7816164E-02  0.1184000E+00
        -11   -1    0    0    0    0  0.00000000000E+00  0.00000000000E+00  0.45593999997E+02  0.45594000000E+02  0.51100000000E-03 0. -1.
         11   -1    0    0    0    0 -0.00000000000E+00 -0.00000000000E+00 -0.45593999997E+02  0.45594000000E+02  0.51100000000E-03 0.  1.
         23    2    1    2    0    0  0.17763568394E-14  0.35527136788E-14  0.00000000000E+00  0.91188000000E+02  0.91188000000E+02 0.  0.
    9900012    2    3    3    0    0 -0.99885991113E+01 -0.14002312630E+02 -0.32556766070E+02  0.54367083552E+02  0.39999998573E+02 0.  0.
         12    1    3    3    0    0  0.99885991113E+01  0.14002312630E+02  0.32556766070E+02  0.36820916448E+02  0.00000000000E+00 0. -1.
         11    1    4    4    0    0 -0.46398191075E+01  0.63949580716E+00 -0.22711175110E+02  0.23189099840E+02  0.51100000000E-03 0. -1.
        -11    1    4    4    0    0 -0.13133848445E+01 -0.13093442822E+02 -0.17793519883E+02  0.22130806012E+02  0.51100000000E-03 0.  1.
         12    1    4    4    0    0 -0.40353951593E+01 -0.15483656145E+01  0.79479289227E+01  0.90471776996E+01  0.00000000000E+00 0. -1.
</event>
<event>
 8    1  0.1290800E-006  0.9118800E+02  0.7816164E-02  0.1184000E+00
        -11   -1    0    0    0    0  0.00000000000E+00  0.00000000000E+00  0.45593999997E+02  0.45594000000E+02  0.51100000000E-03 0. -1.
         11   -1    0    0    0    0 -0.00000000000E+00 -0.00000000000E+00 -0.45593999997E+02  0.45594000000E+02  0.51100000000E-03 0.  1.
         23    2    1    2    0    0  0.00000000000E+00  0.00000000000E+00  0.00000000000E+00  0.91188000000E+02  0.91188000000E+02 0.  0.
    9900012    2    3    3    0    0 -0.26709838406E+02  0.19102627200E+02 -0.16656914998E+02  0.54367100352E+02  0.40000036874E+02 0.  0.
        -12    1    3    3    0    0  0.26709838406E+02 -0.19102627200E+02  0.16656914998E+02  0.36820899648E+02  0.00000000000E+00 0.  1.
         11    1    4    4    0    0 -0.27691735083E-01  0.28459270390E+01  0.61083162333E+01  0.67388125817E+01  0.51100000000E-03 0. -1.
        -11    1    4    4    0    0  0.57897257564E+00 -0.63737672142E+01 -0.37514452025E+01  0.74184539570E+01  0.51100000000E-03 0.  1.
         12    1    4    4    0    0 -0.27261119246E+02  0.22630467375E+02 -0.19013786029E+02  0.40209833814E+02  0.00000000000E+00 0. -1.
</event>
<event>
 8    1  0.1290800E-006  0.9118800E+02  0.7816164E-02  0.1184000E+00
        -11   -1    0    0    0    0  0.00000000000E+00  0.00000000000E+00  0.45593999997E+02  0.45594000000E+02  0.51100000000E-03 0. -1.
         11   -1    0    0    0    0 -0.00000000000E+00 -0.00000000000E+00 -0.45593999997E+02  0.45594000000E+02  0.51100000000E-03 0.  1.
         23    2    1    2    0    0  0.00000000000E+00  0.35527136788E-14 -0.44408920985E-15  0.91188000000E+02  0.91188000000E+02 0.  0.
    9900012    2    3    3    0    0 -0.23483386798E+02 -0.28169705920E+02 -0.32827183447E+01  0.54367108826E+02  0.40000056190E+02 0.  0.
        -12    1    3    3    0    0  0.23483386798E+02  0.28169705920E+02  0.32827183447E+01  0.36820891174E+02  0.00000000000E+00 0.  1.
         11    1    4    4    0    0 -0.28100915026E+01  0.35464132488E+01  0.57146051998E+01  0.72890585150E+01  0.51100000000E-03 0. -1.
        -11    1    4    4    0    0 -0.27102234137E+02 -0.26783562787E+02 -0.72005310218E+01  0.38778060524E+02  0.51100000000E-03 0.  1.
        -12    1    4    4    0    0  0.64289388414E+01 -0.49325563818E+01 -0.17967925226E+01  0.82999897865E+01  0.00000000000E+00 0.  1.
</event>
<event>
 8    1  0.1290800E-006  0.9118800E+02  0.7816164E-02  0.1184000E+00
        -11   -1    0    0    0    0  0.00000000000E+00  0.00000000000E+00  0.45593999997E+02  0.45594000000E+02  0.51100000000E-03 0.  1.
         11   -1    0    0    0    0 -0.00000000000E+00 -0.00000000000E+00 -0.45593999997E+02  0.45594000000E+02  0.51100000000E-03 0. -1.
         23    2    1    2    0    0  0.17763568394E-14  0.00000000000E+00 -0.35527136788E-14  0.91188000000E+02  0.91188000000E+02 0.  0.
    9900012    2    3    3    0    0  0.91604094471E+01 -0.33466160314E+02  0.12324071077E+02  0.54367085898E+02  0.40000003921E+02 0.  0.
        -12    1    3    3    0    0 -0.91604094471E+01  0.33466160314E+02 -0.12324071077E+02  0.36820914102E+02  0.00000000000E+00 0.  1.
         11    1    4    4    0    0  0.74362251991E+01 -0.47423042687E+01 -0.11629557891E+02  0.14595667576E+02  0.51100000000E-03 0. -1.
        -11    1    4    4    0    0  0.27357327046E+01 -0.17469858809E+01  0.74604476349E+01  0.81359985419E+01  0.51100000000E-03 0.  1.
         12    1    4    4    0    0 -0.10115484566E+01 -0.26976870164E+02  0.16493181333E+02  0.31635419780E+02  0.00000000000E+00 0. -1.
</event>
<event>
 8    1  0.1290800E-006  0.9118800E+02  0.7816164E-02  0.1184000E+00
        -11   -1    0    0    0    0  0.00000000000E+00  0.00000000000E+00  0.45593999997E+02  0.45594000000E+02  0.51100000000E-03 0.  1.
         11   -1    0    0    0    0 -0.00000000000E+00 -0.00000000000E+00 -0.45593999997E+02  0.45594000000E+02  0.51100000000E-03 0. -1.
         23    2    1    2    0    0  0.00000000000E+00 -0.17763568394E-14  0.00000000000E+00  0.91188000000E+02  0.91188000000E+02 0.  0.
    9900012    2    3    3    0    0  0.43823102686E+01  0.58491231732E+01  0.36088269554E+02  0.54367080884E+02  0.39999992490E+02 0.  0.
         12    1    3    3    0    0 -0.43823102686E+01 -0.58491231732E+01 -0.36088269554E+02  0.36820919116E+02  0.00000000000E+00 0. -1.
         11    1    4    4    0    0 -0.80263836963E+01 -0.86892838697E+01  0.57098531688E+01  0.13135026185E+02  0.51100000000E-03 0. -1.
        -11    1    4    4    0    0  0.15219485306E+02  0.17439633856E+02  0.28666318894E+02  0.36844692986E+02  0.51100000000E-03 0.  1.
        -12    1    4    4    0    0 -0.28107913411E+01 -0.29012268127E+01  0.17120974909E+01  0.43873617130E+01  0.00000000000E+00 0.  1.
</event>
<event>
 8    1  0.1290800E-006  0.9118800E+02  0.7816164E-02  0.1184000E+00
        -11   -1    0    0    0    0  0.00000000000E+00  0.00000000000E+00  0.45593999997E+02  0.45594000000E+02  0.51100000000E-03 0. -1.
         11   -1    0    0    0    0 -0.00000000000E+00 -0.00000000000E+00 -0.45593999997E+02  0.45594000000E+02  0.51100000000E-03 0.  1.
         23    2    1    2    0    0 -0.88817841970E-15  0.88817841970E-15  0.00000000000E+00  0.91188000000E+02  0.91188000000E+02 0.  0.
    9900012    2    3    3    0    0  0.65233307061E+00 -0.30092143137E+01  0.36691948185E+02  0.54367082428E+02  0.39999996011E+02 0.  0.
        -12    1    3    3    0    0 -0.65233307061E+00  0.30092143137E+01 -0.36691948185E+02  0.36820917572E+02  0.00000000000E+00 0.  1.
         11    1    4    4    0    0  0.97084676820E+01 -0.51879086242E+01  0.16614994523E+02  0.19930549011E+02  0.51100000000E-03 0. -1.
        -11    1    4    4    0    0 -0.13390652311E+02  0.29324339129E+01  0.24578114380E+02  0.28142360326E+02  0.51100000000E-03 0.  1.
        -12    1    4    4    0    0  0.43345176999E+01 -0.75373960237E+00 -0.45011607184E+01  0.62941730904E+01  0.00000000000E+00 0.  1.
</event>
<event>
 8    1  0.1290800E-006  0.9118800E+02  0.7816164E-02  0.1184000E+00
        -11   -1    0    0    0    0  0.00000000000E+00  0.00000000000E+00  0.45593999997E+02  0.45594000000E+02  0.51100000000E-03 0.  1.
         11   -1    0    0    0    0 -0.00000000000E+00 -0.00000000000E+00 -0.45593999997E+02  0.45594000000E+02  0.51100000000E-03 0. -1.
         23    2    1    2    0    0  0.66613381478E-15  0.00000000000E+00  0.00000000000E+00  0.91188000000E+02  0.91188000000E+02 0.  0.
    9900012    2    3    3    0    0  0.19036442374E+01 -0.20720899102E+02 -0.30377664082E+02  0.54367054927E+02  0.39999933317E+02 0.  0.
        -12    1    3    3    0    0 -0.19036442374E+01  0.20720899102E+02  0.30377664082E+02  0.36820945073E+02  0.00000000000E+00 0.  1.
         11    1    4    4    0    0 -0.71296423179E+01 -0.24056238402E+02 -0.32233419716E+02  0.40847616240E+02  0.51100000000E-03 0. -1.
        -11    1    4    4    0    0  0.21609127715E+01 -0.29334549011E+01  0.21168724909E+01  0.42137692233E+01  0.51100000000E-03 0.  1.
         12    1    4    4    0    0  0.68723737838E+01  0.62687942009E+01 -0.26111685699E+00  0.93056694638E+01  0.00000000000E+00 0. -1.
</event>
<event>
 8    1  0.1290800E-006  0.9118800E+02  0.7816164E-02  0.1184000E+00
        -11   -1    0    0    0    0  0.00000000000E+00  0.00000000000E+00  0.45593999997E+02  0.45594000000E+02  0.51100000000E-03 0. -1.
         11   -1    0    0    0    0 -0.00000000000E+00 -0.00000000000E+00 -0.45593999997E+02  0.45594000000E+02  0.51100000000E-03 0.  1.
         23    2    1    2    0    0  0.00000000000E+00  0.00000000000E+00  0.35527136788E-14  0.91188000000E+02  0.91188000000E+02 0.  0.
    9900012    2    3    3    0    0 -0.19913044059E+02 -0.14595134715E+02 -0.27317268224E+02  0.54367076271E+02  0.39999981974E+02 0.  0.
         12    1    3    3    0    0  0.19913044059E+02  0.14595134715E+02  0.27317268224E+02  0.36820923729E+02  0.00000000000E+00 0. -1.
         11    1    4    4    0    0 -0.59986669204E+01  0.83821740604E+01 -0.42956232027E+01  0.11166791203E+02  0.51100000000E-03 0. -1.
        -11    1    4    4    0    0 -0.81619601270E+01 -0.77163172305E+01 -0.24371654378E+02  0.26835362529E+02  0.51100000000E-03 0.  1.
        -12    1    4    4    0    0 -0.57524170118E+01 -0.15260991545E+02  0.13500093565E+01  0.16364922538E+02  0.00000000000E+00 0.  1.
</event>
<event>
 8    1  0.1290800E-006  0.9118800E+02  0.7816164E-02  0.1184000E+00
        -11   -1    0    0    0    0  0.00000000000E+00  0.00000000000E+00  0.45593999997E+02  0.45594000000E+02  0.51100000000E-03 0.  1.
         11   -1    0    0    0    0 -0.00000000000E+00 -0.00000000000E+00 -0.45593999997E+02  0.45594000000E+02  0.51100000000E-03 0. -1.
         23    2    1    2    0    0 -0.71054273576E-14 -0.88817841970E-15  0.17763568394E-14  0.91188000000E+02  0.91188000000E+02 0.  0.
    9900012    2    3    3    0    0  0.36328567618E+02 -0.23476287152E+01  0.55230520919E+01  0.54367078092E+02  0.39999986126E+02 0.  0.
        -12    1    3    3    0    0 -0.36328567618E+02  0.23476287152E+01 -0.55230520919E+01  0.36820921908E+02  0.00000000000E+00 0.  1.
         11    1    4    4    0    0 -0.20180253510E+00  0.62900753905E+01 -0.97503182336E+01  0.11604933373E+02  0.51100000000E-03 0. -1.
        -11    1    4    4    0    0  0.32687227848E+02 -0.26647764715E+01  0.11781346996E+02  0.34847611616E+02  0.51100000000E-03 0.  1.
         12    1    4    4    0    0  0.38431423048E+01 -0.59729276343E+01  0.34920233298E+01  0.79145331028E+01  0.00000000000E+00 0. -1.
</event>
<event>
 8    1  0.1290800E-006  0.9118800E+02  0.7816164E-02  0.1184000E+00
        -11   -1    0    0    0    0  0.00000000000E+00  0.00000000000E+00  0.45593999997E+02  0.45594000000E+02  0.51100000000E-03 0. -1.
         11   -1    0    0    0    0 -0.00000000000E+00 -0.00000000000E+00 -0.45593999997E+02  0.45594000000E+02  0.51100000000E-03 0.  1.
         23    2    1    2    0    0 -0.35527136788E-14 -0.35527136788E-14  0.35527136788E-14  0.91188000000E+02  0.91188000000E+02 0.  0.
    9900012    2    3    3    0    0  0.49337264171E+01 -0.20543388904E+02  0.30156610413E+02  0.54366896871E+02  0.39999572995E+02 0.  0.
        -12    1    3    3    0    0 -0.49337264171E+01  0.20543388904E+02 -0.30156610413E+02  0.36821103129E+02  0.00000000000E+00 0.  1.
         11    1    4    4    0    0 -0.36099599418E+01 -0.40027468546E+01  0.57682038875E+01  0.78946798233E+01  0.51100000000E-03 0. -1.
        -11    1    4    4    0    0 -0.13479324481E+02 -0.90013270102E+01  0.86385006799E+01  0.18366811663E+02  0.51100000000E-03 0.  1.
        -12    1    4    4    0    0  0.22023010840E+02 -0.75393150394E+01  0.15749905846E+02  0.28105405385E+02  0.00000000000E+00 0.  1.
</event>
<event>
 8    1  0.1290800E-006  0.9118800E+02  0.7816164E-02  0.1184000E+00
        -11   -1    0    0    0    0  0.00000000000E+00  0.00000000000E+00  0.45593999997E+02  0.45594000000E+02  0.51100000000E-03 0.  1.
         11   -1    0    0    0    0 -0.00000000000E+00 -0.00000000000E+00 -0.45593999997E+02  0.45594000000E+02  0.51100000000E-03 0. -1.
         23    2    1    2    0    0  0.88817841970E-15  0.17763568394E-14  0.00000000000E+00  0.91188000000E+02  0.91188000000E+02 0.  0.
    9900012    2    3    3    0    0 -0.52754774094E+01 -0.85173442124E+01  0.35431668878E+02  0.54367095967E+02  0.40000026875E+02 0.  0.
         12    1    3    3    0    0  0.52754774094E+01  0.85173442124E+01 -0.35431668878E+02  0.36820904033E+02  0.00000000000E+00 0. -1.
         11    1    4    4    0    0 -0.61262929593E+00  0.43702923328E+01 -0.41250874391E+01  0.60407877276E+01  0.51100000000E-03 0. -1.
        -11    1    4    4    0    0 -0.41177660401E+01 -0.33001238015E+01 -0.20234082931E+01  0.56516365460E+01  0.51100000000E-03 0.  1.
        -12    1    4    4    0    0 -0.54508207333E+00 -0.95875127437E+01  0.41580164611E+02  0.42674671693E+02  0.00000000000E+00 0.  1.
</event>
<event>
 8    1  0.1290800E-006  0.9118800E+02  0.7816164E-02  0.1184000E+00
        -11   -1    0    0    0    0  0.00000000000E+00  0.00000000000E+00  0.45593999997E+02  0.45594000000E+02  0.51100000000E-03 0.  1.
         11   -1    0    0    0    0 -0.00000000000E+00 -0.00000000000E+00 -0.45593999997E+02  0.45594000000E+02  0.51100000000E-03 0. -1.
         23    2    1    2    0    0 -0.35527136788E-14  0.00000000000E+00  0.17763568394E-14  0.91188000000E+02  0.91188000000E+02 0.  0.
    9900012    2    3    3    0    0  0.27773437126E+02 -0.22177442168E+02 -0.96216893592E+01  0.54367086690E+02  0.40000005726E+02 0.  0.
        -12    1    3    3    0    0 -0.27773437126E+02  0.22177442168E+02  0.96216893592E+01  0.36820913310E+02  0.00000000000E+00 0.  1.
         11    1    4    4    0    0  0.31874417425E+02 -0.18443333496E+02  0.46669218429E+01  0.37120280122E+02  0.51100000000E-03 0. -1.
        -11    1    4    4    0    0 -0.19227916148E+01 -0.35220625686E+01 -0.15183676634E+01  0.42903954309E+01  0.51100000000E-03 0.  1.
         12    1    4    4    0    0 -0.21781886840E+01 -0.21204610328E+00 -0.12770243539E+02  0.12956411136E+02  0.00000000000E+00 0. -1.
</event>
<event>
 8    1  0.1290800E-006  0.9118800E+02  0.7816164E-02  0.1184000E+00
        -11   -1    0    0    0    0  0.00000000000E+00  0.00000000000E+00  0.45593999997E+02  0.45594000000E+02  0.51100000000E-03 0.  1.
         11   -1    0    0    0    0 -0.00000000000E+00 -0.00000000000E+00 -0.45593999997E+02  0.45594000000E+02  0.51100000000E-03 0. -1.
         23    2    1    2    0    0  0.00000000000E+00  0.17763568394E-14  0.00000000000E+00  0.91188000000E+02  0.91188000000E+02 0.  0.
    9900012    2    3    3    0    0  0.41498496896E+01  0.97475295296E+01 -0.35263941182E+02  0.54367066660E+02  0.39999960064E+02 0.  0.
        -12    1    3    3    0    0 -0.41498496896E+01 -0.97475295296E+01  0.35263941182E+02  0.36820933340E+02  0.00000000000E+00 0.  1.
         11    1    4    4    0    0 -0.13941823891E+02 -0.39416513351E+01 -0.20566587750E+02  0.25157416414E+02  0.51100000000E-03 0. -1.
        -11    1    4    4    0    0  0.64284039824E+01  0.25007954054E+01  0.64159150879E+00  0.69274811690E+01  0.51100000000E-03 0.  1.
         12    1    4    4    0    0  0.11663269598E+02  0.11188385459E+02 -0.15338944940E+02  0.22282169077E+02  0.00000000000E+00 0. -1.
</event>
<event>
 8    1  0.1290800E-006  0.9118800E+02  0.7816164E-02  0.1184000E+00
        -11   -1    0    0    0    0  0.00000000000E+00  0.00000000000E+00  0.45593999997E+02  0.45594000000E+02  0.51100000000E-03 0. -1.
         11   -1    0    0    0    0 -0.00000000000E+00 -0.00000000000E+00 -0.45593999997E+02  0.45594000000E+02  0.51100000000E-03 0.  1.
         23    2    1    2    0    0 -0.17763568394E-14  0.00000000000E+00  0.00000000000E+00  0.91188000000E+02  0.91188000000E+02 0.  0.
    9900012    2    3    3    0    0  0.88305858410E+01 -0.35376511229E+02 -0.51285640961E+01  0.54367096118E+02  0.40000027219E+02 0.  0.
         12    1    3    3    0    0 -0.88305858410E+01  0.35376511229E+02  0.51285640961E+01  0.36820903882E+02  0.00000000000E+00 0. -1.
         11    1    4    4    0    0 -0.11644845527E+02 -0.75176219313E+01 -0.94913723934E+00  0.13893089239E+02  0.51100000000E-03 0. -1.
        -11    1    4    4    0    0  0.12790564056E+02 -0.27723935025E+02  0.20206227452E+01  0.30598987216E+02  0.51100000000E-03 0.  1.
        -12    1    4    4    0    0  0.76848673121E+01 -0.13495427258E+00 -0.62000496020E+01  0.98750196621E+01  0.00000000000E+00 0.  1.
</event>
<event>
 8    1  0.1290800E-006  0.9118800E+02  0.7816164E-02  0.1184000E+00
        -11   -1    0    0    0    0  0.00000000000E+00  0.00000000000E+00  0.45593999997E+02  0.45594000000E+02  0.51100000000E-03 0. -1.
         11   -1    0    0    0    0 -0.00000000000E+00 -0.00000000000E+00 -0.45593999997E+02  0.45594000000E+02  0.51100000000E-03 0.  1.
         23    2    1    2    0    0 -0.22204460493E-15 -0.44408920985E-15 -0.71054273576E-14  0.91188000000E+02  0.91188000000E+02 0.  0.
    9900012    2    3    3    0    0 -0.14782308627E+01  0.11509359223E+01 -0.36773260180E+02  0.54367048298E+02  0.39999918205E+02 0.  0.
         12    1    3    3    0    0  0.14782308627E+01 -0.11509359223E+01  0.36773260180E+02  0.36820951702E+02  0.00000000000E+00 0. -1.
         11    1    4    4    0    0 -0.77260058560E+00  0.10205863742E+01  0.34186372836E+00  0.13249072730E+01  0.51100000000E-03 0. -1.
        -11    1    4    4    0    0 -0.19182263542E+01  0.11431056109E+02 -0.39724418426E+02  0.41380889981E+02  0.51100000000E-03 0.  1.
         12    1    4    4    0    0  0.12125960771E+01 -0.11300706561E+02  0.26092945177E+01  0.11661251044E+02  0.00000000000E+00 0. -1.
</event>
<event>
 8    1  0.1290800E-006  0.9118800E+02  0.7816164E-02  0.1184000E+00
        -11   -1    0    0    0    0  0.00000000000E+00  0.00000000000E+00  0.45593999997E+02  0.45594000000E+02  0.51100000000E-03 0.  1.
         11   -1    0    0    0    0 -0.00000000000E+00 -0.00000000000E+00 -0.45593999997E+02  0.45594000000E+02  0.51100000000E-03 0. -1.
         23    2    1    2    0    0  0.00000000000E+00  0.00000000000E+00  0.35527136788E-14  0.91188000000E+02  0.91188000000E+02 0.  0.
    9900012    2    3    3    0    0  0.32617751700E+02  0.51056360000E+01  0.16303201918E+02  0.54367086952E+02  0.40000006325E+02 0.  0.
        -12    1    3    3    0    0 -0.32617751700E+02 -0.51056360000E+01 -0.16303201918E+02  0.36820913048E+02  0.00000000000E+00 0.  1.
         11    1    4    4    0    0  0.68453878009E+01 -0.71502542448E+01 -0.20060213865E+01  0.10099979801E+02  0.51100000000E-03 0. -1.
        -11    1    4    4    0    0  0.66226747637E+00  0.14812759971E+02  0.91125162477E+01  0.17403861893E+02  0.51100000000E-03 0.  1.
        -12    1    4    4    0    0  0.25110096422E+02 -0.25568697263E+01  0.91967070562E+01  0.26863245258E+02  0.00000000000E+00 0.  1.
</event>
<event>
 8    1  0.1290800E-006  0.9118800E+02  0.7816164E-02  0.1184000E+00
        -11   -1    0    0    0    0  0.00000000000E+00  0.00000000000E+00  0.45593999997E+02  0.45594000000E+02  0.51100000000E-03 0.  1.
         11   -1    0    0    0    0 -0.00000000000E+00 -0.00000000000E+00 -0.45593999997E+02  0.45594000000E+02  0.51100000000E-03 0. -1.
         23    2    1    2    0    0  0.00000000000E+00  0.17763568394E-14  0.00000000000E+00  0.91188000000E+02  0.91188000000E+02 0.  0.
    9900012    2    3    3    0    0 -0.28812272683E+02 -0.78881068392E+01 -0.21526975339E+02  0.54367082658E+02  0.39999996536E+02 0.  0.
        -12    1    3    3    0    0  0.28812272683E+02  0.78881068392E+01  0.21526975339E+02  0.36820917342E+02  0.00000000000E+00 0.  1.
         11    1    4    4    0    0 -0.14731662021E+02  0.23107880952E+01 -0.13060069474E+02  0.19822386901E+02  0.51100000000E-03 0. -1.
        -11    1    4    4    0    0 -0.75930335164E+01  0.63016637426E+01  0.60976962999E+01  0.11599440691E+02  0.51100000000E-03 0.  1.
         12    1    4    4    0    0 -0.64875771451E+01 -0.16500558677E+02 -0.14564602164E+02  0.22945255067E+02  0.00000000000E+00 0. -1.
</event>
<event>
 8    1  0.1290800E-006  0.9118800E+02  0.7816164E-02  0.1184000E+00
        -11   -1    0    0    0    0  0.00000000000E+00  0.00000000000E+00  0.45593999997E+02  0.45594000000E+02  0.51100000000E-03 0. -1.
         11   -1    0    0    0    0 -0.00000000000E+00 -0.00000000000E+00 -0.45593999997E+02  0.45594000000E+02  0.51100000000E-03 0.  1.
         23    2    1    2    0    0 -0.35527136788E-14  0.00000000000E+00  0.00000000000E+00  0.91188000000E+02  0.91188000000E+02 0.  0.
    9900012    2    3    3    0    0 -0.10525200842E+02  0.32893925339E+02 -0.12766703570E+02  0.54367097010E+02  0.40000029253E+02 0.  0.
        -12    1    3    3    0    0  0.10525200842E+02 -0.32893925339E+02  0.12766703570E+02  0.36820902990E+02  0.00000000000E+00 0.  1.
         11    1    4    4    0    0  0.79313274052E+01  0.10805152639E+02 -0.11570536462E+02  0.17706908037E+02  0.51100000000E-03 0. -1.
        -11    1    4    4    0    0  0.13233098773E+01 -0.36357408210E+01 -0.16523400677E+01  0.42071354042E+01  0.51100000000E-03 0.  1.
         12    1    4    4    0    0 -0.19779838125E+02  0.25724513521E+02  0.45617295994E+00  0.32453053568E+02  0.00000000000E+00 0. -1.
</event>
<event>
 8    1  0.1290800E-006  0.9118800E+02  0.7816164E-02  0.1184000E+00
        -11   -1    0    0    0    0  0.00000000000E+00  0.00000000000E+00  0.45593999997E+02  0.45594000000E+02  0.51100000000E-03 0. -1.
         11   -1    0    0    0    0 -0.00000000000E+00 -0.00000000000E+00 -0.45593999997E+02  0.45594000000E+02  0.51100000000E-03 0.  1.
         23    2    1    2    0    0 -0.71054273576E-14  0.88817841970E-15 -0.88817841970E-15  0.91188000000E+02  0.91188000000E+02 0.  0.
    9900012    2    3    3    0    0  0.36098747682E+02 -0.52626403598E+01  0.49965250898E+01  0.54367078899E+02  0.39999987966E+02 0.  0.
        -12    1    3    3    0    0 -0.36098747682E+02  0.52626403598E+01 -0.49965250898E+01  0.36820921101E+02  0.00000000000E+00 0.  1.
         11    1    4    4    0    0  0.25862344142E+02 -0.32134553297E+01  0.97758032042E+00  0.26079547603E+02  0.51100000000E-03 0. -1.
        -11    1    4    4    0    0  0.24750947454E+01 -0.13694011755E+02  0.31395184366E+01  0.14265645033E+02  0.51100000000E-03 0.  1.
         12    1    4    4    0    0  0.77613087950E+01  0.11644826725E+02  0.87942633274E+00  0.14021886262E+02  0.00000000000E+00 0. -1.
</event>
<event>
 8    1  0.1290800E-006  0.9118800E+02  0.7816164E-02  0.1184000E+00
        -11   -1    0    0    0    0  0.00000000000E+00  0.00000000000E+00  0.45593999997E+02  0.45594000000E+02  0.51100000000E-03 0. -1.
         11   -1    0    0    0    0 -0.00000000000E+00 -0.00000000000E+00 -0.45593999997E+02  0.45594000000E+02  0.51100000000E-03 0.  1.
         23    2    1    2    0    0  0.00000000000E+00  0.17763568394E-14  0.00000000000E+00  0.91188000000E+02  0.91188000000E+02 0.  0.
    9900012    2    3    3    0    0  0.12482685155E+02  0.12734656757E+02  0.32214711711E+02  0.54367128717E+02  0.40000101536E+02 0.  0.
         12    1    3    3    0    0 -0.12482685155E+02 -0.12734656757E+02 -0.32214711711E+02  0.36820871283E+02  0.00000000000E+00 0. -1.
         11    1    4    4    0    0  0.93435840565E+01 -0.48833338234E+01  0.20437961138E+02  0.22996951276E+02  0.51100000000E-03 0. -1.
        -11    1    4    4    0    0 -0.86861279990E+01  0.10472266951E+02  0.63442283405E+00  0.13620561197E+02  0.51100000000E-03 0.  1.
        -12    1    4    4    0    0  0.11825229097E+02  0.71457236288E+01  0.11142327739E+02  0.17749616245E+02  0.00000000000E+00 0.  1.
</event>
<event>
 8    1  0.1290800E-006  0.9118800E+02  0.7816164E-02  0.1184000E+00
        -11   -1    0    0    0    0  0.00000000000E+00  0.00000000000E+00  0.45593999997E+02  0.45594000000E+02  0.51100000000E-03 0. -1.
         11   -1    0    0    0    0 -0.00000000000E+00 -0.00000000000E+00 -0.45593999997E+02  0.45594000000E+02  0.51100000000E-03 0.  1.
         23    2    1    2    0    0  0.71054273576E-14 -0.35527136788E-14  0.00000000000E+00  0.91188000000E+02  0.91188000000E+02 0.  0.
    9900012    2    3    3    0    0  0.26485230908E+02 -0.13233937019E+02  0.21890068561E+02  0.54367086827E+02  0.40000006040E+02 0.  0.
        -12    1    3    3    0    0 -0.26485230908E+02  0.13233937019E+02 -0.21890068561E+02  0.36820913173E+02  0.00000000000E+00 0.  1.
         11    1    4    4    0    0  0.13101805707E+02 -0.89755849981E+01  0.26131971597E+02  0.30579378324E+02  0.51100000000E-03 0. -1.
        -11    1    4    4    0    0  0.33152087006E+01 -0.96347314308E+01  0.25534322041E+01  0.10504221759E+02  0.51100000000E-03 0.  1.
        -12    1    4    4    0    0  0.10068216501E+02  0.53763794104E+01 -0.67953352400E+01  0.13283486745E+02  0.00000000000E+00 0.  1.
</event>
<event>
 8    1  0.1290800E-006  0.9118800E+02  0.7816164E-02  0.1184000E+00
        -11   -1    0    0    0    0  0.00000000000E+00  0.00000000000E+00  0.45593999997E+02  0.45594000000E+02  0.51100000000E-03 0.  1.
         11   -1    0    0    0    0 -0.00000000000E+00 -0.00000000000E+00 -0.45593999997E+02  0.45594000000E+02  0.51100000000E-03 0. -1.
         23    2    1    2    0    0  0.17763568394E-14  0.11102230246E-15  0.00000000000E+00  0.91188000000E+02  0.91188000000E+02 0.  0.
    9900012    2    3    3    0    0  0.12909495381E+02  0.76502610887E+00 -0.34475200201E+02  0.54367085225E+02  0.40000002388E+02 0.  0.
        -12    1    3    3    0    0 -0.12909495381E+02 -0.76502610887E+00  0.34475200201E+02  0.36820914775E+02  0.00000000000E+00 0.  1.
         11    1    4    4    0    0  0.10239317055E+02  0.10727711806E+02 -0.84059667788E+01  0.17046632867E+02  0.51100000000E-03 0. -1.
        -11    1    4    4    0    0 -0.28982281768E+01 -0.37916990219E+01  0.39354052733E+01  0.61858001070E+01  0.51100000000E-03 0.  1.
        -12    1    4    4    0    0  0.55684065027E+01 -0.61709866753E+01 -0.30004638696E+02  0.31134652251E+02  0.00000000000E+00 0.  1.
</event>
<event>
 8    1  0.1290800E-006  0.9118800E+02  0.7816164E-02  0.1184000E+00
        -11   -1    0    0    0    0  0.00000000000E+00  0.00000000000E+00  0.45593999997E+02  0.45594000000E+02  0.51100000000E-03 0. -1.
         11   -1    0    0    0    0 -0.00000000000E+00 -0.00000000000E+00 -0.45593999997E+02  0.45594000000E+02  0.51100000000E-03 0.  1.
         23    2    1    2    0    0  0.00000000000E+00 -0.35527136788E-14  0.35527136788E-14  0.91188000000E+02  0.91188000000E+02 0.  0.
    9900012    2    3    3    0    0  0.96151175548E+01 -0.16854297645E+02  0.31293118193E+02  0.54367121670E+02  0.40000085472E+02 0.  0.
        -12    1    3    3    0    0 -0.96151175548E+01  0.16854297645E+02 -0.31293118193E+02  0.36820878330E+02  0.00000000000E+00 0.  1.
         11    1    4    4    0    0  0.99788772222E+01  0.84044952311E+01  0.91426345390E+01  0.15931142372E+02  0.51100000000E-03 0. -1.
        -11    1    4    4    0    0 -0.17011889572E+01 -0.14731018477E+02  0.11097037914E+01  0.14870386410E+02  0.51100000000E-03 0.  1.
         12    1    4    4    0    0  0.13374292898E+01 -0.10527774399E+02  0.21040779863E+02  0.23565592888E+02  0.00000000000E+00 0. -1.
</event>
<event>
 8    1  0.1290800E-006  0.9118800E+02  0.7816164E-02  0.1184000E+00
        -11   -1    0    0    0    0  0.00000000000E+00  0.00000000000E+00  0.45593999997E+02  0.45594000000E+02  0.51100000000E-03 0.  1.
         11   -1    0    0    0    0 -0.00000000000E+00 -0.00000000000E+00 -0.45593999997E+02  0.45594000000E+02  0.51100000000E-03 0. -1.
         23    2    1    2    0    0  0.00000000000E+00  0.00000000000E+00  0.00000000000E+00  0.91188000000E+02  0.91188000000E+02 0.  0.
    9900012    2    3    3    0    0  0.33432855224E+02  0.15015998241E+02  0.35417066536E+01  0.54367086138E+02  0.40000004469E+02 0.  0.
         12    1    3    3    0    0 -0.33432855224E+02 -0.15015998241E+02 -0.35417066536E+01  0.36820913862E+02  0.00000000000E+00 0. -1.
         11    1    4    4    0    0  0.76473640268E+01  0.43575202081E+01 -0.91821556925E+01  0.12719360925E+02  0.51100000000E-03 0. -1.
        -11    1    4    4    0    0  0.23746837563E+02  0.18200695689E+02  0.15056009753E+02  0.33494194239E+02  0.51100000000E-03 0.  1.
         12    1    4    4    0    0  0.20386536341E+01 -0.75422176557E+01 -0.23321474070E+01  0.81535309733E+01  0.00000000000E+00 0. -1.
</event>
<event>
 8    1  0.1290800E-006  0.9118800E+02  0.7816164E-02  0.1184000E+00
        -11   -1    0    0    0    0  0.00000000000E+00  0.00000000000E+00  0.45593999997E+02  0.45594000000E+02  0.51100000000E-03 0.  1.
         11   -1    0    0    0    0 -0.00000000000E+00 -0.00000000000E+00 -0.45593999997E+02  0.45594000000E+02  0.51100000000E-03 0. -1.
         23    2    1    2    0    0  0.17763568394E-14  0.00000000000E+00  0.00000000000E+00  0.91188000000E+02  0.91188000000E+02 0.  0.
    9900012    2    3    3    0    0 -0.88878350704E+01  0.85380947964E+01 -0.34696965883E+02  0.54367189084E+02  0.40000239155E+02 0.  0.
        -12    1    3    3    0    0  0.88878350704E+01 -0.85380947964E+01  0.34696965883E+02  0.36820810916E+02  0.00000000000E+00 0.  1.
         11    1    4    4    0    0 -0.18691161661E+02 -0.24027105027E+01 -0.61948228293E+01  0.19837045449E+02  0.51100000000E-03 0. -1.
        -11    1    4    4    0    0  0.39775943623E+01 -0.73334219136E+00 -0.11173362663E+01  0.41961277714E+01  0.51100000000E-03 0.  1.
         12    1    4    4    0    0  0.58257322286E+01  0.11674147490E+02 -0.27384806788E+02  0.30334015864E+02  0.00000000000E+00 0. -1.
</event>
<event>
 8    1  0.1290800E-006  0.9118800E+02  0.7816164E-02  0.1184000E+00
        -11   -1    0    0    0    0  0.00000000000E+00  0.00000000000E+00  0.45593999997E+02  0.45594000000E+02  0.51100000000E-03 0. -1.
         11   -1    0    0    0    0 -0.00000000000E+00 -0.00000000000E+00 -0.45593999997E+02  0.45594000000E+02  0.51100000000E-03 0.  1.
         23    2    1    2    0    0 -0.17763568394E-14 -0.17763568394E-14  0.00000000000E+00  0.91188000000E+02  0.91188000000E+02 0.  0.
    9900012    2    3    3    0    0 -0.10290998105E+02  0.72959161535E+00  0.35346038164E+02  0.54367090725E+02  0.40000014927E+02 0.  0.
        -12    1    3    3    0    0  0.10290998105E+02 -0.72959161535E+00 -0.35346038164E+02  0.36820909275E+02  0.00000000000E+00 0.  1.
         11    1    4    4    0    0  0.52273330070E+01 -0.13511458118E+02  0.27426463556E+02  0.31017662940E+02  0.51100000000E-03 0. -1.
        -11    1    4    4    0    0 -0.58860598413E+01  0.46191740839E+01  0.60190487704E+01  0.96026776492E+01  0.51100000000E-03 0.  1.
         12    1    4    4    0    0 -0.96322712702E+01  0.96218756494E+01  0.19005258377E+01  0.13746750136E+02  0.00000000000E+00 0. -1.
</event>
<event>
 8    1  0.1290800E-006  0.9118800E+02  0.7816164E-02  0.1184000E+00
        -11   -1    0    0    0    0  0.00000000000E+00  0.00000000000E+00  0.45593999997E+02  0.45594000000E+02  0.51100000000E-03 0.  1.
         11   -1    0    0    0    0 -0.00000000000E+00 -0.00000000000E+00 -0.45593999997E+02  0.45594000000E+02  0.51100000000E-03 0. -1.
         23    2    1    2    0    0  0.00000000000E+00  0.00000000000E+00 -0.35527136788E-14  0.91188000000E+02  0.91188000000E+02 0.  0.
    9900012    2    3    3    0    0  0.91105529843E+01 -0.19093987940E+02  0.30136300733E+02  0.54367093262E+02  0.40000020710E+02 0.  0.
         12    1    3    3    0    0 -0.91105529843E+01  0.19093987940E+02 -0.30136300733E+02  0.36820906738E+02  0.00000000000E+00 0. -1.
         11    1    4    4    0    0  0.36312697921E+01  0.29155609885E+01 -0.28796712311E+01  0.54753194282E+01  0.51100000000E-03 0. -1.
        -11    1    4    4    0    0 -0.82857143668E+01 -0.14162370750E+01  0.10790345742E+01  0.84748513789E+01  0.51100000000E-03 0.  1.
        -12    1    4    4    0    0  0.13764997559E+02 -0.20593311854E+02  0.31936937390E+02  0.40416922455E+02  0.00000000000E+00 0.  1.
</event>
<event>
 8    1  0.1290800E-006  0.9118800E+02  0.7816164E-02  0.1184000E+00
        -11   -1    0    0    0    0  0.00000000000E+00  0.00000000000E+00  0.45593999997E+02  0.45594000000E+02  0.51100000000E-03 0.  1.
         11   -1    0    0    0    0 -0.00000000000E+00 -0.00000000000E+00 -0.45593999997E+02  0.45594000000E+02  0.51100000000E-03 0. -1.
         23    2    1    2    0    0  0.00000000000E+00  0.00000000000E+00  0.00000000000E+00  0.91188000000E+02  0.91188000000E+02 0.  0.
    9900012    2    3    3    0    0 -0.15277458602E+02  0.29385972572E+02  0.16088618697E+02  0.54367085061E+02  0.40000002014E+02 0.  0.
         12    1    3    3    0    0  0.15277458602E+02 -0.29385972572E+02 -0.16088618697E+02  0.36820914939E+02  0.00000000000E+00 0. -1.
         11    1    4    4    0    0 -0.78828555693E+01 -0.25212390712E+01  0.95158690373E+01  0.12611416343E+02  0.51100000000E-03 0. -1.
        -11    1    4    4    0    0 -0.81427761318E+01  0.30260053387E+01  0.93125032379E+01  0.12735157175E+02  0.51100000000E-03 0.  1.
         12    1    4    4    0    0  0.74817309860E+00  0.28881206304E+02 -0.27397535780E+01  0.29020511544E+02  0.00000000000E+00 0. -1.
</event>
<event>
 8    1  0.1290800E-006  0.9118800E+02  0.7816164E-02  0.1184000E+00
        -11   -1    0    0    0    0  0.00000000000E+00  0.00000000000E+00  0.45593999997E+02  0.45594000000E+02  0.51100000000E-03 0.  1.
         11   -1    0    0    0    0 -0.00000000000E+00 -0.00000000000E+00 -0.45593999997E+02  0.45594000000E+02  0.51100000000E-03 0. -1.
         23    2    1    2    0    0  0.00000000000E+00  0.00000000000E+00  0.00000000000E+00  0.91188000000E+02  0.91188000000E+02 0.  0.
    9900012    2    3    3    0    0  0.30104938096E+02 -0.20609615112E+02 -0.49711508349E+01  0.54367138068E+02  0.40000122852E+02 0.  0.
         12    1    3    3    0    0 -0.30104938096E+02  0.20609615112E+02  0.49711508349E+01  0.36820861932E+02  0.00000000000E+00 0. -1.
         11    1    4    4    0    0  0.13037601558E+02  0.35764357440E+01 -0.10522628876E+02  0.17131715201E+02  0.51100000000E-03 0. -1.
        -11    1    4    4    0    0  0.52914915321E+01 -0.22962504928E+02 -0.12211362634E+01  0.23595925268E+02  0.51100000000E-03 0.  1.
        -12    1    4    4    0    0  0.11775845005E+02 -0.12235459282E+01  0.67726143040E+01  0.13639497599E+02  0.00000000000E+00 0.  1.
</event>
<event>
 8    1  0.1290800E-006  0.9118800E+02  0.7816164E-02  0.1184000E+00
        -11   -1    0    0    0    0  0.00000000000E+00  0.00000000000E+00  0.45593999997E+02  0.45594000000E+02  0.51100000000E-03 0.  1.
         11   -1    0    0    0    0 -0.00000000000E+00 -0.00000000000E+00 -0.45593999997E+02  0.45594000000E+02  0.51100000000E-03 0. -1.
         23    2    1    2    0    0  0.00000000000E+00  0.88817841970E-15  0.00000000000E+00  0.91188000000E+02  0.91188000000E+02 0.  0.
    9900012    2    3    3    0    0  0.21229325354E+02 -0.77059523532E+01 -0.29081193990E+02  0.54367057582E+02  0.39999939370E+02 0.  0.
        -12    1    3    3    0    0 -0.21229325354E+02  0.77059523532E+01  0.29081193990E+02  0.36820942418E+02  0.00000000000E+00 0.  1.
         11    1    4    4    0    0  0.11228248990E+02  0.91468164356E+00 -0.20587268065E+02  0.23467974444E+02  0.51100000000E-03 0. -1.
        -11    1    4    4    0    0  0.15665117822E+02 -0.97522720274E+01  0.23609467942E+01  0.18603139415E+02  0.51100000000E-03 0.  1.
        -12    1    4    4    0    0 -0.56640414578E+01  0.11316380306E+01 -0.10854872720E+02  0.12295943723E+02  0.00000000000E+00 0.  1.
</event>
<event>
 8    1  0.1290800E-006  0.9118800E+02  0.7816164E-02  0.1184000E+00
        -11   -1    0    0    0    0  0.00000000000E+00  0.00000000000E+00  0.45593999997E+02  0.45594000000E+02  0.51100000000E-03 0.  1.
         11   -1    0    0    0    0 -0.00000000000E+00 -0.00000000000E+00 -0.45593999997E+02  0.45594000000E+02  0.51100000000E-03 0. -1.
         23    2    1    2    0    0  0.71054273576E-14  0.26645352591E-14 -0.44408920985E-15  0.91188000000E+02  0.91188000000E+02 0.  0.
    9900012    2    3    3    0    0 -0.35836159313E+02  0.76168949738E+01  0.36786475529E+01  0.54367084053E+02  0.39999999716E+02 0.  0.
         12    1    3    3    0    0  0.35836159313E+02 -0.76168949738E+01 -0.36786475529E+01  0.36820915947E+02  0.00000000000E+00 0. -1.
         11    1    4    4    0    0  0.45123641578E+01 -0.49019746628E+01  0.56933425469E+01  0.87638425080E+01  0.51100000000E-03 0. -1.
        -11    1    4    4    0    0 -0.30509380288E+02  0.12596008599E+02  0.51835997201E+01  0.33411845571E+02  0.51100000000E-03 0.  1.
         12    1    4    4    0    0 -0.98391431831E+01 -0.77138962280E-01 -0.71982947140E+01  0.12191395974E+02  0.00000000000E+00 0. -1.
</event>
<event>
 8    1  0.1290800E-006  0.9118800E+02  0.7816164E-02  0.1184000E+00
        -11   -1    0    0    0    0  0.00000000000E+00  0.00000000000E+00  0.45593999997E+02  0.45594000000E+02  0.51100000000E-03 0.  1.
         11   -1    0    0    0    0 -0.00000000000E+00 -0.00000000000E+00 -0.45593999997E+02  0.45594000000E+02  0.51100000000E-03 0. -1.
         23    2    1    2    0    0  0.22204460493E-15  0.00000000000E+00  0.00000000000E+00  0.91188000000E+02  0.91188000000E+02 0.  0.
    9900012    2    3    3    0    0  0.17827314452E+01  0.17481667378E+02  0.32357269872E+02  0.54367085572E+02  0.40000003178E+02 0.  0.
         12    1    3    3    0    0 -0.17827314452E+01 -0.17481667378E+02 -0.32357269872E+02  0.36820914428E+02  0.00000000000E+00 0. -1.
         11    1    4    4    0    0  0.66475397610E+01  0.22890420394E+02  0.18194515539E+02  0.29986689158E+02  0.51100000000E-03 0. -1.
        -11    1    4    4    0    0  0.66250642400E+01 -0.16276619358E+01  0.17379085425E+01  0.70399634888E+01  0.51100000000E-03 0.  1.
         12    1    4    4    0    0 -0.11489872556E+02 -0.37810910802E+01  0.12424845791E+02  0.17340432925E+02  0.00000000000E+00 0. -1.
</event>
<event>
 8    1  0.1290800E-006  0.9118800E+02  0.7816164E-02  0.1184000E+00
        -11   -1    0    0    0    0  0.00000000000E+00  0.00000000000E+00  0.45593999997E+02  0.45594000000E+02  0.51100000000E-03 0. -1.
         11   -1    0    0    0    0 -0.00000000000E+00 -0.00000000000E+00 -0.45593999997E+02  0.45594000000E+02  0.51100000000E-03 0.  1.
         23    2    1    2    0    0 -0.17763568394E-14 -0.17763568394E-14  0.71054273576E-14  0.91188000000E+02  0.91188000000E+02 0.  0.
    9900012    2    3    3    0    0  0.15936471756E+02  0.10799212667E+02 -0.31387646699E+02  0.54367102515E+02  0.40000041804E+02 0.  0.
         12    1    3    3    0    0 -0.15936471756E+02 -0.10799212667E+02  0.31387646699E+02  0.36820897485E+02  0.00000000000E+00 0. -1.
         11    1    4    4    0    0  0.14477015083E+02 -0.86142580917E+01 -0.81917341147E+01  0.18732162615E+02  0.51100000000E-03 0.  1.
        -11    1    4    4    0    0 -0.85834023875E+01  0.86325070531E+01 -0.86763010545E+01  0.14949019192E+02  0.51100000000E-03 0. -1.
        -12    1    4    4    0    0  0.10042859061E+02  0.10780963705E+02 -0.14519611530E+02  0.20685920708E+02  0.00000000000E+00 0.  1.
</event>
<event>
 8    1  0.1290800E-006  0.9118800E+02  0.7816164E-02  0.1184000E+00
        -11   -1    0    0    0    0  0.00000000000E+00  0.00000000000E+00  0.45593999997E+02  0.45594000000E+02  0.51100000000E-03 0. -1.
         11   -1    0    0    0    0 -0.00000000000E+00 -0.00000000000E+00 -0.45593999997E+02  0.45594000000E+02  0.51100000000E-03 0.  1.
         23    2    1    2    0    0  0.35527136788E-14  0.88817841970E-15  0.00000000000E+00  0.91188000000E+02  0.91188000000E+02 0.  0.
    9900012    2    3    3    0    0 -0.31201576338E+02 -0.78423093859E+01  0.17909188095E+02  0.54367092887E+02  0.40000019853E+02 0.  0.
        -12    1    3    3    0    0  0.31201576338E+02  0.78423093859E+01 -0.17909188095E+02  0.36820907113E+02  0.00000000000E+00 0.  1.
         11    1    4    4    0    0  0.10138012532E+01 -0.59936090710E+01  0.16062761056E+02  0.17174499576E+02  0.51100000000E-03 0. -1.
        -11    1    4    4    0    0 -0.34563622777E+02 -0.26428431491E+01  0.15988897875E+01  0.34701370120E+02  0.51100000000E-03 0.  1.
        -12    1    4    4    0    0  0.23482451863E+01  0.79414283424E+00  0.24753725113E+00  0.24912231909E+01  0.00000000000E+00 0.  1.
</event>
<event>
 8    1  0.1290800E-006  0.9118800E+02  0.7816164E-02  0.1184000E+00
        -11   -1    0    0    0    0  0.00000000000E+00  0.00000000000E+00  0.45593999997E+02  0.45594000000E+02  0.51100000000E-03 0. -1.
         11   -1    0    0    0    0 -0.00000000000E+00 -0.00000000000E+00 -0.45593999997E+02  0.45594000000E+02  0.51100000000E-03 0.  1.
         23    2    1    2    0    0  0.00000000000E+00  0.00000000000E+00  0.00000000000E+00  0.91188000000E+02  0.91188000000E+02 0.  0.
    9900012    2    3    3    0    0 -0.19364956185E+02  0.76660583505E+01 -0.30364620194E+02  0.54367080156E+02  0.39999990831E+02 0.  0.
         12    1    3    3    0    0  0.19364956185E+02 -0.76660583505E+01  0.30364620194E+02  0.36820919844E+02  0.00000000000E+00 0. -1.
         11    1    4    4    0    0 -0.21172000135E+02  0.19358244109E+02 -0.10842332747E+02  0.30668410203E+02  0.51100000000E-03 0. -1.
        -11    1    4    4    0    0  0.21908060139E+01 -0.31375116505E+01 -0.22994248208E+01  0.44644109483E+01  0.51100000000E-03 0.  1.
         12    1    4    4    0    0 -0.38376206364E+00 -0.85546741080E+01 -0.17222862626E+02  0.19234259004E+02  0.00000000000E+00 0. -1.
</event>
<event>
 8    1  0.1290800E-006  0.9118800E+02  0.7816164E-02  0.1184000E+00
        -11   -1    0    0    0    0  0.00000000000E+00  0.00000000000E+00  0.45593999997E+02  0.45594000000E+02  0.51100000000E-03 0.  1.
         11   -1    0    0    0    0 -0.00000000000E+00 -0.00000000000E+00 -0.45593999997E+02  0.45594000000E+02  0.51100000000E-03 0. -1.
         23    2    1    2    0    0 -0.35527136788E-14  0.00000000000E+00  0.00000000000E+00  0.91188000000E+02  0.91188000000E+02 0.  0.
    9900012    2    3    3    0    0 -0.25993652375E+02  0.23659719579E+02  0.10969438899E+02  0.54367070027E+02  0.39999967740E+02 0.  0.
         12    1    3    3    0    0  0.25993652375E+02 -0.23659719579E+02 -0.10969438899E+02  0.36820929973E+02  0.00000000000E+00 0. -1.
         11    1    4    4    0    0  0.45056749010E+01  0.51558000469E+01 -0.92706127099E+01  0.11525087449E+02  0.51100000000E-03 0. -1.
        -11    1    4    4    0    0 -0.28761549167E+00 -0.14953371643E+01  0.95962098832E+00  0.17998968327E+01  0.51100000000E-03 0.  1.
        -12    1    4    4    0    0 -0.30211711784E+02  0.19999256697E+02  0.19280430621E+02  0.41042085745E+02  0.00000000000E+00 0.  1.
</event>
<event>
 8    1  0.1290800E-006  0.9118800E+02  0.7816164E-02  0.1184000E+00
        -11   -1    0    0    0    0  0.00000000000E+00  0.00000000000E+00  0.45593999997E+02  0.45594000000E+02  0.51100000000E-03 0. -1.
         11   -1    0    0    0    0 -0.00000000000E+00 -0.00000000000E+00 -0.45593999997E+02  0.45594000000E+02  0.51100000000E-03 0.  1.
         23    2    1    2    0    0  0.13322676296E-14  0.00000000000E+00  0.17763568394E-14  0.91188000000E+02  0.91188000000E+02 0.  0.
    9900012    2    3    3    0    0 -0.27556711596E+01 -0.33902966592E+02 -0.14098729310E+02  0.54367095130E+02  0.40000024968E+02 0.  0.
        -12    1    3    3    0    0  0.27556711596E+01  0.33902966592E+02  0.14098729310E+02  0.36820904870E+02  0.00000000000E+00 0.  1.
         11    1    4    4    0    0  0.85004466357E+01 -0.58078329808E+00  0.27219817453E+01  0.89445003845E+01  0.51100000000E-03 0. -1.
        -11    1    4    4    0    0 -0.94994815152E+01 -0.14327565154E+02 -0.19683287387E+02  0.26133332641E+02  0.51100000000E-03 0.  1.
        -12    1    4    4    0    0 -0.17566362801E+01 -0.18994618140E+02  0.28625763312E+01  0.19289262105E+02  0.00000000000E+00 0.  1.
</event>
<event>
 8    1  0.1290800E-006  0.9118800E+02  0.7816164E-02  0.1184000E+00
        -11   -1    0    0    0    0  0.00000000000E+00  0.00000000000E+00  0.45593999997E+02  0.45594000000E+02  0.51100000000E-03 0.  1.
         11   -1    0    0    0    0 -0.00000000000E+00 -0.00000000000E+00 -0.45593999997E+02  0.45594000000E+02  0.51100000000E-03 0. -1.
         23    2    1    2    0    0  0.00000000000E+00  0.00000000000E+00 -0.88817841970E-15  0.91188000000E+02  0.91188000000E+02 0.  0.
    9900012    2    3    3    0    0 -0.31370995517E+02 -0.18595470212E+02  0.50841277468E+01  0.54367092528E+02  0.40000019036E+02 0.  0.
         12    1    3    3    0    0  0.31370995517E+02  0.18595470212E+02 -0.50841277468E+01  0.36820907472E+02  0.00000000000E+00 0. -1.
         11    1    4    4    0    0 -0.15594305496E+00  0.42660702221E+01 -0.30876538116E+01  0.52685177895E+01  0.51100000000E-03 0. -1.
        -11    1    4    4    0    0 -0.10955367649E+02 -0.66478780504E+01 -0.10957716680E+02  0.16860780468E+02  0.51100000000E-03 0.  1.
        -12    1    4    4    0    0 -0.20259684813E+02 -0.16213662384E+02  0.19129498238E+02  0.32237794271E+02  0.00000000000E+00 0.  1.
</event>
<event>
 8    1  0.1290800E-006  0.9118800E+02  0.7816164E-02  0.1184000E+00
        -11   -1    0    0    0    0  0.00000000000E+00  0.00000000000E+00  0.45593999997E+02  0.45594000000E+02  0.51100000000E-03 0.  1.
         11   -1    0    0    0    0 -0.00000000000E+00 -0.00000000000E+00 -0.45593999997E+02  0.45594000000E+02  0.51100000000E-03 0. -1.
         23    2    1    2    0    0 -0.44408920985E-15  0.00000000000E+00  0.17763568394E-14  0.91188000000E+02  0.91188000000E+02 0.  0.
    9900012    2    3    3    0    0 -0.39367736220E+01  0.34987432009E+02 -0.10777831322E+02  0.54367078866E+02  0.39999987892E+02 0.  0.
        -12    1    3    3    0    0  0.39367736220E+01 -0.34987432009E+02  0.10777831322E+02  0.36820921134E+02  0.00000000000E+00 0.  1.
         11    1    4    4    0    0 -0.63728156968E+01  0.19881024474E+02  0.55007671200E+01  0.21589959546E+02  0.51100000000E-03 0. -1.
        -11    1    4    4    0    0  0.86480526052E+00  0.40314304660E+01  0.63289949603E+01  0.75535751277E+01  0.51100000000E-03 0.  1.
        -12    1    4    4    0    0  0.15712368143E+01  0.11074977069E+02 -0.22607593402E+02  0.25223544192E+02  0.00000000000E+00 0.  1.
</event>
<event>
 8    1  0.1290800E-006  0.9118800E+02  0.7816164E-02  0.1184000E+00
        -11   -1    0    0    0    0  0.00000000000E+00  0.00000000000E+00  0.45593999997E+02  0.45594000000E+02  0.51100000000E-03 0. -1.
         11   -1    0    0    0    0 -0.00000000000E+00 -0.00000000000E+00 -0.45593999997E+02  0.45594000000E+02  0.51100000000E-03 0.  1.
         23    2    1    2    0    0  0.17763568394E-14  0.00000000000E+00  0.00000000000E+00  0.91188000000E+02  0.91188000000E+02 0.  0.
    9900012    2    3    3    0    0  0.56922534272E+01 -0.90797364342E+01 -0.35226929165E+02  0.54367083374E+02  0.39999998168E+02 0.  0.
         12    1    3    3    0    0 -0.56922534272E+01  0.90797364342E+01  0.35226929165E+02  0.36820916626E+02  0.00000000000E+00 0. -1.
         11    1    4    4    0    0 -0.12670541061E+02 -0.59511577115E+01 -0.26505211711E+01  0.14247250669E+02  0.51100000000E-03 0. -1.
        -11    1    4    4    0    0  0.16151727846E+02  0.28522582888E+01 -0.18863536566E+02  0.24996933848E+02  0.51100000000E-03 0.  1.
         12    1    4    4    0    0  0.22110666416E+01 -0.59808370115E+01 -0.13712871428E+02  0.15122898858E+02  0.00000000000E+00 0. -1.
</event>
<event>
 8    1  0.1290800E-006  0.9118800E+02  0.7816164E-02  0.1184000E+00
        -11   -1    0    0    0    0  0.00000000000E+00  0.00000000000E+00  0.45593999997E+02  0.45594000000E+02  0.51100000000E-03 0. -1.
         11   -1    0    0    0    0 -0.00000000000E+00 -0.00000000000E+00 -0.45593999997E+02  0.45594000000E+02  0.51100000000E-03 0.  1.
         23    2    1    2    0    0  0.00000000000E+00 -0.35527136788E-14  0.44408920985E-15  0.91188000000E+02  0.91188000000E+02 0.  0.
    9900012    2    3    3    0    0  0.29895892554E+02 -0.21181528921E+02  0.36553567137E+01  0.54367038691E+02  0.39999896304E+02 0.  0.
        -12    1    3    3    0    0 -0.29895892554E+02  0.21181528921E+02 -0.36553567137E+01  0.36820961309E+02  0.00000000000E+00 0.  1.
         11    1    4    4    0    0 -0.10096015067E+01  0.68318345695E+00  0.52234533171E+01  0.53638139095E+01  0.51100000000E-03 0. -1.
        -11    1    4    4    0    0 -0.48109393437E+01 -0.16779471374E+01  0.53607145790E+01  0.73958032034E+01  0.51100000000E-03 0.  1.
         12    1    4    4    0    0  0.35716433404E+02 -0.20186765240E+02 -0.69288111825E+01  0.41607421578E+02  0.00000000000E+00 0. -1.
</event>
<event>
 8    1  0.1290800E-006  0.9118800E+02  0.7816164E-02  0.1184000E+00
        -11   -1    0    0    0    0  0.00000000000E+00  0.00000000000E+00  0.45593999997E+02  0.45594000000E+02  0.51100000000E-03 0.  1.
         11   -1    0    0    0    0 -0.00000000000E+00 -0.00000000000E+00 -0.45593999997E+02  0.45594000000E+02  0.51100000000E-03 0. -1.
         23    2    1    2    0    0  0.00000000000E+00  0.00000000000E+00  0.00000000000E+00  0.91188000000E+02  0.91188000000E+02 0.  0.
    9900012    2    3    3    0    0  0.28873959789E+02  0.21362087535E+02 -0.81077622513E+01  0.54367080043E+02  0.39999990574E+02 0.  0.
        -12    1    3    3    0    0 -0.28873959789E+02 -0.21362087535E+02  0.81077622513E+01  0.36820919957E+02  0.00000000000E+00 0.  1.
         11    1    4    4    0    0  0.10632622599E+02  0.14817977772E+02 -0.72546962616E+01  0.19627932818E+02  0.51100000000E-03 0. -1.
        -11    1    4    4    0    0  0.82000448176E+01 -0.10838342049E+02 -0.45400466521E+01  0.14329075939E+02  0.51100000000E-03 0.  1.
         12    1    4    4    0    0  0.10041292372E+02  0.17382451812E+02  0.36869806623E+01  0.20410071286E+02  0.00000000000E+00 0. -1.
</event>
<event>
 8    1  0.1290800E-006  0.9118800E+02  0.7816164E-02  0.1184000E+00
        -11   -1    0    0    0    0  0.00000000000E+00  0.00000000000E+00  0.45593999997E+02  0.45594000000E+02  0.51100000000E-03 0.  1.
         11   -1    0    0    0    0 -0.00000000000E+00 -0.00000000000E+00 -0.45593999997E+02  0.45594000000E+02  0.51100000000E-03 0. -1.
         23    2    1    2    0    0 -0.17763568394E-14  0.11102230246E-14 -0.71054273576E-14  0.91188000000E+02  0.91188000000E+02 0.  0.
    9900012    2    3    3    0    0 -0.11888254723E+02 -0.15873627998E+01 -0.34812794913E+02  0.54367068307E+02  0.39999963820E+02 0.  0.
        -12    1    3    3    0    0  0.11888254723E+02  0.15873627998E+01  0.34812794913E+02  0.36820931693E+02  0.00000000000E+00 0.  1.
         11    1    4    4    0    0  0.98717157240E+00  0.94585296658E+01 -0.82014060829E+01  0.12557919937E+02  0.51100000000E-03 0. -1.
        -11    1    4    4    0    0  0.67250385274E+01 -0.66297475795E+01 -0.13618189023E+01  0.95411868836E+01  0.51100000000E-03 0.  1.
        -12    1    4    4    0    0 -0.19600464823E+02 -0.44161448862E+01 -0.25249569928E+02  0.32267961487E+02  0.00000000000E+00 0.  1.
</event>
<event>
 8    1  0.1290800E-006  0.9118800E+02  0.7816164E-02  0.1184000E+00
        -11   -1    0    0    0    0  0.00000000000E+00  0.00000000000E+00  0.45593999997E+02  0.45594000000E+02  0.51100000000E-03 0. -1.
         11   -1    0    0    0    0 -0.00000000000E+00 -0.00000000000E+00 -0.45593999997E+02  0.45594000000E+02  0.51100000000E-03 0.  1.
         23    2    1    2    0    0  0.35527136788E-14  0.00000000000E+00 -0.35527136788E-14  0.91188000000E+02  0.91188000000E+02 0.  0.
    9900012    2    3    3    0    0  0.26062598197E+02  0.98355350253E+01 -0.24078689800E+02  0.54367080994E+02  0.39999992741E+02 0.  0.
         12    1    3    3    0    0 -0.26062598197E+02 -0.98355350253E+01  0.24078689800E+02  0.36820919006E+02  0.00000000000E+00 0. -1.
         11    1    4    4    0    0  0.23855948287E+02 -0.75539951277E+01 -0.11273748536E+02  0.27445701255E+02  0.51100000000E-03 0. -1.
        -11    1    4    4    0    0  0.72615031602E+01  0.22138293749E+01 -0.30180374430E+01  0.81693952601E+01  0.51100000000E-03 0.  1.
        -12    1    4    4    0    0 -0.50548532505E+01  0.15175700778E+02 -0.97869038210E+01  0.18751984479E+02  0.00000000000E+00 0.  1.
</event>
<event>
 8    1  0.1290800E-006  0.9118800E+02  0.7816164E-02  0.1184000E+00
        -11   -1    0    0    0    0  0.00000000000E+00  0.00000000000E+00  0.45593999997E+02  0.45594000000E+02  0.51100000000E-03 0.  1.
         11   -1    0    0    0    0 -0.00000000000E+00 -0.00000000000E+00 -0.45593999997E+02  0.45594000000E+02  0.51100000000E-03 0. -1.
         23    2    1    2    0    0  0.88817841970E-15 -0.71054273576E-14 -0.17763568394E-14  0.91188000000E+02  0.91188000000E+02 0.  0.
    9900012    2    3    3    0    0 -0.75203121643E+01  0.32755309264E+02  0.15043723820E+02  0.54367095524E+02  0.40000025867E+02 0.  0.
         12    1    3    3    0    0  0.75203121643E+01 -0.32755309264E+02 -0.15043723820E+02  0.36820904476E+02  0.00000000000E+00 0. -1.
         11    1    4    4    0    0  0.90414627704E+01  0.48119874469E+01  0.13024581372E+02  0.16569338925E+02  0.51100000000E-03 0.  1.
        -11    1    4    4    0    0  0.10216054300E+01  0.32924962153E+01 -0.55986293055E+01  0.65748657282E+01  0.51100000000E-03 0. -1.
        -12    1    4    4    0    0 -0.17583380365E+02  0.24650825602E+02  0.76177717533E+01  0.31222890872E+02  0.00000000000E+00 0.  1.
</event>
<event>
 8    1  0.1290800E-006  0.9118800E+02  0.7816164E-02  0.1184000E+00
        -11   -1    0    0    0    0  0.00000000000E+00  0.00000000000E+00  0.45593999997E+02  0.45594000000E+02  0.51100000000E-03 0. -1.
         11   -1    0    0    0    0 -0.00000000000E+00 -0.00000000000E+00 -0.45593999997E+02  0.45594000000E+02  0.51100000000E-03 0.  1.
         23    2    1    2    0    0  0.00000000000E+00 -0.17763568394E-14 -0.17763568394E-14  0.91188000000E+02  0.91188000000E+02 0.  0.
    9900012    2    3    3    0    0 -0.33157085399E+02  0.11202331824E+02  0.11440937653E+02  0.54367087398E+02  0.40000007341E+02 0.  0.
        -12    1    3    3    0    0  0.33157085399E+02 -0.11202331824E+02 -0.11440937653E+02  0.36820912602E+02  0.00000000000E+00 0.  1.
         11    1    4    4    0    0 -0.11660296752E+02 -0.81952001681E+01  0.18273112696E+02  0.23173917968E+02  0.51100000000E-03 0. -1.
        -11    1    4    4    0    0 -0.15361905161E+02  0.15961136765E+02 -0.12023987633E+01  0.22185395648E+02  0.51100000000E-03 0.  1.
         12    1    4    4    0    0 -0.61348834856E+01  0.34363952274E+01 -0.56297762794E+01  0.90077737814E+01  0.00000000000E+00 0. -1.
</event>
<event>
 8    1  0.1290800E-006  0.9118800E+02  0.7816164E-02  0.1184000E+00
        -11   -1    0    0    0    0  0.00000000000E+00  0.00000000000E+00  0.45593999997E+02  0.45594000000E+02  0.51100000000E-03 0.  1.
         11   -1    0    0    0    0 -0.00000000000E+00 -0.00000000000E+00 -0.45593999997E+02  0.45594000000E+02  0.51100000000E-03 0. -1.
         23    2    1    2    0    0  0.35527136788E-14 -0.71054273576E-14 -0.35527136788E-14  0.91188000000E+02  0.91188000000E+02 0.  0.
    9900012    2    3    3    0    0 -0.20533649894E+02  0.27207243073E+02  0.13925304562E+02  0.54367096144E+02  0.40000027280E+02 0.  0.
        -12    1    3    3    0    0  0.20533649894E+02 -0.27207243073E+02 -0.13925304562E+02  0.36820903856E+02  0.00000000000E+00 0.  1.
         11    1    4    4    0    0 -0.23489822174E+01  0.11119743318E+01  0.70405198400E+01  0.75048733667E+01  0.51100000000E-03 0. -1.
        -11    1    4    4    0    0  0.35853694802E+01  0.15570767280E+02  0.14432163036E+02  0.21531163419E+02  0.51100000000E-03 0.  1.
         12    1    4    4    0    0 -0.21770037157E+02  0.10524501462E+02 -0.75473783144E+01  0.25331059359E+02  0.00000000000E+00 0. -1.
</event>
<event>
 8    1  0.1290800E-006  0.9118800E+02  0.7816164E-02  0.1184000E+00
        -11   -1    0    0    0    0  0.00000000000E+00  0.00000000000E+00  0.45593999997E+02  0.45594000000E+02  0.51100000000E-03 0.  1.
         11   -1    0    0    0    0 -0.00000000000E+00 -0.00000000000E+00 -0.45593999997E+02  0.45594000000E+02  0.51100000000E-03 0. -1.
         23    2    1    2    0    0  0.00000000000E+00  0.13322676296E-14  0.00000000000E+00  0.91188000000E+02  0.91188000000E+02 0.  0.
    9900012    2    3    3    0    0  0.22997578583E+02  0.23783588783E+01 -0.28657256012E+02  0.54367034046E+02  0.39999885715E+02 0.  0.
        -12    1    3    3    0    0 -0.22997578583E+02 -0.23783588783E+01  0.28657256012E+02  0.36820965954E+02  0.00000000000E+00 0.  1.
         11    1    4    4    0    0  0.12983374014E+02  0.98684419365E+01 -0.25614352900E+02  0.30365263407E+02  0.51100000000E-03 0. -1.
        -11    1    4    4    0    0  0.11503380638E+02  0.36389981799E+00  0.51020876726E+01  0.12589340256E+02  0.51100000000E-03 0.  1.
         12    1    4    4    0    0 -0.14891760693E+01 -0.78539828761E+01 -0.81449907838E+01  0.11412430383E+02  0.00000000000E+00 0. -1.
</event>
<event>
 8    1  0.1290800E-006  0.9118800E+02  0.7816164E-02  0.1184000E+00
        -11   -1    0    0    0    0  0.00000000000E+00  0.00000000000E+00  0.45593999997E+02  0.45594000000E+02  0.51100000000E-03 0. -1.
         11   -1    0    0    0    0 -0.00000000000E+00 -0.00000000000E+00 -0.45593999997E+02  0.45594000000E+02  0.51100000000E-03 0.  1.
         23    2    1    2    0    0  0.00000000000E+00  0.00000000000E+00  0.71054273576E-14  0.91188000000E+02  0.91188000000E+02 0.  0.
    9900012    2    3    3    0    0  0.19525396456E+02  0.16491331909E+02  0.26506131828E+02  0.54367079868E+02  0.39999990175E+02 0.  0.
        -12    1    3    3    0    0 -0.19525396456E+02 -0.16491331909E+02 -0.26506131828E+02  0.36820920132E+02  0.00000000000E+00 0.  1.
         11    1    4    4    0    0  0.18842787606E+02  0.74243745173E+01  0.19167881069E+01  0.20343206696E+02  0.51100000000E-03 0. -1.
        -11    1    4    4    0    0  0.16511292959E+01 -0.69782883310E+01  0.10073583023E+02  0.12365266320E+02  0.51100000000E-03 0.  1.
         12    1    4    4    0    0 -0.96852044664E+00  0.16045245722E+02  0.14515760698E+02  0.21658606852E+02  0.00000000000E+00 0. -1.
</event>
<event>
 8    1  0.1290800E-006  0.9118800E+02  0.7816164E-02  0.1184000E+00
        -11   -1    0    0    0    0  0.00000000000E+00  0.00000000000E+00  0.45593999997E+02  0.45594000000E+02  0.51100000000E-03 0.  1.
         11   -1    0    0    0    0 -0.00000000000E+00 -0.00000000000E+00 -0.45593999997E+02  0.45594000000E+02  0.51100000000E-03 0. -1.
         23    2    1    2    0    0 -0.88817841970E-15  0.00000000000E+00 -0.35527136788E-14  0.91188000000E+02  0.91188000000E+02 0.  0.
    9900012    2    3    3    0    0  0.40457278164E+01 -0.18218919639E+02  0.31740823644E+02  0.54367125052E+02  0.40000093180E+02 0.  0.
         12    1    3    3    0    0 -0.40457278164E+01  0.18218919639E+02 -0.31740823644E+02  0.36820874948E+02  0.00000000000E+00 0. -1.
         11    1    4    4    0    0  0.28009663413E+01  0.21563938953E+01 -0.24563891126E+01  0.43045667390E+01  0.51100000000E-03 0. -1.
        -11    1    4    4    0    0 -0.29298852341E+01  0.38210032700E+01 -0.28663707186E+01  0.56036037362E+01  0.51100000000E-03 0.  1.
        -12    1    4    4    0    0  0.41746467092E+01 -0.24196316804E+02  0.37063583475E+02  0.44458954577E+02  0.00000000000E+00 0.  1.
</event>
<event>
 8    1  0.1290800E-006  0.9118800E+02  0.7816164E-02  0.1184000E+00
        -11   -1    0    0    0    0  0.00000000000E+00  0.00000000000E+00  0.45593999997E+02  0.45594000000E+02  0.51100000000E-03 0.  1.
         11   -1    0    0    0    0 -0.00000000000E+00 -0.00000000000E+00 -0.45593999997E+02  0.45594000000E+02  0.51100000000E-03 0. -1.
         23    2    1    2    0    0 -0.35527136788E-14 -0.44408920985E-15  0.35527136788E-14  0.91188000000E+02  0.91188000000E+02 0.  0.
    9900012    2    3    3    0    0  0.18373114039E+02  0.10649618700E+01  0.31891620121E+02  0.54367069849E+02  0.39999967335E+02 0.  0.
         12    1    3    3    0    0 -0.18373114039E+02 -0.10649618700E+01 -0.31891620121E+02  0.36820930151E+02  0.00000000000E+00 0. -1.
         11    1    4    4    0    0  0.93565088632E+01  0.18415229869E+01  0.29385063976E+01  0.99784911248E+01  0.51100000000E-03 0. -1.
        -11    1    4    4    0    0 -0.10417953306E+02 -0.31791694172E+01  0.20025324174E+01  0.11074791447E+02  0.51100000000E-03 0.  1.
        -12    1    4    4    0    0  0.19434558481E+02  0.24026083003E+01  0.26950581306E+02  0.33313787277E+02  0.00000000000E+00 0.  1.
</event>
<event>
 8    1  0.1290800E-006  0.9118800E+02  0.7816164E-02  0.1184000E+00
        -11   -1    0    0    0    0  0.00000000000E+00  0.00000000000E+00  0.45593999997E+02  0.45594000000E+02  0.51100000000E-03 0.  1.
         11   -1    0    0    0    0 -0.00000000000E+00 -0.00000000000E+00 -0.45593999997E+02  0.45594000000E+02  0.51100000000E-03 0. -1.
         23    2    1    2    0    0  0.00000000000E+00  0.00000000000E+00  0.00000000000E+00  0.91188000000E+02  0.91188000000E+02 0.  0.
    9900012    2    3    3    0    0 -0.14446998187E+02  0.27996883969E+02 -0.19058769614E+02  0.54367109628E+02  0.40000058018E+02 0.  0.
        -12    1    3    3    0    0  0.14446998187E+02 -0.27996883969E+02  0.19058769614E+02  0.36820890372E+02  0.00000000000E+00 0.  1.
         11    1    4    4    0    0 -0.11744676096E+02  0.12887051132E+02 -0.27822846869E+02  0.32834803359E+02  0.51100000000E-03 0. -1.
        -11    1    4    4    0    0  0.39460360642E+01  0.68715420066E+01  0.21801814540E+00  0.79269680421E+01  0.51100000000E-03 0.  1.
         12    1    4    4    0    0 -0.66483581545E+01  0.82382908313E+01  0.85460591088E+01  0.13605338227E+02  0.00000000000E+00 0. -1.
</event>
<event>
 8    1  0.1290800E-006  0.9118800E+02  0.7816164E-02  0.1184000E+00
        -11   -1    0    0    0    0  0.00000000000E+00  0.00000000000E+00  0.45593999997E+02  0.45594000000E+02  0.51100000000E-03 0.  1.
         11   -1    0    0    0    0 -0.00000000000E+00 -0.00000000000E+00 -0.45593999997E+02  0.45594000000E+02  0.51100000000E-03 0. -1.
         23    2    1    2    0    0  0.00000000000E+00 -0.11102230246E-14 -0.17763568394E-14  0.91188000000E+02  0.91188000000E+02 0.  0.
    9900012    2    3    3    0    0 -0.35161314076E+02  0.13645660699E+01 -0.10844352532E+02  0.54367081626E+02  0.39999994182E+02 0.  0.
        -12    1    3    3    0    0  0.35161314076E+02 -0.13645660699E+01  0.10844352532E+02  0.36820918374E+02  0.00000000000E+00 0.  1.
         11    1    4    4    0    0 -0.65400647361E+01 -0.13711578785E+02 -0.75569131084E+00  0.15210223836E+02  0.51100000000E-03 0. -1.
        -11    1    4    4    0    0 -0.95018174414E+01  0.85387073891E+01 -0.13587708486E+02  0.18649929778E+02  0.51100000000E-03 0.  1.
         12    1    4    4    0    0 -0.19119431898E+02  0.65374374653E+01  0.34990472643E+01  0.20506928012E+02  0.00000000000E+00 0. -1.
</event>
<event>
 8    1  0.1290800E-006  0.9118800E+02  0.7816164E-02  0.1184000E+00
        -11   -1    0    0    0    0  0.00000000000E+00  0.00000000000E+00  0.45593999997E+02  0.45594000000E+02  0.51100000000E-03 0. -1.
         11   -1    0    0    0    0 -0.00000000000E+00 -0.00000000000E+00 -0.45593999997E+02  0.45594000000E+02  0.51100000000E-03 0.  1.
         23    2    1    2    0    0 -0.44408920985E-15  0.00000000000E+00  0.00000000000E+00  0.91188000000E+02  0.91188000000E+02 0.  0.
    9900012    2    3    3    0    0  0.26413639146E+01  0.67989364890E+01  0.36091234712E+02  0.54367087956E+02  0.40000008613E+02 0.  0.
        -12    1    3    3    0    0 -0.26413639146E+01 -0.67989364890E+01 -0.36091234712E+02  0.36820912044E+02  0.00000000000E+00 0.  1.
         11    1    4    4    0    0 -0.12504689939E+02  0.10691068051E+02  0.23239627224E+02  0.28473610244E+02  0.51100000000E-03 0. -1.
        -11    1    4    4    0    0 -0.20978947042E+01 -0.42471664528E+01  0.51717925953E+01  0.70133461327E+01  0.51100000000E-03 0.  1.
         12    1    4    4    0    0  0.17243948558E+02  0.35503489039E+00  0.76798148927E+01  0.18880131579E+02  0.00000000000E+00 0. -1.
</event>
<event>
 8    1  0.1290800E-006  0.9118800E+02  0.7816164E-02  0.1184000E+00
        -11   -1    0    0    0    0  0.00000000000E+00  0.00000000000E+00  0.45593999997E+02  0.45594000000E+02  0.51100000000E-03 0.  1.
         11   -1    0    0    0    0 -0.00000000000E+00 -0.00000000000E+00 -0.45593999997E+02  0.45594000000E+02  0.51100000000E-03 0. -1.
         23    2    1    2    0    0  0.00000000000E+00  0.00000000000E+00  0.00000000000E+00  0.91188000000E+02  0.91188000000E+02 0.  0.
    9900012    2    3    3    0    0  0.77093531301E+00  0.33787934439E+02 -0.14613733404E+02  0.54367081232E+02  0.39999993285E+02 0.  0.
         12    1    3    3    0    0 -0.77093531301E+00 -0.33787934439E+02  0.14613733404E+02  0.36820918768E+02  0.00000000000E+00 0. -1.
         11    1    4    4    0    0  0.39613443567E+01  0.56286973171E+01 -0.21050246015E+02  0.22146948778E+02  0.51100000000E-03 0. -1.
        -11    1    4    4    0    0 -0.65401298666E+00  0.72590458370E+01 -0.44284960393E+01  0.85283677736E+01  0.51100000000E-03 0.  1.
        -12    1    4    4    0    0 -0.25363960570E+01  0.20900191285E+02  0.10865008651E+02  0.23691764681E+02  0.00000000000E+00 0.  1.
</event>
<event>
 8    1  0.1290800E-006  0.9118800E+02  0.7816164E-02  0.1184000E+00
        -11   -1    0    0    0    0  0.00000000000E+00  0.00000000000E+00  0.45593999997E+02  0.45594000000E+02  0.51100000000E-03 0.  1.
         11   -1    0    0    0    0 -0.00000000000E+00 -0.00000000000E+00 -0.45593999997E+02  0.45594000000E+02  0.51100000000E-03 0. -1.
         23    2    1    2    0    0  0.00000000000E+00  0.00000000000E+00  0.35527136788E-14  0.91188000000E+02  0.91188000000E+02 0.  0.
    9900012    2    3    3    0    0 -0.26278655826E+02  0.20404894120E+02  0.15775008622E+02  0.54367104396E+02  0.40000046092E+02 0.  0.
         12    1    3    3    0    0  0.26278655826E+02 -0.20404894120E+02 -0.15775008622E+02  0.36820895604E+02  0.00000000000E+00 0. -1.
         11    1    4    4    0    0 -0.54266163028E+01 -0.17193331559E+01 -0.24317618137E+01  0.61901322101E+01  0.51100000000E-03 0. -1.
        -11    1    4    4    0    0 -0.13795604589E+02  0.20891642958E+02 -0.35365146807E+01  0.25284113349E+02  0.51100000000E-03 0.  1.
        -12    1    4    4    0    0 -0.70564349338E+01  0.12325843171E+01  0.21743285117E+02  0.22892858837E+02  0.00000000000E+00 0.  1.
</event>
<event>
 8    1  0.1290800E-006  0.9118800E+02  0.7816164E-02  0.1184000E+00
        -11   -1    0    0    0    0  0.00000000000E+00  0.00000000000E+00  0.45593999997E+02  0.45594000000E+02  0.51100000000E-03 0. -1.
         11   -1    0    0    0    0 -0.00000000000E+00 -0.00000000000E+00 -0.45593999997E+02  0.45594000000E+02  0.51100000000E-03 0.  1.
         23    2    1    2    0    0 -0.35527136788E-14  0.35527136788E-14 -0.88817841970E-15  0.91188000000E+02  0.91188000000E+02 0.  0.
    9900012    2    3    3    0    0 -0.24515373756E+02  0.27125642401E+02 -0.43558553466E+01  0.54367115955E+02  0.40000072443E+02 0.  0.
         12    1    3    3    0    0  0.24515373756E+02 -0.27125642401E+02  0.43558553466E+01  0.36820884045E+02  0.00000000000E+00 0. -1.
         11    1    4    4    0    0 -0.94415820768E+01 -0.85992737721E+01  0.15646400228E+01  0.12866199135E+02  0.51100000000E-03 0. -1.
        -11    1    4    4    0    0 -0.69313286914E+01  0.20093210535E+02  0.34599248643E+01  0.21534890465E+02  0.51100000000E-03 0.  1.
        -12    1    4    4    0    0 -0.81424629876E+01  0.15631705638E+02 -0.93804202337E+01  0.19966026355E+02  0.00000000000E+00 0.  1.
</event>
<event>
 8    1  0.1290800E-006  0.9118800E+02  0.7816164E-02  0.1184000E+00
        -11   -1    0    0    0    0  0.00000000000E+00  0.00000000000E+00  0.45593999997E+02  0.45594000000E+02  0.51100000000E-03 0. -1.
         11   -1    0    0    0    0 -0.00000000000E+00 -0.00000000000E+00 -0.45593999997E+02  0.45594000000E+02  0.51100000000E-03 0.  1.
         23    2    1    2    0    0 -0.44408920985E-15 -0.35527136788E-14 -0.35527136788E-14  0.91188000000E+02  0.91188000000E+02 0.  0.
    9900012    2    3    3    0    0  0.26620606385E+01  0.31386789698E+02  0.19067520176E+02  0.54366980731E+02  0.39999764171E+02 0.  0.
        -12    1    3    3    0    0 -0.26620606385E+01 -0.31386789698E+02 -0.19067520176E+02  0.36821019269E+02  0.00000000000E+00 0.  1.
         11    1    4    4    0    0  0.31733952393E+01  0.10792485382E+02  0.25414029785E+01  0.11532862066E+02  0.51100000000E-03 0. -1.
        -11    1    4    4    0    0 -0.28496135930E+01 -0.58935042674E+01  0.14804949062E+02  0.16187656012E+02  0.51100000000E-03 0.  1.
        -12    1    4    4    0    0  0.23382789923E+01  0.26487808583E+02  0.17211681355E+01  0.26646462653E+02  0.00000000000E+00 0.  1.
</event>
<event>
 8    1  0.1290800E-006  0.9118800E+02  0.7816164E-02  0.1184000E+00
        -11   -1    0    0    0    0  0.00000000000E+00  0.00000000000E+00  0.45593999997E+02  0.45594000000E+02  0.51100000000E-03 0.  1.
         11   -1    0    0    0    0 -0.00000000000E+00 -0.00000000000E+00 -0.45593999997E+02  0.45594000000E+02  0.51100000000E-03 0. -1.
         23    2    1    2    0    0  0.00000000000E+00  0.17763568394E-14  0.00000000000E+00  0.91188000000E+02  0.91188000000E+02 0.  0.
    9900012    2    3    3    0    0  0.19201653683E+02 -0.67837536182E+01  0.30676651270E+02  0.54367085421E+02  0.40000002834E+02 0.  0.
         12    1    3    3    0    0 -0.19201653683E+02  0.67837536182E+01 -0.30676651270E+02  0.36820914579E+02  0.00000000000E+00 0. -1.
         11    1    4    4    0    0  0.31829590733E+01  0.42695988324E+01  0.62574570987E+01  0.82168407710E+01  0.51100000000E-03 0. -1.
        -11    1    4    4    0    0  0.13524673297E+02 -0.20651112537E+02  0.26285274195E+02  0.36059684921E+02  0.51100000000E-03 0.  1.
        -12    1    4    4    0    0  0.24940213126E+01  0.95977600869E+01 -0.18660800233E+01  0.10090559729E+02  0.00000000000E+00 0.  1.
</event>
<event>
 8    1  0.1290800E-006  0.9118800E+02  0.7816164E-02  0.1184000E+00
        -11   -1    0    0    0    0  0.00000000000E+00  0.00000000000E+00  0.45593999997E+02  0.45594000000E+02  0.51100000000E-03 0.  1.
         11   -1    0    0    0    0 -0.00000000000E+00 -0.00000000000E+00 -0.45593999997E+02  0.45594000000E+02  0.51100000000E-03 0. -1.
         23    2    1    2    0    0  0.00000000000E+00 -0.44408920985E-15 -0.88817841970E-15  0.91188000000E+02  0.91188000000E+02 0.  0.
    9900012    2    3    3    0    0 -0.36394066056E+02  0.38164271413E+01 -0.40848010677E+01  0.54367098871E+02  0.40000033496E+02 0.  0.
         12    1    3    3    0    0  0.36394066056E+02 -0.38164271413E+01  0.40848010677E+01  0.36820901129E+02  0.00000000000E+00 0. -1.
         11    1    4    4    0    0  0.45010575905E+01  0.28237797141E+01 -0.13402917893E+01  0.54799300770E+01  0.51100000000E-03 0. -1.
        -11    1    4    4    0    0 -0.34733227345E+02 -0.25743331441E+01 -0.12330096286E+02  0.36946658138E+02  0.51100000000E-03 0.  1.
        -12    1    4    4    0    0 -0.61618963018E+01  0.35669805713E+01  0.95855870077E+01  0.11940510655E+02  0.00000000000E+00 0.  1.
</event>
<event>
 8    1  0.1290800E-006  0.9118800E+02  0.7816164E-02  0.1184000E+00
        -11   -1    0    0    0    0  0.00000000000E+00  0.00000000000E+00  0.45593999997E+02  0.45594000000E+02  0.51100000000E-03 0. -1.
         11   -1    0    0    0    0 -0.00000000000E+00 -0.00000000000E+00 -0.45593999997E+02  0.45594000000E+02  0.51100000000E-03 0.  1.
         23    2    1    2    0    0  0.00000000000E+00  0.00000000000E+00 -0.88817841970E-15  0.91188000000E+02  0.91188000000E+02 0.  0.
    9900012    2    3    3    0    0 -0.17840732671E+02  0.31875759250E+02 -0.46286277494E+01  0.54367082510E+02  0.39999996197E+02 0.  0.
         12    1    3    3    0    0  0.17840732671E+02 -0.31875759250E+02  0.46286277494E+01  0.36820917490E+02  0.00000000000E+00 0. -1.
         11    1    4    4    0    0  0.47603982359E+01  0.84687096581E+01 -0.10956210827E+00  0.97155771190E+01  0.51100000000E-03 0. -1.
        -11    1    4    4    0    0 -0.22594019608E+02  0.20804999490E+02  0.81024477443E+01  0.31764561787E+02  0.51100000000E-03 0.  1.
        -12    1    4    4    0    0 -0.71112987549E-02  0.26020501017E+01 -0.12621513385E+02  0.12886943603E+02  0.00000000000E+00 0.  1.
</event>
<event>
 8    1  0.1290800E-006  0.9118800E+02  0.7816164E-02  0.1184000E+00
        -11   -1    0    0    0    0  0.00000000000E+00  0.00000000000E+00  0.45593999997E+02  0.45594000000E+02  0.51100000000E-03 0.  1.
         11   -1    0    0    0    0 -0.00000000000E+00 -0.00000000000E+00 -0.45593999997E+02  0.45594000000E+02  0.51100000000E-03 0. -1.
         23    2    1    2    0    0  0.00000000000E+00  0.88817841970E-15 -0.35527136788E-14  0.91188000000E+02  0.91188000000E+02 0.  0.
    9900012    2    3    3    0    0 -0.19903561242E+02 -0.45364911992E+01  0.30643916359E+02  0.54367066927E+02  0.39999960674E+02 0.  0.
         12    1    3    3    0    0  0.19903561242E+02  0.45364911992E+01 -0.30643916359E+02  0.36820933073E+02  0.00000000000E+00 0. -1.
         11    1    4    4    0    0  0.30939380709E+01  0.93412942204E-01 -0.48101851952E+01  0.57200577478E+01  0.51100000000E-03 0. -1.
        -11    1    4    4    0    0 -0.17836821796E+02  0.79706825499E+01  0.23180954090E+02  0.30315682821E+02  0.51100000000E-03 0.  1.
        -12    1    4    4    0    0 -0.51606775173E+01 -0.12600586691E+02  0.12273147464E+02  0.18331326359E+02  0.00000000000E+00 0.  1.
</event>
<event>
 8    1  0.1290800E-006  0.9118800E+02  0.7816164E-02  0.1184000E+00
        -11   -1    0    0    0    0  0.00000000000E+00  0.00000000000E+00  0.45593999997E+02  0.45594000000E+02  0.51100000000E-03 0. -1.
         11   -1    0    0    0    0 -0.00000000000E+00 -0.00000000000E+00 -0.45593999997E+02  0.45594000000E+02  0.51100000000E-03 0.  1.
         23    2    1    2    0    0 -0.35527136788E-14  0.17763568394E-14  0.00000000000E+00  0.91188000000E+02  0.91188000000E+02 0.  0.
    9900012    2    3    3    0    0  0.25293591044E+02 -0.11518905097E+02  0.24152219465E+02  0.54367073510E+02  0.39999975681E+02 0.  0.
        -12    1    3    3    0    0 -0.25293591044E+02  0.11518905097E+02 -0.24152219465E+02  0.36820926490E+02  0.00000000000E+00 0.  1.
         11    1    4    4    0    0  0.10474638046E+02 -0.16601785583E+02  0.20705020929E+02  0.28531302436E+02  0.51100000000E-03 0. -1.
        -11    1    4    4    0    0  0.11439286730E+01 -0.61501120218E+00 -0.73755294557E+01  0.74890083857E+01  0.51100000000E-03 0.  1.
        -12    1    4    4    0    0  0.13675024325E+02  0.56978916889E+01  0.10822727991E+02  0.18346762689E+02  0.00000000000E+00 0.  1.
</event>
<event>
 8    1  0.1290800E-006  0.9118800E+02  0.7816164E-02  0.1184000E+00
        -11   -1    0    0    0    0  0.00000000000E+00  0.00000000000E+00  0.45593999997E+02  0.45594000000E+02  0.51100000000E-03 0.  1.
         11   -1    0    0    0    0 -0.00000000000E+00 -0.00000000000E+00 -0.45593999997E+02  0.45594000000E+02  0.51100000000E-03 0. -1.
         23    2    1    2    0    0  0.00000000000E+00  0.71054273576E-14  0.35527136788E-14  0.91188000000E+02  0.91188000000E+02 0.  0.
    9900012    2    3    3    0    0 -0.26181499305E+01 -0.34916853766E+02 -0.11390316939E+02  0.54367072446E+02  0.39999973256E+02 0.  0.
        -12    1    3    3    0    0  0.26181499305E+01  0.34916853766E+02  0.11390316939E+02  0.36820927554E+02  0.00000000000E+00 0.  1.
         11    1    4    4    0    0 -0.61284640177E+01 -0.42601905710E+01 -0.52199343455E+01  0.91079640837E+01  0.51100000000E-03 0. -1.
        -11    1    4    4    0    0 -0.13291764568E+02 -0.77791565419E+01  0.24495168064E+01  0.15594435375E+02  0.51100000000E-03 0.  1.
         12    1    4    4    0    0  0.16802078655E+02 -0.22877506653E+02 -0.86198993999E+01  0.29664672987E+02  0.00000000000E+00 0. -1.
</event>
<event>
 8    1  0.1290800E-006  0.9118800E+02  0.7816164E-02  0.1184000E+00
        -11   -1    0    0    0    0  0.00000000000E+00  0.00000000000E+00  0.45593999997E+02  0.45594000000E+02  0.51100000000E-03 0. -1.
         11   -1    0    0    0    0 -0.00000000000E+00 -0.00000000000E+00 -0.45593999997E+02  0.45594000000E+02  0.51100000000E-03 0.  1.
         23    2    1    2    0    0  0.00000000000E+00  0.00000000000E+00  0.00000000000E+00  0.91188000000E+02  0.91188000000E+02 0.  0.
    9900012    2    3    3    0    0 -0.27285570699E+01 -0.16617067238E+02 -0.32744586343E+02  0.54367083634E+02  0.39999998759E+02 0.  0.
         12    1    3    3    0    0  0.27285570699E+01  0.16617067238E+02  0.32744586343E+02  0.36820916366E+02  0.00000000000E+00 0. -1.
         11    1    4    4    0    0  0.83895598031E+01 -0.20640912692E+02 -0.91752001740E+01  0.24095980763E+02  0.51100000000E-03 0. -1.
        -11    1    4    4    0    0 -0.14437155238E+02  0.11245164559E+01 -0.16636404383E+02  0.22055972880E+02  0.51100000000E-03 0.  1.
         12    1    4    4    0    0  0.33190383649E+01  0.28993289984E+01 -0.69329817866E+01  0.82151299906E+01  0.00000000000E+00 0. -1.
</event>
<event>
 8    1  0.1290800E-006  0.9118800E+02  0.7816164E-02  0.1184000E+00
        -11   -1    0    0    0    0  0.00000000000E+00  0.00000000000E+00  0.45593999997E+02  0.45594000000E+02  0.51100000000E-03 0.  1.
         11   -1    0    0    0    0 -0.00000000000E+00 -0.00000000000E+00 -0.45593999997E+02  0.45594000000E+02  0.51100000000E-03 0. -1.
         23    2    1    2    0    0 -0.35527136788E-14  0.35527136788E-14 -0.35527136788E-14  0.91188000000E+02  0.91188000000E+02 0.  0.
    9900012    2    3    3    0    0 -0.19961795621E+02  0.24073458326E+02 -0.19436445124E+02  0.54367080956E+02  0.39999992656E+02 0.  0.
         12    1    3    3    0    0  0.19961795621E+02 -0.24073458326E+02  0.19436445124E+02  0.36820919044E+02  0.00000000000E+00 0. -1.
         11    1    4    4    0    0 -0.61594516304E+01 -0.30772089391E+01 -0.29816514332E+01  0.75032196271E+01  0.51100000000E-03 0. -1.
        -11    1    4    4    0    0 -0.14623370853E+02  0.13197656637E+02  0.58437947379E+01  0.20546801528E+02  0.51100000000E-03 0.  1.
        -12    1    4    4    0    0  0.82102686308E+00  0.13953010628E+02 -0.22298588428E+02  0.26317059801E+02  0.00000000000E+00 0.  1.
</event>
<event>
 8    1  0.1290800E-006  0.9118800E+02  0.7816164E-02  0.1184000E+00
        -11   -1    0    0    0    0  0.00000000000E+00  0.00000000000E+00  0.45593999997E+02  0.45594000000E+02  0.51100000000E-03 0. -1.
         11   -1    0    0    0    0 -0.00000000000E+00 -0.00000000000E+00 -0.45593999997E+02  0.45594000000E+02  0.51100000000E-03 0.  1.
         23    2    1    2    0    0  0.00000000000E+00  0.35527136788E-14  0.00000000000E+00  0.91188000000E+02  0.91188000000E+02 0.  0.
    9900012    2    3    3    0    0 -0.19482789736E+02  0.25948830404E+02 -0.17402541965E+02  0.54367226487E+02  0.40000324422E+02 0.  0.
         12    1    3    3    0    0  0.19482789736E+02 -0.25948830404E+02  0.17402541965E+02  0.36820773513E+02  0.00000000000E+00 0. -1.
         11    1    4    4    0    0  0.29195921315E+01  0.78557086178E+01  0.23672776158E+01  0.87086267387E+01  0.51100000000E-03 0. -1.
        -11    1    4    4    0    0  0.38620321634E+01  0.45659723986E+01 -0.14452152712E+02  0.15640591889E+02  0.51100000000E-03 0.  1.
         12    1    4    4    0    0 -0.26264414031E+02  0.13527149387E+02 -0.53176668692E+01  0.30018007859E+02  0.00000000000E+00 0. -1.
</event>
<event>
 8    1  0.1290800E-006  0.9118800E+02  0.7816164E-02  0.1184000E+00
        -11   -1    0    0    0    0  0.00000000000E+00  0.00000000000E+00  0.45593999997E+02  0.45594000000E+02  0.51100000000E-03 0.  1.
         11   -1    0    0    0    0 -0.00000000000E+00 -0.00000000000E+00 -0.45593999997E+02  0.45594000000E+02  0.51100000000E-03 0. -1.
         23    2    1    2    0    0 -0.35527136788E-14  0.35527136788E-14  0.00000000000E+00  0.91188000000E+02  0.91188000000E+02 0.  0.
    9900012    2    3    3    0    0 -0.16978564931E+02  0.17131685827E+02  0.27821105555E+02  0.54367078763E+02  0.39999987656E+02 0.  0.
         12    1    3    3    0    0  0.16978564931E+02 -0.17131685827E+02 -0.27821105555E+02  0.36820921237E+02  0.00000000000E+00 0. -1.
         11    1    4    4    0    0 -0.46116413231E+01 -0.67531447523E+01  0.36092268770E+01  0.89386083173E+01  0.51100000000E-03 0. -1.
        -11    1    4    4    0    0  0.29725526298E+01 -0.43987950461E+01  0.74515942716E+01  0.91494111528E+01  0.51100000000E-03 0.  1.
         12    1    4    4    0    0 -0.15339476238E+02  0.28283625626E+02  0.16760284407E+02  0.36279059293E+02  0.00000000000E+00 0. -1.
</event>
<event>
 8    1  0.1290800E-006  0.9118800E+02  0.7816164E-02  0.1184000E+00
        -11   -1    0    0    0    0  0.00000000000E+00  0.00000000000E+00  0.45593999997E+02  0.45594000000E+02  0.51100000000E-03 0. -1.
         11   -1    0    0    0    0 -0.00000000000E+00 -0.00000000000E+00 -0.45593999997E+02  0.45594000000E+02  0.51100000000E-03 0.  1.
         23    2    1    2    0    0  0.35527136788E-14  0.00000000000E+00  0.00000000000E+00  0.91188000000E+02  0.91188000000E+02 0.  0.
    9900012    2    3    3    0    0 -0.30594278321E+02  0.98140817290E+01  0.17984847935E+02  0.54367070878E+02  0.39999969680E+02 0.  0.
        -12    1    3    3    0    0  0.30594278321E+02 -0.98140817290E+01 -0.17984847935E+02  0.36820929122E+02  0.00000000000E+00 0.  1.
         11    1    4    4    0    0 -0.13800882684E+02  0.66267204778E+01  0.66941474473E+01  0.16708961591E+02  0.51100000000E-03 0. -1.
        -11    1    4    4    0    0 -0.23535715314E+02  0.47840449614E+01 -0.45467341270E+00  0.24021317818E+02  0.51100000000E-03 0.  1.
         12    1    4    4    0    0  0.67423196770E+01 -0.15966837102E+01  0.11745373901E+02  0.13636791469E+02  0.00000000000E+00 0. -1.
</event>
<event>
 8    1  0.1290800E-006  0.9118800E+02  0.7816164E-02  0.1184000E+00
        -11   -1    0    0    0    0  0.00000000000E+00  0.00000000000E+00  0.45593999997E+02  0.45594000000E+02  0.51100000000E-03 0. -1.
         11   -1    0    0    0    0 -0.00000000000E+00 -0.00000000000E+00 -0.45593999997E+02  0.45594000000E+02  0.51100000000E-03 0.  1.
         23    2    1    2    0    0  0.00000000000E+00 -0.22204460493E-15  0.00000000000E+00  0.91188000000E+02  0.91188000000E+02 0.  0.
    9900012    2    3    3    0    0 -0.12770235795E+02 -0.19133644541E+01 -0.34482458649E+02  0.54367084201E+02  0.40000000053E+02 0.  0.
         12    1    3    3    0    0  0.12770235795E+02  0.19133644541E+01  0.34482458649E+02  0.36820915799E+02  0.00000000000E+00 0. -1.
         11    1    4    4    0    0 -0.50429319116E+01  0.33313547436E+01 -0.36208483412E+01  0.70455397000E+01  0.51100000000E-03 0. -1.
        -11    1    4    4    0    0 -0.15556645200E+02 -0.86723888139E+01 -0.28527232422E+01  0.18037670797E+02  0.51100000000E-03 0.  1.
        -12    1    4    4    0    0  0.78293413170E+01  0.34276696162E+01 -0.28008887066E+02  0.29283873704E+02  0.00000000000E+00 0.  1.
</event>
<event>
 8    1  0.1290800E-006  0.9118800E+02  0.7816164E-02  0.1184000E+00
        -11   -1    0    0    0    0  0.00000000000E+00  0.00000000000E+00  0.45593999997E+02  0.45594000000E+02  0.51100000000E-03 0.  1.
         11   -1    0    0    0    0 -0.00000000000E+00 -0.00000000000E+00 -0.45593999997E+02  0.45594000000E+02  0.51100000000E-03 0. -1.
         23    2    1    2    0    0  0.22204460493E-14  0.00000000000E+00  0.71054273576E-14  0.91188000000E+02  0.91188000000E+02 0.  0.
    9900012    2    3    3    0    0 -0.25185077179E+01 -0.41878118578E+01 -0.36495189966E+02  0.54367088279E+02  0.40000009351E+02 0.  0.
        -12    1    3    3    0    0  0.25185077179E+01  0.41878118578E+01  0.36495189966E+02  0.36820911721E+02  0.00000000000E+00 0.  1.
         11    1    4    4    0    0  0.14104782322E+02 -0.78712835070E+01 -0.14134304797E+02  0.21463470380E+02  0.51100000000E-03 0. -1.
        -11    1    4    4    0    0  0.14445628739E+01 -0.12757074299E+01  0.15875525053E+01  0.24969009915E+01  0.51100000000E-03 0.  1.
         12    1    4    4    0    0 -0.18067852914E+02  0.49591790791E+01 -0.23948437675E+02  0.30406716908E+02  0.00000000000E+00 0. -1.
</event>
<event>
 8    1  0.1290800E-006  0.9118800E+02  0.7816164E-02  0.1184000E+00
        -11   -1    0    0    0    0  0.00000000000E+00  0.00000000000E+00  0.45593999997E+02  0.45594000000E+02  0.51100000000E-03 0.  1.
         11   -1    0    0    0    0 -0.00000000000E+00 -0.00000000000E+00 -0.45593999997E+02  0.45594000000E+02  0.51100000000E-03 0. -1.
         23    2    1    2    0    0  0.00000000000E+00  0.44408920985E-15  0.00000000000E+00  0.91188000000E+02  0.91188000000E+02 0.  0.
    9900012    2    3    3    0    0  0.32747418859E+02  0.36497619949E+01  0.16433699538E+02  0.54367072730E+02  0.39999973901E+02 0.  0.
         12    1    3    3    0    0 -0.32747418859E+02 -0.36497619949E+01 -0.16433699538E+02  0.36820927270E+02  0.00000000000E+00 0. -1.
         11    1    4    4    0    0  0.74205380576E+01  0.41979565597E+01 -0.16245358878E+01  0.86790749192E+01  0.51100000000E-03 0. -1.
        -11    1    4    4    0    0  0.26732474449E+02 -0.37890620871E+01 -0.29158296211E+00  0.27001244463E+02  0.51100000000E-03 0.  1.
        -12    1    4    4    0    0 -0.14055936475E+01  0.32408675223E+01  0.18349818388E+02  0.18686753347E+02  0.00000000000E+00 0.  1.
</event>
<event>
 8    1  0.1290800E-006  0.9118800E+02  0.7816164E-02  0.1184000E+00
        -11   -1    0    0    0    0  0.00000000000E+00  0.00000000000E+00  0.45593999997E+02  0.45594000000E+02  0.51100000000E-03 0.  1.
         11   -1    0    0    0    0 -0.00000000000E+00 -0.00000000000E+00 -0.45593999997E+02  0.45594000000E+02  0.51100000000E-03 0. -1.
         23    2    1    2    0    0  0.71054273576E-14 -0.88817841970E-15 -0.17763568394E-14  0.91188000000E+02  0.91188000000E+02 0.  0.
    9900012    2    3    3    0    0  0.36231404834E+02 -0.24956207351E+01 -0.60693486639E+01  0.54367084581E+02  0.40000000920E+02 0.  0.
        -12    1    3    3    0    0 -0.36231404834E+02  0.24956207351E+01  0.60693486639E+01  0.36820915419E+02  0.00000000000E+00 0.  1.
         11    1    4    4    0    0  0.37363865911E+01  0.89130547882E+01 -0.54631319717E+01  0.11101753988E+02  0.51100000000E-03 0.  1.
        -11    1    4    4    0    0  0.19014827271E+02 -0.24055174557E+01 -0.12742213368E+02  0.23015520245E+02  0.51100000000E-03 0. -1.
         12    1    4    4    0    0  0.13480190971E+02 -0.90031580676E+01  0.12135996676E+02  0.20249810348E+02  0.00000000000E+00 0. -1.
</event>
<event>
 8    1  0.1290800E-006  0.9118800E+02  0.7816164E-02  0.1184000E+00
        -11   -1    0    0    0    0  0.00000000000E+00  0.00000000000E+00  0.45593999997E+02  0.45594000000E+02  0.51100000000E-03 0.  1.
         11   -1    0    0    0    0 -0.00000000000E+00 -0.00000000000E+00 -0.45593999997E+02  0.45594000000E+02  0.51100000000E-03 0. -1.
         23    2    1    2    0    0  0.00000000000E+00  0.00000000000E+00  0.88817841970E-15  0.91188000000E+02  0.91188000000E+02 0.  0.
    9900012    2    3    3    0    0 -0.12117664017E+02 -0.33860233633E+02 -0.79013403645E+01  0.54367022522E+02  0.39999859442E+02 0.  0.
        -12    1    3    3    0    0  0.12117664017E+02  0.33860233633E+02  0.79013403645E+01  0.36820977478E+02  0.00000000000E+00 0.  1.
         11    1    4    4    0    0 -0.19162474104E+02 -0.16887653959E+02 -0.15698886181E+02  0.29980798816E+02  0.51100000000E-03 0. -1.
        -11    1    4    4    0    0 -0.39276619898E+01 -0.79919094356E+01  0.35270915295E+01  0.95779705601E+01  0.51100000000E-03 0.  1.
         12    1    4    4    0    0  0.10972472077E+02 -0.89806702385E+01  0.42704542868E+01  0.14808253146E+02  0.00000000000E+00 0. -1.
</event>
<event>
 8    1  0.1290800E-006  0.9118800E+02  0.7816164E-02  0.1184000E+00
        -11   -1    0    0    0    0  0.00000000000E+00  0.00000000000E+00  0.45593999997E+02  0.45594000000E+02  0.51100000000E-03 0. -1.
         11   -1    0    0    0    0 -0.00000000000E+00 -0.00000000000E+00 -0.45593999997E+02  0.45594000000E+02  0.51100000000E-03 0.  1.
         23    2    1    2    0    0 -0.17763568394E-14  0.00000000000E+00  0.00000000000E+00  0.91188000000E+02  0.91188000000E+02 0.  0.
    9900012    2    3    3    0    0  0.74251251167E+01  0.30783827256E+02 -0.18788340291E+02  0.54367106007E+02  0.40000049764E+02 0.  0.
         12    1    3    3    0    0 -0.74251251167E+01 -0.30783827256E+02  0.18788340291E+02  0.36820893993E+02  0.00000000000E+00 0. -1.
         11    1    4    4    0    0 -0.78278363077E+01  0.29849040571E+02 -0.98282115297E+01  0.32385706514E+02  0.51100000000E-03 0. -1.
        -11    1    4    4    0    0  0.10675113838E+02 -0.45680348243E+01 -0.16114467855E+01  0.11722702701E+02  0.51100000000E-03 0.  1.
         12    1    4    4    0    0  0.45778475866E+01  0.55028215096E+01 -0.73486819762E+01  0.10258696792E+02  0.00000000000E+00 0. -1.
</event>
<event>
 8    1  0.1290800E-006  0.9118800E+02  0.7816164E-02  0.1184000E+00
        -11   -1    0    0    0    0  0.00000000000E+00  0.00000000000E+00  0.45593999997E+02  0.45594000000E+02  0.51100000000E-03 0.  1.
         11   -1    0    0    0    0 -0.00000000000E+00 -0.00000000000E+00 -0.45593999997E+02  0.45594000000E+02  0.51100000000E-03 0. -1.
         23    2    1    2    0    0  0.00000000000E+00  0.19984014443E-14  0.00000000000E+00  0.91188000000E+02  0.91188000000E+02 0.  0.
    9900012    2    3    3    0    0 -0.28896234399E+02 -0.18284349874E+01  0.22747399107E+02  0.54367086064E+02  0.40000004301E+02 0.  0.
         12    1    3    3    0    0  0.28896234399E+02  0.18284349874E+01 -0.22747399107E+02  0.36820913936E+02  0.00000000000E+00 0. -1.
         11    1    4    4    0    0 -0.15787864696E+02  0.11476189702E+02  0.60938905209E+01  0.20447374005E+02  0.51100000000E-03 0. -1.
        -11    1    4    4    0    0 -0.67884203381E+01  0.41434764568E+01  0.12638993491E+02  0.14933023959E+02  0.51100000000E-03 0.  1.
        -12    1    4    4    0    0 -0.63199493646E+01 -0.17448101147E+02  0.40145150956E+01  0.18986688101E+02  0.00000000000E+00 0.  1.
</event>
<event>
 8    1  0.1290800E-006  0.9118800E+02  0.7816164E-02  0.1184000E+00
        -11   -1    0    0    0    0  0.00000000000E+00  0.00000000000E+00  0.45593999997E+02  0.45594000000E+02  0.51100000000E-03 0.  1.
         11   -1    0    0    0    0 -0.00000000000E+00 -0.00000000000E+00 -0.45593999997E+02  0.45594000000E+02  0.51100000000E-03 0. -1.
         23    2    1    2    0    0 -0.26645352591E-14  0.00000000000E+00 -0.26645352591E-14  0.91188000000E+02  0.91188000000E+02 0.  0.
    9900012    2    3    3    0    0 -0.61653705867E+01  0.35483345535E+02  0.76615690233E+01  0.54367092288E+02  0.40000018489E+02 0.  0.
         12    1    3    3    0    0  0.61653705867E+01 -0.35483345535E+02 -0.76615690233E+01  0.36820907712E+02  0.00000000000E+00 0. -1.
         11    1    4    4    0    0  0.93264330334E+01  0.11656113562E+01 -0.17232027667E+01  0.95556491667E+01  0.51100000000E-03 0. -1.
        -11    1    4    4    0    0  0.49948317668E+01  0.27695375704E+01 -0.97655490261E+00  0.57941645188E+01  0.51100000000E-03 0.  1.
        -12    1    4    4    0    0 -0.20486635387E+02  0.31548196609E+02  0.10361326693E+02  0.39017278603E+02  0.00000000000E+00 0.  1.
</event>
<event>
 8    1  0.1290800E-006  0.9118800E+02  0.7816164E-02  0.1184000E+00
        -11   -1    0    0    0    0  0.00000000000E+00  0.00000000000E+00  0.45593999997E+02  0.45594000000E+02  0.51100000000E-03 0. -1.
         11   -1    0    0    0    0 -0.00000000000E+00 -0.00000000000E+00 -0.45593999997E+02  0.45594000000E+02  0.51100000000E-03 0.  1.
         23    2    1    2    0    0 -0.26645352591E-14  0.00000000000E+00  0.00000000000E+00  0.91188000000E+02  0.91188000000E+02 0.  0.
    9900012    2    3    3    0    0  0.48827133526E+01 -0.16744525413E+02  0.32427753812E+02  0.54367092376E+02  0.40000018689E+02 0.  0.
        -12    1    3    3    0    0 -0.48827133526E+01  0.16744525413E+02 -0.32427753812E+02  0.36820907624E+02  0.00000000000E+00 0.  1.
         11    1    4    4    0    0 -0.69535751639E+01 -0.11366715883E+02  0.16601151708E+02  0.21287383019E+02  0.51100000000E-03 0. -1.
        -11    1    4    4    0    0 -0.60538531891E+01 -0.84366737904E+01  0.28494453757E+01  0.10767819756E+02  0.51100000000E-03 0.  1.
         12    1    4    4    0    0  0.17890141706E+02  0.30588642607E+01  0.12977156728E+02  0.22311889601E+02  0.00000000000E+00 0. -1.
</event>
<event>
 8    1  0.1290800E-006  0.9118800E+02  0.7816164E-02  0.1184000E+00
        -11   -1    0    0    0    0  0.00000000000E+00  0.00000000000E+00  0.45593999997E+02  0.45594000000E+02  0.51100000000E-03 0.  1.
         11   -1    0    0    0    0 -0.00000000000E+00 -0.00000000000E+00 -0.45593999997E+02  0.45594000000E+02  0.51100000000E-03 0. -1.
         23    2    1    2    0    0  0.00000000000E+00 -0.17763568394E-14  0.00000000000E+00  0.91188000000E+02  0.91188000000E+02 0.  0.
    9900012    2    3    3    0    0  0.19892678585E+02 -0.67164624807E+01  0.30248139173E+02  0.54367089460E+02  0.40000012043E+02 0.  0.
         12    1    3    3    0    0 -0.19892678585E+02  0.67164624807E+01 -0.30248139173E+02  0.36820910540E+02  0.00000000000E+00 0. -1.
         11    1    4    4    0    0  0.10021368396E+02 -0.18974788046E+02  0.43857095361E+01  0.21902165517E+02  0.51100000000E-03 0. -1.
        -11    1    4    4    0    0  0.24938924175E+01 -0.21980643485E+01  0.54877405126E+01  0.64160955780E+01  0.51100000000E-03 0.  1.
         12    1    4    4    0    0  0.73774177718E+01  0.14456389914E+02  0.20374689124E+02  0.26048828366E+02  0.00000000000E+00 0. -1.
</event>
<event>
 8    1  0.1290800E-006  0.9118800E+02  0.7816164E-02  0.1184000E+00
        -11   -1    0    0    0    0  0.00000000000E+00  0.00000000000E+00  0.45593999997E+02  0.45594000000E+02  0.51100000000E-03 0. -1.
         11   -1    0    0    0    0 -0.00000000000E+00 -0.00000000000E+00 -0.45593999997E+02  0.45594000000E+02  0.51100000000E-03 0.  1.
         23    2    1    2    0    0  0.00000000000E+00  0.00000000000E+00  0.00000000000E+00  0.91188000000E+02  0.91188000000E+02 0.  0.
    9900012    2    3    3    0    0 -0.23186652547E+02 -0.16634063863E+02  0.23269427828E+02  0.54367092781E+02  0.40000019614E+02 0.  0.
        -12    1    3    3    0    0  0.23186652547E+02  0.16634063863E+02 -0.23269427828E+02  0.36820907219E+02  0.00000000000E+00 0.  1.
         11    1    4    4    0    0 -0.11312360235E+02 -0.17447335869E+02  0.15051278946E+02  0.25669437492E+02  0.51100000000E-03 0. -1.
        -11    1    4    4    0    0 -0.55852145207E+01  0.19314290172E+01 -0.87546630799E+01  0.10562630600E+02  0.51100000000E-03 0.  1.
        -12    1    4    4    0    0 -0.62890777918E+01 -0.11181570117E+01  0.16972811962E+02  0.18135024689E+02  0.00000000000E+00 0.  1.
</event>
<event>
 8    1  0.1290800E-006  0.9118800E+02  0.7816164E-02  0.1184000E+00
        -11   -1    0    0    0    0  0.00000000000E+00  0.00000000000E+00  0.45593999997E+02  0.45594000000E+02  0.51100000000E-03 0. -1.
         11   -1    0    0    0    0 -0.00000000000E+00 -0.00000000000E+00 -0.45593999997E+02  0.45594000000E+02  0.51100000000E-03 0.  1.
         23    2    1    2    0    0 -0.35527136788E-14 -0.35527136788E-14 -0.17763568394E-14  0.91188000000E+02  0.91188000000E+02 0.  0.
    9900012    2    3    3    0    0 -0.31818697900E+02  0.11109388328E+02  0.14830063692E+02  0.54367097863E+02  0.40000031199E+02 0.  0.
        -12    1    3    3    0    0  0.31818697900E+02 -0.11109388328E+02 -0.14830063692E+02  0.36820902137E+02  0.00000000000E+00 0.  1.
         11    1    4    4    0    0 -0.11453009703E+02  0.60960087347E+01  0.18044271817E+02  0.22224502230E+02  0.51100000000E-03 0. -1.
        -11    1    4    4    0    0  0.81086160817E+00 -0.73928866737E+01 -0.62972572175E+00  0.74638344478E+01  0.51100000000E-03 0.  1.
         12    1    4    4    0    0 -0.21176549805E+02  0.12406266267E+02 -0.25844824032E+01  0.24678761185E+02  0.00000000000E+00 0. -1.
</event>
<event>
 8    1  0.1290800E-006  0.9118800E+02  0.7816164E-02  0.1184000E+00
        -11   -1    0    0    0    0  0.00000000000E+00  0.00000000000E+00  0.45593999997E+02  0.45594000000E+02  0.51100000000E-03 0.  1.
         11   -1    0    0    0    0 -0.00000000000E+00 -0.00000000000E+00 -0.45593999997E+02  0.45594000000E+02  0.51100000000E-03 0. -1.
         23    2    1    2    0    0  0.00000000000E+00  0.00000000000E+00  0.00000000000E+00  0.91188000000E+02  0.91188000000E+02 0.  0.
    9900012    2    3    3    0    0 -0.11967755794E+02 -0.31941173081E+02 -0.13867721594E+02  0.54367089925E+02  0.40000013102E+02 0.  0.
        -12    1    3    3    0    0  0.11967755794E+02  0.31941173081E+02  0.13867721594E+02  0.36820910075E+02  0.00000000000E+00 0.  1.
         11    1    4    4    0    0 -0.82854757013E+00 -0.69945673048E+01 -0.22485318914E+01  0.73936701837E+01  0.51100000000E-03 0. -1.
        -11    1    4    4    0    0  0.10682874259E+01 -0.22734272465E+02  0.76888843971E+01  0.24023058216E+02  0.51100000000E-03 0.  1.
         12    1    4    4    0    0 -0.12207495650E+02 -0.22123333118E+01 -0.19308074099E+02  0.22950361525E+02  0.00000000000E+00 0. -1.
</event>
<event>
 8    1  0.1290800E-006  0.9118800E+02  0.7816164E-02  0.1184000E+00
        -11   -1    0    0    0    0  0.00000000000E+00  0.00000000000E+00  0.45593999997E+02  0.45594000000E+02  0.51100000000E-03 0.  1.
         11   -1    0    0    0    0 -0.00000000000E+00 -0.00000000000E+00 -0.45593999997E+02  0.45594000000E+02  0.51100000000E-03 0. -1.
         23    2    1    2    0    0  0.00000000000E+00  0.35527136788E-14  0.00000000000E+00  0.91188000000E+02  0.91188000000E+02 0.  0.
    9900012    2    3    3    0    0 -0.24456305752E+02  0.15396883940E+02 -0.22816764462E+02  0.54367086559E+02  0.40000005429E+02 0.  0.
         12    1    3    3    0    0  0.24456305752E+02 -0.15396883940E+02  0.22816764462E+02  0.36820913441E+02  0.00000000000E+00 0. -1.
         11    1    4    4    0    0 -0.40261939331E+01 -0.31381491526E+01 -0.41445000629E+01  0.65753401983E+01  0.51100000000E-03 0. -1.
        -11    1    4    4    0    0 -0.20440724519E+02 -0.41467150754E+00 -0.20250610855E+02  0.28776421105E+02  0.51100000000E-03 0.  1.
        -12    1    4    4    0    0  0.10612700082E-01  0.18949704600E+02  0.15783464564E+01  0.19015325256E+02  0.00000000000E+00 0.  1.
</event>
<event>
 8    1  0.1290800E-006  0.9118800E+02  0.7816164E-02  0.1184000E+00
        -11   -1    0    0    0    0  0.00000000000E+00  0.00000000000E+00  0.45593999997E+02  0.45594000000E+02  0.51100000000E-03 0. -1.
         11   -1    0    0    0    0 -0.00000000000E+00 -0.00000000000E+00 -0.45593999997E+02  0.45594000000E+02  0.51100000000E-03 0.  1.
         23    2    1    2    0    0  0.00000000000E+00  0.00000000000E+00  0.88817841970E-15  0.91188000000E+02  0.91188000000E+02 0.  0.
    9900012    2    3    3    0    0 -0.61421457934E+01 -0.35606686696E+02  0.70863599232E+01  0.54367101187E+02  0.40000038776E+02 0.  0.
         12    1    3    3    0    0  0.61421457934E+01  0.35606686696E+02 -0.70863599232E+01  0.36820898813E+02  0.00000000000E+00 0. -1.
         11    1    4    4    0    0 -0.17818958348E+01 -0.19927780032E+02  0.13039654578E+02  0.23881460624E+02  0.51100000000E-03 0. -1.
        -11    1    4    4    0    0 -0.45367358568E+01 -0.19153602695E+02  0.38735485190E+01  0.20061077908E+02  0.51100000000E-03 0.  1.
         12    1    4    4    0    0  0.17648589817E+00  0.34746960307E+01 -0.98268431738E+01  0.10424562655E+02  0.00000000000E+00 0. -1.
</event>
<event>
 8    1  0.1290800E-006  0.9118800E+02  0.7816164E-02  0.1184000E+00
        -11   -1    0    0    0    0  0.00000000000E+00  0.00000000000E+00  0.45593999997E+02  0.45594000000E+02  0.51100000000E-03 0.  1.
         11   -1    0    0    0    0 -0.00000000000E+00 -0.00000000000E+00 -0.45593999997E+02  0.45594000000E+02  0.51100000000E-03 0. -1.
         23    2    1    2    0    0 -0.33306690739E-15 -0.35527136788E-14  0.71054273576E-14  0.91188000000E+02  0.91188000000E+02 0.  0.
    9900012    2    3    3    0    0  0.82970392261E+00 -0.24165678522E+02  0.27768878225E+02  0.54367095273E+02  0.40000025295E+02 0.  0.
         12    1    3    3    0    0 -0.82970392261E+00  0.24165678522E+02 -0.27768878225E+02  0.36820904727E+02  0.00000000000E+00 0. -1.
         11    1    4    4    0    0  0.60103504900E+01  0.12047851421E+01 -0.71176710490E+01  0.93934584512E+01  0.51100000000E-03 0. -1.
        -11    1    4    4    0    0  0.30043556152E+01 -0.96917124964E+01  0.17142223003E+02  0.19920121825E+02  0.51100000000E-03 0.  1.
         12    1    4    4    0    0 -0.81850021826E+01 -0.15678751168E+02  0.17744326271E+02  0.25053514997E+02  0.00000000000E+00 0. -1.
</event>
<event>
 8    1  0.1290800E-006  0.9118800E+02  0.7816164E-02  0.1184000E+00
        -11   -1    0    0    0    0  0.00000000000E+00  0.00000000000E+00  0.45593999997E+02  0.45594000000E+02  0.51100000000E-03 0. -1.
         11   -1    0    0    0    0 -0.00000000000E+00 -0.00000000000E+00 -0.45593999997E+02  0.45594000000E+02  0.51100000000E-03 0.  1.
         23    2    1    2    0    0  0.00000000000E+00  0.00000000000E+00 -0.35527136788E-14  0.91188000000E+02  0.91188000000E+02 0.  0.
    9900012    2    3    3    0    0  0.27143328274E+02 -0.11994861658E+02  0.21797752399E+02  0.54367095807E+02  0.40000026510E+02 0.  0.
        -12    1    3    3    0    0 -0.27143328274E+02  0.11994861658E+02 -0.21797752399E+02  0.36820904193E+02  0.00000000000E+00 0.  1.
         11    1    4    4    0    0  0.59703676176E+01 -0.15472412793E+01  0.24371238524E+02  0.25139540817E+02  0.51100000000E-03 0. -1.
        -11    1    4    4    0    0  0.53157700345E+01 -0.34814318985E+01 -0.87721792911E+01  0.10831846975E+02  0.51100000000E-03 0.  1.
         12    1    4    4    0    0  0.15857190622E+02 -0.69661884798E+01  0.61986931662E+01  0.18395708014E+02  0.00000000000E+00 0. -1.
</event>
<event>
 8    1  0.1290800E-006  0.9118800E+02  0.7816164E-02  0.1184000E+00
        -11   -1    0    0    0    0  0.00000000000E+00  0.00000000000E+00  0.45593999997E+02  0.45594000000E+02  0.51100000000E-03 0. -1.
         11   -1    0    0    0    0 -0.00000000000E+00 -0.00000000000E+00 -0.45593999997E+02  0.45594000000E+02  0.51100000000E-03 0.  1.
         23    2    1    2    0    0  0.17763568394E-14  0.00000000000E+00 -0.17763568394E-14  0.91188000000E+02  0.91188000000E+02 0.  0.
    9900012    2    3    3    0    0 -0.14533584131E+02  0.33563123612E+02 -0.42506287328E+01  0.54367133920E+02  0.40000113397E+02 0.  0.
         12    1    3    3    0    0  0.14533584131E+02 -0.33563123612E+02  0.42506287328E+01  0.36820866080E+02  0.00000000000E+00 0. -1.
         11    1    4    4    0    0 -0.18315345851E+02  0.85407986410E+01 -0.12178009183E+02  0.23594512985E+02  0.51100000000E-03 0. -1.
        -11    1    4    4    0    0 -0.38555058428E+01  0.20387007697E+02  0.63686244873E+01  0.21703787371E+02  0.51100000000E-03 0.  1.
        -12    1    4    4    0    0  0.76372675626E+01  0.46353172740E+01  0.15587559633E+01  0.90688335637E+01  0.00000000000E+00 0.  1.
</event>
<event>
 8    1  0.1290800E-006  0.9118800E+02  0.7816164E-02  0.1184000E+00
        -11   -1    0    0    0    0  0.00000000000E+00  0.00000000000E+00  0.45593999997E+02  0.45594000000E+02  0.51100000000E-03 0.  1.
         11   -1    0    0    0    0 -0.00000000000E+00 -0.00000000000E+00 -0.45593999997E+02  0.45594000000E+02  0.51100000000E-03 0. -1.
         23    2    1    2    0    0  0.35527136788E-14  0.00000000000E+00 -0.35527136788E-14  0.91188000000E+02  0.91188000000E+02 0.  0.
    9900012    2    3    3    0    0 -0.26787727171E+02 -0.17889571741E+02  0.17837062910E+02  0.54367083155E+02  0.39999997668E+02 0.  0.
         12    1    3    3    0    0  0.26787727171E+02  0.17889571741E+02 -0.17837062910E+02  0.36820916845E+02  0.00000000000E+00 0. -1.
         11    1    4    4    0    0 -0.11107594860E+02 -0.65302937405E+01 -0.39541882220E+01  0.13478093510E+02  0.51100000000E-03 0. -1.
        -11    1    4    4    0    0 -0.88644495776E+01 -0.20290858087E+02  0.91011829940E+01  0.23940111118E+02  0.51100000000E-03 0.  1.
         12    1    4    4    0    0 -0.68156827330E+01  0.89315800858E+01  0.12690068138E+02  0.16948878526E+02  0.00000000000E+00 0. -1.
</event>
<event>
 8    1  0.1290800E-006  0.9118800E+02  0.7816164E-02  0.1184000E+00
        -11   -1    0    0    0    0  0.00000000000E+00  0.00000000000E+00  0.45593999997E+02  0.45594000000E+02  0.51100000000E-03 0. -1.
         11   -1    0    0    0    0 -0.00000000000E+00 -0.00000000000E+00 -0.45593999997E+02  0.45594000000E+02  0.51100000000E-03 0.  1.
         23    2    1    2    0    0  0.00000000000E+00  0.00000000000E+00  0.00000000000E+00  0.91188000000E+02  0.91188000000E+02 0.  0.
    9900012    2    3    3    0    0  0.12283039421E+02 -0.14488378690E+02 -0.31543518541E+02  0.54367085611E+02  0.40000003268E+02 0.  0.
         12    1    3    3    0    0 -0.12283039421E+02  0.14488378690E+02  0.31543518541E+02  0.36820914389E+02  0.00000000000E+00 0. -1.
         11    1    4    4    0    0 -0.10579823649E+02 -0.75552457238E+01 -0.44460849274E+01  0.13739799046E+02  0.51100000000E-03 0. -1.
        -11    1    4    4    0    0  0.16261773960E+02 -0.11186813660E+02 -0.26082406178E+02  0.32709050803E+02  0.51100000000E-03 0.  1.
        -12    1    4    4    0    0  0.66010891098E+01  0.42536806936E+01 -0.10150274360E+01  0.79182357615E+01  0.00000000000E+00 0.  1.
</event>
<event>
 8    1  0.1290800E-006  0.9118800E+02  0.7816164E-02  0.1184000E+00
        -11   -1    0    0    0    0  0.00000000000E+00  0.00000000000E+00  0.45593999997E+02  0.45594000000E+02  0.51100000000E-03 0. -1.
         11   -1    0    0    0    0 -0.00000000000E+00 -0.00000000000E+00 -0.45593999997E+02  0.45594000000E+02  0.51100000000E-03 0.  1.
         23    2    1    2    0    0  0.26645352591E-14  0.00000000000E+00  0.00000000000E+00  0.91188000000E+02  0.91188000000E+02 0.  0.
    9900012    2    3    3    0    0 -0.62766406443E+01 -0.99009811280E+01 -0.34904923494E+02  0.54367091141E+02  0.40000015875E+02 0.  0.
         12    1    3    3    0    0  0.62766406443E+01  0.99009811280E+01  0.34904923494E+02  0.36820908859E+02  0.00000000000E+00 0. -1.
         11    1    4    4    0    0  0.11975248596E+02 -0.81912148416E+01 -0.27175400915E+02  0.30805924669E+02  0.51100000000E-03 0. -1.
        -11    1    4    4    0    0 -0.12133701045E+02 -0.26550779413E+01 -0.10971771607E+02  0.16572746073E+02  0.51100000000E-03 0.  1.
         12    1    4    4    0    0 -0.61181881956E+01  0.94531165494E+00  0.32422490290E+01  0.69884204001E+01  0.00000000000E+00 0. -1.
</event>
<event>
 8    1  0.1290800E-006  0.9118800E+02  0.7816164E-02  0.1184000E+00
        -11   -1    0    0    0    0  0.00000000000E+00  0.00000000000E+00  0.45593999997E+02  0.45594000000E+02  0.51100000000E-03 0. -1.
         11   -1    0    0    0    0 -0.00000000000E+00 -0.00000000000E+00 -0.45593999997E+02  0.45594000000E+02  0.51100000000E-03 0.  1.
         23    2    1    2    0    0 -0.17763568394E-14 -0.35527136788E-14  0.71054273576E-14  0.91188000000E+02  0.91188000000E+02 0.  0.
    9900012    2    3    3    0    0 -0.10657224624E+02 -0.11475444745E+02  0.33324429548E+02  0.54367083750E+02  0.39999999025E+02 0.  0.
        -12    1    3    3    0    0  0.10657224624E+02  0.11475444745E+02 -0.33324429548E+02  0.36820916250E+02  0.00000000000E+00 0.  1.
         11    1    4    4    0    0 -0.76932294525E+01 -0.11758768785E+02  0.27896928788E+01  0.14326088418E+02  0.51100000000E-03 0. -1.
        -11    1    4    4    0    0  0.80593319712E+01  0.88183084868E+01  0.13428876333E+02  0.17973594972E+02  0.51100000000E-03 0.  1.
        -12    1    4    4    0    0 -0.11023327142E+02 -0.85349844464E+01  0.17105860337E+02  0.22067400360E+02  0.00000000000E+00 0.  1.
</event>
<event>
 8    1  0.1290800E-006  0.9118800E+02  0.7816164E-02  0.1184000E+00
        -11   -1    0    0    0    0  0.00000000000E+00  0.00000000000E+00  0.45593999997E+02  0.45594000000E+02  0.51100000000E-03 0.  1.
         11   -1    0    0    0    0 -0.00000000000E+00 -0.00000000000E+00 -0.45593999997E+02  0.45594000000E+02  0.51100000000E-03 0. -1.
         23    2    1    2    0    0  0.00000000000E+00 -0.35527136788E-14 -0.17763568394E-14  0.91188000000E+02  0.91188000000E+02 0.  0.
    9900012    2    3    3    0    0 -0.17817660281E+02 -0.29717196997E+02  0.12457927922E+02  0.54367071395E+02  0.39999970859E+02 0.  0.
        -12    1    3    3    0    0  0.17817660281E+02  0.29717196997E+02 -0.12457927922E+02  0.36820928605E+02  0.00000000000E+00 0.  1.
         11    1    4    4    0    0 -0.21727236539E+02 -0.20560967166E+02  0.67953930640E+01  0.30675781091E+02  0.51100000000E-03 0. -1.
        -11    1    4    4    0    0 -0.45797985292E+01 -0.94189777704E+01  0.97106734996E+01  0.14282467465E+02  0.51100000000E-03 0.  1.
        -12    1    4    4    0    0  0.84893747870E+01  0.26274793922E+00 -0.40481386414E+01  0.94088228389E+01  0.00000000000E+00 0.  1.
</event>
<event>
 8    1  0.1290800E-006  0.9118800E+02  0.7816164E-02  0.1184000E+00
        -11   -1    0    0    0    0  0.00000000000E+00  0.00000000000E+00  0.45593999997E+02  0.45594000000E+02  0.51100000000E-03 0.  1.
         11   -1    0    0    0    0 -0.00000000000E+00 -0.00000000000E+00 -0.45593999997E+02  0.45594000000E+02  0.51100000000E-03 0. -1.
         23    2    1    2    0    0  0.17763568394E-14  0.00000000000E+00  0.00000000000E+00  0.91188000000E+02  0.91188000000E+02 0.  0.
    9900012    2    3    3    0    0 -0.14415278790E+02 -0.23446029794E+02 -0.24459406120E+02  0.54367093935E+02  0.40000022244E+02 0.  0.
        -12    1    3    3    0    0  0.14415278790E+02  0.23446029794E+02  0.24459406120E+02  0.36820906065E+02  0.00000000000E+00 0.  1.
         11    1    4    4    0    0 -0.20138507558E+01 -0.34069268406E+01 -0.23627775464E+01  0.46092801345E+01  0.51100000000E-03 0. -1.
        -11    1    4    4    0    0 -0.14971982179E+02 -0.28435410589E+02 -0.79457517567E+01  0.33103893985E+02  0.51100000000E-03 0.  1.
         12    1    4    4    0    0  0.25705541450E+01  0.83963076358E+01 -0.14150876817E+02  0.16653919815E+02  0.00000000000E+00 0. -1.
</event>
<event>
 8    1  0.1290800E-006  0.9118800E+02  0.7816164E-02  0.1184000E+00
        -11   -1    0    0    0    0  0.00000000000E+00  0.00000000000E+00  0.45593999997E+02  0.45594000000E+02  0.51100000000E-03 0.  1.
         11   -1    0    0    0    0 -0.00000000000E+00 -0.00000000000E+00 -0.45593999997E+02  0.45594000000E+02  0.51100000000E-03 0. -1.
         23    2    1    2    0    0  0.35527136788E-14  0.35527136788E-14  0.88817841970E-15  0.91188000000E+02  0.91188000000E+02 0.  0.
    9900012    2    3    3    0    0  0.27186915236E+02  0.24602739160E+02  0.33698024346E+01  0.54367099648E+02  0.40000035269E+02 0.  0.
         12    1    3    3    0    0 -0.27186915236E+02 -0.24602739160E+02 -0.33698024346E+01  0.36820900352E+02  0.00000000000E+00 0. -1.
         11    1    4    4    0    0  0.14855841086E+02 -0.34516466053E+01  0.11649406068E+02  0.19191626838E+02  0.51100000000E-03 0. -1.
        -11    1    4    4    0    0  0.12066670730E+02  0.29264924580E+02 -0.54960607195E+01  0.32128601539E+02  0.51100000000E-03 0.  1.
        -12    1    4    4    0    0  0.26440341998E+00 -0.12105388143E+01 -0.27835429143E+01  0.30468712715E+01  0.00000000000E+00 0.  1.
</event>
<event>
 8    1  0.1290800E-006  0.9118800E+02  0.7816164E-02  0.1184000E+00
        -11   -1    0    0    0    0  0.00000000000E+00  0.00000000000E+00  0.45593999997E+02  0.45594000000E+02  0.51100000000E-03 0.  1.
         11   -1    0    0    0    0 -0.00000000000E+00 -0.00000000000E+00 -0.45593999997E+02  0.45594000000E+02  0.51100000000E-03 0. -1.
         23    2    1    2    0    0  0.88817841970E-15 -0.35527136788E-14  0.00000000000E+00  0.91188000000E+02  0.91188000000E+02 0.  0.
    9900012    2    3    3    0    0 -0.27202991737E+01  0.23081591626E+02  0.28559075047E+02  0.54367072973E+02  0.39999974457E+02 0.  0.
         12    1    3    3    0    0  0.27202991737E+01 -0.23081591626E+02 -0.28559075047E+02  0.36820927027E+02  0.00000000000E+00 0. -1.
         11    1    4    4    0    0 -0.42662715392E+01  0.18666847646E+02  0.28915538288E+02  0.34680839503E+02  0.51100000000E-03 0. -1.
        -11    1    4    4    0    0  0.62251206072E+01 -0.51316962812E+01  0.28907455053E+01  0.85698799953E+01  0.51100000000E-03 0.  1.
         12    1    4    4    0    0 -0.46791482417E+01  0.95464402614E+01 -0.32472087471E+01  0.11116353475E+02  0.00000000000E+00 0. -1.
</event>
<event>
 8    1  0.1290800E-006  0.9118800E+02  0.7816164E-02  0.1184000E+00
        -11   -1    0    0    0    0  0.00000000000E+00  0.00000000000E+00  0.45593999997E+02  0.45594000000E+02  0.51100000000E-03 0. -1.
         11   -1    0    0    0    0 -0.00000000000E+00 -0.00000000000E+00 -0.45593999997E+02  0.45594000000E+02  0.51100000000E-03 0.  1.
         23    2    1    2    0    0  0.00000000000E+00 -0.17763568394E-14  0.00000000000E+00  0.91188000000E+02  0.91188000000E+02 0.  0.
    9900012    2    3    3    0    0 -0.18057988523E+02  0.74228034863E+01  0.31218443594E+02  0.54367079567E+02  0.39999989490E+02 0.  0.
        -12    1    3    3    0    0  0.18057988523E+02 -0.74228034863E+01 -0.31218443594E+02  0.36820920433E+02  0.00000000000E+00 0.  1.
         11    1    4    4    0    0 -0.19701911017E+01  0.14357320756E+02  0.20306327131E+02  0.24947168859E+02  0.51100000000E-03 0. -1.
        -11    1    4    4    0    0 -0.40727609272E+01  0.29315524226E+01 -0.50630427294E+01  0.71285189989E+01  0.51100000000E-03 0.  1.
        -12    1    4    4    0    0 -0.12015036494E+02 -0.98660696922E+01  0.15975159192E+02  0.22291391710E+02  0.00000000000E+00 0.  1.
</event>
<event>
 8    1  0.1290800E-006  0.9118800E+02  0.7816164E-02  0.1184000E+00
        -11   -1    0    0    0    0  0.00000000000E+00  0.00000000000E+00  0.45593999997E+02  0.45594000000E+02  0.51100000000E-03 0.  1.
         11   -1    0    0    0    0 -0.00000000000E+00 -0.00000000000E+00 -0.45593999997E+02  0.45594000000E+02  0.51100000000E-03 0. -1.
         23    2    1    2    0    0  0.00000000000E+00  0.00000000000E+00  0.00000000000E+00  0.91188000000E+02  0.91188000000E+02 0.  0.
    9900012    2    3    3    0    0  0.10163236503E+02 -0.33912621069E+02  0.10120423778E+02  0.54367079026E+02  0.39999988255E+02 0.  0.
         12    1    3    3    0    0 -0.10163236503E+02  0.33912621069E+02 -0.10120423778E+02  0.36820920974E+02  0.00000000000E+00 0. -1.
         11    1    4    4    0    0  0.14082591171E+02 -0.42564097654E+01  0.16594291812E+02  0.22176720208E+02  0.51100000000E-03 0. -1.
        -11    1    4    4    0    0 -0.73432733622E+00 -0.27556230680E+02 -0.46263486097E+01  0.27951532831E+02  0.51100000000E-03 0.  1.
         12    1    4    4    0    0 -0.31850273316E+01 -0.20999806236E+01 -0.18475194241E+01  0.42388259866E+01  0.00000000000E+00 0. -1.
</event>
<event>
 8    1  0.1290800E-006  0.9118800E+02  0.7816164E-02  0.1184000E+00
        -11   -1    0    0    0    0  0.00000000000E+00  0.00000000000E+00  0.45593999997E+02  0.45594000000E+02  0.51100000000E-03 0. -1.
         11   -1    0    0    0    0 -0.00000000000E+00 -0.00000000000E+00 -0.45593999997E+02  0.45594000000E+02  0.51100000000E-03 0.  1.
         23    2    1    2    0    0  0.00000000000E+00 -0.35527136788E-14 -0.35527136788E-14  0.91188000000E+02  0.91188000000E+02 0.  0.
    9900012    2    3    3    0    0 -0.11698422788E+02 -0.25601690151E+02  0.23737754183E+02  0.54367073777E+02  0.39999976289E+02 0.  0.
         12    1    3    3    0    0  0.11698422788E+02  0.25601690151E+02 -0.23737754183E+02  0.36820926223E+02  0.00000000000E+00 0. -1.
         11    1    4    4    0    0 -0.88744146982E+01 -0.30499834496E+01 -0.20225753712E+01  0.95993982453E+01  0.51100000000E-03 0.  1.
        -11    1    4    4    0    0  0.29115781515E+01  0.64269382708E+01  0.44351152388E+01  0.83338508693E+01  0.51100000000E-03 0. -1.
        -12    1    4    4    0    0 -0.57355862412E+01 -0.28978644972E+02  0.21325214315E+02  0.36433824662E+02  0.00000000000E+00 0.  1.
</event>
<event>
 8    1  0.1290800E-006  0.9118800E+02  0.7816164E-02  0.1184000E+00
        -11   -1    0    0    0    0  0.00000000000E+00  0.00000000000E+00  0.45593999997E+02  0.45594000000E+02  0.51100000000E-03 0. -1.
         11   -1    0    0    0    0 -0.00000000000E+00 -0.00000000000E+00 -0.45593999997E+02  0.45594000000E+02  0.51100000000E-03 0.  1.
         23    2    1    2    0    0  0.00000000000E+00  0.00000000000E+00  0.00000000000E+00  0.91188000000E+02  0.91188000000E+02 0.  0.
    9900012    2    3    3    0    0  0.94252691933E+01  0.11029693127E+02  0.33842128409E+02  0.54367089024E+02  0.40000011047E+02 0.  0.
        -12    1    3    3    0    0 -0.94252691933E+01 -0.11029693127E+02 -0.33842128409E+02  0.36820910976E+02  0.00000000000E+00 0.  1.
         11    1    4    4    0    0  0.25575331289E+01 -0.73955792372E+01  0.33728279680E+01  0.85212403276E+01  0.51100000000E-03 0. -1.
        -11    1    4    4    0    0  0.75151386228E+00  0.72375591501E+01 -0.45470337455E+01  0.85803584821E+01  0.51100000000E-03 0.  1.
         12    1    4    4    0    0  0.61162222021E+01  0.11187713214E+02  0.35016334187E+02  0.37265490214E+02  0.00000000000E+00 0. -1.
</event>
<event>
 8    1  0.1290800E-006  0.9118800E+02  0.7816164E-02  0.1184000E+00
        -11   -1    0    0    0    0  0.00000000000E+00  0.00000000000E+00  0.45593999997E+02  0.45594000000E+02  0.51100000000E-03 0.  1.
         11   -1    0    0    0    0 -0.00000000000E+00 -0.00000000000E+00 -0.45593999997E+02  0.45594000000E+02  0.51100000000E-03 0. -1.
         23    2    1    2    0    0 -0.88817841970E-15 -0.71054273576E-14 -0.17763568394E-14  0.91188000000E+02  0.91188000000E+02 0.  0.
    9900012    2    3    3    0    0  0.73030557280E+01  0.35861946662E+02  0.40455011021E+01  0.54367083111E+02  0.39999997568E+02 0.  0.
         12    1    3    3    0    0 -0.73030557280E+01 -0.35861946662E+02 -0.40455011021E+01  0.36820916889E+02  0.00000000000E+00 0. -1.
         11    1    4    4    0    0  0.33004824798E+01  0.30456566234E+01 -0.42584599227E-01  0.44912161578E+01  0.51100000000E-03 0. -1.
        -11    1    4    4    0    0 -0.56570561163E+01  0.23135354417E+02 -0.13670693692E+02  0.27461514419E+02  0.51100000000E-03 0.  1.
         12    1    4    4    0    0  0.96596293645E+01  0.96809356223E+01  0.17758779393E+02  0.22414352534E+02  0.00000000000E+00 0. -1.
</event>
<event>
 8    1  0.1290800E-006  0.9118800E+02  0.7816164E-02  0.1184000E+00
        -11   -1    0    0    0    0  0.00000000000E+00  0.00000000000E+00  0.45593999997E+02  0.45594000000E+02  0.51100000000E-03 0. -1.
         11   -1    0    0    0    0 -0.00000000000E+00 -0.00000000000E+00 -0.45593999997E+02  0.45594000000E+02  0.51100000000E-03 0.  1.
         23    2    1    2    0    0 -0.17763568394E-14  0.71054273576E-14  0.17763568394E-14  0.91188000000E+02  0.91188000000E+02 0.  0.
    9900012    2    3    3    0    0 -0.13530097858E+02 -0.31477848550E+02 -0.13485559973E+02  0.54367097986E+02  0.40000031478E+02 0.  0.
         12    1    3    3    0    0  0.13530097858E+02  0.31477848550E+02  0.13485559973E+02  0.36820902014E+02  0.00000000000E+00 0. -1.
         11    1    4    4    0    0 -0.15855216469E+01 -0.17848397902E+01  0.26844135610E+00  0.24024139927E+01  0.51100000000E-03 0. -1.
        -11    1    4    4    0    0  0.56046301501E+01 -0.28573436115E+02 -0.17518147184E+02  0.33981445107E+02  0.51100000000E-03 0.  1.
         12    1    4    4    0    0 -0.17549206361E+02 -0.11195726446E+01  0.37641458554E+01  0.17983238886E+02  0.00000000000E+00 0. -1.
</event>
<event>
 8    1  0.1290800E-006  0.9118800E+02  0.7816164E-02  0.1184000E+00
        -11   -1    0    0    0    0  0.00000000000E+00  0.00000000000E+00  0.45593999997E+02  0.45594000000E+02  0.51100000000E-03 0. -1.
         11   -1    0    0    0    0 -0.00000000000E+00 -0.00000000000E+00 -0.45593999997E+02  0.45594000000E+02  0.51100000000E-03 0.  1.
         23    2    1    2    0    0  0.00000000000E+00  0.00000000000E+00  0.00000000000E+00  0.91188000000E+02  0.91188000000E+02 0.  0.
    9900012    2    3    3    0    0  0.23054537422E+02 -0.14069327408E+02 -0.25026435944E+02  0.54367079785E+02  0.39999989985E+02 0.  0.
         12    1    3    3    0    0 -0.23054537422E+02  0.14069327408E+02  0.25026435944E+02  0.36820920215E+02  0.00000000000E+00 0. -1.
         11    1    4    4    0    0  0.16895110682E+01  0.30606768450E+01  0.13947894197E+01  0.37639909917E+01  0.51100000000E-03 0.  1.
        -11    1    4    4    0    0 -0.62870789036E+01 -0.10268668686E+01 -0.15555512829E+02  0.16809396073E+02  0.51100000000E-03 0. -1.
        -12    1    4    4    0    0  0.27652105257E+02 -0.16103137384E+02 -0.10865712535E+02  0.33793692720E+02  0.00000000000E+00 0.  1.
</event>
<event>
 8    1  0.1290800E-006  0.9118800E+02  0.7816164E-02  0.1184000E+00
        -11   -1    0    0    0    0  0.00000000000E+00  0.00000000000E+00  0.45593999997E+02  0.45594000000E+02  0.51100000000E-03 0. -1.
         11   -1    0    0    0    0 -0.00000000000E+00 -0.00000000000E+00 -0.45593999997E+02  0.45594000000E+02  0.51100000000E-03 0.  1.
         23    2    1    2    0    0 -0.88817841970E-15 -0.17763568394E-14  0.00000000000E+00  0.91188000000E+02  0.91188000000E+02 0.  0.
    9900012    2    3    3    0    0  0.49909707756E+01 -0.12312377379E+02 -0.34340641172E+02  0.54367026872E+02  0.39999869360E+02 0.  0.
         12    1    3    3    0    0 -0.49909707756E+01  0.12312377379E+02  0.34340641172E+02  0.36820973128E+02  0.00000000000E+00 0. -1.
         11    1    4    4    0    0 -0.16132567854E+01 -0.70410458733E+01 -0.13747280102E+02  0.15529540718E+02  0.51100000000E-03 0. -1.
        -11    1    4    4    0    0 -0.10770688947E+02  0.40824085954E+01 -0.13783620374E+02  0.17962794638E+02  0.51100000000E-03 0.  1.
        -12    1    4    4    0    0  0.17374916508E+02 -0.93537401015E+01 -0.68097406958E+01  0.20874691516E+02  0.00000000000E+00 0.  1.
</event>
<event>
 8    1  0.1290800E-006  0.9118800E+02  0.7816164E-02  0.1184000E+00
        -11   -1    0    0    0    0  0.00000000000E+00  0.00000000000E+00  0.45593999997E+02  0.45594000000E+02  0.51100000000E-03 0.  1.
         11   -1    0    0    0    0 -0.00000000000E+00 -0.00000000000E+00 -0.45593999997E+02  0.45594000000E+02  0.51100000000E-03 0. -1.
         23    2    1    2    0    0 -0.13877787808E-16 -0.26645352591E-14  0.00000000000E+00  0.91188000000E+02  0.91188000000E+02 0.  0.
    9900012    2    3    3    0    0 -0.28813386561E-01  0.34872941450E+01 -0.36655397208E+02  0.54367079382E+02  0.39999989068E+02 0.  0.
        -12    1    3    3    0    0  0.28813386561E-01 -0.34872941450E+01  0.36655397208E+02  0.36820920618E+02  0.00000000000E+00 0.  1.
         11    1    4    4    0    0  0.77727686993E+00 -0.82655927549E+01 -0.40395893674E+02  0.41240179545E+02  0.51100000000E-03 0. -1.
        -11    1    4    4    0    0  0.11504189905E+01  0.15069758717E+01 -0.33998368724E+00  0.19261436344E+01  0.51100000000E-03 0.  1.
         12    1    4    4    0    0 -0.19565092470E+01  0.10245911028E+02  0.40804801534E+01  0.11200756203E+02  0.00000000000E+00 0. -1.
</event>
<event>
 8    1  0.1290800E-006  0.9118800E+02  0.7816164E-02  0.1184000E+00
        -11   -1    0    0    0    0  0.00000000000E+00  0.00000000000E+00  0.45593999997E+02  0.45594000000E+02  0.51100000000E-03 0.  1.
         11   -1    0    0    0    0 -0.00000000000E+00 -0.00000000000E+00 -0.45593999997E+02  0.45594000000E+02  0.51100000000E-03 0. -1.
         23    2    1    2    0    0  0.00000000000E+00  0.44408920985E-15  0.71054273576E-14  0.91188000000E+02  0.91188000000E+02 0.  0.
    9900012    2    3    3    0    0  0.24301838337E+01 -0.12026291109E+01 -0.36720930822E+02  0.54367097367E+02  0.40000030068E+02 0.  0.
        -12    1    3    3    0    0 -0.24301838337E+01  0.12026291109E+01  0.36720930822E+02  0.36820902633E+02  0.00000000000E+00 0.  1.
         11    1    4    4    0    0  0.62786298075E+00  0.26563110851E+01  0.18464644415E+01  0.32953955299E+01  0.51100000000E-03 0. -1.
        -11    1    4    4    0    0  0.90942550535E+01  0.10978030227E+02 -0.80691148746E+01  0.16380880250E+02  0.51100000000E-03 0.  1.
         12    1    4    4    0    0 -0.72919342005E+01 -0.14836970423E+02 -0.30498280389E+02  0.34690821587E+02  0.00000000000E+00 0. -1.
</event>
<event>
 8    1  0.1290800E-006  0.9118800E+02  0.7816164E-02  0.1184000E+00
        -11   -1    0    0    0    0  0.00000000000E+00  0.00000000000E+00  0.45593999997E+02  0.45594000000E+02  0.51100000000E-03 0. -1.
         11   -1    0    0    0    0 -0.00000000000E+00 -0.00000000000E+00 -0.45593999997E+02  0.45594000000E+02  0.51100000000E-03 0.  1.
         23    2    1    2    0    0 -0.35527136788E-14  0.44408920985E-15 -0.35527136788E-14  0.91188000000E+02  0.91188000000E+02 0.  0.
    9900012    2    3    3    0    0 -0.30396632210E+02 -0.27934168555E+01 -0.20591784472E+02  0.54367081827E+02  0.39999994640E+02 0.  0.
         12    1    3    3    0    0  0.30396632210E+02  0.27934168555E+01  0.20591784472E+02  0.36820918173E+02  0.00000000000E+00 0. -1.
         11    1    4    4    0    0 -0.24500835186E+01 -0.46161439077E+00  0.25988620688E+01  0.36013999233E+01  0.51100000000E-03 0. -1.
        -11    1    4    4    0    0  0.55901220933E+01  0.59162164954E+01 -0.11926211411E+02  0.14439030491E+02  0.51100000000E-03 0.  1.
        -12    1    4    4    0    0 -0.33536670784E+02 -0.82480189601E+01 -0.11264435130E+02  0.36326651412E+02  0.00000000000E+00 0.  1.
</event>
<event>
 8    1  0.1290800E-006  0.9118800E+02  0.7816164E-02  0.1184000E+00
        -11   -1    0    0    0    0  0.00000000000E+00  0.00000000000E+00  0.45593999997E+02  0.45594000000E+02  0.51100000000E-03 0. -1.
         11   -1    0    0    0    0 -0.00000000000E+00 -0.00000000000E+00 -0.45593999997E+02  0.45594000000E+02  0.51100000000E-03 0.  1.
         23    2    1    2    0    0  0.35527136788E-14  0.35527136788E-14  0.00000000000E+00  0.91188000000E+02  0.91188000000E+02 0.  0.
    9900012    2    3    3    0    0  0.20960691869E+02  0.21252710327E+02 -0.21558106932E+02  0.54367078306E+02  0.39999986615E+02 0.  0.
         12    1    3    3    0    0 -0.20960691869E+02 -0.21252710327E+02  0.21558106932E+02  0.36820921694E+02  0.00000000000E+00 0. -1.
         11    1    4    4    0    0  0.28258602269E+02  0.10275882800E+02 -0.82230676027E+01  0.31173084714E+02  0.51100000000E-03 0. -1.
        -11    1    4    4    0    0 -0.94317028718E+00 -0.15551951567E+01 -0.79352298583E+01  0.81410119353E+01  0.51100000000E-03 0.  1.
        -12    1    4    4    0    0 -0.63547401126E+01  0.12532022683E+02 -0.53998094714E+01  0.15052981657E+02  0.00000000000E+00 0.  1.
</event>
<event>
 8    1  0.1290800E-006  0.9118800E+02  0.7816164E-02  0.1184000E+00
        -11   -1    0    0    0    0  0.00000000000E+00  0.00000000000E+00  0.45593999997E+02  0.45594000000E+02  0.51100000000E-03 0. -1.
         11   -1    0    0    0    0 -0.00000000000E+00 -0.00000000000E+00 -0.45593999997E+02  0.45594000000E+02  0.51100000000E-03 0.  1.
         23    2    1    2    0    0 -0.71054273576E-14 -0.17763568394E-14 -0.44408920985E-15  0.91188000000E+02  0.91188000000E+02 0.  0.
    9900012    2    3    3    0    0 -0.34305739512E+02  0.13165414158E+02  0.23597297790E+01  0.54367079072E+02  0.39999988359E+02 0.  0.
        -12    1    3    3    0    0  0.34305739512E+02 -0.13165414158E+02 -0.23597297790E+01  0.36820920928E+02  0.00000000000E+00 0.  1.
         11    1    4    4    0    0 -0.20554927538E+02 -0.61712276518E+00  0.43410610828E+01  0.21017390375E+02  0.51100000000E-03 0. -1.
        -11    1    4    4    0    0 -0.67707575518E+01  0.14746997941E+02  0.10278997732E+02  0.19208719393E+02  0.51100000000E-03 0.  1.
        -12    1    4    4    0    0 -0.69800544223E+01 -0.96446101739E+00 -0.12260329036E+02  0.14140969304E+02  0.00000000000E+00 0.  1.
</event>
<event>
 8    1  0.1290800E-006  0.9118800E+02  0.7816164E-02  0.1184000E+00
        -11   -1    0    0    0    0  0.00000000000E+00  0.00000000000E+00  0.45593999997E+02  0.45594000000E+02  0.51100000000E-03 0. -1.
         11   -1    0    0    0    0 -0.00000000000E+00 -0.00000000000E+00 -0.45593999997E+02  0.45594000000E+02  0.51100000000E-03 0.  1.
         23    2    1    2    0    0  0.00000000000E+00  0.00000000000E+00 -0.35527136788E-14  0.91188000000E+02  0.91188000000E+02 0.  0.
    9900012    2    3    3    0    0  0.10949831364E+01 -0.28370807219E+02  0.23445206759E+02  0.54367090040E+02  0.40000013364E+02 0.  0.
        -12    1    3    3    0    0 -0.10949831364E+01  0.28370807219E+02 -0.23445206759E+02  0.36820909960E+02  0.00000000000E+00 0.  1.
         11    1    4    4    0    0 -0.82773702989E+01 -0.18796452425E+02  0.55184599235E+01  0.21266755348E+02  0.51100000000E-03 0. -1.
        -11    1    4    4    0    0 -0.15293175473E+01 -0.14679134652E+02  0.53689200026E+01  0.15704811637E+02  0.51100000000E-03 0.  1.
        -12    1    4    4    0    0  0.10901670983E+02  0.51047798582E+01  0.12557826833E+02  0.17395523056E+02  0.00000000000E+00 0.  1.
</event>
<event>
 8    1  0.1290800E-006  0.9118800E+02  0.7816164E-02  0.1184000E+00
        -11   -1    0    0    0    0  0.00000000000E+00  0.00000000000E+00  0.45593999997E+02  0.45594000000E+02  0.51100000000E-03 0.  1.
         11   -1    0    0    0    0 -0.00000000000E+00 -0.00000000000E+00 -0.45593999997E+02  0.45594000000E+02  0.51100000000E-03 0. -1.
         23    2    1    2    0    0  0.00000000000E+00  0.00000000000E+00 -0.88817841970E-15  0.91188000000E+02  0.91188000000E+02 0.  0.
    9900012    2    3    3    0    0  0.96376323367E+01  0.35301554224E+02 -0.40859894214E+01  0.54367095649E+02  0.40000026151E+02 0.  0.
        -12    1    3    3    0    0 -0.96376323367E+01 -0.35301554224E+02  0.40859894214E+01  0.36820904351E+02  0.00000000000E+00 0.  1.
         11    1    4    4    0    0 -0.57423010256E+01  0.15444058272E+02 -0.30015850703E+00  0.16479777073E+02  0.51100000000E-03 0. -1.
        -11    1    4    4    0    0 -0.71760799740E+01  0.25652566313E+01  0.37356952034E+01  0.84871717487E+01  0.51100000000E-03 0.  1.
        -12    1    4    4    0    0  0.22556013336E+02  0.17292239320E+02 -0.75215261177E+01  0.29400146827E+02  0.00000000000E+00 0.  1.
</event>
<event>
 8    1  0.1290800E-006  0.9118800E+02  0.7816164E-02  0.1184000E+00
        -11   -1    0    0    0    0  0.00000000000E+00  0.00000000000E+00  0.45593999997E+02  0.45594000000E+02  0.51100000000E-03 0.  1.
         11   -1    0    0    0    0 -0.00000000000E+00 -0.00000000000E+00 -0.45593999997E+02  0.45594000000E+02  0.51100000000E-03 0. -1.
         23    2    1    2    0    0  0.00000000000E+00 -0.35527136788E-14  0.88817841970E-15  0.91188000000E+02  0.91188000000E+02 0.  0.
    9900012    2    3    3    0    0  0.20672065027E+02  0.30428165960E+02  0.16039890095E+01  0.54367077457E+02  0.39999984679E+02 0.  0.
         12    1    3    3    0    0 -0.20672065027E+02 -0.30428165960E+02 -0.16039890095E+01  0.36820922543E+02  0.00000000000E+00 0. -1.
         11    1    4    4    0    0  0.39053138191E+01  0.38900013954E+01 -0.12695187326E+02  0.13840208394E+02  0.51100000000E-03 0. -1.
        -11    1    4    4    0    0  0.94841242323E+01  0.38890781425E+01 -0.34813729230E+01  0.10825594623E+02  0.51100000000E-03 0.  1.
        -12    1    4    4    0    0  0.72826269758E+01  0.22649086422E+02  0.17780549259E+02  0.29701274440E+02  0.00000000000E+00 0.  1.
</event>
<event>
 8    1  0.1290800E-006  0.9118800E+02  0.7816164E-02  0.1184000E+00
        -11   -1    0    0    0    0  0.00000000000E+00  0.00000000000E+00  0.45593999997E+02  0.45594000000E+02  0.51100000000E-03 0. -1.
         11   -1    0    0    0    0 -0.00000000000E+00 -0.00000000000E+00 -0.45593999997E+02  0.45594000000E+02  0.51100000000E-03 0.  1.
         23    2    1    2    0    0  0.00000000000E+00  0.00000000000E+00 -0.35527136788E-14  0.91188000000E+02  0.91188000000E+02 0.  0.
    9900012    2    3    3    0    0 -0.18148208151E+02  0.44645818234E+01  0.31725095397E+02  0.54367195719E+02  0.40000254279E+02 0.  0.
        -12    1    3    3    0    0  0.18148208151E+02 -0.44645818234E+01 -0.31725095397E+02  0.36820804281E+02  0.00000000000E+00 0.  1.
         11    1    4    4    0    0 -0.70650443526E+01  0.44246004263E+01  0.73510280980E+00  0.83685313550E+01  0.51100000000E-03 0.  1.
        -11    1    4    4    0    0 -0.15081896289E+02 -0.15200555224E+01  0.36201601195E+02  0.39247039300E+02  0.51100000000E-03 0. -1.
         12    1    4    4    0    0  0.39987324905E+01  0.15600369194E+01 -0.52116086077E+01  0.67516250637E+01  0.00000000000E+00 0. -1.
</event>
<event>
 8    1  0.1290800E-006  0.9118800E+02  0.7816164E-02  0.1184000E+00
        -11   -1    0    0    0    0  0.00000000000E+00  0.00000000000E+00  0.45593999997E+02  0.45594000000E+02  0.51100000000E-03 0.  1.
         11   -1    0    0    0    0 -0.00000000000E+00 -0.00000000000E+00 -0.45593999997E+02  0.45594000000E+02  0.51100000000E-03 0. -1.
         23    2    1    2    0    0 -0.35527136788E-14  0.00000000000E+00  0.00000000000E+00  0.91188000000E+02  0.91188000000E+02 0.  0.
    9900012    2    3    3    0    0  0.26159212912E+02  0.22321516342E+02  0.13161458119E+02  0.54367102513E+02  0.40000041798E+02 0.  0.
        -12    1    3    3    0    0 -0.26159212912E+02 -0.22321516342E+02 -0.13161458119E+02  0.36820897487E+02  0.00000000000E+00 0.  1.
         11    1    4    4    0    0  0.10392411704E+02  0.30634645137E+02  0.43649459203E+01  0.32642555918E+02  0.51100000000E-03 0. -1.
        -11    1    4    4    0    0  0.12675419219E+01 -0.38659144337E+01 -0.23127979189E+00  0.40749782252E+01  0.51100000000E-03 0.  1.
        -12    1    4    4    0    0  0.14499259286E+02 -0.44472143615E+01  0.90277919901E+01  0.17649568370E+02  0.00000000000E+00 0.  1.
</event>
<event>
 8    1  0.1290800E-006  0.9118800E+02  0.7816164E-02  0.1184000E+00
        -11   -1    0    0    0    0  0.00000000000E+00  0.00000000000E+00  0.45593999997E+02  0.45594000000E+02  0.51100000000E-03 0.  1.
         11   -1    0    0    0    0 -0.00000000000E+00 -0.00000000000E+00 -0.45593999997E+02  0.45594000000E+02  0.51100000000E-03 0. -1.
         23    2    1    2    0    0  0.00000000000E+00  0.00000000000E+00 -0.17763568394E-14  0.91188000000E+02  0.91188000000E+02 0.  0.
    9900012    2    3    3    0    0  0.28087516702E+02 -0.19676529227E+02 -0.13405428699E+02  0.54367083179E+02  0.39999997724E+02 0.  0.
        -12    1    3    3    0    0 -0.28087516702E+02  0.19676529227E+02  0.13405428699E+02  0.36820916821E+02  0.00000000000E+00 0.  1.
         11    1    4    4    0    0  0.30543230243E+02 -0.11521063193E+02 -0.15383705789E+02  0.36087147502E+02  0.51100000000E-03 0. -1.
        -11    1    4    4    0    0  0.17617824955E+01 -0.41416609850E+01  0.84504874068E+01  0.95743391913E+01  0.51100000000E-03 0.  1.
         12    1    4    4    0    0 -0.42174960366E+01 -0.40138050491E+01 -0.64722103166E+01  0.87055964858E+01  0.00000000000E+00 0. -1.
</event>
<event>
 8    1  0.1290800E-006  0.9118800E+02  0.7816164E-02  0.1184000E+00
        -11   -1    0    0    0    0  0.00000000000E+00  0.00000000000E+00  0.45593999997E+02  0.45594000000E+02  0.51100000000E-03 0.  1.
         11   -1    0    0    0    0 -0.00000000000E+00 -0.00000000000E+00 -0.45593999997E+02  0.45594000000E+02  0.51100000000E-03 0. -1.
         23    2    1    2    0    0  0.00000000000E+00 -0.35527136788E-14  0.35527136788E-14  0.91188000000E+02  0.91188000000E+02 0.  0.
    9900012    2    3    3    0    0  0.10554756896E+02 -0.23081286334E+02  0.26676430192E+02  0.54367073887E+02  0.39999976541E+02 0.  0.
         12    1    3    3    0    0 -0.10554756896E+02  0.23081286334E+02 -0.26676430192E+02  0.36820926113E+02  0.00000000000E+00 0. -1.
         11    1    4    4    0    0 -0.91177567483E+00  0.79658702022E+01  0.15049988100E+01  0.81579068785E+01  0.51100000000E-03 0. -1.
        -11    1    4    4    0    0  0.24534179760E+01 -0.17140446408E+02  0.24002172784E+02  0.29595919675E+02  0.51100000000E-03 0.  1.
        -12    1    4    4    0    0  0.90131145944E+01 -0.13906710129E+02  0.11692585985E+01  0.16613247334E+02  0.00000000000E+00 0.  1.
</event>
<event>
 8    1  0.1290800E-006  0.9118800E+02  0.7816164E-02  0.1184000E+00
        -11   -1    0    0    0    0  0.00000000000E+00  0.00000000000E+00  0.45593999997E+02  0.45594000000E+02  0.51100000000E-03 0. -1.
         11   -1    0    0    0    0 -0.00000000000E+00 -0.00000000000E+00 -0.45593999997E+02  0.45594000000E+02  0.51100000000E-03 0.  1.
         23    2    1    2    0    0  0.00000000000E+00  0.00000000000E+00  0.17763568394E-14  0.91188000000E+02  0.91188000000E+02 0.  0.
    9900012    2    3    3    0    0  0.15670074206E+02 -0.32807906742E+02 -0.58197597255E+01  0.54367087821E+02  0.40000008305E+02 0.  0.
         12    1    3    3    0    0 -0.15670074206E+02  0.32807906742E+02  0.58197597255E+01  0.36820912179E+02  0.00000000000E+00 0. -1.
         11    1    4    4    0    0  0.91447465628E+01 -0.12907876864E+02  0.57861008604E+01  0.16843949604E+02  0.51100000000E-03 0. -1.
        -11    1    4    4    0    0  0.67532610010E+01  0.66686455047E+00  0.70278967217E+01  0.97694715859E+01  0.51100000000E-03 0.  1.
        -12    1    4    4    0    0 -0.22793335747E+00 -0.20566894429E+02 -0.18633757308E+02  0.27753666631E+02  0.00000000000E+00 0.  1.
</event>
<event>
 8    1  0.1290800E-006  0.9118800E+02  0.7816164E-02  0.1184000E+00
        -11   -1    0    0    0    0  0.00000000000E+00  0.00000000000E+00  0.45593999997E+02  0.45594000000E+02  0.51100000000E-03 0. -1.
         11   -1    0    0    0    0 -0.00000000000E+00 -0.00000000000E+00 -0.45593999997E+02  0.45594000000E+02  0.51100000000E-03 0.  1.
         23    2    1    2    0    0 -0.17763568394E-14 -0.88817841970E-15  0.00000000000E+00  0.91188000000E+02  0.91188000000E+02 0.  0.
    9900012    2    3    3    0    0 -0.12349872052E+02 -0.78980908228E+01 -0.33776914247E+02  0.54367094058E+02  0.40000022524E+02 0.  0.
         12    1    3    3    0    0  0.12349872052E+02  0.78980908228E+01  0.33776914247E+02  0.36820905942E+02  0.00000000000E+00 0. -1.
         11    1    4    4    0    0  0.17715716572E+01 -0.46777475385E+01 -0.51370623477E+01  0.71700207807E+01  0.51100000000E-03 0. -1.
        -11    1    4    4    0    0  0.75464548870E+01  0.69388771819E+01 -0.18614251798E+02  0.21250585125E+02  0.51100000000E-03 0.  1.
         12    1    4    4    0    0 -0.21667898596E+02 -0.10159220466E+02 -0.10025600101E+02  0.25946488153E+02  0.00000000000E+00 0. -1.
</event>
<event>
 8    1  0.1290800E-006  0.9118800E+02  0.7816164E-02  0.1184000E+00
        -11   -1    0    0    0    0  0.00000000000E+00  0.00000000000E+00  0.45593999997E+02  0.45594000000E+02  0.51100000000E-03 0. -1.
         11   -1    0    0    0    0 -0.00000000000E+00 -0.00000000000E+00 -0.45593999997E+02  0.45594000000E+02  0.51100000000E-03 0.  1.
         23    2    1    2    0    0  0.00000000000E+00  0.10547118734E-14  0.17763568394E-14  0.91188000000E+02  0.91188000000E+02 0.  0.
    9900012    2    3    3    0    0  0.36107948962E+02  0.28394661702E+00  0.72052686635E+01  0.54367075237E+02  0.39999979617E+02 0.  0.
        -12    1    3    3    0    0 -0.36107948962E+02 -0.28394661702E+00 -0.72052686635E+01  0.36820924763E+02  0.00000000000E+00 0.  1.
         11    1    4    4    0    0  0.64459209949E+01  0.59729874835E+01  0.11393281239E+02  0.14388652981E+02  0.51100000000E-03 0. -1.
        -11    1    4    4    0    0  0.18881978982E+02  0.84158125071E+01 -0.73618681790E+01  0.21944296156E+02  0.51100000000E-03 0.  1.
         12    1    4    4    0    0  0.10780048985E+02 -0.14104853374E+02  0.31738556035E+01  0.18034126100E+02  0.00000000000E+00 0. -1.
</event>
<event>
 8    1  0.1290800E-006  0.9118800E+02  0.7816164E-02  0.1184000E+00
        -11   -1    0    0    0    0  0.00000000000E+00  0.00000000000E+00  0.45593999997E+02  0.45594000000E+02  0.51100000000E-03 0.  1.
         11   -1    0    0    0    0 -0.00000000000E+00 -0.00000000000E+00 -0.45593999997E+02  0.45594000000E+02  0.51100000000E-03 0. -1.
         23    2    1    2    0    0  0.00000000000E+00  0.00000000000E+00  0.00000000000E+00  0.91188000000E+02  0.91188000000E+02 0.  0.
    9900012    2    3    3    0    0 -0.11713777250E+02 -0.27858861951E+02  0.21034515230E+02  0.54367087496E+02  0.40000007565E+02 0.  0.
         12    1    3    3    0    0  0.11713777250E+02  0.27858861951E+02 -0.21034515230E+02  0.36820912504E+02  0.00000000000E+00 0. -1.
         11    1    4    4    0    0  0.45465128080E+01 -0.47533675337E+01  0.90416868770E+01  0.11181117273E+02  0.51100000000E-03 0. -1.
        -11    1    4    4    0    0  0.85778226300E+01 -0.95897175619E+01  0.12121725460E+01  0.12923276927E+02  0.51100000000E-03 0.  1.
        -12    1    4    4    0    0 -0.24838112688E+02 -0.13515776855E+02  0.10780655807E+02  0.30262693296E+02  0.00000000000E+00 0.  1.
</event>
<event>
 8    1  0.1290800E-006  0.9118800E+02  0.7816164E-02  0.1184000E+00
        -11   -1    0    0    0    0  0.00000000000E+00  0.00000000000E+00  0.45593999997E+02  0.45594000000E+02  0.51100000000E-03 0.  1.
         11   -1    0    0    0    0 -0.00000000000E+00 -0.00000000000E+00 -0.45593999997E+02  0.45594000000E+02  0.51100000000E-03 0. -1.
         23    2    1    2    0    0  0.00000000000E+00 -0.17763568394E-14  0.00000000000E+00  0.91188000000E+02  0.91188000000E+02 0.  0.
    9900012    2    3    3    0    0  0.27748697693E+02  0.31045460441E+01 -0.24003163772E+02  0.54367077947E+02  0.39999985796E+02 0.  0.
        -12    1    3    3    0    0 -0.27748697693E+02 -0.31045460441E+01  0.24003163772E+02  0.36820922053E+02  0.00000000000E+00 0.  1.
         11    1    4    4    0    0  0.16646506405E+02  0.16748747089E+02 -0.16841885752E+02  0.29004755135E+02  0.51100000000E-03 0. -1.
        -11    1    4    4    0    0  0.41955413904E+01 -0.68718863230E-01 -0.90876112085E+01  0.10009593777E+02  0.51100000000E-03 0.  1.
         12    1    4    4    0    0  0.69066498975E+01 -0.13575482181E+02  0.19263331889E+01  0.15352729035E+02  0.00000000000E+00 0. -1.
</event>
<event>
 8    1  0.1290800E-006  0.9118800E+02  0.7816164E-02  0.1184000E+00
        -11   -1    0    0    0    0  0.00000000000E+00  0.00000000000E+00  0.45593999997E+02  0.45594000000E+02  0.51100000000E-03 0.  1.
         11   -1    0    0    0    0 -0.00000000000E+00 -0.00000000000E+00 -0.45593999997E+02  0.45594000000E+02  0.51100000000E-03 0. -1.
         23    2    1    2    0    0  0.00000000000E+00  0.00000000000E+00  0.00000000000E+00  0.91188000000E+02  0.91188000000E+02 0.  0.
    9900012    2    3    3    0    0 -0.12034778230E+02  0.20521046274E+02 -0.28103920611E+02  0.54367087723E+02  0.40000008081E+02 0.  0.
        -12    1    3    3    0    0  0.12034778230E+02 -0.20521046274E+02  0.28103920611E+02  0.36820912277E+02  0.00000000000E+00 0.  1.
         11    1    4    4    0    0 -0.14959065212E+02  0.21443418011E+02 -0.13836750565E+02  0.29581235175E+02  0.51100000000E-03 0. -1.
        -11    1    4    4    0    0  0.93075487216E+01  0.14961788210E+01 -0.15210470590E+02  0.17894899555E+02  0.51100000000E-03 0.  1.
         12    1    4    4    0    0 -0.63832617395E+01 -0.24185505571E+01  0.94330054411E+00  0.68909529928E+01  0.00000000000E+00 0. -1.
</event>
<event>
 8    1  0.1290800E-006  0.9118800E+02  0.7816164E-02  0.1184000E+00
        -11   -1    0    0    0    0  0.00000000000E+00  0.00000000000E+00  0.45593999997E+02  0.45594000000E+02  0.51100000000E-03 0. -1.
         11   -1    0    0    0    0 -0.00000000000E+00 -0.00000000000E+00 -0.45593999997E+02  0.45594000000E+02  0.51100000000E-03 0.  1.
         23    2    1    2    0    0  0.00000000000E+00  0.00000000000E+00 -0.17763568394E-14  0.91188000000E+02  0.91188000000E+02 0.  0.
    9900012    2    3    3    0    0 -0.34440111964E+02  0.11569751224E+02 -0.59833045541E+01  0.54367076752E+02  0.39999983072E+02 0.  0.
        -12    1    3    3    0    0  0.34440111964E+02 -0.11569751224E+02  0.59833045541E+01  0.36820923248E+02  0.00000000000E+00 0.  1.
         11    1    4    4    0    0 -0.65023804790E+01  0.11559692210E+02 -0.17700828676E+02  0.22118471285E+02  0.51100000000E-03 0. -1.
        -11    1    4    4    0    0 -0.98133723080E+01 -0.26174701051E+01  0.93088000829E+01  0.13777052843E+02  0.51100000000E-03 0.  1.
         12    1    4    4    0    0 -0.18124359177E+02  0.26275291183E+01  0.24087240393E+01  0.18471552624E+02  0.00000000000E+00 0. -1.
</event>
<event>
 8    1  0.1290800E-006  0.9118800E+02  0.7816164E-02  0.1184000E+00
        -11   -1    0    0    0    0  0.00000000000E+00  0.00000000000E+00  0.45593999997E+02  0.45594000000E+02  0.51100000000E-03 0.  1.
         11   -1    0    0    0    0 -0.00000000000E+00 -0.00000000000E+00 -0.45593999997E+02  0.45594000000E+02  0.51100000000E-03 0. -1.
         23    2    1    2    0    0 -0.71054273576E-14  0.17763568394E-14  0.00000000000E+00  0.91188000000E+02  0.91188000000E+02 0.  0.
    9900012    2    3    3    0    0 -0.31620245753E+02  0.13619961109E+02  0.13055093807E+02  0.54367098920E+02  0.40000033607E+02 0.  0.
         12    1    3    3    0    0  0.31620245753E+02 -0.13619961109E+02 -0.13055093807E+02  0.36820901080E+02  0.00000000000E+00 0. -1.
         11    1    4    4    0    0 -0.13781714823E+02 -0.12334504953E+01 -0.65262513348E+01  0.15298660736E+02  0.51100000000E-03 0. -1.
        -11    1    4    4    0    0 -0.13361742596E+02  0.17219635143E+02  0.33326348260E+01  0.22049001221E+02  0.51100000000E-03 0.  1.
        -12    1    4    4    0    0 -0.44767883335E+01 -0.23662235391E+01  0.16248710315E+02  0.17019436963E+02  0.00000000000E+00 0.  1.
</event>
<event>
 8    1  0.1290800E-006  0.9118800E+02  0.7816164E-02  0.1184000E+00
        -11   -1    0    0    0    0  0.00000000000E+00  0.00000000000E+00  0.45593999997E+02  0.45594000000E+02  0.51100000000E-03 0.  1.
         11   -1    0    0    0    0 -0.00000000000E+00 -0.00000000000E+00 -0.45593999997E+02  0.45594000000E+02  0.51100000000E-03 0. -1.
         23    2    1    2    0    0 -0.35527136788E-14  0.00000000000E+00  0.17763568394E-14  0.91188000000E+02  0.91188000000E+02 0.  0.
    9900012    2    3    3    0    0  0.16760402682E+02  0.30593098949E+02 -0.11787429211E+02  0.54366915160E+02  0.39999614689E+02 0.  0.
        -12    1    3    3    0    0 -0.16760402682E+02 -0.30593098949E+02  0.11787429211E+02  0.36821084840E+02  0.00000000000E+00 0.  1.
         11    1    4    4    0    0  0.11167814573E+02  0.24498526365E+02 -0.19243940152E+02  0.33094215646E+02  0.51100000000E-03 0. -1.
        -11    1    4    4    0    0  0.23410068988E+01  0.12480581356E+02  0.39769264740E+01  0.13306433358E+02  0.51100000000E-03 0.  1.
        -12    1    4    4    0    0  0.32515812106E+01 -0.63860087714E+01  0.34795844673E+01  0.79662661557E+01  0.00000000000E+00 0.  1.
</event>
<event>
 8    1  0.1290800E-006  0.9118800E+02  0.7816164E-02  0.1184000E+00
        -11   -1    0    0    0    0  0.00000000000E+00  0.00000000000E+00  0.45593999997E+02  0.45594000000E+02  0.51100000000E-03 0. -1.
         11   -1    0    0    0    0 -0.00000000000E+00 -0.00000000000E+00 -0.45593999997E+02  0.45594000000E+02  0.51100000000E-03 0.  1.
         23    2    1    2    0    0  0.00000000000E+00  0.35527136788E-14  0.00000000000E+00  0.91188000000E+02  0.91188000000E+02 0.  0.
    9900012    2    3    3    0    0  0.25547985227E+02  0.13775922400E+02  0.22656196656E+02  0.54367097865E+02  0.40000031203E+02 0.  0.
        -12    1    3    3    0    0 -0.25547985227E+02 -0.13775922400E+02 -0.22656196656E+02  0.36820902135E+02  0.00000000000E+00 0.  1.
         11    1    4    4    0    0  0.13913913514E+02 -0.11274154912E+02  0.10544338018E+02  0.20781882079E+02  0.51100000000E-03 0. -1.
        -11    1    4    4    0    0  0.64310602615E+01  0.18635542831E+02  0.15067688198E+02  0.24812843863E+02  0.51100000000E-03 0.  1.
        -12    1    4    4    0    0  0.52030114513E+01  0.64145344810E+01 -0.29558295599E+01  0.87723719231E+01  0.00000000000E+00 0.  1.
</event>
<event>
 8    1  0.1290800E-006  0.9118800E+02  0.7816164E-02  0.1184000E+00
        -11   -1    0    0    0    0  0.00000000000E+00  0.00000000000E+00  0.45593999997E+02  0.45594000000E+02  0.51100000000E-03 0.  1.
         11   -1    0    0    0    0 -0.00000000000E+00 -0.00000000000E+00 -0.45593999997E+02  0.45594000000E+02  0.51100000000E-03 0. -1.
         23    2    1    2    0    0  0.00000000000E+00  0.00000000000E+00  0.00000000000E+00  0.91188000000E+02  0.91188000000E+02 0.  0.
    9900012    2    3    3    0    0  0.30539123271E+02  0.27813155767E+01 -0.20381735451E+02  0.54366961088E+02  0.39999719392E+02 0.  0.
        -12    1    3    3    0    0 -0.30539123271E+02 -0.27813155767E+01  0.20381735451E+02  0.36821038912E+02  0.00000000000E+00 0.  1.
         11    1    4    4    0    0  0.31018684562E+00 -0.26262378443E+01  0.14629917106E+01  0.30221988850E+01  0.51100000000E-03 0. -1.
        -11    1    4    4    0    0  0.45580028385E+01  0.84712137236E+01  0.75279422594E+01  0.12215022176E+02  0.51100000000E-03 0.  1.
         12    1    4    4    0    0  0.25670933587E+02 -0.30636603026E+01 -0.29372669421E+02  0.39129740028E+02  0.00000000000E+00 0. -1.
</event>
<event>
 8    1  0.1290800E-006  0.9118800E+02  0.7816164E-02  0.1184000E+00
        -11   -1    0    0    0    0  0.00000000000E+00  0.00000000000E+00  0.45593999997E+02  0.45594000000E+02  0.51100000000E-03 0.  1.
         11   -1    0    0    0    0 -0.00000000000E+00 -0.00000000000E+00 -0.45593999997E+02  0.45594000000E+02  0.51100000000E-03 0. -1.
         23    2    1    2    0    0  0.71054273576E-14  0.17763568394E-14  0.00000000000E+00  0.91188000000E+02  0.91188000000E+02 0.  0.
    9900012    2    3    3    0    0 -0.32555098268E+02  0.92813466802E+01 -0.14484507230E+02  0.54367098746E+02  0.40000033211E+02 0.  0.
        -12    1    3    3    0    0  0.32555098268E+02 -0.92813466802E+01  0.14484507230E+02  0.36820901254E+02  0.00000000000E+00 0.  1.
         11    1    4    4    0    0  0.20897271806E+01 -0.45628783453E+01 -0.34329056602E+00  0.50303744550E+01  0.51100000000E-03 0. -1.
        -11    1    4    4    0    0 -0.65296850106E+00  0.25071892028E+01  0.71851219038E+01  0.76379540845E+01  0.51100000000E-03 0.  1.
         12    1    4    4    0    0 -0.33991856948E+02  0.11337035823E+02 -0.21326338568E+02  0.41698770206E+02  0.00000000000E+00 0. -1.
</event>
<event>
 8    1  0.1290800E-006  0.9118800E+02  0.7816164E-02  0.1184000E+00
        -11   -1    0    0    0    0  0.00000000000E+00  0.00000000000E+00  0.45593999997E+02  0.45594000000E+02  0.51100000000E-03 0. -1.
         11   -1    0    0    0    0 -0.00000000000E+00 -0.00000000000E+00 -0.45593999997E+02  0.45594000000E+02  0.51100000000E-03 0.  1.
         23    2    1    2    0    0  0.00000000000E+00 -0.44408920985E-15 -0.71054273576E-14  0.91188000000E+02  0.91188000000E+02 0.  0.
    9900012    2    3    3    0    0 -0.25621751739E+01 -0.39167121949E+01 -0.36522250625E+02  0.54367079768E+02  0.39999989946E+02 0.  0.
         12    1    3    3    0    0  0.25621751739E+01  0.39167121949E+01  0.36522250625E+02  0.36820920232E+02  0.00000000000E+00 0. -1.
         11    1    4    4    0    0 -0.38767271708E+01 -0.10515028093E+02 -0.38547177176E+02  0.40143239753E+02  0.51100000000E-03 0.  1.
        -11    1    4    4    0    0 -0.46436417639E+01  0.31512346053E+01  0.41948185373E+01  0.70064392662E+01  0.51100000000E-03 0. -1.
         12    1    4    4    0    0  0.59581937608E+01  0.34470812931E+01 -0.21698919864E+01  0.72174007485E+01  0.00000000000E+00 0. -1.
</event>
<event>
 8    1  0.1290800E-006  0.9118800E+02  0.7816164E-02  0.1184000E+00
        -11   -1    0    0    0    0  0.00000000000E+00  0.00000000000E+00  0.45593999997E+02  0.45594000000E+02  0.51100000000E-03 0. -1.
         11   -1    0    0    0    0 -0.00000000000E+00 -0.00000000000E+00 -0.45593999997E+02  0.45594000000E+02  0.51100000000E-03 0.  1.
         23    2    1    2    0    0  0.00000000000E+00  0.00000000000E+00  0.00000000000E+00  0.91188000000E+02  0.91188000000E+02 0.  0.
    9900012    2    3    3    0    0 -0.11708131114E+02  0.86118139302E+01 -0.33831019006E+02  0.54367061388E+02  0.39999948045E+02 0.  0.
         12    1    3    3    0    0  0.11708131114E+02 -0.86118139302E+01  0.33831019006E+02  0.36820938612E+02  0.00000000000E+00 0. -1.
         11    1    4    4    0    0  0.12201111775E+02  0.11298628313E+02 -0.15490290027E+02  0.22726091078E+02  0.51100000000E-03 0. -1.
        -11    1    4    4    0    0 -0.41124039202E+01  0.13692055538E+01 -0.76168681940E+01  0.87637475544E+01  0.51100000000E-03 0.  1.
         12    1    4    4    0    0 -0.19796838968E+02 -0.40560199370E+01 -0.10723860785E+02  0.22877222755E+02  0.00000000000E+00 0. -1.
</event>
<event>
 8    1  0.1290800E-006  0.9118800E+02  0.7816164E-02  0.1184000E+00
        -11   -1    0    0    0    0  0.00000000000E+00  0.00000000000E+00  0.45593999997E+02  0.45594000000E+02  0.51100000000E-03 0.  1.
         11   -1    0    0    0    0 -0.00000000000E+00 -0.00000000000E+00 -0.45593999997E+02  0.45594000000E+02  0.51100000000E-03 0. -1.
         23    2    1    2    0    0  0.00000000000E+00  0.00000000000E+00  0.11102230246E-14  0.91188000000E+02  0.91188000000E+02 0.  0.
    9900012    2    3    3    0    0 -0.13108513088E+02 -0.34352387971E+02  0.19647528685E+01  0.54367083002E+02  0.39999997321E+02 0.  0.
         12    1    3    3    0    0  0.13108513088E+02  0.34352387971E+02 -0.19647528685E+01  0.36820916998E+02  0.00000000000E+00 0. -1.
         11    1    4    4    0    0 -0.41886764049E+00  0.22278369790E+01 -0.24964771221E+01  0.33721070546E+01  0.51100000000E-03 0. -1.
        -11    1    4    4    0    0  0.81880346726E+01 -0.21410667834E+02  0.93014017395E+01  0.24738162492E+02  0.51100000000E-03 0.  1.
         12    1    4    4    0    0 -0.20877680120E+02 -0.15169557116E+02 -0.48401717488E+01  0.26256813456E+02  0.00000000000E+00 0. -1.
</event>
<event>
 8    1  0.1290800E-006  0.9118800E+02  0.7816164E-02  0.1184000E+00
        -11   -1    0    0    0    0  0.00000000000E+00  0.00000000000E+00  0.45593999997E+02  0.45594000000E+02  0.51100000000E-03 0.  1.
         11   -1    0    0    0    0 -0.00000000000E+00 -0.00000000000E+00 -0.45593999997E+02  0.45594000000E+02  0.51100000000E-03 0. -1.
         23    2    1    2    0    0  0.00000000000E+00  0.00000000000E+00  0.00000000000E+00  0.91188000000E+02  0.91188000000E+02 0.  0.
    9900012    2    3    3    0    0 -0.43963644111E+01  0.91588244408E+01  0.35391663884E+02  0.54367055449E+02  0.39999934507E+02 0.  0.
         12    1    3    3    0    0  0.43963644111E+01 -0.91588244408E+01 -0.35391663884E+02  0.36820944551E+02  0.00000000000E+00 0. -1.
         11    1    4    4    0    0 -0.86597604706E+01  0.10192608452E+02  0.18517002641E+01  0.13502203990E+02  0.51100000000E-03 0. -1.
        -11    1    4    4    0    0  0.92484837723E+01  0.34526473863E+01  0.41319486351E+01  0.10701786105E+02  0.51100000000E-03 0.  1.
         12    1    4    4    0    0 -0.49850877128E+01 -0.44864313970E+01  0.29408014985E+02  0.30163065354E+02  0.00000000000E+00 0. -1.
</event>
<event>
 8    1  0.1290800E-006  0.9118800E+02  0.7816164E-02  0.1184000E+00
        -11   -1    0    0    0    0  0.00000000000E+00  0.00000000000E+00  0.45593999997E+02  0.45594000000E+02  0.51100000000E-03 0.  1.
         11   -1    0    0    0    0 -0.00000000000E+00 -0.00000000000E+00 -0.45593999997E+02  0.45594000000E+02  0.51100000000E-03 0. -1.
         23    2    1    2    0    0 -0.17763568394E-14  0.00000000000E+00  0.00000000000E+00  0.91188000000E+02  0.91188000000E+02 0.  0.
    9900012    2    3    3    0    0  0.83451087198E+01 -0.33830649193E+02  0.11900708809E+02  0.54367074774E+02  0.39999978563E+02 0.  0.
         12    1    3    3    0    0 -0.83451087198E+01  0.33830649193E+02 -0.11900708809E+02  0.36820925226E+02  0.00000000000E+00 0. -1.
         11    1    4    4    0    0  0.13460481363E+02 -0.16797692860E+02 -0.59743805676E+01  0.22339209193E+02  0.51100000000E-03 0. -1.
        -11    1    4    4    0    0  0.36692635239E+01 -0.17065443827E+02  0.14214506491E+02  0.22510998708E+02  0.51100000000E-03 0.  1.
         12    1    4    4    0    0 -0.87846361666E+01  0.32487494213E-01  0.36605828856E+01  0.95168668731E+01  0.00000000000E+00 0. -1.
</event>
<event>
 8    1  0.1290800E-006  0.9118800E+02  0.7816164E-02  0.1184000E+00
        -11   -1    0    0    0    0  0.00000000000E+00  0.00000000000E+00  0.45593999997E+02  0.45594000000E+02  0.51100000000E-03 0. -1.
         11   -1    0    0    0    0 -0.00000000000E+00 -0.00000000000E+00 -0.45593999997E+02  0.45594000000E+02  0.51100000000E-03 0.  1.
         23    2    1    2    0    0  0.35527136788E-14  0.00000000000E+00 -0.22204460493E-15  0.91188000000E+02  0.91188000000E+02 0.  0.
    9900012    2    3    3    0    0 -0.25213328273E+02  0.26819748109E+02  0.87667189519E+00  0.54367090658E+02  0.40000014772E+02 0.  0.
         12    1    3    3    0    0  0.25213328273E+02 -0.26819748109E+02 -0.87667189519E+00  0.36820909342E+02  0.00000000000E+00 0. -1.
         11    1    4    4    0    0  0.90887999407E+01  0.11331587755E+02 -0.45678540200E+01  0.15227490142E+02  0.51100000000E-03 0. -1.
        -11    1    4    4    0    0 -0.16381858580E+02  0.35397865473E+01 -0.59510526427E+00  0.16770495815E+02  0.51100000000E-03 0.  1.
         12    1    4    4    0    0 -0.17920269633E+02  0.11948373807E+02  0.60396311795E+01  0.22369104701E+02  0.00000000000E+00 0. -1.
</event>
<event>
 8    1  0.1290800E-006  0.9118800E+02  0.7816164E-02  0.1184000E+00
        -11   -1    0    0    0    0  0.00000000000E+00  0.00000000000E+00  0.45593999997E+02  0.45594000000E+02  0.51100000000E-03 0. -1.
         11   -1    0    0    0    0 -0.00000000000E+00 -0.00000000000E+00 -0.45593999997E+02  0.45594000000E+02  0.51100000000E-03 0.  1.
         23    2    1    2    0    0  0.44408920985E-14  0.00000000000E+00  0.00000000000E+00  0.91188000000E+02  0.91188000000E+02 0.  0.
    9900012    2    3    3    0    0 -0.70568984317E+01  0.18010610849E+02 -0.31330464543E+02  0.54367083022E+02  0.39999997365E+02 0.  0.
         12    1    3    3    0    0  0.70568984317E+01 -0.18010610849E+02  0.31330464543E+02  0.36820916978E+02  0.00000000000E+00 0. -1.
         11    1    4    4    0    0 -0.20898289967E+02  0.28848599342E+01 -0.23228839654E+02  0.31378972774E+02  0.51100000000E-03 0. -1.
        -11    1    4    4    0    0  0.57098366451E+01  0.79260897120E+01 -0.59716622008E+00  0.97868146193E+01  0.51100000000E-03 0.  1.
         12    1    4    4    0    0  0.81315548901E+01  0.71996612031E+01 -0.75044586687E+01  0.13201295629E+02  0.00000000000E+00 0. -1.
</event>
<event>
 8    1  0.1290800E-006  0.9118800E+02  0.7816164E-02  0.1184000E+00
        -11   -1    0    0    0    0  0.00000000000E+00  0.00000000000E+00  0.45593999997E+02  0.45594000000E+02  0.51100000000E-03 0.  1.
         11   -1    0    0    0    0 -0.00000000000E+00 -0.00000000000E+00 -0.45593999997E+02  0.45594000000E+02  0.51100000000E-03 0. -1.
         23    2    1    2    0    0  0.71054273576E-14  0.00000000000E+00 -0.17763568394E-14  0.91188000000E+02  0.91188000000E+02 0.  0.
    9900012    2    3    3    0    0 -0.35380245983E+02 -0.20851283981E+01 -0.99834517856E+01  0.54367097298E+02  0.40000029909E+02 0.  0.
        -12    1    3    3    0    0  0.35380245983E+02  0.20851283981E+01  0.99834517856E+01  0.36820902702E+02  0.00000000000E+00 0.  1.
         11    1    4    4    0    0 -0.14035766896E+02  0.56550525090E+01  0.80239182187E+01  0.17127919753E+02  0.51100000000E-03 0. -1.
        -11    1    4    4    0    0 -0.17110993873E+00 -0.10687427326E+02 -0.29413526875E+01  0.11086114620E+02  0.51100000000E-03 0.  1.
         12    1    4    4    0    0 -0.21173369149E+02  0.29472464193E+01 -0.15066017317E+02  0.26153062925E+02  0.00000000000E+00 0. -1.
</event>
<event>
 8    1  0.1290800E-006  0.9118800E+02  0.7816164E-02  0.1184000E+00
        -11   -1    0    0    0    0  0.00000000000E+00  0.00000000000E+00  0.45593999997E+02  0.45594000000E+02  0.51100000000E-03 0.  1.
         11   -1    0    0    0    0 -0.00000000000E+00 -0.00000000000E+00 -0.45593999997E+02  0.45594000000E+02  0.51100000000E-03 0. -1.
         23    2    1    2    0    0 -0.35527136788E-14  0.00000000000E+00 -0.17763568394E-14  0.91188000000E+02  0.91188000000E+02 0.  0.
    9900012    2    3    3    0    0 -0.22126698470E+02 -0.27071275059E+02  0.11546685104E+02  0.54367208925E+02  0.40000284385E+02 0.  0.
         12    1    3    3    0    0  0.22126698470E+02  0.27071275059E+02 -0.11546685104E+02  0.36820791075E+02  0.00000000000E+00 0. -1.
         11    1    4    4    0    0 -0.23714023132E+02 -0.26644561809E+02  0.14452527364E+02  0.38485882016E+02  0.51100000000E-03 0. -1.
        -11    1    4    4    0    0 -0.63551077183E+01 -0.28794956489E+01 -0.29337499688E+01  0.75687369121E+01  0.51100000000E-03 0.  1.
         12    1    4    4    0    0  0.79424323803E+01  0.24527823985E+01  0.27907708483E-01  0.83125899965E+01  0.00000000000E+00 0. -1.
</event>
<event>
 8    1  0.1290800E-006  0.9118800E+02  0.7816164E-02  0.1184000E+00
        -11   -1    0    0    0    0  0.00000000000E+00  0.00000000000E+00  0.45593999997E+02  0.45594000000E+02  0.51100000000E-03 0.  1.
         11   -1    0    0    0    0 -0.00000000000E+00 -0.00000000000E+00 -0.45593999997E+02  0.45594000000E+02  0.51100000000E-03 0. -1.
         23    2    1    2    0    0 -0.88817841970E-15 -0.35527136788E-14 -0.35527136788E-14  0.91188000000E+02  0.91188000000E+02 0.  0.
    9900012    2    3    3    0    0  0.55619814859E+01 -0.25762453151E+02 -0.25712640109E+02  0.54367088933E+02  0.40000010841E+02 0.  0.
        -12    1    3    3    0    0 -0.55619814859E+01  0.25762453151E+02  0.25712640109E+02  0.36820911067E+02  0.00000000000E+00 0.  1.
         11    1    4    4    0    0  0.86185302652E+01 -0.16312209942E+02 -0.53500681939E+01  0.19209125099E+02  0.51100000000E-03 0. -1.
        -11    1    4    4    0    0  0.25098603915E+01 -0.92518261766E+01  0.38370322123E+01  0.10325623625E+02  0.51100000000E-03 0.  1.
         12    1    4    4    0    0 -0.55664091709E+01 -0.19841703291E+00 -0.24199604127E+02  0.24832340210E+02  0.00000000000E+00 0. -1.
</event>
<event>
 8    1  0.1290800E-006  0.9118800E+02  0.7816164E-02  0.1184000E+00
        -11   -1    0    0    0    0  0.00000000000E+00  0.00000000000E+00  0.45593999997E+02  0.45594000000E+02  0.51100000000E-03 0.  1.
         11   -1    0    0    0    0 -0.00000000000E+00 -0.00000000000E+00 -0.45593999997E+02  0.45594000000E+02  0.51100000000E-03 0. -1.
         23    2    1    2    0    0  0.35527136788E-14  0.00000000000E+00 -0.88123952580E-15  0.91188000000E+02  0.91188000000E+02 0.  0.
    9900012    2    3    3    0    0  0.17873315681E+02 -0.32191993291E+02 -0.29972456635E-01  0.54367071931E+02  0.39999972081E+02 0.  0.
        -12    1    3    3    0    0 -0.17873315681E+02  0.32191993291E+02  0.29972456635E-01  0.36820928069E+02  0.00000000000E+00 0.  1.
         11    1    4    4    0    0  0.50213405870E+01 -0.18468465520E+02  0.11267210109E+02  0.22209189626E+02  0.51100000000E-03 0. -1.
        -11    1    4    4    0    0  0.77647290181E+01 -0.14237041444E+02  0.34237317197E+01  0.16574266348E+02  0.51100000000E-03 0.  1.
         12    1    4    4    0    0  0.50872460760E+01  0.51351367254E+00 -0.14720914285E+02  0.15583615958E+02  0.00000000000E+00 0. -1.
</event>
<event>
 8    1  0.1290800E-006  0.9118800E+02  0.7816164E-02  0.1184000E+00
        -11   -1    0    0    0    0  0.00000000000E+00  0.00000000000E+00  0.45593999997E+02  0.45594000000E+02  0.51100000000E-03 0.  1.
         11   -1    0    0    0    0 -0.00000000000E+00 -0.00000000000E+00 -0.45593999997E+02  0.45594000000E+02  0.51100000000E-03 0. -1.
         23    2    1    2    0    0 -0.17763568394E-14  0.00000000000E+00  0.71054273576E-14  0.91188000000E+02  0.91188000000E+02 0.  0.
    9900012    2    3    3    0    0 -0.11119371000E+02  0.33626426664E+01  0.34940394392E+02  0.54367096461E+02  0.40000028002E+02 0.  0.
         12    1    3    3    0    0  0.11119371000E+02 -0.33626426664E+01 -0.34940394392E+02  0.36820903539E+02  0.00000000000E+00 0. -1.
         11    1    4    4    0    0  0.81049152374E+01  0.95650688657E+01  0.26041590166E+02  0.28902328834E+02  0.51100000000E-03 0. -1.
        -11    1    4    4    0    0  0.72687343553E+00  0.43103697379E+00 -0.17155215325E+01  0.19123682317E+01  0.51100000000E-03 0.  1.
        -12    1    4    4    0    0 -0.19951159673E+02 -0.66334631731E+01  0.10614325759E+02  0.23552399395E+02  0.00000000000E+00 0.  1.
</event>
<event>
 8    1  0.1290800E-006  0.9118800E+02  0.7816164E-02  0.1184000E+00
        -11   -1    0    0    0    0  0.00000000000E+00  0.00000000000E+00  0.45593999997E+02  0.45594000000E+02  0.51100000000E-03 0.  1.
         11   -1    0    0    0    0 -0.00000000000E+00 -0.00000000000E+00 -0.45593999997E+02  0.45594000000E+02  0.51100000000E-03 0. -1.
         23    2    1    2    0    0 -0.35527136788E-14 -0.13322676296E-14  0.35527136788E-14  0.91188000000E+02  0.91188000000E+02 0.  0.
    9900012    2    3    3    0    0  0.29158226595E+02 -0.38412936071E+01 -0.22154469846E+02  0.54367105811E+02  0.40000049318E+02 0.  0.
        -12    1    3    3    0    0 -0.29158226595E+02  0.38412936071E+01  0.22154469846E+02  0.36820894189E+02  0.00000000000E+00 0.  1.
         11    1    4    4    0    0  0.13387226617E+02  0.45994858520E+01 -0.89946162167E+01  0.16771291773E+02  0.51100000000E-03 0. -1.
        -11    1    4    4    0    0  0.14647896896E+02 -0.17610335827E+02 -0.18327545081E+01  0.22979203658E+02  0.51100000000E-03 0.  1.
         12    1    4    4    0    0  0.11231030817E+01  0.91695563675E+01 -0.11327099121E+02  0.14616610380E+02  0.00000000000E+00 0. -1.
</event>
<event>
 8    1  0.1290800E-006  0.9118800E+02  0.7816164E-02  0.1184000E+00
        -11   -1    0    0    0    0  0.00000000000E+00  0.00000000000E+00  0.45593999997E+02  0.45594000000E+02  0.51100000000E-03 0.  1.
         11   -1    0    0    0    0 -0.00000000000E+00 -0.00000000000E+00 -0.45593999997E+02  0.45594000000E+02  0.51100000000E-03 0. -1.
         23    2    1    2    0    0 -0.17763568394E-14 -0.35527136788E-14  0.71054273576E-14  0.91188000000E+02  0.91188000000E+02 0.  0.
    9900012    2    3    3    0    0  0.59704145646E+01  0.22662575267E+02 -0.28399537917E+02  0.54367191729E+02  0.40000245184E+02 0.  0.
        -12    1    3    3    0    0 -0.59704145646E+01 -0.22662575267E+02  0.28399537917E+02  0.36820808271E+02  0.00000000000E+00 0.  1.
         11    1    4    4    0    0  0.78115302026E+01  0.26623940900E+02 -0.21070659241E+02  0.34840018862E+02  0.51100000000E-03 0. -1.
        -11    1    4    4    0    0 -0.41032031539E+01  0.61279819646E+01 -0.11009240389E+01  0.74565724754E+01  0.51100000000E-03 0.  1.
        -12    1    4    4    0    0  0.22620875158E+01 -0.10089347597E+02 -0.62279546364E+01  0.12070600392E+02  0.00000000000E+00 0.  1.
</event>
<event>
 8    1  0.1290800E-006  0.9118800E+02  0.7816164E-02  0.1184000E+00
        -11   -1    0    0    0    0  0.00000000000E+00  0.00000000000E+00  0.45593999997E+02  0.45594000000E+02  0.51100000000E-03 0. -1.
         11   -1    0    0    0    0 -0.00000000000E+00 -0.00000000000E+00 -0.45593999997E+02  0.45594000000E+02  0.51100000000E-03 0.  1.
         23    2    1    2    0    0 -0.17763568394E-14  0.00000000000E+00  0.35527136788E-14  0.91188000000E+02  0.91188000000E+02 0.  0.
    9900012    2    3    3    0    0  0.61846088170E+01  0.29810707278E+02 -0.20708753798E+02  0.54367080151E+02  0.39999990821E+02 0.  0.
         12    1    3    3    0    0 -0.61846088170E+01 -0.29810707278E+02  0.20708753798E+02  0.36820919849E+02  0.00000000000E+00 0. -1.
         11    1    4    4    0    0 -0.29793503116E+01  0.75563015982E+01  0.11140722684E+02  0.13787310263E+02  0.51100000000E-03 0. -1.
        -11    1    4    4    0    0  0.71567304468E+01  0.16682158458E+02 -0.18221211177E+02  0.25720142661E+02  0.51100000000E-03 0.  1.
         12    1    4    4    0    0  0.20072286818E+01  0.55722472218E+01 -0.13628265305E+02  0.14859627226E+02  0.00000000000E+00 0. -1.
</event>
<event>
 8    1  0.1290800E-006  0.9118800E+02  0.7816164E-02  0.1184000E+00
        -11   -1    0    0    0    0  0.00000000000E+00  0.00000000000E+00  0.45593999997E+02  0.45594000000E+02  0.51100000000E-03 0.  1.
         11   -1    0    0    0    0 -0.00000000000E+00 -0.00000000000E+00 -0.45593999997E+02  0.45594000000E+02  0.51100000000E-03 0. -1.
         23    2    1    2    0    0 -0.88817841970E-15 -0.35527136788E-14  0.00000000000E+00  0.91188000000E+02  0.91188000000E+02 0.  0.
    9900012    2    3    3    0    0  0.54763917062E+01  0.27249736900E+02 -0.24150378307E+02  0.54367084753E+02  0.40000001312E+02 0.  0.
        -12    1    3    3    0    0 -0.54763917062E+01 -0.27249736900E+02  0.24150378307E+02  0.36820915247E+02  0.00000000000E+00 0.  1.
         11    1    4    4    0    0  0.64446823361E+01  0.11747252988E+01 -0.44061553534E+01  0.78948157167E+01  0.51100000000E-03 0. -1.
        -11    1    4    4    0    0  0.29761759613E+00  0.33777418441E+02 -0.13129257032E+02  0.36240584478E+02  0.51100000000E-03 0.  1.
        -12    1    4    4    0    0 -0.12659082261E+01 -0.77024068404E+01 -0.66149659215E+01  0.10231684559E+02  0.00000000000E+00 0.  1.
</event>
<event>
 8    1  0.1290800E-006  0.9118800E+02  0.7816164E-02  0.1184000E+00
        -11   -1    0    0    0    0  0.00000000000E+00  0.00000000000E+00  0.45593999997E+02  0.45594000000E+02  0.51100000000E-03 0.  1.
         11   -1    0    0    0    0 -0.00000000000E+00 -0.00000000000E+00 -0.45593999997E+02  0.45594000000E+02  0.51100000000E-03 0. -1.
         23    2    1    2    0    0  0.00000000000E+00 -0.13322676296E-14  0.00000000000E+00  0.91188000000E+02  0.91188000000E+02 0.  0.
    9900012    2    3    3    0    0  0.19582017109E+02  0.39663820459E+01  0.30928826099E+02  0.54367083872E+02  0.39999999304E+02 0.  0.
         12    1    3    3    0    0 -0.19582017109E+02 -0.39663820459E+01 -0.30928826099E+02  0.36820916128E+02  0.00000000000E+00 0. -1.
         11    1    4    4    0    0 -0.43191542751E+01  0.43617247932E+01 -0.39969637073E+01  0.73249884616E+01  0.51100000000E-03 0. -1.
        -11    1    4    4    0    0  0.57942811987E+01 -0.79847844642E+01  0.45275525766E+01  0.10854916404E+02  0.51100000000E-03 0.  1.
        -12    1    4    4    0    0  0.18106890185E+02  0.75894417169E+01  0.30398237230E+02  0.36187179007E+02  0.00000000000E+00 0.  1.
</event>
<event>
 8    1  0.1290800E-006  0.9118800E+02  0.7816164E-02  0.1184000E+00
        -11   -1    0    0    0    0  0.00000000000E+00  0.00000000000E+00  0.45593999997E+02  0.45594000000E+02  0.51100000000E-03 0. -1.
         11   -1    0    0    0    0 -0.00000000000E+00 -0.00000000000E+00 -0.45593999997E+02  0.45594000000E+02  0.51100000000E-03 0.  1.
         23    2    1    2    0    0 -0.35527136788E-14 -0.17763568394E-14  0.00000000000E+00  0.91188000000E+02  0.91188000000E+02 0.  0.
    9900012    2    3    3    0    0 -0.31619096247E+02  0.14273064347E+02 -0.12340690194E+02  0.54367078667E+02  0.39999987438E+02 0.  0.
         12    1    3    3    0    0  0.31619096247E+02 -0.14273064347E+02  0.12340690194E+02  0.36820921333E+02  0.00000000000E+00 0. -1.
         11    1    4    4    0    0  0.64042531843E+01  0.53401998122E+01 -0.21355671231E+01  0.86077197957E+01  0.51100000000E-03 0. -1.
        -11    1    4    4    0    0 -0.10928149306E+02 -0.71420781721E+01 -0.20379116933E+01  0.13213130295E+02  0.51100000000E-03 0.  1.
         12    1    4    4    0    0 -0.27095200125E+02  0.16074942707E+02 -0.81672113772E+01  0.32546228576E+02  0.00000000000E+00 0. -1.
</event>
<event>
 8    1  0.1290800E-006  0.9118800E+02  0.7816164E-02  0.1184000E+00
        -11   -1    0    0    0    0  0.00000000000E+00  0.00000000000E+00  0.45593999997E+02  0.45594000000E+02  0.51100000000E-03 0.  1.
         11   -1    0    0    0    0 -0.00000000000E+00 -0.00000000000E+00 -0.45593999997E+02  0.45594000000E+02  0.51100000000E-03 0. -1.
         23    2    1    2    0    0  0.00000000000E+00  0.44408920985E-15  0.26645352591E-14  0.91188000000E+02  0.91188000000E+02 0.  0.
    9900012    2    3    3    0    0  0.36492936442E+02  0.20738531547E+01  0.44436973514E+01  0.54367058632E+02  0.39999941763E+02 0.  0.
         12    1    3    3    0    0 -0.36492936442E+02 -0.20738531547E+01 -0.44436973514E+01  0.36820941368E+02  0.00000000000E+00 0. -1.
         11    1    4    4    0    0 -0.11154349467E+01  0.63541004967E+01  0.41672788047E+00  0.64647080854E+01  0.51100000000E-03 0. -1.
        -11    1    4    4    0    0  0.17425070530E+02 -0.12650941965E+02  0.11990011010E+02  0.24646293430E+02  0.51100000000E-03 0.  1.
        -12    1    4    4    0    0  0.20183300859E+02  0.83706946229E+01 -0.79630415389E+01  0.23256057116E+02  0.00000000000E+00 0.  1.
</event>
<event>
 8    1  0.1290800E-006  0.9118800E+02  0.7816164E-02  0.1184000E+00
        -11   -1    0    0    0    0  0.00000000000E+00  0.00000000000E+00  0.45593999997E+02  0.45594000000E+02  0.51100000000E-03 0.  1.
         11   -1    0    0    0    0 -0.00000000000E+00 -0.00000000000E+00 -0.45593999997E+02  0.45594000000E+02  0.51100000000E-03 0. -1.
         23    2    1    2    0    0  0.35527136788E-14  0.00000000000E+00  0.00000000000E+00  0.91188000000E+02  0.91188000000E+02 0.  0.
    9900012    2    3    3    0    0  0.25848512928E+02 -0.25700757004E+02  0.52062581138E+01  0.54367086721E+02  0.40000005797E+02 0.  0.
         12    1    3    3    0    0 -0.25848512928E+02  0.25700757004E+02 -0.52062581138E+01  0.36820913279E+02  0.00000000000E+00 0. -1.
         11    1    4    4    0    0  0.24294799835E+02 -0.26542847667E+02 -0.43794815764E+01  0.36248309207E+02  0.51100000000E-03 0.  1.
        -11    1    4    4    0    0 -0.49149014447E+01  0.21243952043E+01 -0.11902981371E+01  0.54850816868E+01  0.51100000000E-03 0. -1.
        -12    1    4    4    0    0  0.64686145384E+01 -0.12823045415E+01  0.10776037827E+02  0.12633695827E+02  0.00000000000E+00 0.  1.
</event>
<event>
 8    1  0.1290800E-006  0.9118800E+02  0.7816164E-02  0.1184000E+00
        -11   -1    0    0    0    0  0.00000000000E+00  0.00000000000E+00  0.45593999997E+02  0.45594000000E+02  0.51100000000E-03 0.  1.
         11   -1    0    0    0    0 -0.00000000000E+00 -0.00000000000E+00 -0.45593999997E+02  0.45594000000E+02  0.51100000000E-03 0. -1.
         23    2    1    2    0    0  0.00000000000E+00  0.35527136788E-14  0.00000000000E+00  0.91188000000E+02  0.91188000000E+02 0.  0.
    9900012    2    3    3    0    0  0.11667792564E+02  0.30106825144E+02 -0.17698083907E+02  0.54367075547E+02  0.39999980325E+02 0.  0.
        -12    1    3    3    0    0 -0.11667792564E+02 -0.30106825144E+02  0.17698083907E+02  0.36820924453E+02  0.00000000000E+00 0.  1.
         11    1    4    4    0    0 -0.10089619964E+02  0.68042245989E+01 -0.47140010494E+01  0.13050659354E+02  0.51100000000E-03 0. -1.
        -11    1    4    4    0    0  0.91923283504E+01  0.22589878212E+02 -0.14909253103E+02  0.28584739399E+02  0.51100000000E-03 0.  1.
        -12    1    4    4    0    0  0.12565084178E+02  0.71272233243E+00  0.19251702450E+01  0.12731676795E+02  0.00000000000E+00 0.  1.
</event>
<event>
 8    1  0.1290800E-006  0.9118800E+02  0.7816164E-02  0.1184000E+00
        -11   -1    0    0    0    0  0.00000000000E+00  0.00000000000E+00  0.45593999997E+02  0.45594000000E+02  0.51100000000E-03 0. -1.
         11   -1    0    0    0    0 -0.00000000000E+00 -0.00000000000E+00 -0.45593999997E+02  0.45594000000E+02  0.51100000000E-03 0.  1.
         23    2    1    2    0    0  0.35527136788E-14  0.00000000000E+00 -0.35527136788E-14  0.91188000000E+02  0.91188000000E+02 0.  0.
    9900012    2    3    3    0    0  0.18816422822E+02 -0.17107837496E+02 -0.26627896953E+02  0.54367071607E+02  0.39999971342E+02 0.  0.
         12    1    3    3    0    0 -0.18816422822E+02  0.17107837496E+02  0.26627896953E+02  0.36820928393E+02  0.00000000000E+00 0. -1.
         11    1    4    4    0    0 -0.58721893034E+01 -0.10310874197E+01  0.19162444964E+01  0.62624070223E+01  0.51100000000E-03 0. -1.
        -11    1    4    4    0    0 -0.10370342548E+01 -0.12721206397E+02 -0.88140336437E+01  0.15511019359E+02  0.51100000000E-03 0.  1.
        -12    1    4    4    0    0  0.25725646380E+02 -0.33555436795E+01 -0.19730107806E+02  0.32593645225E+02  0.00000000000E+00 0.  1.
</event>
<event>
 8    1  0.1290800E-006  0.9118800E+02  0.7816164E-02  0.1184000E+00
        -11   -1    0    0    0    0  0.00000000000E+00  0.00000000000E+00  0.45593999997E+02  0.45594000000E+02  0.51100000000E-03 0.  1.
         11   -1    0    0    0    0 -0.00000000000E+00 -0.00000000000E+00 -0.45593999997E+02  0.45594000000E+02  0.51100000000E-03 0. -1.
         23    2    1    2    0    0 -0.71054273576E-14 -0.88817841970E-15  0.00000000000E+00  0.91188000000E+02  0.91188000000E+02 0.  0.
    9900012    2    3    3    0    0 -0.34306503151E+02  0.23338033213E+01  0.13167947087E+02  0.54367114257E+02  0.40000068572E+02 0.  0.
        -12    1    3    3    0    0  0.34306503151E+02 -0.23338033213E+01 -0.13167947087E+02  0.36820885743E+02  0.00000000000E+00 0.  1.
         11    1    4    4    0    0 -0.30582244621E+02 -0.61785754395E+01 -0.50048048519E+01  0.31598996066E+02  0.51100000000E-03 0.  1.
        -11    1    4    4    0    0  0.11550879626E+01  0.69657276378E+01  0.50456564448E+01  0.86783776678E+01  0.51100000000E-03 0. -1.
        -12    1    4    4    0    0 -0.48793464926E+01  0.15466511230E+01  0.13127095494E+02  0.14089740523E+02  0.00000000000E+00 0.  1.
</event>
<event>
 8    1  0.1290800E-006  0.9118800E+02  0.7816164E-02  0.1184000E+00
        -11   -1    0    0    0    0  0.00000000000E+00  0.00000000000E+00  0.45593999997E+02  0.45594000000E+02  0.51100000000E-03 0. -1.
         11   -1    0    0    0    0 -0.00000000000E+00 -0.00000000000E+00 -0.45593999997E+02  0.45594000000E+02  0.51100000000E-03 0.  1.
         23    2    1    2    0    0  0.35527136788E-14  0.35527136788E-14  0.00000000000E+00  0.91188000000E+02  0.91188000000E+02 0.  0.
    9900012    2    3    3    0    0 -0.17798533068E+02  0.19014930357E+02  0.26027330534E+02  0.54367118824E+02  0.40000078983E+02 0.  0.
        -12    1    3    3    0    0  0.17798533068E+02 -0.19014930357E+02 -0.26027330534E+02  0.36820881176E+02  0.00000000000E+00 0.  1.
         11    1    4    4    0    0 -0.40083494588E+01 -0.20230966780E+01 -0.42253547469E+01  0.61655014841E+01  0.51100000000E-03 0.  1.
        -11    1    4    4    0    0  0.32369246533E+01  0.17115777415E+02  0.62369371328E+01  0.18502078337E+02  0.51100000000E-03 0. -1.
         12    1    4    4    0    0 -0.17027108263E+02  0.39222496204E+01  0.24015748148E+02  0.29699539003E+02  0.00000000000E+00 0. -1.
</event>
<event>
 8    1  0.1290800E-006  0.9118800E+02  0.7816164E-02  0.1184000E+00
        -11   -1    0    0    0    0  0.00000000000E+00  0.00000000000E+00  0.45593999997E+02  0.45594000000E+02  0.51100000000E-03 0.  1.
         11   -1    0    0    0    0 -0.00000000000E+00 -0.00000000000E+00 -0.45593999997E+02  0.45594000000E+02  0.51100000000E-03 0. -1.
         23    2    1    2    0    0 -0.71054273576E-14  0.00000000000E+00  0.00000000000E+00  0.91188000000E+02  0.91188000000E+02 0.  0.
    9900012    2    3    3    0    0 -0.33325943390E+02  0.15440896476E+02  0.25962924850E+01  0.54367074950E+02  0.39999978964E+02 0.  0.
         12    1    3    3    0    0  0.33325943390E+02 -0.15440896476E+02 -0.25962924850E+01  0.36820925050E+02  0.00000000000E+00 0. -1.
         11    1    4    4    0    0 -0.17712680413E+02 -0.68650230912E+01 -0.63377747807E+01  0.20025857756E+02  0.51100000000E-03 0. -1.
        -11    1    4    4    0    0 -0.33908986288E+01  0.13476590652E+02 -0.40161230760E+01  0.14465335597E+02  0.51100000000E-03 0.  1.
         12    1    4    4    0    0 -0.12222364349E+02  0.88293289151E+01  0.12950190342E+02  0.19875881597E+02  0.00000000000E+00 0. -1.
</event>
<event>
 8    1  0.1290800E-006  0.9118800E+02  0.7816164E-02  0.1184000E+00
        -11   -1    0    0    0    0  0.00000000000E+00  0.00000000000E+00  0.45593999997E+02  0.45594000000E+02  0.51100000000E-03 0.  1.
         11   -1    0    0    0    0 -0.00000000000E+00 -0.00000000000E+00 -0.45593999997E+02  0.45594000000E+02  0.51100000000E-03 0. -1.
         23    2    1    2    0    0  0.00000000000E+00  0.00000000000E+00  0.00000000000E+00  0.91188000000E+02  0.91188000000E+02 0.  0.
    9900012    2    3    3    0    0 -0.19937984900E+02 -0.30220294623E+01  0.30807866900E+02  0.54367074334E+02  0.39999977560E+02 0.  0.
         12    1    3    3    0    0  0.19937984900E+02  0.30220294623E+01 -0.30807866900E+02  0.36820925666E+02  0.00000000000E+00 0. -1.
         11    1    4    4    0    0 -0.21396456180E+02 -0.39680271380E+01  0.73678818164E+00  0.21773755613E+02  0.51100000000E-03 0. -1.
        -11    1    4    4    0    0  0.25224127969E+00 -0.41352126020E+01  0.24905710935E+02  0.25247931527E+02  0.51100000000E-03 0.  1.
        -12    1    4    4    0    0  0.12062300000E+01  0.50812102777E+01  0.51653677832E+01  0.73453871943E+01  0.00000000000E+00 0.  1.
</event>
<event>
 8    1  0.1290800E-006  0.9118800E+02  0.7816164E-02  0.1184000E+00
        -11   -1    0    0    0    0  0.00000000000E+00  0.00000000000E+00  0.45593999997E+02  0.45594000000E+02  0.51100000000E-03 0.  1.
         11   -1    0    0    0    0 -0.00000000000E+00 -0.00000000000E+00 -0.45593999997E+02  0.45594000000E+02  0.51100000000E-03 0. -1.
         23    2    1    2    0    0  0.00000000000E+00 -0.88817841970E-15  0.35527136788E-14  0.91188000000E+02  0.91188000000E+02 0.  0.
    9900012    2    3    3    0    0  0.24686956360E+02 -0.68625782495E+01  0.26443119515E+02  0.54367090665E+02  0.40000014790E+02 0.  0.
         12    1    3    3    0    0 -0.24686956360E+02  0.68625782495E+01 -0.26443119515E+02  0.36820909335E+02  0.00000000000E+00 0. -1.
         11    1    4    4    0    0  0.88380679843E+01 -0.10203070546E+02  0.49160144511E+01  0.14365976911E+02  0.51100000000E-03 0. -1.
        -11    1    4    4    0    0  0.70074324569E+01 -0.12097550792E+02  0.16266920084E+02  0.21449184928E+02  0.51100000000E-03 0.  1.
         12    1    4    4    0    0  0.88414559183E+01  0.15438043088E+02  0.52601849798E+01  0.18551928826E+02  0.00000000000E+00 0. -1.
</event>
<event>
 8    1  0.1290800E-006  0.9118800E+02  0.7816164E-02  0.1184000E+00
        -11   -1    0    0    0    0  0.00000000000E+00  0.00000000000E+00  0.45593999997E+02  0.45594000000E+02  0.51100000000E-03 0.  1.
         11   -1    0    0    0    0 -0.00000000000E+00 -0.00000000000E+00 -0.45593999997E+02  0.45594000000E+02  0.51100000000E-03 0. -1.
         23    2    1    2    0    0 -0.17763568394E-14 -0.35527136788E-14  0.35527136788E-14  0.91188000000E+02  0.91188000000E+02 0.  0.
    9900012    2    3    3    0    0  0.12995303394E+02  0.18890294026E+02 -0.28810784492E+02  0.54367049147E+02  0.39999920140E+02 0.  0.
        -12    1    3    3    0    0 -0.12995303394E+02 -0.18890294026E+02  0.28810784492E+02  0.36820950853E+02  0.00000000000E+00 0.  1.
         11    1    4    4    0    0  0.21165854344E+02  0.20028107108E+02 -0.28448678198E+02  0.40724019398E+02  0.51100000000E-03 0. -1.
        -11    1    4    4    0    0 -0.39778548924E+01  0.36214808882E+01 -0.36480137138E+01  0.64997275086E+01  0.51100000000E-03 0.  1.
        -12    1    4    4    0    0 -0.41926960577E+01 -0.47592939707E+01  0.32859074190E+01  0.71433022404E+01  0.00000000000E+00 0.  1.
</event>
<event>
 8    1  0.1290800E-006  0.9118800E+02  0.7816164E-02  0.1184000E+00
        -11   -1    0    0    0    0  0.00000000000E+00  0.00000000000E+00  0.45593999997E+02  0.45594000000E+02  0.51100000000E-03 0. -1.
         11   -1    0    0    0    0 -0.00000000000E+00 -0.00000000000E+00 -0.45593999997E+02  0.45594000000E+02  0.51100000000E-03 0.  1.
         23    2    1    2    0    0  0.00000000000E+00 -0.35527136788E-14  0.00000000000E+00  0.91188000000E+02  0.91188000000E+02 0.  0.
    9900012    2    3    3    0    0  0.12946581541E+02  0.19946965526E+02 -0.28112011751E+02  0.54367073722E+02  0.39999976165E+02 0.  0.
         12    1    3    3    0    0 -0.12946581541E+02 -0.19946965526E+02  0.28112011751E+02  0.36820926278E+02  0.00000000000E+00 0. -1.
         11    1    4    4    0    0  0.19740262172E+02  0.14739575310E+02 -0.13246177128E+02  0.27971311011E+02  0.51100000000E-03 0. -1.
        -11    1    4    4    0    0 -0.57345632049E+01  0.38671767689E+01 -0.19906305117E+02  0.21073710043E+02  0.51100000000E-03 0.  1.
         12    1    4    4    0    0 -0.10591174257E+01  0.13402134465E+01  0.50404704936E+01  0.53220526680E+01  0.00000000000E+00 0. -1.
</event>
<event>
 8    1  0.1290800E-006  0.9118800E+02  0.7816164E-02  0.1184000E+00
        -11   -1    0    0    0    0  0.00000000000E+00  0.00000000000E+00  0.45593999997E+02  0.45594000000E+02  0.51100000000E-03 0.  1.
         11   -1    0    0    0    0 -0.00000000000E+00 -0.00000000000E+00 -0.45593999997E+02  0.45594000000E+02  0.51100000000E-03 0. -1.
         23    2    1    2    0    0 -0.35527136788E-14 -0.17763568394E-14  0.00000000000E+00  0.91188000000E+02  0.91188000000E+02 0.  0.
    9900012    2    3    3    0    0  0.20450561901E+02  0.12989708935E+02  0.27727654351E+02  0.54367070679E+02  0.39999969227E+02 0.  0.
         12    1    3    3    0    0 -0.20450561901E+02 -0.12989708935E+02 -0.27727654351E+02  0.36820929321E+02  0.00000000000E+00 0. -1.
         11    1    4    4    0    0 -0.51359049650E+01 -0.38673454719E+01 -0.35833035507E+01  0.73602951983E+01  0.51100000000E-03 0. -1.
        -11    1    4    4    0    0  0.18285664597E-01  0.31175066294E+01 -0.12747259707E+01  0.33681016183E+01  0.51100000000E-03 0.  1.
        -12    1    4    4    0    0  0.25568181201E+02  0.13739547777E+02  0.32585683872E+02  0.43638673862E+02  0.00000000000E+00 0.  1.
</event>
<event>
 8    1  0.1290800E-006  0.9118800E+02  0.7816164E-02  0.1184000E+00
        -11   -1    0    0    0    0  0.00000000000E+00  0.00000000000E+00  0.45593999997E+02  0.45594000000E+02  0.51100000000E-03 0. -1.
         11   -1    0    0    0    0 -0.00000000000E+00 -0.00000000000E+00 -0.45593999997E+02  0.45594000000E+02  0.51100000000E-03 0.  1.
         23    2    1    2    0    0  0.00000000000E+00  0.00000000000E+00  0.00000000000E+00  0.91188000000E+02  0.91188000000E+02 0.  0.
    9900012    2    3    3    0    0 -0.13097870868E+02  0.70909118627E+01  0.33674083466E+02  0.54367093580E+02  0.40000021435E+02 0.  0.
        -12    1    3    3    0    0  0.13097870868E+02 -0.70909118627E+01 -0.33674083466E+02  0.36820906420E+02  0.00000000000E+00 0.  1.
         11    1    4    4    0    0 -0.23286139535E+01  0.14896294354E+02  0.42382479621E+01  0.15661569988E+02  0.51100000000E-03 0. -1.
        -11    1    4    4    0    0 -0.14599383233E+02  0.17631154322E+01  0.15417426314E+02  0.21306046119E+02  0.51100000000E-03 0.  1.
        -12    1    4    4    0    0  0.38301263191E+01 -0.95684979238E+01  0.14018409189E+02  0.17399477473E+02  0.00000000000E+00 0.  1.
</event>
<event>
 8    1  0.1290800E-006  0.9118800E+02  0.7816164E-02  0.1184000E+00
        -11   -1    0    0    0    0  0.00000000000E+00  0.00000000000E+00  0.45593999997E+02  0.45594000000E+02  0.51100000000E-03 0. -1.
         11   -1    0    0    0    0 -0.00000000000E+00 -0.00000000000E+00 -0.45593999997E+02  0.45594000000E+02  0.51100000000E-03 0.  1.
         23    2    1    2    0    0  0.00000000000E+00  0.00000000000E+00 -0.71054273576E-14  0.91188000000E+02  0.91188000000E+02 0.  0.
    9900012    2    3    3    0    0 -0.33676099579E+01 -0.21110527823E+02  0.29979672990E+02  0.54367136697E+02  0.40000119728E+02 0.  0.
        -12    1    3    3    0    0  0.33676099579E+01  0.21110527823E+02 -0.29979672990E+02  0.36820863303E+02  0.00000000000E+00 0.  1.
         11    1    4    4    0    0 -0.14502002192E+01 -0.13670062685E+02  0.56986281027E+01  0.14881130905E+02  0.51100000000E-03 0. -1.
        -11    1    4    4    0    0  0.20125516577E+01 -0.55593712793E+01 -0.62745696333E+01  0.86213222617E+01  0.51100000000E-03 0.  1.
         12    1    4    4    0    0 -0.39299613964E+01 -0.18810938580E+01  0.30555614521E+02  0.30864683530E+02  0.00000000000E+00 0. -1.
</event>
<event>
 8    1  0.1290800E-006  0.9118800E+02  0.7816164E-02  0.1184000E+00
        -11   -1    0    0    0    0  0.00000000000E+00  0.00000000000E+00  0.45593999997E+02  0.45594000000E+02  0.51100000000E-03 0.  1.
         11   -1    0    0    0    0 -0.00000000000E+00 -0.00000000000E+00 -0.45593999997E+02  0.45594000000E+02  0.51100000000E-03 0. -1.
         23    2    1    2    0    0  0.22204460493E-15  0.00000000000E+00 -0.17763568394E-14  0.91188000000E+02  0.91188000000E+02 0.  0.
    9900012    2    3    3    0    0  0.17088576882E+01  0.33164137144E+02 -0.15905981439E+02  0.54367076157E+02  0.39999981715E+02 0.  0.
        -12    1    3    3    0    0 -0.17088576882E+01 -0.33164137144E+02  0.15905981439E+02  0.36820923843E+02  0.00000000000E+00 0.  1.
         11    1    4    4    0    0  0.18034923634E+01  0.25767322195E+02 -0.22628785596E+02  0.34340492361E+02  0.51100000000E-03 0.  1.
        -11    1    4    4    0    0  0.12375745927E+01  0.13022331822E+02  0.48076591293E+01  0.13936509733E+02  0.51100000000E-03 0. -1.
        -12    1    4    4    0    0 -0.13322092680E+01 -0.56255168729E+01  0.19151450275E+01  0.60900740633E+01  0.00000000000E+00 0.  1.
</event>
<event>
 8    1  0.1290800E-006  0.9118800E+02  0.7816164E-02  0.1184000E+00
        -11   -1    0    0    0    0  0.00000000000E+00  0.00000000000E+00  0.45593999997E+02  0.45594000000E+02  0.51100000000E-03 0. -1.
         11   -1    0    0    0    0 -0.00000000000E+00 -0.00000000000E+00 -0.45593999997E+02  0.45594000000E+02  0.51100000000E-03 0.  1.
         23    2    1    2    0    0  0.00000000000E+00  0.00000000000E+00  0.88817841970E-15  0.91188000000E+02  0.91188000000E+02 0.  0.
    9900012    2    3    3    0    0 -0.16641876104E+02 -0.32326130996E+02  0.58179623571E+01  0.54367089210E+02  0.40000011473E+02 0.  0.
        -12    1    3    3    0    0  0.16641876104E+02  0.32326130996E+02 -0.58179623571E+01  0.36820910790E+02  0.00000000000E+00 0.  1.
         11    1    4    4    0    0 -0.14915066054E+02 -0.20130055422E+02  0.16166074216E+02  0.29816443157E+02  0.51100000000E-03 0. -1.
        -11    1    4    4    0    0 -0.56646192517E+01 -0.73567564255E+01 -0.14383723643E+02  0.17120201006E+02  0.51100000000E-03 0.  1.
         12    1    4    4    0    0  0.39378092026E+01 -0.48393191478E+01  0.40356117842E+01  0.74304450474E+01  0.00000000000E+00 0. -1.
</event>
<event>
 8    1  0.1290800E-006  0.9118800E+02  0.7816164E-02  0.1184000E+00
        -11   -1    0    0    0    0  0.00000000000E+00  0.00000000000E+00  0.45593999997E+02  0.45594000000E+02  0.51100000000E-03 0.  1.
         11   -1    0    0    0    0 -0.00000000000E+00 -0.00000000000E+00 -0.45593999997E+02  0.45594000000E+02  0.51100000000E-03 0. -1.
         23    2    1    2    0    0 -0.44408920985E-15  0.00000000000E+00  0.00000000000E+00  0.91188000000E+02  0.91188000000E+02 0.  0.
    9900012    2    3    3    0    0  0.27938360565E+01  0.32573197790E+02  0.16939750049E+02  0.54367165328E+02  0.40000184999E+02 0.  0.
         12    1    3    3    0    0 -0.27938360565E+01 -0.32573197790E+02 -0.16939750049E+02  0.36820834672E+02  0.00000000000E+00 0. -1.
         11    1    4    4    0    0  0.66616109318E+01  0.53987652466E+01 -0.37054437021E+00  0.85826004093E+01  0.51100000000E-03 0. -1.
        -11    1    4    4    0    0 -0.12219516643E+02  0.28535739864E+02  0.59304695182E+01  0.31603409713E+02  0.51100000000E-03 0.  1.
        -12    1    4    4    0    0  0.83517417679E+01 -0.13613073201E+01  0.11379824901E+02  0.14181155206E+02  0.00000000000E+00 0.  1.
</event>
<event>
 8    1  0.1290800E-006  0.9118800E+02  0.7816164E-02  0.1184000E+00
        -11   -1    0    0    0    0  0.00000000000E+00  0.00000000000E+00  0.45593999997E+02  0.45594000000E+02  0.51100000000E-03 0.  1.
         11   -1    0    0    0    0 -0.00000000000E+00 -0.00000000000E+00 -0.45593999997E+02  0.45594000000E+02  0.51100000000E-03 0. -1.
         23    2    1    2    0    0  0.44408920985E-15  0.00000000000E+00  0.00000000000E+00  0.91188000000E+02  0.91188000000E+02 0.  0.
    9900012    2    3    3    0    0 -0.87560121349E+00 -0.30723601766E+02  0.20275023462E+02  0.54367041846E+02  0.39999903497E+02 0.  0.
         12    1    3    3    0    0  0.87560121349E+00  0.30723601766E+02 -0.20275023462E+02  0.36820958154E+02  0.00000000000E+00 0. -1.
         11    1    4    4    0    0  0.56760349254E+01  0.11169065384E+01  0.94496102246E+00  0.58615530609E+01  0.51100000000E-03 0. -1.
        -11    1    4    4    0    0  0.44571720697E+01 -0.15597012520E+01  0.15326910245E+02  0.16037868586E+02  0.51100000000E-03 0.  1.
        -12    1    4    4    0    0 -0.11008808209E+02 -0.30280807052E+02  0.40031521943E+01  0.32467620199E+02  0.00000000000E+00 0.  1.
</event>
<event>
 8    1  0.1290800E-006  0.9118800E+02  0.7816164E-02  0.1184000E+00
        -11   -1    0    0    0    0  0.00000000000E+00  0.00000000000E+00  0.45593999997E+02  0.45594000000E+02  0.51100000000E-03 0.  1.
         11   -1    0    0    0    0 -0.00000000000E+00 -0.00000000000E+00 -0.45593999997E+02  0.45594000000E+02  0.51100000000E-03 0. -1.
         23    2    1    2    0    0  0.00000000000E+00 -0.22204460493E-15 -0.71054273576E-14  0.91188000000E+02  0.91188000000E+02 0.  0.
    9900012    2    3    3    0    0  0.16067296050E+02 -0.10849900541E+01 -0.33112620580E+02  0.54367070525E+02  0.39999968875E+02 0.  0.
        -12    1    3    3    0    0 -0.16067296050E+02  0.10849900541E+01  0.33112620580E+02  0.36820929475E+02  0.00000000000E+00 0.  1.
         11    1    4    4    0    0 -0.73708884785E+01 -0.20865201923E+01 -0.48196607545E+01  0.90505631607E+01  0.51100000000E-03 0. -1.
        -11    1    4    4    0    0  0.17644939064E+01 -0.56557517588E+00  0.51278185583E+01  0.54523240415E+01  0.51100000000E-03 0.  1.
        -12    1    4    4    0    0  0.21673690622E+02  0.15671053140E+01 -0.33420778383E+02  0.39864183323E+02  0.00000000000E+00 0.  1.
</event>
<event>
 8    1  0.1290800E-006  0.9118800E+02  0.7816164E-02  0.1184000E+00
        -11   -1    0    0    0    0  0.00000000000E+00  0.00000000000E+00  0.45593999997E+02  0.45594000000E+02  0.51100000000E-03 0.  1.
         11   -1    0    0    0    0 -0.00000000000E+00 -0.00000000000E+00 -0.45593999997E+02  0.45594000000E+02  0.51100000000E-03 0. -1.
         23    2    1    2    0    0  0.00000000000E+00 -0.88817841970E-15  0.71054273576E-14  0.91188000000E+02  0.91188000000E+02 0.  0.
    9900012    2    3    3    0    0  0.98121447885E+01 -0.57014238368E+01  0.35028468206E+02  0.54367109136E+02  0.40000056898E+02 0.  0.
         12    1    3    3    0    0 -0.98121447885E+01  0.57014238368E+01 -0.35028468206E+02  0.36820890864E+02  0.00000000000E+00 0. -1.
         11    1    4    4    0    0  0.56126356094E+01  0.58237975841E+01 -0.39157644731E+01  0.89861843101E+01  0.51100000000E-03 0. -1.
        -11    1    4    4    0    0  0.54422408148E+01  0.11175541750E+01  0.28202563156E+02  0.28744590469E+02  0.51100000000E-03 0.  1.
        -12    1    4    4    0    0 -0.12427316356E+01 -0.12642775596E+02  0.10741669524E+02  0.16636334357E+02  0.00000000000E+00 0.  1.
</event>
<event>
 8    1  0.1290800E-006  0.9118800E+02  0.7816164E-02  0.1184000E+00
        -11   -1    0    0    0    0  0.00000000000E+00  0.00000000000E+00  0.45593999997E+02  0.45594000000E+02  0.51100000000E-03 0.  1.
         11   -1    0    0    0    0 -0.00000000000E+00 -0.00000000000E+00 -0.45593999997E+02  0.45594000000E+02  0.51100000000E-03 0. -1.
         23    2    1    2    0    0 -0.44408920985E-15 -0.71054273576E-14  0.17763568394E-14  0.91188000000E+02  0.91188000000E+02 0.  0.
    9900012    2    3    3    0    0  0.24054211347E+01  0.35939077473E+02 -0.76402978496E+01  0.54367116094E+02  0.40000072759E+02 0.  0.
         12    1    3    3    0    0 -0.24054211347E+01 -0.35939077473E+02  0.76402978496E+01  0.36820883906E+02  0.00000000000E+00 0. -1.
         11    1    4    4    0    0  0.25571110443E+01 -0.63668180028E+01 -0.88867927170E+00  0.69184492108E+01  0.51100000000E-03 0. -1.
        -11    1    4    4    0    0  0.68578849343E+01  0.20117239543E+02 -0.10782386272E+02  0.23832619801E+02  0.51100000000E-03 0.  1.
         12    1    4    4    0    0 -0.70095748439E+01  0.22188655932E+02  0.40307676938E+01  0.23616047082E+02  0.00000000000E+00 0. -1.
</event>
<event>
 8    1  0.1290800E-006  0.9118800E+02  0.7816164E-02  0.1184000E+00
        -11   -1    0    0    0    0  0.00000000000E+00  0.00000000000E+00  0.45593999997E+02  0.45594000000E+02  0.51100000000E-03 0.  1.
         11   -1    0    0    0    0 -0.00000000000E+00 -0.00000000000E+00 -0.45593999997E+02  0.45594000000E+02  0.51100000000E-03 0. -1.
         23    2    1    2    0    0  0.71054273576E-14  0.35527136788E-14  0.00000000000E+00  0.91188000000E+02  0.91188000000E+02 0.  0.
    9900012    2    3    3    0    0  0.18695930413E+02 -0.27038723060E+02  0.16587583869E+02  0.54367105153E+02  0.40000047817E+02 0.  0.
         12    1    3    3    0    0 -0.18695930413E+02  0.27038723060E+02 -0.16587583869E+02  0.36820894847E+02  0.00000000000E+00 0. -1.
         11    1    4    4    0    0  0.22809297174E+01  0.83979235366E+00 -0.61634201949E+01  0.66253785049E+01  0.51100000000E-03 0. -1.
        -11    1    4    4    0    0 -0.15150876282E+01 -0.19378926774E+02  0.28627993330E+01  0.19647745766E+02  0.51100000000E-03 0.  1.
        -12    1    4    4    0    0  0.17930088324E+02 -0.84995886402E+01  0.19888204731E+02  0.28093980882E+02  0.00000000000E+00 0.  1.
</event>
<event>
 8    1  0.1290800E-006  0.9118800E+02  0.7816164E-02  0.1184000E+00
        -11   -1    0    0    0    0  0.00000000000E+00  0.00000000000E+00  0.45593999997E+02  0.45594000000E+02  0.51100000000E-03 0. -1.
         11   -1    0    0    0    0 -0.00000000000E+00 -0.00000000000E+00 -0.45593999997E+02  0.45594000000E+02  0.51100000000E-03 0.  1.
         23    2    1    2    0    0  0.00000000000E+00  0.00000000000E+00  0.35527136788E-14  0.91188000000E+02  0.91188000000E+02 0.  0.
    9900012    2    3    3    0    0  0.25207615754E+02  0.89914870279E+01 -0.25288509078E+02  0.54367089876E+02  0.40000012990E+02 0.  0.
         12    1    3    3    0    0 -0.25207615754E+02 -0.89914870279E+01  0.25288509078E+02  0.36820910124E+02  0.00000000000E+00 0. -1.
         11    1    4    4    0    0  0.61754260050E+01  0.17707695803E+01 -0.13580250823E+02  0.15023139616E+02  0.51100000000E-03 0. -1.
        -11    1    4    4    0    0  0.52779458894E+01  0.42797280965E+01 -0.21274887139E+02  0.22333687748E+02  0.51100000000E-03 0.  1.
         12    1    4    4    0    0  0.13754243860E+02  0.29409893511E+01  0.95666288836E+01  0.17010262512E+02  0.00000000000E+00 0. -1.
</event>
<event>
 8    1  0.1290800E-006  0.9118800E+02  0.7816164E-02  0.1184000E+00
        -11   -1    0    0    0    0  0.00000000000E+00  0.00000000000E+00  0.45593999997E+02  0.45594000000E+02  0.51100000000E-03 0. -1.
         11   -1    0    0    0    0 -0.00000000000E+00 -0.00000000000E+00 -0.45593999997E+02  0.45594000000E+02  0.51100000000E-03 0.  1.
         23    2    1    2    0    0  0.00000000000E+00  0.00000000000E+00 -0.88817841970E-15  0.91188000000E+02  0.91188000000E+02 0.  0.
    9900012    2    3    3    0    0 -0.35100933369E+02  0.81265964016E+01 -0.75935271262E+01  0.54367099052E+02  0.40000033908E+02 0.  0.
         12    1    3    3    0    0  0.35100933369E+02 -0.81265964016E+01  0.75935271262E+01  0.36820900948E+02  0.00000000000E+00 0. -1.
         11    1    4    4    0    0 -0.16720640512E+02  0.19026531550E+02 -0.81033099662E+01  0.26594216564E+02  0.51100000000E-03 0. -1.
        -11    1    4    4    0    0 -0.15328383825E+00  0.12596274906E+01  0.52111966269E+01  0.53634623049E+01  0.51100000000E-03 0.  1.
        -12    1    4    4    0    0 -0.18227009019E+02 -0.12159562640E+02 -0.47014137869E+01  0.22409420183E+02  0.00000000000E+00 0.  1.
</event>
<event>
 8    1  0.1290800E-006  0.9118800E+02  0.7816164E-02  0.1184000E+00
        -11   -1    0    0    0    0  0.00000000000E+00  0.00000000000E+00  0.45593999997E+02  0.45594000000E+02  0.51100000000E-03 0.  1.
         11   -1    0    0    0    0 -0.00000000000E+00 -0.00000000000E+00 -0.45593999997E+02  0.45594000000E+02  0.51100000000E-03 0. -1.
         23    2    1    2    0    0  0.35527136788E-14  0.00000000000E+00  0.00000000000E+00  0.91188000000E+02  0.91188000000E+02 0.  0.
    9900012    2    3    3    0    0 -0.15852114065E+02  0.20862918419E+02  0.25869456913E+02  0.54367086292E+02  0.40000004820E+02 0.  0.
         12    1    3    3    0    0  0.15852114065E+02 -0.20862918419E+02 -0.25869456913E+02  0.36820913708E+02  0.00000000000E+00 0. -1.
         11    1    4    4    0    0 -0.56862568027E+01  0.15132177855E+01 -0.76883989458E+01  0.96816746022E+01  0.51100000000E-03 0. -1.
        -11    1    4    4    0    0 -0.12359018147E+01 -0.41482439179E+00 -0.23780629480E+01  0.27119580043E+01  0.51100000000E-03 0.  1.
        -12    1    4    4    0    0 -0.89299554472E+01  0.19764525026E+02  0.35935918807E+02  0.41973453686E+02  0.00000000000E+00 0.  1.
</event>
<event>
 8    1  0.1290800E-006  0.9118800E+02  0.7816164E-02  0.1184000E+00
        -11   -1    0    0    0    0  0.00000000000E+00  0.00000000000E+00  0.45593999997E+02  0.45594000000E+02  0.51100000000E-03 0. -1.
         11   -1    0    0    0    0 -0.00000000000E+00 -0.00000000000E+00 -0.45593999997E+02  0.45594000000E+02  0.51100000000E-03 0.  1.
         23    2    1    2    0    0  0.13322676296E-14  0.35527136788E-14  0.35527136788E-14  0.91188000000E+02  0.91188000000E+02 0.  0.
    9900012    2    3    3    0    0 -0.24144491156E+01 -0.20845837183E+02 -0.30255603011E+02  0.54367081951E+02  0.39999994924E+02 0.  0.
         12    1    3    3    0    0  0.24144491156E+01  0.20845837183E+02  0.30255603011E+02  0.36820918049E+02  0.00000000000E+00 0. -1.
         11    1    4    4    0    0 -0.84665017699E+01 -0.73681956377E+01 -0.80125807428E+01  0.13790337545E+02  0.51100000000E-03 0. -1.
        -11    1    4    4    0    0 -0.59705157807E+01  0.32873961212E+01 -0.18359920214E+02  0.19584195221E+02  0.51100000000E-03 0.  1.
        -12    1    4    4    0    0  0.12022568435E+02 -0.16765037666E+02 -0.38831020548E+01  0.20992549185E+02  0.00000000000E+00 0.  1.
</event>
<event>
 8    1  0.1290800E-006  0.9118800E+02  0.7816164E-02  0.1184000E+00
        -11   -1    0    0    0    0  0.00000000000E+00  0.00000000000E+00  0.45593999997E+02  0.45594000000E+02  0.51100000000E-03 0. -1.
         11   -1    0    0    0    0 -0.00000000000E+00 -0.00000000000E+00 -0.45593999997E+02  0.45594000000E+02  0.51100000000E-03 0.  1.
         23    2    1    2    0    0 -0.35527136788E-14  0.99920072216E-15  0.00000000000E+00  0.91188000000E+02  0.91188000000E+02 0.  0.
    9900012    2    3    3    0    0 -0.24585634213E+02  0.97589050735E+00 -0.27392965812E+02  0.54367077308E+02  0.39999984338E+02 0.  0.
         12    1    3    3    0    0  0.24585634213E+02 -0.97589050735E+00  0.27392965812E+02  0.36820922692E+02  0.00000000000E+00 0. -1.
         11    1    4    4    0    0 -0.16099538420E+01  0.49357620536E+01 -0.18097809098E+00  0.51948485786E+01  0.51100000000E-03 0. -1.
        -11    1    4    4    0    0 -0.54838607857E+01  0.12706799740E+02 -0.15498638539E+01  0.13926146882E+02  0.51100000000E-03 0.  1.
         12    1    4    4    0    0 -0.17491819586E+02 -0.16666671287E+02 -0.25662123867E+02  0.35246081847E+02  0.00000000000E+00 0. -1.
</event>
<event>
 8    1  0.1290800E-006  0.9118800E+02  0.7816164E-02  0.1184000E+00
        -11   -1    0    0    0    0  0.00000000000E+00  0.00000000000E+00  0.45593999997E+02  0.45594000000E+02  0.51100000000E-03 0.  1.
         11   -1    0    0    0    0 -0.00000000000E+00 -0.00000000000E+00 -0.45593999997E+02  0.45594000000E+02  0.51100000000E-03 0. -1.
         23    2    1    2    0    0 -0.35527136788E-14  0.44408920985E-15  0.10658141036E-13  0.91188000000E+02  0.91188000000E+02 0.  0.
    9900012    2    3    3    0    0 -0.19848887497E+02 -0.34485355503E+01 -0.30820491177E+02  0.54367171537E+02  0.40000199152E+02 0.  0.
        -12    1    3    3    0    0  0.19848887497E+02  0.34485355503E+01  0.30820491177E+02  0.36820828463E+02  0.00000000000E+00 0.  1.
         11    1    4    4    0    0  0.20232029563E+01 -0.33238975565E+00 -0.21885248599E+01  0.29989122154E+01  0.51100000000E-03 0. -1.
        -11    1    4    4    0    0 -0.18526457003E+02 -0.17350017936E+01  0.35840566523E+01  0.18949546239E+02  0.51100000000E-03 0.  1.
        -12    1    4    4    0    0 -0.33456334499E+01 -0.13811440011E+01 -0.32216022970E+02  0.32418713082E+02  0.00000000000E+00 0.  1.
</event>
<event>
 8    1  0.1290800E-006  0.9118800E+02  0.7816164E-02  0.1184000E+00
        -11   -1    0    0    0    0  0.00000000000E+00  0.00000000000E+00  0.45593999997E+02  0.45594000000E+02  0.51100000000E-03 0.  1.
         11   -1    0    0    0    0 -0.00000000000E+00 -0.00000000000E+00 -0.45593999997E+02  0.45594000000E+02  0.51100000000E-03 0. -1.
         23    2    1    2    0    0 -0.88817841970E-15  0.00000000000E+00  0.88817841970E-15  0.91188000000E+02  0.91188000000E+02 0.  0.
    9900012    2    3    3    0    0 -0.72308069771E+01  0.36018174647E+02  0.24873280498E+01  0.54367078294E+02  0.39999986588E+02 0.  0.
         12    1    3    3    0    0  0.72308069771E+01 -0.36018174647E+02 -0.24873280498E+01  0.36820921706E+02  0.00000000000E+00 0. -1.
         11    1    4    4    0    0 -0.85799866211E+01 -0.48918220219E+01 -0.56543514769E+01  0.11380588034E+02  0.51100000000E-03 0. -1.
        -11    1    4    4    0    0 -0.38220670408E+01  0.26602285849E+02  0.36396455150E+01  0.27120782227E+02  0.51100000000E-03 0.  1.
         12    1    4    4    0    0  0.51712466848E+01  0.14307710819E+02  0.45020340117E+01  0.15865708034E+02  0.00000000000E+00 0. -1.
</event>
<event>
 8    1  0.1290800E-006  0.9118800E+02  0.7816164E-02  0.1184000E+00
        -11   -1    0    0    0    0  0.00000000000E+00  0.00000000000E+00  0.45593999997E+02  0.45594000000E+02  0.51100000000E-03 0. -1.
         11   -1    0    0    0    0 -0.00000000000E+00 -0.00000000000E+00 -0.45593999997E+02  0.45594000000E+02  0.51100000000E-03 0.  1.
         23    2    1    2    0    0 -0.17763568394E-14  0.00000000000E+00  0.00000000000E+00  0.91188000000E+02  0.91188000000E+02 0.  0.
    9900012    2    3    3    0    0  0.11562004407E+02 -0.14566941702E+02  0.31778983780E+02  0.54367088190E+02  0.40000009146E+02 0.  0.
        -12    1    3    3    0    0 -0.11562004407E+02  0.14566941702E+02 -0.31778983780E+02  0.36820911810E+02  0.00000000000E+00 0.  1.
         11    1    4    4    0    0  0.10104790366E+02 -0.10461234806E+02  0.32707779641E+00  0.14548237081E+02  0.51100000000E-03 0. -1.
        -11    1    4    4    0    0 -0.47002571352E+01 -0.12688291811E+02  0.14394373312E+02  0.19755585274E+02  0.51100000000E-03 0.  1.
         12    1    4    4    0    0  0.61574711755E+01  0.85825849150E+01  0.17057532672E+02  0.20063265835E+02  0.00000000000E+00 0. -1.
</event>
<event>
 8    1  0.1290800E-006  0.9118800E+02  0.7816164E-02  0.1184000E+00
        -11   -1    0    0    0    0  0.00000000000E+00  0.00000000000E+00  0.45593999997E+02  0.45594000000E+02  0.51100000000E-03 0.  1.
         11   -1    0    0    0    0 -0.00000000000E+00 -0.00000000000E+00 -0.45593999997E+02  0.45594000000E+02  0.51100000000E-03 0. -1.
         23    2    1    2    0    0  0.00000000000E+00  0.00000000000E+00  0.00000000000E+00  0.91188000000E+02  0.91188000000E+02 0.  0.
    9900012    2    3    3    0    0 -0.25370872420E+02 -0.17668253565E+02 -0.19998314250E+02  0.54367069482E+02  0.39999966497E+02 0.  0.
        -12    1    3    3    0    0  0.25370872420E+02  0.17668253565E+02  0.19998314250E+02  0.36820930518E+02  0.00000000000E+00 0.  1.
         11    1    4    4    0    0 -0.55967388152E+01 -0.48651194439E+01 -0.21120618158E+02  0.22384668508E+02  0.51100000000E-03 0. -1.
        -11    1    4    4    0    0 -0.18102924474E+02 -0.11766476504E+02 -0.77158015640E+01  0.22928136380E+02  0.51100000000E-03 0.  1.
        -12    1    4    4    0    0 -0.16712091309E+01 -0.10366576173E+01  0.88381054728E+01  0.90542645932E+01  0.00000000000E+00 0.  1.
</event>
<event>
 8    1  0.1290800E-006  0.9118800E+02  0.7816164E-02  0.1184000E+00
        -11   -1    0    0    0    0  0.00000000000E+00  0.00000000000E+00  0.45593999997E+02  0.45594000000E+02  0.51100000000E-03 0.  1.
         11   -1    0    0    0    0 -0.00000000000E+00 -0.00000000000E+00 -0.45593999997E+02  0.45594000000E+02  0.51100000000E-03 0. -1.
         23    2    1    2    0    0  0.99920072216E-15  0.00000000000E+00  0.00000000000E+00  0.91188000000E+02  0.91188000000E+02 0.  0.
    9900012    2    3    3    0    0  0.64494017204E+00 -0.21572376525E+02 -0.29832800401E+02  0.54367090770E+02  0.40000015028E+02 0.  0.
        -12    1    3    3    0    0 -0.64494017204E+00  0.21572376525E+02  0.29832800401E+02  0.36820909230E+02  0.00000000000E+00 0.  1.
         11    1    4    4    0    0 -0.13850625633E+02 -0.91199069169E+01 -0.25830927620E+02  0.30696080443E+02  0.51100000000E-03 0. -1.
        -11    1    4    4    0    0  0.22384607693E+01  0.30847918360E+00 -0.54678577871E+01  0.59163616406E+01  0.51100000000E-03 0.  1.
         12    1    4    4    0    0  0.12257105036E+02 -0.12760948792E+02  0.14659850062E+01  0.17754648686E+02  0.00000000000E+00 0. -1.
</event>
<event>
 8    1  0.1290800E-006  0.9118800E+02  0.7816164E-02  0.1184000E+00
        -11   -1    0    0    0    0  0.00000000000E+00  0.00000000000E+00  0.45593999997E+02  0.45594000000E+02  0.51100000000E-03 0.  1.
         11   -1    0    0    0    0 -0.00000000000E+00 -0.00000000000E+00 -0.45593999997E+02  0.45594000000E+02  0.51100000000E-03 0. -1.
         23    2    1    2    0    0 -0.88817841970E-15  0.00000000000E+00  0.71054273576E-14  0.91188000000E+02  0.91188000000E+02 0.  0.
    9900012    2    3    3    0    0  0.15859145795E+01  0.31593561340E+01  0.36650822630E+02  0.54367089423E+02  0.40000011958E+02 0.  0.
         12    1    3    3    0    0 -0.15859145795E+01 -0.31593561340E+01 -0.36650822630E+02  0.36820910577E+02  0.00000000000E+00 0. -1.
         11    1    4    4    0    0 -0.10447641186E+02  0.14386542909E+02  0.19796376512E+02  0.26608689304E+02  0.51100000000E-03 0. -1.
        -11    1    4    4    0    0 -0.23576128261E+01 -0.64387508190E+01  0.45638603792E+01  0.82367877336E+01  0.51100000000E-03 0.  1.
        -12    1    4    4    0    0  0.14391168591E+02 -0.47884359561E+01  0.12290585739E+02  0.19521612386E+02  0.00000000000E+00 0.  1.
</event>
<event>
 8    1  0.1290800E-006  0.9118800E+02  0.7816164E-02  0.1184000E+00
        -11   -1    0    0    0    0  0.00000000000E+00  0.00000000000E+00  0.45593999997E+02  0.45594000000E+02  0.51100000000E-03 0. -1.
         11   -1    0    0    0    0 -0.00000000000E+00 -0.00000000000E+00 -0.45593999997E+02  0.45594000000E+02  0.51100000000E-03 0.  1.
         23    2    1    2    0    0  0.13322676296E-14  0.00000000000E+00  0.00000000000E+00  0.91188000000E+02  0.91188000000E+02 0.  0.
    9900012    2    3    3    0    0  0.16617644806E+01  0.35576169946E+02  0.93463928411E+01  0.54367076759E+02  0.39999983087E+02 0.  0.
        -12    1    3    3    0    0 -0.16617644806E+01 -0.35576169946E+02 -0.93463928411E+01  0.36820923241E+02  0.00000000000E+00 0.  1.
         11    1    4    4    0    0  0.15005392111E+02  0.26228193301E+02 -0.58727929320E+01  0.30782618688E+02  0.51100000000E-03 0. -1.
        -11    1    4    4    0    0 -0.58828880844E+01  0.85970932779E+01  0.10066457050E+02  0.14486267388E+02  0.51100000000E-03 0.  1.
        -12    1    4    4    0    0 -0.74607395456E+01  0.75088336651E+00  0.51527287228E+01  0.90981906821E+01  0.00000000000E+00 0.  1.
</event>
<event>
 8    1  0.1290800E-006  0.9118800E+02  0.7816164E-02  0.1184000E+00
        -11   -1    0    0    0    0  0.00000000000E+00  0.00000000000E+00  0.45593999997E+02  0.45594000000E+02  0.51100000000E-03 0.  1.
         11   -1    0    0    0    0 -0.00000000000E+00 -0.00000000000E+00 -0.45593999997E+02  0.45594000000E+02  0.51100000000E-03 0. -1.
         23    2    1    2    0    0  0.00000000000E+00  0.00000000000E+00  0.35527136788E-14  0.91188000000E+02  0.91188000000E+02 0.  0.
    9900012    2    3    3    0    0 -0.28695197681E+02 -0.72295329162E+01 -0.21911175331E+02  0.54367080396E+02  0.39999991378E+02 0.  0.
        -12    1    3    3    0    0  0.28695197681E+02  0.72295329162E+01  0.21911175331E+02  0.36820919604E+02  0.00000000000E+00 0.  1.
         11    1    4    4    0    0 -0.14555781687E+02 -0.12622171813E+01 -0.44500554493E+01  0.15273079797E+02  0.51100000000E-03 0. -1.
        -11    1    4    4    0    0 -0.18227212733E+02 -0.55915268666E+01 -0.24440238861E+02  0.30997124585E+02  0.51100000000E-03 0.  1.
        -12    1    4    4    0    0  0.40877967391E+01 -0.37578886829E+00  0.69791189788E+01  0.80968760133E+01  0.00000000000E+00 0.  1.
</event>
<event>
 8    1  0.1290800E-006  0.9118800E+02  0.7816164E-02  0.1184000E+00
        -11   -1    0    0    0    0  0.00000000000E+00  0.00000000000E+00  0.45593999997E+02  0.45594000000E+02  0.51100000000E-03 0.  1.
         11   -1    0    0    0    0 -0.00000000000E+00 -0.00000000000E+00 -0.45593999997E+02  0.45594000000E+02  0.51100000000E-03 0. -1.
         23    2    1    2    0    0  0.35527136788E-14 -0.35527136788E-14 -0.88817841970E-15  0.91188000000E+02  0.91188000000E+02 0.  0.
    9900012    2    3    3    0    0 -0.27732522489E+02  0.23642765506E+02 -0.52640789585E+01  0.54367031902E+02  0.39999880827E+02 0.  0.
         12    1    3    3    0    0  0.27732522489E+02 -0.23642765506E+02  0.52640789585E+01  0.36820968098E+02  0.00000000000E+00 0. -1.
         11    1    4    4    0    0 -0.96594551753E+01  0.24681651327E+02  0.40040765353E+01  0.26805253509E+02  0.51100000000E-03 0. -1.
        -11    1    4    4    0    0 -0.68711173236E+01  0.63233896957E+01  0.25622945127E+01  0.96831226342E+01  0.51100000000E-03 0.  1.
         12    1    4    4    0    0 -0.11201949990E+02 -0.73622755175E+01 -0.11830450007E+02  0.17878655759E+02  0.00000000000E+00 0. -1.
</event>
<event>
 8    1  0.1290800E-006  0.9118800E+02  0.7816164E-02  0.1184000E+00
        -11   -1    0    0    0    0  0.00000000000E+00  0.00000000000E+00  0.45593999997E+02  0.45594000000E+02  0.51100000000E-03 0. -1.
         11   -1    0    0    0    0 -0.00000000000E+00 -0.00000000000E+00 -0.45593999997E+02  0.45594000000E+02  0.51100000000E-03 0.  1.
         23    2    1    2    0    0  0.35527136788E-14  0.00000000000E+00  0.00000000000E+00  0.91188000000E+02  0.91188000000E+02 0.  0.
    9900012    2    3    3    0    0  0.19065197405E+02 -0.19241555131E+02 -0.24941135909E+02  0.54367089414E+02  0.40000011937E+02 0.  0.
         12    1    3    3    0    0 -0.19065197405E+02  0.19241555131E+02  0.24941135909E+02  0.36820910586E+02  0.00000000000E+00 0. -1.
         11    1    4    4    0    0 -0.19986167842E+01  0.46524967857E+01 -0.79026584404E+00  0.51249112926E+01  0.51100000000E-03 0. -1.
        -11    1    4    4    0    0 -0.66633080061E+00 -0.14157142633E+02 -0.20837880190E+02  0.25200911399E+02  0.51100000000E-03 0.  1.
         12    1    4    4    0    0  0.21730144990E+02 -0.97369092837E+01 -0.33129898747E+01  0.24041266722E+02  0.00000000000E+00 0. -1.
</event>
<event>
 8    1  0.1290800E-006  0.9118800E+02  0.7816164E-02  0.1184000E+00
        -11   -1    0    0    0    0  0.00000000000E+00  0.00000000000E+00  0.45593999997E+02  0.45594000000E+02  0.51100000000E-03 0.  1.
         11   -1    0    0    0    0 -0.00000000000E+00 -0.00000000000E+00 -0.45593999997E+02  0.45594000000E+02  0.51100000000E-03 0. -1.
         23    2    1    2    0    0  0.00000000000E+00 -0.55511151231E-16  0.00000000000E+00  0.91188000000E+02  0.91188000000E+02 0.  0.
    9900012    2    3    3    0    0  0.22233340255E+02  0.26432236592E+00 -0.29349410905E+02  0.54367092819E+02  0.40000019699E+02 0.  0.
        -12    1    3    3    0    0 -0.22233340255E+02 -0.26432236592E+00  0.29349410905E+02  0.36820907181E+02  0.00000000000E+00 0.  1.
         11    1    4    4    0    0 -0.90400572815E+00  0.47945606010E+01 -0.81642128633E+01  0.95110151746E+01  0.51100000000E-03 0. -1.
        -11    1    4    4    0    0 -0.45251667707E+01 -0.10519212469E+01  0.48454459089E+01  0.67128249590E+01  0.51100000000E-03 0.  1.
         12    1    4    4    0    0  0.27662512754E+02 -0.34783169882E+01 -0.26030643951E+02  0.38143252685E+02  0.00000000000E+00 0. -1.
</event>
<event>
 8    1  0.1290800E-006  0.9118800E+02  0.7816164E-02  0.1184000E+00
        -11   -1    0    0    0    0  0.00000000000E+00  0.00000000000E+00  0.45593999997E+02  0.45594000000E+02  0.51100000000E-03 0. -1.
         11   -1    0    0    0    0 -0.00000000000E+00 -0.00000000000E+00 -0.45593999997E+02  0.45594000000E+02  0.51100000000E-03 0.  1.
         23    2    1    2    0    0  0.35527136788E-14  0.88817841970E-15  0.35527136788E-14  0.91188000000E+02  0.91188000000E+02 0.  0.
    9900012    2    3    3    0    0  0.24052367313E+02 -0.62238600246E+01  0.27175844556E+02  0.54367091072E+02  0.40000015717E+02 0.  0.
        -12    1    3    3    0    0 -0.24052367313E+02  0.62238600246E+01 -0.27175844556E+02  0.36820908928E+02  0.00000000000E+00 0.  1.
         11    1    4    4    0    0  0.14795635438E+02 -0.18469114485E+02  0.19386701903E+02  0.30591881747E+02  0.51100000000E-03 0. -1.
        -11    1    4    4    0    0 -0.19448461098E+01  0.40905605501E+01 -0.36426984660E+01  0.58124318818E+01  0.51100000000E-03 0.  1.
         12    1    4    4    0    0  0.11201577985E+02  0.81546939100E+01  0.11431841119E+02  0.17962777444E+02  0.00000000000E+00 0. -1.
</event>
<event>
 8    1  0.1290800E-006  0.9118800E+02  0.7816164E-02  0.1184000E+00
        -11   -1    0    0    0    0  0.00000000000E+00  0.00000000000E+00  0.45593999997E+02  0.45594000000E+02  0.51100000000E-03 0. -1.
         11   -1    0    0    0    0 -0.00000000000E+00 -0.00000000000E+00 -0.45593999997E+02  0.45594000000E+02  0.51100000000E-03 0.  1.
         23    2    1    2    0    0  0.00000000000E+00 -0.17763568394E-14  0.00000000000E+00  0.91188000000E+02  0.91188000000E+02 0.  0.
    9900012    2    3    3    0    0  0.34287973173E+02 -0.20228174652E+01 -0.13267271717E+02  0.54367117425E+02  0.40000075794E+02 0.  0.
         12    1    3    3    0    0 -0.34287973173E+02  0.20228174652E+01  0.13267271717E+02  0.36820882575E+02  0.00000000000E+00 0. -1.
         11    1    4    4    0    0  0.13208722108E+02 -0.19091732043E+02 -0.58750894286E+01  0.23947468513E+02  0.51100000000E-03 0. -1.
        -11    1    4    4    0    0  0.15558072306E+02  0.17895236016E+02 -0.73879820067E+01  0.24836975749E+02  0.51100000000E-03 0.  1.
        -12    1    4    4    0    0  0.55211787587E+01 -0.82632143889E+00 -0.42002815350E-02  0.55826731633E+01  0.00000000000E+00 0.  1.
</event>
<event>
 8    1  0.1290800E-006  0.9118800E+02  0.7816164E-02  0.1184000E+00
        -11   -1    0    0    0    0  0.00000000000E+00  0.00000000000E+00  0.45593999997E+02  0.45594000000E+02  0.51100000000E-03 0.  1.
         11   -1    0    0    0    0 -0.00000000000E+00 -0.00000000000E+00 -0.45593999997E+02  0.45594000000E+02  0.51100000000E-03 0. -1.
         23    2    1    2    0    0  0.00000000000E+00  0.35527136788E-14  0.00000000000E+00  0.91188000000E+02  0.91188000000E+02 0.  0.
    9900012    2    3    3    0    0  0.72549065439E+01 -0.21243120539E+02  0.29186941333E+02  0.54367063244E+02  0.39999952278E+02 0.  0.
         12    1    3    3    0    0 -0.72549065439E+01  0.21243120539E+02 -0.29186941333E+02  0.36820936756E+02  0.00000000000E+00 0. -1.
         11    1    4    4    0    0  0.24309267921E+01  0.64511454979E+01  0.94893474909E+01  0.11729211370E+02  0.51100000000E-03 0. -1.
        -11    1    4    4    0    0 -0.60709940634E+01 -0.87684184842E+01 -0.30621646047E+01  0.11095899421E+02  0.51100000000E-03 0.  1.
        -12    1    4    4    0    0  0.10894973815E+02 -0.18925847553E+02  0.22759758447E+02  0.31541952453E+02  0.00000000000E+00 0.  1.
</event>
<event>
 8    1  0.1290800E-006  0.9118800E+02  0.7816164E-02  0.1184000E+00
        -11   -1    0    0    0    0  0.00000000000E+00  0.00000000000E+00  0.45593999997E+02  0.45594000000E+02  0.51100000000E-03 0. -1.
         11   -1    0    0    0    0 -0.00000000000E+00 -0.00000000000E+00 -0.45593999997E+02  0.45594000000E+02  0.51100000000E-03 0.  1.
         23    2    1    2    0    0  0.00000000000E+00  0.00000000000E+00  0.00000000000E+00  0.91188000000E+02  0.91188000000E+02 0.  0.
    9900012    2    3    3    0    0  0.85800499864E+01 -0.12075521579E+02 -0.33709678690E+02  0.54367110323E+02  0.40000059604E+02 0.  0.
         12    1    3    3    0    0 -0.85800499864E+01  0.12075521579E+02  0.33709678690E+02  0.36820889677E+02  0.00000000000E+00 0. -1.
         11    1    4    4    0    0  0.11996753761E+02  0.72380550226E+01 -0.85419148920E+01  0.16409626796E+02  0.51100000000E-03 0. -1.
        -11    1    4    4    0    0  0.42011653114E+01 -0.19348071379E+02 -0.22291658138E+02  0.29814688978E+02  0.51100000000E-03 0.  1.
        -12    1    4    4    0    0 -0.76178690857E+01  0.34494778221E-01 -0.28761056605E+01  0.81427945490E+01  0.00000000000E+00 0.  1.
</event>
<event>
 8    1  0.1290800E-006  0.9118800E+02  0.7816164E-02  0.1184000E+00
        -11   -1    0    0    0    0  0.00000000000E+00  0.00000000000E+00  0.45593999997E+02  0.45594000000E+02  0.51100000000E-03 0.  1.
         11   -1    0    0    0    0 -0.00000000000E+00 -0.00000000000E+00 -0.45593999997E+02  0.45594000000E+02  0.51100000000E-03 0. -1.
         23    2    1    2    0    0  0.35527136788E-14  0.88817841970E-15  0.71054273576E-14  0.91188000000E+02  0.91188000000E+02 0.  0.
    9900012    2    3    3    0    0  0.85388513445E+01  0.52139837010E+01  0.35435587944E+02  0.54367102384E+02  0.40000041504E+02 0.  0.
         12    1    3    3    0    0 -0.85388513445E+01 -0.52139837010E+01 -0.35435587944E+02  0.36820897616E+02  0.00000000000E+00 0. -1.
         11    1    4    4    0    0 -0.11462005639E+02 -0.16191498834E+01  0.28187780028E+00  0.11579234645E+02  0.51100000000E-03 0. -1.
        -11    1    4    4    0    0 -0.27573254759E-01 -0.64086929451E+00  0.89377044351E+01  0.89606938664E+01  0.51100000000E-03 0.  1.
        -12    1    4    4    0    0  0.20028430238E+02  0.74740028790E+01  0.26216005709E+02  0.33827173872E+02  0.00000000000E+00 0.  1.
</event>
<event>
 8    1  0.1290800E-006  0.9118800E+02  0.7816164E-02  0.1184000E+00
        -11   -1    0    0    0    0  0.00000000000E+00  0.00000000000E+00  0.45593999997E+02  0.45594000000E+02  0.51100000000E-03 0. -1.
         11   -1    0    0    0    0 -0.00000000000E+00 -0.00000000000E+00 -0.45593999997E+02  0.45594000000E+02  0.51100000000E-03 0.  1.
         23    2    1    2    0    0 -0.35527136788E-14  0.00000000000E+00  0.00000000000E+00  0.91188000000E+02  0.91188000000E+02 0.  0.
    9900012    2    3    3    0    0  0.16987919596E+02 -0.29852267829E+02 -0.13267774448E+02  0.54367066477E+02  0.39999959647E+02 0.  0.
         12    1    3    3    0    0 -0.16987919596E+02  0.29852267829E+02  0.13267774448E+02  0.36820933523E+02  0.00000000000E+00 0. -1.
         11    1    4    4    0    0 -0.16050501785E+00 -0.10077297418E+02 -0.64056400603E+01  0.11941939120E+02  0.51100000000E-03 0. -1.
        -11    1    4    4    0    0  0.39785805672E+01 -0.23928484059E+02 -0.12760835829E+02  0.27408764730E+02  0.51100000000E-03 0.  1.
        -12    1    4    4    0    0  0.13169844047E+02  0.41535136481E+01  0.58987014413E+01  0.15016362627E+02  0.00000000000E+00 0.  1.
</event>
<event>
 8    1  0.1290800E-006  0.9118800E+02  0.7816164E-02  0.1184000E+00
        -11   -1    0    0    0    0  0.00000000000E+00  0.00000000000E+00  0.45593999997E+02  0.45594000000E+02  0.51100000000E-03 0.  1.
         11   -1    0    0    0    0 -0.00000000000E+00 -0.00000000000E+00 -0.45593999997E+02  0.45594000000E+02  0.51100000000E-03 0. -1.
         23    2    1    2    0    0  0.00000000000E+00  0.17763568394E-14  0.00000000000E+00  0.91188000000E+02  0.91188000000E+02 0.  0.
    9900012    2    3    3    0    0  0.55295110862E+01 -0.10230533785E+02 -0.34936236301E+02  0.54367083102E+02  0.39999997547E+02 0.  0.
        -12    1    3    3    0    0 -0.55295110862E+01  0.10230533785E+02  0.34936236301E+02  0.36820916898E+02  0.00000000000E+00 0.  1.
         11    1    4    4    0    0  0.51621214225E+01 -0.13924746097E+02 -0.28937267583E+02  0.32525551600E+02  0.51100000000E-03 0. -1.
        -11    1    4    4    0    0  0.12360214416E+01  0.42315758219E+01 -0.13535912532E+02  0.14235691458E+02  0.51100000000E-03 0.  1.
         12    1    4    4    0    0 -0.86863177796E+00 -0.53736350943E+00  0.75369438146E+01  0.76058400437E+01  0.00000000000E+00 0. -1.
</event>
<event>
 8    1  0.1290800E-006  0.9118800E+02  0.7816164E-02  0.1184000E+00
        -11   -1    0    0    0    0  0.00000000000E+00  0.00000000000E+00  0.45593999997E+02  0.45594000000E+02  0.51100000000E-03 0.  1.
         11   -1    0    0    0    0 -0.00000000000E+00 -0.00000000000E+00 -0.45593999997E+02  0.45594000000E+02  0.51100000000E-03 0. -1.
         23    2    1    2    0    0  0.00000000000E+00  0.00000000000E+00  0.00000000000E+00  0.91188000000E+02  0.91188000000E+02 0.  0.
    9900012    2    3    3    0    0  0.24074847487E+01 -0.35836017923E+02  0.81096267121E+01  0.54367052038E+02  0.39999926731E+02 0.  0.
        -12    1    3    3    0    0 -0.24074847487E+01  0.35836017923E+02 -0.81096267121E+01  0.36820947962E+02  0.00000000000E+00 0.  1.
         11    1    4    4    0    0  0.25481194223E+01 -0.30612489963E+02  0.49030483075E+01  0.31107191086E+02  0.51100000000E-03 0. -1.
        -11    1    4    4    0    0 -0.34834955031E+01 -0.22147807487E+01 -0.91889886221E+01  0.10073604461E+02  0.51100000000E-03 0.  1.
        -12    1    4    4    0    0  0.33428608295E+01 -0.30087472118E+01  0.12395567027E+02  0.13186256490E+02  0.00000000000E+00 0.  1.
</event>
<event>
 8    1  0.1290800E-006  0.9118800E+02  0.7816164E-02  0.1184000E+00
        -11   -1    0    0    0    0  0.00000000000E+00  0.00000000000E+00  0.45593999997E+02  0.45594000000E+02  0.51100000000E-03 0.  1.
         11   -1    0    0    0    0 -0.00000000000E+00 -0.00000000000E+00 -0.45593999997E+02  0.45594000000E+02  0.51100000000E-03 0. -1.
         23    2    1    2    0    0 -0.35527136788E-14 -0.35527136788E-14  0.00000000000E+00  0.91188000000E+02  0.91188000000E+02 0.  0.
    9900012    2    3    3    0    0  0.24530749177E+02  0.26152948723E+02  0.83692813630E+01  0.54367092181E+02  0.40000018244E+02 0.  0.
         12    1    3    3    0    0 -0.24530749177E+02 -0.26152948723E+02 -0.83692813630E+01  0.36820907819E+02  0.00000000000E+00 0. -1.
         11    1    4    4    0    0  0.70186181671E+01 -0.61384329214E+00 -0.73009119095E+01  0.10145990318E+02  0.51100000000E-03 0. -1.
        -11    1    4    4    0    0  0.35836134024E+01 -0.48934158675E+01  0.54499882089E+01  0.81541508207E+01  0.51100000000E-03 0.  1.
         12    1    4    4    0    0  0.13928517608E+02  0.31660207883E+02  0.10220205064E+02  0.36066951042E+02  0.00000000000E+00 0. -1.
</event>
<event>
 8    1  0.1290800E-006  0.9118800E+02  0.7816164E-02  0.1184000E+00
        -11   -1    0    0    0    0  0.00000000000E+00  0.00000000000E+00  0.45593999997E+02  0.45594000000E+02  0.51100000000E-03 0.  1.
         11   -1    0    0    0    0 -0.00000000000E+00 -0.00000000000E+00 -0.45593999997E+02  0.45594000000E+02  0.51100000000E-03 0. -1.
         23    2    1    2    0    0  0.00000000000E+00 -0.35527136788E-14 -0.15543122345E-14  0.91188000000E+02  0.91188000000E+02 0.  0.
    9900012    2    3    3    0    0  0.20336954581E+02 -0.30693831525E+02  0.27629385684E+00  0.54367090810E+02  0.40000015120E+02 0.  0.
         12    1    3    3    0    0 -0.20336954581E+02  0.30693831525E+02 -0.27629385684E+00  0.36820909190E+02  0.00000000000E+00 0. -1.
         11    1    4    4    0    0 -0.31443157382E+01 -0.56896697607E+01  0.15188970647E+02  0.16521618959E+02  0.51100000000E-03 0. -1.
        -11    1    4    4    0    0  0.77657944357E+01 -0.10498972310E+02 -0.82443347442E+01  0.15443608336E+02  0.51100000000E-03 0.  1.
         12    1    4    4    0    0  0.15715475883E+02 -0.14505189454E+02 -0.66683420463E+01  0.22401863515E+02  0.00000000000E+00 0. -1.
</event>
<event>
 8    1  0.1290800E-006  0.9118800E+02  0.7816164E-02  0.1184000E+00
        -11   -1    0    0    0    0  0.00000000000E+00  0.00000000000E+00  0.45593999997E+02  0.45594000000E+02  0.51100000000E-03 0. -1.
         11   -1    0    0    0    0 -0.00000000000E+00 -0.00000000000E+00 -0.45593999997E+02  0.45594000000E+02  0.51100000000E-03 0.  1.
         23    2    1    2    0    0 -0.71054273576E-14 -0.35527136788E-14 -0.35527136788E-14  0.91188000000E+02  0.91188000000E+02 0.  0.
    9900012    2    3    3    0    0 -0.24933839777E+02 -0.15494417900E+02 -0.22226247979E+02  0.54367089483E+02  0.40000012095E+02 0.  0.
         12    1    3    3    0    0  0.24933839777E+02  0.15494417900E+02  0.22226247979E+02  0.36820910517E+02  0.00000000000E+00 0. -1.
         11    1    4    4    0    0  0.19120620071E+01 -0.72511113150E+01 -0.43108478383E+01  0.86497402139E+01  0.51100000000E-03 0. -1.
        -11    1    4    4    0    0 -0.21344148727E+01  0.97161753272E+01 -0.10118798970E+02  0.14189780925E+02  0.51100000000E-03 0.  1.
        -12    1    4    4    0    0 -0.24711486911E+02 -0.17959481912E+02 -0.77966011707E+01  0.31527568345E+02  0.00000000000E+00 0.  1.
</event>
<event>
 8    1  0.1290800E-006  0.9118800E+02  0.7816164E-02  0.1184000E+00
        -11   -1    0    0    0    0  0.00000000000E+00  0.00000000000E+00  0.45593999997E+02  0.45594000000E+02  0.51100000000E-03 0. -1.
         11   -1    0    0    0    0 -0.00000000000E+00 -0.00000000000E+00 -0.45593999997E+02  0.45594000000E+02  0.51100000000E-03 0.  1.
         23    2    1    2    0    0  0.71054273576E-14  0.17763568394E-14  0.35527136788E-14  0.91188000000E+02  0.91188000000E+02 0.  0.
    9900012    2    3    3    0    0  0.17187683267E+02  0.13826991463E+02  0.29481824924E+02  0.54367079997E+02  0.39999990469E+02 0.  0.
        -12    1    3    3    0    0 -0.17187683267E+02 -0.13826991463E+02 -0.29481824924E+02  0.36820920003E+02  0.00000000000E+00 0.  1.
         11    1    4    4    0    0  0.63269279297E+01  0.33574439273E+01  0.39507553725E+01  0.81799092309E+01  0.51100000000E-03 0. -1.
        -11    1    4    4    0    0 -0.69611050968E+01  0.14502104545E+02  0.22509424597E+02  0.27666626400E+02  0.51100000000E-03 0.  1.
        -12    1    4    4    0    0  0.17821860434E+02 -0.40325570089E+01  0.30216449542E+01  0.18520544366E+02  0.00000000000E+00 0.  1.
</event>
<event>
 8    1  0.1290800E-006  0.9118800E+02  0.7816164E-02  0.1184000E+00
        -11   -1    0    0    0    0  0.00000000000E+00  0.00000000000E+00  0.45593999997E+02  0.45594000000E+02  0.51100000000E-03 0. -1.
         11   -1    0    0    0    0 -0.00000000000E+00 -0.00000000000E+00 -0.45593999997E+02  0.45594000000E+02  0.51100000000E-03 0.  1.
         23    2    1    2    0    0  0.17763568394E-14  0.88817841970E-15  0.00000000000E+00  0.91188000000E+02  0.91188000000E+02 0.  0.
    9900012    2    3    3    0    0  0.35087148717E+01  0.75758801358E+01  0.35861878073E+02  0.54367091010E+02  0.40000015577E+02 0.  0.
        -12    1    3    3    0    0 -0.35087148717E+01 -0.75758801358E+01 -0.35861878073E+02  0.36820908990E+02  0.00000000000E+00 0.  1.
         11    1    4    4    0    0 -0.66159571494E+01 -0.98201874408E+00  0.60049817522E+01  0.89886070068E+01  0.51100000000E-03 0. -1.
        -11    1    4    4    0    0 -0.74685811911E+01  0.92348126434E+01  0.14598458394E+01  0.11966311867E+02  0.51100000000E-03 0.  1.
        -12    1    4    4    0    0  0.17593253212E+02 -0.67691376358E+00  0.28397050482E+02  0.33412172137E+02  0.00000000000E+00 0.  1.
</event>
<event>
 8    1  0.1290800E-006  0.9118800E+02  0.7816164E-02  0.1184000E+00
        -11   -1    0    0    0    0  0.00000000000E+00  0.00000000000E+00  0.45593999997E+02  0.45594000000E+02  0.51100000000E-03 0. -1.
         11   -1    0    0    0    0 -0.00000000000E+00 -0.00000000000E+00 -0.45593999997E+02  0.45594000000E+02  0.51100000000E-03 0.  1.
         23    2    1    2    0    0  0.00000000000E+00  0.00000000000E+00  0.71054273576E-14  0.91188000000E+02  0.91188000000E+02 0.  0.
    9900012    2    3    3    0    0 -0.22561696769E+01 -0.21274980226E+02  0.29967715465E+02  0.54367094859E+02  0.40000024351E+02 0.  0.
        -12    1    3    3    0    0  0.22561696769E+01  0.21274980226E+02 -0.29967715465E+02  0.36820905141E+02  0.00000000000E+00 0.  1.
         11    1    4    4    0    0 -0.92553759076E+00 -0.38734431053E+01 -0.56026345001E+01  0.68738413514E+01  0.51100000000E-03 0. -1.
        -11    1    4    4    0    0 -0.23224188411E+01 -0.15162721977E+02  0.40328299750E+01  0.15860816022E+02  0.51100000000E-03 0.  1.
         12    1    4    4    0    0  0.99178675502E+00 -0.22388151436E+01  0.31537519990E+02  0.31632437486E+02  0.00000000000E+00 0. -1.
</event>
<event>
 8    1  0.1290800E-006  0.9118800E+02  0.7816164E-02  0.1184000E+00
        -11   -1    0    0    0    0  0.00000000000E+00  0.00000000000E+00  0.45593999997E+02  0.45594000000E+02  0.51100000000E-03 0. -1.
         11   -1    0    0    0    0 -0.00000000000E+00 -0.00000000000E+00 -0.45593999997E+02  0.45594000000E+02  0.51100000000E-03 0.  1.
         23    2    1    2    0    0  0.00000000000E+00  0.00000000000E+00  0.35527136788E-14  0.91188000000E+02  0.91188000000E+02 0.  0.
    9900012    2    3    3    0    0 -0.39554714723E+01  0.35143388809E+02 -0.10250675293E+02  0.54367083723E+02  0.39999998962E+02 0.  0.
         12    1    3    3    0    0  0.39554714723E+01 -0.35143388809E+02  0.10250675293E+02  0.36820916277E+02  0.00000000000E+00 0. -1.
         11    1    4    4    0    0 -0.56877033288E+01  0.12625923641E+02  0.78377142481E+01  0.15912060892E+02  0.51100000000E-03 0. -1.
        -11    1    4    4    0    0 -0.88653132798E+01  0.29448387000E+01  0.64403988969E+00  0.93637942181E+01  0.51100000000E-03 0.  1.
        -12    1    4    4    0    0  0.10597545136E+02  0.19572626468E+02 -0.18732429431E+02  0.29091228612E+02  0.00000000000E+00 0.  1.
</event>
<event>
 8    1  0.1290800E-006  0.9118800E+02  0.7816164E-02  0.1184000E+00
        -11   -1    0    0    0    0  0.00000000000E+00  0.00000000000E+00  0.45593999997E+02  0.45594000000E+02  0.51100000000E-03 0.  1.
         11   -1    0    0    0    0 -0.00000000000E+00 -0.00000000000E+00 -0.45593999997E+02  0.45594000000E+02  0.51100000000E-03 0. -1.
         23    2    1    2    0    0 -0.17763568394E-14  0.00000000000E+00  0.44408920985E-15  0.91188000000E+02  0.91188000000E+02 0.  0.
    9900012    2    3    3    0    0  0.10031140464E+02 -0.35344603804E+02  0.24324795350E+01  0.54367058218E+02  0.39999940819E+02 0.  0.
        -12    1    3    3    0    0 -0.10031140464E+02  0.35344603804E+02 -0.24324795350E+01  0.36820941782E+02  0.00000000000E+00 0.  1.
         11    1    4    4    0    0 -0.97107427848E+01 -0.29905592289E+01  0.15148364160E+01  0.10273105644E+02  0.51100000000E-03 0. -1.
        -11    1    4    4    0    0  0.15677516259E+02 -0.15311968035E+02  0.10306212419E+02  0.24216913425E+02  0.51100000000E-03 0.  1.
        -12    1    4    4    0    0  0.40643669903E+01 -0.17042076540E+02 -0.93885693002E+01  0.19877039149E+02  0.00000000000E+00 0.  1.
</event>
<event>
 8    1  0.1290800E-006  0.9118800E+02  0.7816164E-02  0.1184000E+00
        -11   -1    0    0    0    0  0.00000000000E+00  0.00000000000E+00  0.45593999997E+02  0.45594000000E+02  0.51100000000E-03 0.  1.
         11   -1    0    0    0    0 -0.00000000000E+00 -0.00000000000E+00 -0.45593999997E+02  0.45594000000E+02  0.51100000000E-03 0. -1.
         23    2    1    2    0    0 -0.88817841970E-15  0.71054273576E-14 -0.35527136788E-14  0.91188000000E+02  0.91188000000E+02 0.  0.
    9900012    2    3    3    0    0 -0.73247635297E+01  0.32841152497E+02 -0.14952785572E+02  0.54367092156E+02  0.40000018189E+02 0.  0.
        -12    1    3    3    0    0  0.73247635297E+01 -0.32841152497E+02  0.14952785572E+02  0.36820907844E+02  0.00000000000E+00 0.  1.
         11    1    4    4    0    0 -0.16204212952E+02  0.14457602124E+02 -0.15641047233E+02  0.26762681767E+02  0.51100000000E-03 0. -1.
        -11    1    4    4    0    0  0.59412738156E+01  0.26909220672E+01  0.77651806090E+01  0.10140898692E+02  0.51100000000E-03 0.  1.
        -12    1    4    4    0    0  0.29381756064E+01  0.15692628305E+02 -0.70769189473E+01  0.17463511697E+02  0.00000000000E+00 0.  1.
</event>
<event>
 8    1  0.1290800E-006  0.9118800E+02  0.7816164E-02  0.1184000E+00
        -11   -1    0    0    0    0  0.00000000000E+00  0.00000000000E+00  0.45593999997E+02  0.45594000000E+02  0.51100000000E-03 0.  1.
         11   -1    0    0    0    0 -0.00000000000E+00 -0.00000000000E+00 -0.45593999997E+02  0.45594000000E+02  0.51100000000E-03 0. -1.
         23    2    1    2    0    0  0.17763568394E-14  0.00000000000E+00  0.00000000000E+00  0.91188000000E+02  0.91188000000E+02 0.  0.
    9900012    2    3    3    0    0 -0.12422226454E+02  0.89243796117E+01  0.33493669567E+02  0.54367052665E+02  0.39999928161E+02 0.  0.
         12    1    3    3    0    0  0.12422226454E+02 -0.89243796117E+01 -0.33493669567E+02  0.36820947335E+02  0.00000000000E+00 0. -1.
         11    1    4    4    0    0 -0.67125035890E+01  0.54644253426E+01  0.35149976094E+01  0.93419942845E+01  0.51100000000E-03 0. -1.
        -11    1    4    4    0    0 -0.85167297534E+01 -0.10618222138E+02  0.22440753007E+01  0.13795550054E+02  0.51100000000E-03 0.  1.
        -12    1    4    4    0    0  0.28070068881E+01  0.14078176407E+02  0.27734596657E+02  0.31229508327E+02  0.00000000000E+00 0.  1.
</event>
<event>
 8    1  0.1290800E-006  0.9118800E+02  0.7816164E-02  0.1184000E+00
        -11   -1    0    0    0    0  0.00000000000E+00  0.00000000000E+00  0.45593999997E+02  0.45594000000E+02  0.51100000000E-03 0.  1.
         11   -1    0    0    0    0 -0.00000000000E+00 -0.00000000000E+00 -0.45593999997E+02  0.45594000000E+02  0.51100000000E-03 0. -1.
         23    2    1    2    0    0  0.00000000000E+00  0.17763568394E-14 -0.35527136788E-14  0.91188000000E+02  0.91188000000E+02 0.  0.
    9900012    2    3    3    0    0  0.27232990322E+02  0.11148877542E+02 -0.22132486612E+02  0.54367079371E+02  0.39999989042E+02 0.  0.
        -12    1    3    3    0    0 -0.27232990322E+02 -0.11148877542E+02  0.22132486612E+02  0.36820920629E+02  0.00000000000E+00 0.  1.
         11    1    4    4    0    0 -0.67739869770E+01  0.32108118165E+01 -0.26920817167E+01  0.79651438352E+01  0.51100000000E-03 0.  1.
        -11    1    4    4    0    0  0.10211234174E+02  0.60215440985E+01 -0.19156135362E+02  0.22527445904E+02  0.51100000000E-03 0. -1.
         12    1    4    4    0    0  0.23795743125E+02  0.19165216273E+01 -0.28426953357E+00  0.23874489632E+02  0.00000000000E+00 0. -1.
</event>
<event>
 8    1  0.1290800E-006  0.9118800E+02  0.7816164E-02  0.1184000E+00
        -11   -1    0    0    0    0  0.00000000000E+00  0.00000000000E+00  0.45593999997E+02  0.45594000000E+02  0.51100000000E-03 0.  1.
         11   -1    0    0    0    0 -0.00000000000E+00 -0.00000000000E+00 -0.45593999997E+02  0.45594000000E+02  0.51100000000E-03 0. -1.
         23    2    1    2    0    0  0.00000000000E+00  0.00000000000E+00  0.00000000000E+00  0.91188000000E+02  0.91188000000E+02 0.  0.
    9900012    2    3    3    0    0  0.78405209521E+01  0.18080395349E+02  0.31103122110E+02  0.54367100095E+02  0.40000036287E+02 0.  0.
         12    1    3    3    0    0 -0.78405209521E+01 -0.18080395349E+02 -0.31103122110E+02  0.36820899905E+02  0.00000000000E+00 0. -1.
         11    1    4    4    0    0 -0.91825262330E+01  0.85655865125E+01  0.23855307536E+02  0.26958556309E+02  0.51100000000E-03 0.  1.
        -11    1    4    4    0    0  0.15583037383E+02  0.14143035899E+02  0.36177841181E+01  0.21352865866E+02  0.51100000000E-03 0. -1.
         12    1    4    4    0    0  0.14400098019E+01 -0.46282270617E+01  0.36300304560E+01  0.60556779204E+01  0.00000000000E+00 0. -1.
</event>
<event>
 8    1  0.1290800E-006  0.9118800E+02  0.7816164E-02  0.1184000E+00
        -11   -1    0    0    0    0  0.00000000000E+00  0.00000000000E+00  0.45593999997E+02  0.45594000000E+02  0.51100000000E-03 0. -1.
         11   -1    0    0    0    0 -0.00000000000E+00 -0.00000000000E+00 -0.45593999997E+02  0.45594000000E+02  0.51100000000E-03 0.  1.
         23    2    1    2    0    0  0.00000000000E+00  0.00000000000E+00  0.17763568394E-14  0.91188000000E+02  0.91188000000E+02 0.  0.
    9900012    2    3    3    0    0 -0.32785053053E+02  0.14583869035E+02 -0.82601728973E+01  0.54367090234E+02  0.40000013807E+02 0.  0.
         12    1    3    3    0    0  0.32785053053E+02 -0.14583869035E+02  0.82601728973E+01  0.36820909766E+02  0.00000000000E+00 0. -1.
         11    1    4    4    0    0 -0.14136294780E+02 -0.31755327329E+01 -0.48294428570E+01  0.15272274121E+02  0.51100000000E-03 0. -1.
        -11    1    4    4    0    0 -0.18405825684E+02 -0.11282272053E+01  0.38730907333E+01  0.18842721348E+02  0.51100000000E-03 0.  1.
        -12    1    4    4    0    0 -0.24293258871E+00  0.18887628973E+02 -0.73038207736E+01  0.20252094765E+02  0.00000000000E+00 0.  1.
</event>
<event>
 8    1  0.1290800E-006  0.9118800E+02  0.7816164E-02  0.1184000E+00
        -11   -1    0    0    0    0  0.00000000000E+00  0.00000000000E+00  0.45593999997E+02  0.45594000000E+02  0.51100000000E-03 0.  1.
         11   -1    0    0    0    0 -0.00000000000E+00 -0.00000000000E+00 -0.45593999997E+02  0.45594000000E+02  0.51100000000E-03 0. -1.
         23    2    1    2    0    0  0.17763568394E-14  0.00000000000E+00  0.00000000000E+00  0.91188000000E+02  0.91188000000E+02 0.  0.
    9900012    2    3    3    0    0 -0.15915793204E+02 -0.27095996716E+02 -0.19190453076E+02  0.54367095603E+02  0.40000026046E+02 0.  0.
        -12    1    3    3    0    0  0.15915793204E+02  0.27095996716E+02  0.19190453076E+02  0.36820904397E+02  0.00000000000E+00 0.  1.
         11    1    4    4    0    0 -0.96631920752E+00 -0.93063590075E+01  0.12811328297E+01  0.94436959066E+01  0.51100000000E-03 0. -1.
        -11    1    4    4    0    0 -0.19759595738E+02 -0.20939360649E+02 -0.60797052058E+01  0.29425520621E+02  0.51100000000E-03 0.  1.
        -12    1    4    4    0    0  0.48101217413E+01  0.31497229407E+01 -0.14391880700E+02  0.15497879076E+02  0.00000000000E+00 0.  1.
</event>
<event>
 8    1  0.1290800E-006  0.9118800E+02  0.7816164E-02  0.1184000E+00
        -11   -1    0    0    0    0  0.00000000000E+00  0.00000000000E+00  0.45593999997E+02  0.45594000000E+02  0.51100000000E-03 0.  1.
         11   -1    0    0    0    0 -0.00000000000E+00 -0.00000000000E+00 -0.45593999997E+02  0.45594000000E+02  0.51100000000E-03 0. -1.
         23    2    1    2    0    0 -0.17763568394E-14  0.00000000000E+00  0.00000000000E+00  0.91188000000E+02  0.91188000000E+02 0.  0.
    9900012    2    3    3    0    0  0.92236526271E+01  0.22634560503E+02 -0.27538698558E+02  0.54367095404E+02  0.40000025593E+02 0.  0.
        -12    1    3    3    0    0 -0.92236526271E+01 -0.22634560503E+02  0.27538698558E+02  0.36820904596E+02  0.00000000000E+00 0.  1.
         11    1    4    4    0    0  0.35211485710E+01  0.48305267877E+01 -0.14993556904E+01  0.61628357153E+01  0.51100000000E-03 0. -1.
        -11    1    4    4    0    0  0.20877169903E+02  0.11114915762E+02 -0.18294766178E+02  0.29901438850E+02  0.51100000000E-03 0.  1.
         12    1    4    4    0    0 -0.15174665847E+02  0.66891179531E+01 -0.77445766896E+01  0.18302820839E+02  0.00000000000E+00 0. -1.
</event>
<event>
 8    1  0.1290800E-006  0.9118800E+02  0.7816164E-02  0.1184000E+00
        -11   -1    0    0    0    0  0.00000000000E+00  0.00000000000E+00  0.45593999997E+02  0.45594000000E+02  0.51100000000E-03 0.  1.
         11   -1    0    0    0    0 -0.00000000000E+00 -0.00000000000E+00 -0.45593999997E+02  0.45594000000E+02  0.51100000000E-03 0. -1.
         23    2    1    2    0    0  0.17763568394E-14  0.00000000000E+00  0.71054273576E-14  0.91188000000E+02  0.91188000000E+02 0.  0.
    9900012    2    3    3    0    0  0.99666161230E+01 -0.14173786607E+02 -0.32489213386E+02  0.54367100362E+02  0.40000036895E+02 0.  0.
        -12    1    3    3    0    0 -0.99666161230E+01  0.14173786607E+02  0.32489213386E+02  0.36820899638E+02  0.00000000000E+00 0.  1.
         11    1    4    4    0    0  0.59813509257E+01 -0.10834920578E+00 -0.98577664962E+01  0.11530995577E+02  0.51100000000E-03 0. -1.
        -11    1    4    4    0    0 -0.11156441747E+02 -0.35649715723E+01  0.21976808602E+01  0.11916585761E+02  0.51100000000E-03 0.  1.
        -12    1    4    4    0    0  0.15141706945E+02 -0.10500465829E+02 -0.24829127750E+02  0.30919519024E+02  0.00000000000E+00 0.  1.
</event>
<event>
 8    1  0.1290800E-006  0.9118800E+02  0.7816164E-02  0.1184000E+00
        -11   -1    0    0    0    0  0.00000000000E+00  0.00000000000E+00  0.45593999997E+02  0.45594000000E+02  0.51100000000E-03 0.  1.
         11   -1    0    0    0    0 -0.00000000000E+00 -0.00000000000E+00 -0.45593999997E+02  0.45594000000E+02  0.51100000000E-03 0. -1.
         23    2    1    2    0    0  0.00000000000E+00 -0.35527136788E-14  0.00000000000E+00  0.91188000000E+02  0.91188000000E+02 0.  0.
    9900012    2    3    3    0    0  0.24894188907E+02 -0.24405111463E+02  0.11851100033E+02  0.54367099972E+02  0.40000036007E+02 0.  0.
         12    1    3    3    0    0 -0.24894188907E+02  0.24405111463E+02 -0.11851100033E+02  0.36820900028E+02  0.00000000000E+00 0. -1.
         11    1    4    4    0    0  0.44556686742E+01 -0.49226133134E+01 -0.89471691699E+01  0.11141675888E+02  0.51100000000E-03 0. -1.
        -11    1    4    4    0    0 -0.27351711803E+01 -0.89424796977E+01 -0.13912298867E+01  0.94543442601E+01  0.51100000000E-03 0.  1.
         12    1    4    4    0    0  0.23173691413E+02 -0.10540018452E+02  0.22189499089E+02  0.33771079825E+02  0.00000000000E+00 0. -1.
</event>
<event>
 8    1  0.1290800E-006  0.9118800E+02  0.7816164E-02  0.1184000E+00
        -11   -1    0    0    0    0  0.00000000000E+00  0.00000000000E+00  0.45593999997E+02  0.45594000000E+02  0.51100000000E-03 0.  1.
         11   -1    0    0    0    0 -0.00000000000E+00 -0.00000000000E+00 -0.45593999997E+02  0.45594000000E+02  0.51100000000E-03 0. -1.
         23    2    1    2    0    0  0.00000000000E+00  0.00000000000E+00 -0.71054273576E-14  0.91188000000E+02  0.91188000000E+02 0.  0.
    9900012    2    3    3    0    0 -0.13852714680E+01  0.24396754617E+01  0.36713823494E+02  0.54367138672E+02  0.40000124231E+02 0.  0.
         12    1    3    3    0    0  0.13852714680E+01 -0.24396754617E+01 -0.36713823494E+02  0.36820861328E+02  0.00000000000E+00 0. -1.
         11    1    4    4    0    0 -0.30721334375E+00  0.26555353614E+00  0.13447632396E+01  0.14047373957E+01  0.51100000000E-03 0.  1.
        -11    1    4    4    0    0  0.35008917515E+01  0.57194952449E+01  0.42923227379E+02  0.43443898511E+02  0.51100000000E-03 0. -1.
         12    1    4    4    0    0 -0.45789498757E+01 -0.35453733193E+01 -0.75541671254E+01  0.95185027655E+01  0.00000000000E+00 0. -1.
</event>
<event>
 8    1  0.1290800E-006  0.9118800E+02  0.7816164E-02  0.1184000E+00
        -11   -1    0    0    0    0  0.00000000000E+00  0.00000000000E+00  0.45593999997E+02  0.45594000000E+02  0.51100000000E-03 0.  1.
         11   -1    0    0    0    0 -0.00000000000E+00 -0.00000000000E+00 -0.45593999997E+02  0.45594000000E+02  0.51100000000E-03 0. -1.
         23    2    1    2    0    0  0.00000000000E+00 -0.17763568394E-14  0.35527136788E-14  0.91188000000E+02  0.91188000000E+02 0.  0.
    9900012    2    3    3    0    0 -0.16550292891E+02  0.89510649369E+01 -0.31650374332E+02  0.54367082662E+02  0.39999996544E+02 0.  0.
        -12    1    3    3    0    0  0.16550292891E+02 -0.89510649369E+01  0.31650374332E+02  0.36820917338E+02  0.00000000000E+00 0.  1.
         11    1    4    4    0    0 -0.79808340889E+01  0.22203790360E+02 -0.29302251973E+02  0.37620791992E+02  0.51100000000E-03 0. -1.
        -11    1    4    4    0    0 -0.24947376336E+01 -0.98937901448E+00  0.59267480212E+00  0.27484268913E+01  0.51100000000E-03 0.  1.
         12    1    4    4    0    0 -0.60747211688E+01 -0.12263346409E+02 -0.29407971606E+01  0.13997863779E+02  0.00000000000E+00 0. -1.
</event>
<event>
 8    1  0.1290800E-006  0.9118800E+02  0.7816164E-02  0.1184000E+00
        -11   -1    0    0    0    0  0.00000000000E+00  0.00000000000E+00  0.45593999997E+02  0.45594000000E+02  0.51100000000E-03 0.  1.
         11   -1    0    0    0    0 -0.00000000000E+00 -0.00000000000E+00 -0.45593999997E+02  0.45594000000E+02  0.51100000000E-03 0. -1.
         23    2    1    2    0    0  0.17763568394E-14  0.00000000000E+00  0.00000000000E+00  0.91188000000E+02  0.91188000000E+02 0.  0.
    9900012    2    3    3    0    0 -0.11506467544E+02 -0.34631202099E+02 -0.49051636940E+01  0.54367087667E+02  0.40000007954E+02 0.  0.
        -12    1    3    3    0    0  0.11506467544E+02  0.34631202099E+02  0.49051636940E+01  0.36820912333E+02  0.00000000000E+00 0.  1.
         11    1    4    4    0    0 -0.15734505946E+01  0.12831396547E+01  0.55537652737E+01  0.59132481027E+01  0.51100000000E-03 0.  1.
        -11    1    4    4    0    0  0.45673079071E+01 -0.40864012956E+01 -0.11968029223E+02  0.13445917627E+02  0.51100000000E-03 0. -1.
        -12    1    4    4    0    0 -0.14500324857E+02 -0.31827940459E+02  0.15091002557E+01  0.35007921937E+02  0.00000000000E+00 0.  1.
</event>
<event>
 8    1  0.1290800E-006  0.9118800E+02  0.7816164E-02  0.1184000E+00
        -11   -1    0    0    0    0  0.00000000000E+00  0.00000000000E+00  0.45593999997E+02  0.45594000000E+02  0.51100000000E-03 0. -1.
         11   -1    0    0    0    0 -0.00000000000E+00 -0.00000000000E+00 -0.45593999997E+02  0.45594000000E+02  0.51100000000E-03 0.  1.
         23    2    1    2    0    0  0.71054273576E-14 -0.17763568394E-14  0.00000000000E+00  0.91188000000E+02  0.91188000000E+02 0.  0.
    9900012    2    3    3    0    0  0.33408256552E+02  0.58145794485E+01  0.14347759940E+02  0.54367093503E+02  0.40000021258E+02 0.  0.
        -12    1    3    3    0    0 -0.33408256552E+02 -0.58145794485E+01 -0.14347759940E+02  0.36820906497E+02  0.00000000000E+00 0.  1.
         11    1    4    4    0    0  0.94563114617E+01 -0.15850668800E+02  0.98468053731E+01  0.20919491011E+02  0.51100000000E-03 0. -1.
        -11    1    4    4    0    0  0.11229781602E+02  0.59742498261E+01 -0.14001916668E+00  0.12720819999E+02  0.51100000000E-03 0.  1.
         12    1    4    4    0    0  0.12722163488E+02  0.15690998422E+02  0.46409737337E+01  0.20726782492E+02  0.00000000000E+00 0. -1.
</event>
<event>
 8    1  0.1290800E-006  0.9118800E+02  0.7816164E-02  0.1184000E+00
        -11   -1    0    0    0    0  0.00000000000E+00  0.00000000000E+00  0.45593999997E+02  0.45594000000E+02  0.51100000000E-03 0.  1.
         11   -1    0    0    0    0 -0.00000000000E+00 -0.00000000000E+00 -0.45593999997E+02  0.45594000000E+02  0.51100000000E-03 0. -1.
         23    2    1    2    0    0 -0.35527136788E-14  0.00000000000E+00  0.00000000000E+00  0.91188000000E+02  0.91188000000E+02 0.  0.
    9900012    2    3    3    0    0  0.30360705298E+02  0.91675037545E+01 -0.18707288525E+02  0.54367106539E+02  0.40000050978E+02 0.  0.
        -12    1    3    3    0    0 -0.30360705298E+02 -0.91675037545E+01  0.18707288525E+02  0.36820893461E+02  0.00000000000E+00 0.  1.
         11    1    4    4    0    0  0.27795954723E+02  0.11090789310E+02 -0.12878748375E+02  0.32580406174E+02  0.51100000000E-03 0. -1.
        -11    1    4    4    0    0  0.70119718436E+01  0.40601654697E+01  0.43292604595E+01  0.91866854285E+01  0.51100000000E-03 0.  1.
         12    1    4    4    0    0 -0.44472212687E+01 -0.59834510253E+01 -0.10157800610E+02  0.12600014937E+02  0.00000000000E+00 0. -1.
</event>
<event>
 8    1  0.1290800E-006  0.9118800E+02  0.7816164E-02  0.1184000E+00
        -11   -1    0    0    0    0  0.00000000000E+00  0.00000000000E+00  0.45593999997E+02  0.45594000000E+02  0.51100000000E-03 0.  1.
         11   -1    0    0    0    0 -0.00000000000E+00 -0.00000000000E+00 -0.45593999997E+02  0.45594000000E+02  0.51100000000E-03 0. -1.
         23    2    1    2    0    0  0.88817841970E-15  0.35527136788E-14  0.35527136788E-14  0.91188000000E+02  0.91188000000E+02 0.  0.
    9900012    2    3    3    0    0 -0.43219935959E+01  0.21612455120E+02  0.29495787685E+02  0.54367091047E+02  0.40000015661E+02 0.  0.
         12    1    3    3    0    0  0.43219935959E+01 -0.21612455120E+02 -0.29495787685E+02  0.36820908953E+02  0.00000000000E+00 0. -1.
         11    1    4    4    0    0  0.82748149275E+01  0.31686981743E+00  0.89479723804E+01  0.12191766835E+02  0.51100000000E-03 0. -1.
        -11    1    4    4    0    0  0.30019903544E+01 -0.50532514031E+01  0.13369371067E+01  0.60278268820E+01  0.51100000000E-03 0.  1.
        -12    1    4    4    0    0 -0.15598798878E+02  0.26348836705E+02  0.19210878198E+02  0.36147497331E+02  0.00000000000E+00 0.  1.
</event>
<event>
 8    1  0.1290800E-006  0.9118800E+02  0.7816164E-02  0.1184000E+00
        -11   -1    0    0    0    0  0.00000000000E+00  0.00000000000E+00  0.45593999997E+02  0.45594000000E+02  0.51100000000E-03 0. -1.
         11   -1    0    0    0    0 -0.00000000000E+00 -0.00000000000E+00 -0.45593999997E+02  0.45594000000E+02  0.51100000000E-03 0.  1.
         23    2    1    2    0    0 -0.35527136788E-14 -0.35527136788E-14 -0.22204460493E-15  0.91188000000E+02  0.91188000000E+02 0.  0.
    9900012    2    3    3    0    0 -0.28327966566E+02 -0.23447183110E+02  0.18804734766E+01  0.54367078420E+02  0.39999986873E+02 0.  0.
        -12    1    3    3    0    0  0.28327966566E+02  0.23447183110E+02 -0.18804734766E+01  0.36820921580E+02  0.00000000000E+00 0.  1.
         11    1    4    4    0    0 -0.18623137997E+02 -0.13939448084E+02  0.10278351112E+01  0.23284886236E+02  0.51100000000E-03 0. -1.
        -11    1    4    4    0    0 -0.84909179393E+01 -0.17681678007E+02 -0.58210759581E+01  0.20460262710E+02  0.51100000000E-03 0.  1.
         12    1    4    4    0    0 -0.12139106290E+01  0.81739429809E+01  0.66737143235E+01  0.10621929474E+02  0.00000000000E+00 0. -1.
</event>
<event>
 8    1  0.1290800E-006  0.9118800E+02  0.7816164E-02  0.1184000E+00
        -11   -1    0    0    0    0  0.00000000000E+00  0.00000000000E+00  0.45593999997E+02  0.45594000000E+02  0.51100000000E-03 0. -1.
         11   -1    0    0    0    0 -0.00000000000E+00 -0.00000000000E+00 -0.45593999997E+02  0.45594000000E+02  0.51100000000E-03 0.  1.
         23    2    1    2    0    0  0.00000000000E+00  0.00000000000E+00 -0.17763568394E-14  0.91188000000E+02  0.91188000000E+02 0.  0.
    9900012    2    3    3    0    0 -0.97083399792E+01 -0.33644611936E+02  0.11382822008E+02  0.54367076406E+02  0.39999982282E+02 0.  0.
        -12    1    3    3    0    0  0.97083399792E+01  0.33644611936E+02 -0.11382822008E+02  0.36820923594E+02  0.00000000000E+00 0.  1.
         11    1    4    4    0    0 -0.65376521607E+01 -0.27856252320E+01  0.82790483123E+01  0.10910694063E+02  0.51100000000E-03 0. -1.
        -11    1    4    4    0    0 -0.52768882267E+00  0.33136448264E+01  0.81486149113E+01  0.88124129932E+01  0.51100000000E-03 0.  1.
        -12    1    4    4    0    0 -0.26429989958E+01 -0.34172631531E+02 -0.50448412158E+01  0.34643969350E+02  0.00000000000E+00 0.  1.
</event>
<event>
 8    1  0.1290800E-006  0.9118800E+02  0.7816164E-02  0.1184000E+00
        -11   -1    0    0    0    0  0.00000000000E+00  0.00000000000E+00  0.45593999997E+02  0.45594000000E+02  0.51100000000E-03 0. -1.
         11   -1    0    0    0    0 -0.00000000000E+00 -0.00000000000E+00 -0.45593999997E+02  0.45594000000E+02  0.51100000000E-03 0.  1.
         23    2    1    2    0    0  0.35527136788E-14  0.00000000000E+00  0.88817841970E-15  0.91188000000E+02  0.91188000000E+02 0.  0.
    9900012    2    3    3    0    0 -0.30763585406E+02  0.19680412908E+02 -0.46970448674E+01  0.54367094664E+02  0.40000023906E+02 0.  0.
        -12    1    3    3    0    0  0.30763585406E+02 -0.19680412908E+02  0.46970448674E+01  0.36820905336E+02  0.00000000000E+00 0.  1.
         11    1    4    4    0    0 -0.13987049108E+02  0.38618579195E+01  0.26413441534E+01  0.14748836854E+02  0.51100000000E-03 0. -1.
        -11    1    4    4    0    0 -0.20373411325E+02  0.30532030009E+01 -0.13869745369E+02  0.24834809732E+02  0.51100000000E-03 0.  1.
         12    1    4    4    0    0  0.35968750270E+01  0.12765351988E+02  0.65313563482E+01  0.14783448078E+02  0.00000000000E+00 0. -1.
</event>
<event>
 8    1  0.1290800E-006  0.9118800E+02  0.7816164E-02  0.1184000E+00
        -11   -1    0    0    0    0  0.00000000000E+00  0.00000000000E+00  0.45593999997E+02  0.45594000000E+02  0.51100000000E-03 0. -1.
         11   -1    0    0    0    0 -0.00000000000E+00 -0.00000000000E+00 -0.45593999997E+02  0.45594000000E+02  0.51100000000E-03 0.  1.
         23    2    1    2    0    0  0.00000000000E+00 -0.17763568394E-14  0.00000000000E+00  0.91188000000E+02  0.91188000000E+02 0.  0.
    9900012    2    3    3    0    0  0.11149425129E+02 -0.51033706959E+01  0.34719244049E+02  0.54367082297E+02  0.39999995713E+02 0.  0.
        -12    1    3    3    0    0 -0.11149425129E+02  0.51033706959E+01 -0.34719244049E+02  0.36820917703E+02  0.00000000000E+00 0.  1.
         11    1    4    4    0    0  0.14178637772E+02 -0.57115711808E+01  0.28028652919E+02  0.31925870374E+02  0.51100000000E-03 0. -1.
        -11    1    4    4    0    0 -0.14865205933E+00 -0.34936073174E+01  0.13522825631E+02  0.13967612639E+02  0.51100000000E-03 0.  1.
        -12    1    4    4    0    0 -0.28805605834E+01  0.41018078023E+01 -0.68322345022E+01  0.84735992833E+01  0.00000000000E+00 0.  1.
</event>
<event>
 8    1  0.1290800E-006  0.9118800E+02  0.7816164E-02  0.1184000E+00
        -11   -1    0    0    0    0  0.00000000000E+00  0.00000000000E+00  0.45593999997E+02  0.45594000000E+02  0.51100000000E-03 0. -1.
         11   -1    0    0    0    0 -0.00000000000E+00 -0.00000000000E+00 -0.45593999997E+02  0.45594000000E+02  0.51100000000E-03 0.  1.
         23    2    1    2    0    0  0.17763568394E-14  0.00000000000E+00  0.00000000000E+00  0.91188000000E+02  0.91188000000E+02 0.  0.
    9900012    2    3    3    0    0  0.10366679307E+02 -0.34220415152E+02  0.87905939598E+01  0.54367090245E+02  0.40000013832E+02 0.  0.
         12    1    3    3    0    0 -0.10366679307E+02  0.34220415152E+02 -0.87905939598E+01  0.36820909755E+02  0.00000000000E+00 0. -1.
         11    1    4    4    0    0 -0.21662523750E+01 -0.22345348953E+02  0.79260772907E+01  0.23808191251E+02  0.51100000000E-03 0.  1.
        -11    1    4    4    0    0  0.85539952206E+01  0.70557638952E+01  0.15840141863E+01  0.11201059753E+02  0.51100000000E-03 0. -1.
         12    1    4    4    0    0  0.39789364610E+01 -0.18930830094E+02 -0.71949751720E+00  0.19357839242E+02  0.00000000000E+00 0. -1.
</event>
<event>
 8    1  0.1290800E-006  0.9118800E+02  0.7816164E-02  0.1184000E+00
        -11   -1    0    0    0    0  0.00000000000E+00  0.00000000000E+00  0.45593999997E+02  0.45594000000E+02  0.51100000000E-03 0. -1.
         11   -1    0    0    0    0 -0.00000000000E+00 -0.00000000000E+00 -0.45593999997E+02  0.45594000000E+02  0.51100000000E-03 0.  1.
         23    2    1    2    0    0  0.00000000000E+00  0.00000000000E+00  0.00000000000E+00  0.91188000000E+02  0.91188000000E+02 0.  0.
    9900012    2    3    3    0    0 -0.10593345209E+02 -0.40129956187E+01 -0.35035082664E+02  0.54367080486E+02  0.39999991584E+02 0.  0.
         12    1    3    3    0    0  0.10593345209E+02  0.40129956187E+01  0.35035082664E+02  0.36820919514E+02  0.00000000000E+00 0. -1.
         11    1    4    4    0    0 -0.46738320441E+01  0.51134159134E+01 -0.11770095191E+02  0.13657484005E+02  0.51100000000E-03 0. -1.
        -11    1    4    4    0    0  0.12139931710E+02 -0.24747768892E+01 -0.29703842826E+01  0.12740708207E+02  0.51100000000E-03 0.  1.
         12    1    4    4    0    0 -0.18059444875E+02 -0.66516346429E+01 -0.20294603191E+02  0.27968888274E+02  0.00000000000E+00 0. -1.
</event>
<event>
 8    1  0.1290800E-006  0.9118800E+02  0.7816164E-02  0.1184000E+00
        -11   -1    0    0    0    0  0.00000000000E+00  0.00000000000E+00  0.45593999997E+02  0.45594000000E+02  0.51100000000E-03 0.  1.
         11   -1    0    0    0    0 -0.00000000000E+00 -0.00000000000E+00 -0.45593999997E+02  0.45594000000E+02  0.51100000000E-03 0. -1.
         23    2    1    2    0    0 -0.55511151231E-15  0.14210854715E-13  0.17763568394E-14  0.91188000000E+02  0.91188000000E+02 0.  0.
    9900012    2    3    3    0    0  0.99038204048E+00 -0.35581856008E+02 -0.94201019370E+01  0.54366978096E+02  0.39999758164E+02 0.  0.
         12    1    3    3    0    0 -0.99038204048E+00  0.35581856008E+02  0.94201019370E+01  0.36821021904E+02  0.00000000000E+00 0. -1.
         11    1    4    4    0    0  0.13928413046E+01 -0.72579796891E+01 -0.36709705269E+01  0.82519271045E+01  0.51100000000E-03 0. -1.
        -11    1    4    4    0    0 -0.13830696945E+02 -0.27087835913E+02  0.21438638511E+01  0.30489919398E+02  0.51100000000E-03 0.  1.
         12    1    4    4    0    0  0.13428237681E+02 -0.12360404057E+01 -0.78929952611E+01  0.15625131593E+02  0.00000000000E+00 0. -1.
</event>
<event>
 8    1  0.1290800E-006  0.9118800E+02  0.7816164E-02  0.1184000E+00
        -11   -1    0    0    0    0  0.00000000000E+00  0.00000000000E+00  0.45593999997E+02  0.45594000000E+02  0.51100000000E-03 0.  1.
         11   -1    0    0    0    0 -0.00000000000E+00 -0.00000000000E+00 -0.45593999997E+02  0.45594000000E+02  0.51100000000E-03 0. -1.
         23    2    1    2    0    0 -0.22204460493E-14  0.00000000000E+00  0.35527136788E-14  0.91188000000E+02  0.91188000000E+02 0.  0.
    9900012    2    3    3    0    0  0.54284441763E+00  0.28594578740E+02 -0.23191261144E+02  0.54367092802E+02  0.40000019662E+02 0.  0.
         12    1    3    3    0    0 -0.54284441763E+00 -0.28594578740E+02  0.23191261144E+02  0.36820907198E+02  0.00000000000E+00 0. -1.
         11    1    4    4    0    0 -0.97561324237E+01  0.24143908408E+02 -0.55975844577E+01  0.26635378449E+02  0.51100000000E-03 0.  1.
        -11    1    4    4    0    0  0.46246225759E+01 -0.63240761509E+01 -0.22665927258E+01  0.81558884235E+01  0.51100000000E-03 0. -1.
         12    1    4    4    0    0  0.56743542654E+01  0.10774746483E+02 -0.15327083961E+02  0.19575825930E+02  0.00000000000E+00 0. -1.
</event>
<event>
 8    1  0.1290800E-006  0.9118800E+02  0.7816164E-02  0.1184000E+00
        -11   -1    0    0    0    0  0.00000000000E+00  0.00000000000E+00  0.45593999997E+02  0.45594000000E+02  0.51100000000E-03 0.  1.
         11   -1    0    0    0    0 -0.00000000000E+00 -0.00000000000E+00 -0.45593999997E+02  0.45594000000E+02  0.51100000000E-03 0. -1.
         23    2    1    2    0    0  0.71054273576E-14 -0.17763568394E-14  0.17763568394E-14  0.91188000000E+02  0.91188000000E+02 0.  0.
    9900012    2    3    3    0    0 -0.33943518253E+02 -0.10477017223E+02  0.96876379962E+01  0.54367073189E+02  0.39999974949E+02 0.  0.
        -12    1    3    3    0    0  0.33943518253E+02  0.10477017223E+02 -0.96876379962E+01  0.36820926811E+02  0.00000000000E+00 0.  1.
         11    1    4    4    0    0  0.10966755280E+01  0.15662671518E+01  0.83072474253E+00  0.20847047425E+01  0.51100000000E-03 0. -1.
        -11    1    4    4    0    0  0.63021062272E+01 -0.24303757166E+01 -0.41026190775E+01  0.79028319341E+01  0.51100000000E-03 0.  1.
         12    1    4    4    0    0 -0.41342300008E+02 -0.96129086582E+01  0.12959532331E+02  0.44379536512E+02  0.00000000000E+00 0. -1.
</event>
<event>
 8    1  0.1290800E-006  0.9118800E+02  0.7816164E-02  0.1184000E+00
        -11   -1    0    0    0    0  0.00000000000E+00  0.00000000000E+00  0.45593999997E+02  0.45594000000E+02  0.51100000000E-03 0. -1.
         11   -1    0    0    0    0 -0.00000000000E+00 -0.00000000000E+00 -0.45593999997E+02  0.45594000000E+02  0.51100000000E-03 0.  1.
         23    2    1    2    0    0 -0.35527136788E-14 -0.35527136788E-14  0.00000000000E+00  0.91188000000E+02  0.91188000000E+02 0.  0.
    9900012    2    3    3    0    0  0.19190747768E+02  0.28144022800E+02 -0.13978893133E+02  0.54367078332E+02  0.39999986674E+02 0.  0.
         12    1    3    3    0    0 -0.19190747768E+02 -0.28144022800E+02  0.13978893133E+02  0.36820921668E+02  0.00000000000E+00 0. -1.
         11    1    4    4    0    0  0.21587379673E+02  0.16448868578E+02  0.85533595314E+00  0.27153486673E+02  0.51100000000E-03 0. -1.
        -11    1    4    4    0    0  0.41358330449E+01  0.14478832336E+02 -0.68929899487E+01  0.16560646469E+02  0.51100000000E-03 0.  1.
         12    1    4    4    0    0 -0.65324649505E+01 -0.27836781138E+01 -0.79412391377E+01  0.10652945190E+02  0.00000000000E+00 0. -1.
</event>
<event>
 8    1  0.1290800E-006  0.9118800E+02  0.7816164E-02  0.1184000E+00
        -11   -1    0    0    0    0  0.00000000000E+00  0.00000000000E+00  0.45593999997E+02  0.45594000000E+02  0.51100000000E-03 0.  1.
         11   -1    0    0    0    0 -0.00000000000E+00 -0.00000000000E+00 -0.45593999997E+02  0.45594000000E+02  0.51100000000E-03 0. -1.
         23    2    1    2    0    0  0.00000000000E+00  0.88817841970E-15 -0.71054273576E-14  0.91188000000E+02  0.91188000000E+02 0.  0.
    9900012    2    3    3    0    0  0.14079778896E+02 -0.50705882627E+01  0.33642657418E+02  0.54367089674E+02  0.40000012530E+02 0.  0.
         12    1    3    3    0    0 -0.14079778896E+02  0.50705882627E+01 -0.33642657418E+02  0.36820910326E+02  0.00000000000E+00 0. -1.
         11    1    4    4    0    0 -0.48012181692E+01  0.37724296932E+00  0.12007651071E+02  0.12937453098E+02  0.51100000000E-03 0. -1.
        -11    1    4    4    0    0  0.11608984638E+02  0.11244352009E+02  0.15002638334E+02  0.22051828352E+02  0.51100000000E-03 0.  1.
        -12    1    4    4    0    0  0.72720124269E+01 -0.16692183241E+02  0.66323680136E+01  0.19377808224E+02  0.00000000000E+00 0.  1.
</event>
<event>
 8    1  0.1290800E-006  0.9118800E+02  0.7816164E-02  0.1184000E+00
        -11   -1    0    0    0    0  0.00000000000E+00  0.00000000000E+00  0.45593999997E+02  0.45594000000E+02  0.51100000000E-03 0. -1.
         11   -1    0    0    0    0 -0.00000000000E+00 -0.00000000000E+00 -0.45593999997E+02  0.45594000000E+02  0.51100000000E-03 0.  1.
         23    2    1    2    0    0  0.66613381478E-15 -0.35527136788E-14 -0.35527136788E-14  0.91188000000E+02  0.91188000000E+02 0.  0.
    9900012    2    3    3    0    0 -0.14003984580E+01 -0.24731483552E+02 -0.27242834790E+02  0.54367089610E+02  0.40000012385E+02 0.  0.
         12    1    3    3    0    0  0.14003984580E+01  0.24731483552E+02  0.27242834790E+02  0.36820910390E+02  0.00000000000E+00 0. -1.
         11    1    4    4    0    0  0.13279291237E+02  0.70606885338E+00 -0.57632996977E+01  0.14493230580E+02  0.51100000000E-03 0. -1.
        -11    1    4    4    0    0 -0.48767194674E+01 -0.22468054137E+02 -0.17464422600E+02  0.28872164908E+02  0.51100000000E-03 0.  1.
         12    1    4    4    0    0 -0.98029702272E+01 -0.29694982682E+01 -0.40151124928E+01  0.11001694123E+02  0.00000000000E+00 0. -1.
</event>
<event>
 8    1  0.1290800E-006  0.9118800E+02  0.7816164E-02  0.1184000E+00
        -11   -1    0    0    0    0  0.00000000000E+00  0.00000000000E+00  0.45593999997E+02  0.45594000000E+02  0.51100000000E-03 0.  1.
         11   -1    0    0    0    0 -0.00000000000E+00 -0.00000000000E+00 -0.45593999997E+02  0.45594000000E+02  0.51100000000E-03 0. -1.
         23    2    1    2    0    0  0.00000000000E+00  0.00000000000E+00  0.00000000000E+00  0.91188000000E+02  0.91188000000E+02 0.  0.
    9900012    2    3    3    0    0 -0.14600286962E+02 -0.17362989239E+02 -0.29002378169E+02  0.54367085914E+02  0.40000003957E+02 0.  0.
        -12    1    3    3    0    0  0.14600286962E+02  0.17362989239E+02  0.29002378169E+02  0.36820914086E+02  0.00000000000E+00 0.  1.
         11    1    4    4    0    0  0.72001345425E+01 -0.30687821690E+00 -0.23339614585E-01  0.72067091428E+01  0.51100000000E-03 0. -1.
        -11    1    4    4    0    0 -0.13649321661E+02 -0.82342721861E+01 -0.16327575623E+00  0.15941577070E+02  0.51100000000E-03 0.  1.
         12    1    4    4    0    0 -0.81510998434E+01 -0.88218388359E+01 -0.28815762798E+02  0.31218799701E+02  0.00000000000E+00 0. -1.
</event>
<event>
 8    1  0.1290800E-006  0.9118800E+02  0.7816164E-02  0.1184000E+00
        -11   -1    0    0    0    0  0.00000000000E+00  0.00000000000E+00  0.45593999997E+02  0.45594000000E+02  0.51100000000E-03 0.  1.
         11   -1    0    0    0    0 -0.00000000000E+00 -0.00000000000E+00 -0.45593999997E+02  0.45594000000E+02  0.51100000000E-03 0. -1.
         23    2    1    2    0    0  0.00000000000E+00  0.00000000000E+00  0.00000000000E+00  0.91188000000E+02  0.91188000000E+02 0.  0.
    9900012    2    3    3    0    0 -0.15700204839E+02 -0.33194620711E+02 -0.27203376901E+01  0.54367088641E+02  0.40000010175E+02 0.  0.
        -12    1    3    3    0    0  0.15700204839E+02  0.33194620711E+02  0.27203376901E+01  0.36820911359E+02  0.00000000000E+00 0.  1.
         11    1    4    4    0    0  0.51372850409E+01 -0.69811687127E+01 -0.29952452465E+01  0.91706002276E+01  0.51100000000E-03 0. -1.
        -11    1    4    4    0    0  0.67479470239E+01 -0.36477029363E+00 -0.26973764355E+01  0.72762412206E+01  0.51100000000E-03 0.  1.
         12    1    4    4    0    0 -0.27585436903E+02 -0.25848681705E+02  0.29722839920E+01  0.37920247193E+02  0.00000000000E+00 0. -1.
</event>
<event>
 8    1  0.1290800E-006  0.9118800E+02  0.7816164E-02  0.1184000E+00
        -11   -1    0    0    0    0  0.00000000000E+00  0.00000000000E+00  0.45593999997E+02  0.45594000000E+02  0.51100000000E-03 0.  1.
         11   -1    0    0    0    0 -0.00000000000E+00 -0.00000000000E+00 -0.45593999997E+02  0.45594000000E+02  0.51100000000E-03 0. -1.
         23    2    1    2    0    0  0.00000000000E+00  0.00000000000E+00  0.00000000000E+00  0.91188000000E+02  0.91188000000E+02 0.  0.
    9900012    2    3    3    0    0  0.19907627409E+02  0.24239718447E+02 -0.19284778153E+02  0.54367078666E+02  0.39999987436E+02 0.  0.
        -12    1    3    3    0    0 -0.19907627409E+02 -0.24239718447E+02  0.19284778153E+02  0.36820921334E+02  0.00000000000E+00 0.  1.
         11    1    4    4    0    0  0.74229245174E+01  0.19278355646E+02 -0.25442679024E+02  0.32773231775E+02  0.51100000000E-03 0. -1.
        -11    1    4    4    0    0  0.78392130250E+01 -0.20693369680E+01 -0.34524636080E+01  0.88122029915E+01  0.51100000000E-03 0.  1.
         12    1    4    4    0    0  0.46454898667E+01  0.70306997689E+01  0.96103644796E+01  0.12781643899E+02  0.00000000000E+00 0. -1.
</event>
<event>
 8    1  0.1290800E-006  0.9118800E+02  0.7816164E-02  0.1184000E+00
        -11   -1    0    0    0    0  0.00000000000E+00  0.00000000000E+00  0.45593999997E+02  0.45594000000E+02  0.51100000000E-03 0.  1.
         11   -1    0    0    0    0 -0.00000000000E+00 -0.00000000000E+00 -0.45593999997E+02  0.45594000000E+02  0.51100000000E-03 0. -1.
         23    2    1    2    0    0 -0.35527136788E-14 -0.17763568394E-14 -0.35527136788E-14  0.91188000000E+02  0.91188000000E+02 0.  0.
    9900012    2    3    3    0    0 -0.28728573199E+02  0.90821868742E+01  0.21165136833E+02  0.54367081304E+02  0.39999993450E+02 0.  0.
         12    1    3    3    0    0  0.28728573199E+02 -0.90821868742E+01 -0.21165136833E+02  0.36820918696E+02  0.00000000000E+00 0. -1.
         11    1    4    4    0    0 -0.25972523257E+01  0.89269245488E+01  0.62383608040E+01  0.11196108580E+02  0.51100000000E-03 0. -1.
        -11    1    4    4    0    0 -0.31509542852E+02  0.14040699963E+01  0.51720236305E+01  0.31962048307E+02  0.51100000000E-03 0.  1.
         12    1    4    4    0    0  0.53782219789E+01 -0.12488076708E+01  0.97547523983E+01  0.11208924418E+02  0.00000000000E+00 0. -1.
</event>
<event>
 8    1  0.1290800E-006  0.9118800E+02  0.7816164E-02  0.1184000E+00
        -11   -1    0    0    0    0  0.00000000000E+00  0.00000000000E+00  0.45593999997E+02  0.45594000000E+02  0.51100000000E-03 0.  1.
         11   -1    0    0    0    0 -0.00000000000E+00 -0.00000000000E+00 -0.45593999997E+02  0.45594000000E+02  0.51100000000E-03 0. -1.
         23    2    1    2    0    0  0.13322676296E-14  0.35527136788E-14 -0.35527136788E-14  0.91188000000E+02  0.91188000000E+02 0.  0.
    9900012    2    3    3    0    0  0.32141068865E+01  0.25075866179E+02 -0.26770324342E+02  0.54367084571E+02  0.40000000896E+02 0.  0.
        -12    1    3    3    0    0 -0.32141068865E+01 -0.25075866179E+02  0.26770324342E+02  0.36820915429E+02  0.00000000000E+00 0.  1.
         11    1    4    4    0    0 -0.80831234358E+01  0.19594012251E+02 -0.43434182457E+01  0.21636253902E+02  0.51100000000E-03 0. -1.
        -11    1    4    4    0    0  0.44861307685E+01 -0.35886355472E+01  0.17664816259E+01  0.60103354281E+01  0.51100000000E-03 0.  1.
         12    1    4    4    0    0  0.68110995538E+01  0.90704894746E+01 -0.24193387722E+02  0.26720495241E+02  0.00000000000E+00 0. -1.
</event>
<event>
 8    1  0.1290800E-006  0.9118800E+02  0.7816164E-02  0.1184000E+00
        -11   -1    0    0    0    0  0.00000000000E+00  0.00000000000E+00  0.45593999997E+02  0.45594000000E+02  0.51100000000E-03 0.  1.
         11   -1    0    0    0    0 -0.00000000000E+00 -0.00000000000E+00 -0.45593999997E+02  0.45594000000E+02  0.51100000000E-03 0. -1.
         23    2    1    2    0    0  0.00000000000E+00  0.88817841970E-15  0.88817841970E-15  0.91188000000E+02  0.91188000000E+02 0.  0.
    9900012    2    3    3    0    0 -0.35151578645E+02 -0.79393723016E+01 -0.75577016056E+01  0.54367001001E+02  0.39999810381E+02 0.  0.
        -12    1    3    3    0    0  0.35151578645E+02  0.79393723016E+01  0.75577016056E+01  0.36820998999E+02  0.00000000000E+00 0.  1.
         11    1    4    4    0    0 -0.32673017487E+02 -0.13226083478E+02 -0.15040171227E+02  0.38323127569E+02  0.51100000000E-03 0. -1.
        -11    1    4    4    0    0 -0.10287831433E+01  0.18444766960E+01  0.10826486958E+02  0.11030562504E+02  0.51100000000E-03 0.  1.
         12    1    4    4    0    0 -0.14497780147E+01  0.34422344801E+01 -0.33440173366E+01  0.50133109275E+01  0.00000000000E+00 0. -1.
</event>
<event>
 8    1  0.1290800E-006  0.9118800E+02  0.7816164E-02  0.1184000E+00
        -11   -1    0    0    0    0  0.00000000000E+00  0.00000000000E+00  0.45593999997E+02  0.45594000000E+02  0.51100000000E-03 0.  1.
         11   -1    0    0    0    0 -0.00000000000E+00 -0.00000000000E+00 -0.45593999997E+02  0.45594000000E+02  0.51100000000E-03 0. -1.
         23    2    1    2    0    0  0.00000000000E+00  0.00000000000E+00  0.00000000000E+00  0.91188000000E+02  0.91188000000E+02 0.  0.
    9900012    2    3    3    0    0 -0.16593782861E+02 -0.32454125393E+02 -0.52111453006E+01  0.54367083118E+02  0.39999997584E+02 0.  0.
        -12    1    3    3    0    0  0.16593782861E+02  0.32454125393E+02  0.52111453006E+01  0.36820916882E+02  0.00000000000E+00 0.  1.
         11    1    4    4    0    0 -0.17245596127E+01  0.79377356190E+01 -0.72440523150E+01  0.10883843384E+02  0.51100000000E-03 0. -1.
        -11    1    4    4    0    0 -0.69582146337E+01 -0.25132107686E+02 -0.65534701770E+00  0.26085802031E+02  0.51100000000E-03 0.  1.
         12    1    4    4    0    0 -0.79110086141E+01 -0.15259753326E+02  0.26882540321E+01  0.17397437703E+02  0.00000000000E+00 0. -1.
</event>
<event>
 8    1  0.1290800E-006  0.9118800E+02  0.7816164E-02  0.1184000E+00
        -11   -1    0    0    0    0  0.00000000000E+00  0.00000000000E+00  0.45593999997E+02  0.45594000000E+02  0.51100000000E-03 0. -1.
         11   -1    0    0    0    0 -0.00000000000E+00 -0.00000000000E+00 -0.45593999997E+02  0.45594000000E+02  0.51100000000E-03 0.  1.
         23    2    1    2    0    0  0.35527136788E-14  0.00000000000E+00  0.00000000000E+00  0.91188000000E+02  0.91188000000E+02 0.  0.
    9900012    2    3    3    0    0  0.22926147245E+02  0.12070236357E+02  0.26162584193E+02  0.54367086854E+02  0.40000006102E+02 0.  0.
        -12    1    3    3    0    0 -0.22926147245E+02 -0.12070236357E+02 -0.26162584193E+02  0.36820913146E+02  0.00000000000E+00 0.  1.
         11    1    4    4    0    0  0.30232976045E+01  0.38878263037E+01  0.78760046585E+01  0.92890780714E+01  0.51100000000E-03 0. -1.
        -11    1    4    4    0    0  0.17145818713E+02  0.10141786553E+02  0.28243669590E+02  0.34562115184E+02  0.51100000000E-03 0.  1.
        -12    1    4    4    0    0  0.27570309276E+01 -0.19593764999E+01 -0.99570900557E+01  0.10515893599E+02  0.00000000000E+00 0.  1.
</event>
<event>
 8    1  0.1290800E-006  0.9118800E+02  0.7816164E-02  0.1184000E+00
        -11   -1    0    0    0    0  0.00000000000E+00  0.00000000000E+00  0.45593999997E+02  0.45594000000E+02  0.51100000000E-03 0.  1.
         11   -1    0    0    0    0 -0.00000000000E+00 -0.00000000000E+00 -0.45593999997E+02  0.45594000000E+02  0.51100000000E-03 0. -1.
         23    2    1    2    0    0  0.00000000000E+00  0.35527136788E-14  0.35527136788E-14  0.91188000000E+02  0.91188000000E+02 0.  0.
    9900012    2    3    3    0    0  0.23678903523E+02  0.18154852830E+02  0.21575218463E+02  0.54367092827E+02  0.40000019717E+02 0.  0.
         12    1    3    3    0    0 -0.23678903523E+02 -0.18154852830E+02 -0.21575218463E+02  0.36820907173E+02  0.00000000000E+00 0. -1.
         11    1    4    4    0    0 -0.49312444306E+01  0.35545012084E+01  0.10177895656E+02  0.11855007833E+02  0.51100000000E-03 0. -1.
        -11    1    4    4    0    0  0.29848516153E+02  0.19460747775E+02  0.81986706341E+01  0.36563271475E+02  0.51100000000E-03 0.  1.
         12    1    4    4    0    0 -0.12383681999E+01 -0.48603961530E+01  0.31986521727E+01  0.59488135190E+01  0.00000000000E+00 0. -1.
</event>
<event>
 8    1  0.1290800E-006  0.9118800E+02  0.7816164E-02  0.1184000E+00
        -11   -1    0    0    0    0  0.00000000000E+00  0.00000000000E+00  0.45593999997E+02  0.45594000000E+02  0.51100000000E-03 0. -1.
         11   -1    0    0    0    0 -0.00000000000E+00 -0.00000000000E+00 -0.45593999997E+02  0.45594000000E+02  0.51100000000E-03 0.  1.
         23    2    1    2    0    0 -0.71054273576E-14  0.00000000000E+00 -0.35527136788E-14  0.91188000000E+02  0.91188000000E+02 0.  0.
    9900012    2    3    3    0    0  0.30419410871E+02  0.47611764111E+01 -0.20193345725E+02  0.54367074290E+02  0.39999977459E+02 0.  0.
         12    1    3    3    0    0 -0.30419410871E+02 -0.47611764111E+01  0.20193345725E+02  0.36820925710E+02  0.00000000000E+00 0. -1.
         11    1    4    4    0    0  0.42511286313E+01  0.41094866763E+01  0.83279466839E+01  0.10213455420E+02  0.51100000000E-03 0. -1.
        -11    1    4    4    0    0  0.10805985603E+01 -0.72217382455E+01 -0.77200506432E+01  0.10626400083E+02  0.51100000000E-03 0.  1.
         12    1    4    4    0    0  0.25087683680E+02  0.78734279803E+01 -0.20801241766E+02  0.33527218787E+02  0.00000000000E+00 0. -1.
</event>
<event>
 8    1  0.1290800E-006  0.9118800E+02  0.7816164E-02  0.1184000E+00
        -11   -1    0    0    0    0  0.00000000000E+00  0.00000000000E+00  0.45593999997E+02  0.45594000000E+02  0.51100000000E-03 0. -1.
         11   -1    0    0    0    0 -0.00000000000E+00 -0.00000000000E+00 -0.45593999997E+02  0.45594000000E+02  0.51100000000E-03 0.  1.
         23    2    1    2    0    0  0.00000000000E+00  0.00000000000E+00  0.88817841970E-15  0.91188000000E+02  0.91188000000E+02 0.  0.
    9900012    2    3    3    0    0  0.13571859893E+02 -0.34219970300E+02  0.76015706086E+00  0.54367087640E+02  0.40000007893E+02 0.  0.
        -12    1    3    3    0    0 -0.13571859893E+02  0.34219970300E+02 -0.76015706086E+00  0.36820912360E+02  0.00000000000E+00 0.  1.
         11    1    4    4    0    0  0.45580382410E+01 -0.59254809566E+01  0.99465785347E+01  0.12442727273E+02  0.51100000000E-03 0. -1.
        -11    1    4    4    0    0  0.80290596792E+00 -0.31428312376E+02 -0.10260017652E+02  0.33070401257E+02  0.51100000000E-03 0.  1.
        -12    1    4    4    0    0  0.82109156840E+01  0.31338230332E+01  0.10735961781E+01  0.88539591103E+01  0.00000000000E+00 0.  1.
</event>
<event>
 8    1  0.1290800E-006  0.9118800E+02  0.7816164E-02  0.1184000E+00
        -11   -1    0    0    0    0  0.00000000000E+00  0.00000000000E+00  0.45593999997E+02  0.45594000000E+02  0.51100000000E-03 0. -1.
         11   -1    0    0    0    0 -0.00000000000E+00 -0.00000000000E+00 -0.45593999997E+02  0.45594000000E+02  0.51100000000E-03 0.  1.
         23    2    1    2    0    0  0.35527136788E-14 -0.35527136788E-14  0.00000000000E+00  0.91188000000E+02  0.91188000000E+02 0.  0.
    9900012    2    3    3    0    0  0.18164370881E+02 -0.31535053214E+02 -0.56018661076E+01  0.54367016110E+02  0.39999844826E+02 0.  0.
        -12    1    3    3    0    0 -0.18164370881E+02  0.31535053214E+02  0.56018661076E+01  0.36820983890E+02  0.00000000000E+00 0.  1.
         11    1    4    4    0    0  0.42194803793E+01 -0.17069575848E+02  0.76579728702E+01  0.19178607433E+02  0.51100000000E-03 0. -1.
        -11    1    4    4    0    0  0.55272419064E+01 -0.53861766960E+01 -0.19753628683E+02  0.21207714372E+02  0.51100000000E-03 0.  1.
        -12    1    4    4    0    0  0.84176485950E+01 -0.90793006700E+01  0.64937897049E+01  0.13980694305E+02  0.00000000000E+00 0.  1.
</event>
<event>
 8    1  0.1290800E-006  0.9118800E+02  0.7816164E-02  0.1184000E+00
        -11   -1    0    0    0    0  0.00000000000E+00  0.00000000000E+00  0.45593999997E+02  0.45594000000E+02  0.51100000000E-03 0.  1.
         11   -1    0    0    0    0 -0.00000000000E+00 -0.00000000000E+00 -0.45593999997E+02  0.45594000000E+02  0.51100000000E-03 0. -1.
         23    2    1    2    0    0  0.17763568394E-14  0.00000000000E+00  0.44408920985E-15  0.91188000000E+02  0.91188000000E+02 0.  0.
    9900012    2    3    3    0    0  0.14362153497E+02  0.33817097390E+02 -0.24313908110E+01  0.54367093028E+02  0.40000020176E+02 0.  0.
        -12    1    3    3    0    0 -0.14362153497E+02 -0.33817097390E+02  0.24313908110E+01  0.36820906972E+02  0.00000000000E+00 0.  1.
         11    1    4    4    0    0  0.15998126276E+02  0.24794821096E+01  0.52814002894E+01  0.17028830411E+02  0.51100000000E-03 0. -1.
        -11    1    4    4    0    0  0.56383635565E+01  0.15497668485E+02  0.31644757662E+01  0.16792342874E+02  0.51100000000E-03 0.  1.
         12    1    4    4    0    0 -0.72743363359E+01  0.15839946796E+02 -0.10877266867E+02  0.20545919743E+02  0.00000000000E+00 0. -1.
</event>
<event>
 8    1  0.1290800E-006  0.9118800E+02  0.7816164E-02  0.1184000E+00
        -11   -1    0    0    0    0  0.00000000000E+00  0.00000000000E+00  0.45593999997E+02  0.45594000000E+02  0.51100000000E-03 0.  1.
         11   -1    0    0    0    0 -0.00000000000E+00 -0.00000000000E+00 -0.45593999997E+02  0.45594000000E+02  0.51100000000E-03 0. -1.
         23    2    1    2    0    0  0.35527136788E-14 -0.35527136788E-14  0.00000000000E+00  0.91188000000E+02  0.91188000000E+02 0.  0.
    9900012    2    3    3    0    0 -0.29169911018E+02  0.20206046166E+02 -0.98291553671E+01  0.54367077881E+02  0.39999985645E+02 0.  0.
         12    1    3    3    0    0  0.29169911018E+02 -0.20206046166E+02  0.98291553671E+01  0.36820922119E+02  0.00000000000E+00 0. -1.
         11    1    4    4    0    0 -0.18566284426E+01  0.73608488791E+01 -0.16037068620E+02  0.17743075708E+02  0.51100000000E-03 0. -1.
        -11    1    4    4    0    0 -0.20446273092E+02 -0.10637325063E+01  0.49338761838E+01  0.21060027176E+02  0.51100000000E-03 0.  1.
         12    1    4    4    0    0 -0.68670094832E+01  0.13908929794E+02  0.12740370696E+01  0.15563974997E+02  0.00000000000E+00 0. -1.
</event>
<event>
 8    1  0.1290800E-006  0.9118800E+02  0.7816164E-02  0.1184000E+00
        -11   -1    0    0    0    0  0.00000000000E+00  0.00000000000E+00  0.45593999997E+02  0.45594000000E+02  0.51100000000E-03 0.  1.
         11   -1    0    0    0    0 -0.00000000000E+00 -0.00000000000E+00 -0.45593999997E+02  0.45594000000E+02  0.51100000000E-03 0. -1.
         23    2    1    2    0    0 -0.33306690739E-15  0.00000000000E+00  0.00000000000E+00  0.91188000000E+02  0.91188000000E+02 0.  0.
    9900012    2    3    3    0    0 -0.34027191564E+00 -0.16382901433E+02  0.32973781518E+02  0.54367007185E+02  0.39999824479E+02 0.  0.
         12    1    3    3    0    0  0.34027191564E+00  0.16382901433E+02 -0.32973781518E+02  0.36820992815E+02  0.00000000000E+00 0. -1.
         11    1    4    4    0    0  0.27627155248E+01 -0.22658907494E+02  0.92975894287E+01  0.24647593298E+02  0.51100000000E-03 0. -1.
        -11    1    4    4    0    0  0.31100861577E+01  0.75679844320E+01  0.21510447367E+02  0.23014047242E+02  0.51100000000E-03 0.  1.
         12    1    4    4    0    0 -0.62130735982E+01 -0.12919783702E+01  0.21657447217E+01  0.67053666451E+01  0.00000000000E+00 0. -1.
</event>
<event>
 8    1  0.1290800E-006  0.9118800E+02  0.7816164E-02  0.1184000E+00
        -11   -1    0    0    0    0  0.00000000000E+00  0.00000000000E+00  0.45593999997E+02  0.45594000000E+02  0.51100000000E-03 0. -1.
         11   -1    0    0    0    0 -0.00000000000E+00 -0.00000000000E+00 -0.45593999997E+02  0.45594000000E+02  0.51100000000E-03 0.  1.
         23    2    1    2    0    0  0.35527136788E-14 -0.17763568394E-14 -0.35527136788E-14  0.91188000000E+02  0.91188000000E+02 0.  0.
    9900012    2    3    3    0    0  0.31287109809E+02  0.43249867891E+01  0.18925932977E+02  0.54367086242E+02  0.40000004706E+02 0.  0.
        -12    1    3    3    0    0 -0.31287109809E+02 -0.43249867891E+01 -0.18925932977E+02  0.36820913758E+02  0.00000000000E+00 0.  1.
         11    1    4    4    0    0  0.11751720252E+00 -0.13294613416E+01 -0.45129737070E+01  0.47061884464E+01  0.51100000000E-03 0. -1.
        -11    1    4    4    0    0  0.18260549457E+02 -0.11638664884E+02  0.15653003268E+02  0.26719331921E+02  0.51100000000E-03 0.  1.
         12    1    4    4    0    0  0.12909043150E+02  0.17293113014E+02  0.77859034154E+01  0.22941565874E+02  0.00000000000E+00 0. -1.
</event>
<event>
 8    1  0.1290800E-006  0.9118800E+02  0.7816164E-02  0.1184000E+00
        -11   -1    0    0    0    0  0.00000000000E+00  0.00000000000E+00  0.45593999997E+02  0.45594000000E+02  0.51100000000E-03 0.  1.
         11   -1    0    0    0    0 -0.00000000000E+00 -0.00000000000E+00 -0.45593999997E+02  0.45594000000E+02  0.51100000000E-03 0. -1.
         23    2    1    2    0    0  0.00000000000E+00  0.00000000000E+00  0.35527136788E-14  0.91188000000E+02  0.91188000000E+02 0.  0.
    9900012    2    3    3    0    0 -0.30372945530E+01  0.21359057487E+02  0.29838674302E+02  0.54367068737E+02  0.39999964799E+02 0.  0.
         12    1    3    3    0    0  0.30372945530E+01 -0.21359057487E+02 -0.29838674302E+02  0.36820931263E+02  0.00000000000E+00 0. -1.
         11    1    4    4    0    0 -0.71120734516E+01 -0.16107515028E+01  0.43769118396E+01  0.85049083885E+01  0.51100000000E-03 0. -1.
        -11    1    4    4    0    0  0.85900828768E+01  0.42944074327E+01  0.24847463869E+02  0.26638842317E+02  0.51100000000E-03 0.  1.
         12    1    4    4    0    0 -0.45153039782E+01  0.18675401558E+02  0.61429859377E+00  0.19223318031E+02  0.00000000000E+00 0. -1.
</event>
<event>
 8    1  0.1290800E-006  0.9118800E+02  0.7816164E-02  0.1184000E+00
        -11   -1    0    0    0    0  0.00000000000E+00  0.00000000000E+00  0.45593999997E+02  0.45594000000E+02  0.51100000000E-03 0.  1.
         11   -1    0    0    0    0 -0.00000000000E+00 -0.00000000000E+00 -0.45593999997E+02  0.45594000000E+02  0.51100000000E-03 0. -1.
         23    2    1    2    0    0  0.00000000000E+00  0.00000000000E+00 -0.17763568394E-14  0.91188000000E+02  0.91188000000E+02 0.  0.
    9900012    2    3    3    0    0 -0.23375383238E+02  0.24184149758E+02 -0.14983136606E+02  0.54367136029E+02  0.40000118205E+02 0.  0.
        -12    1    3    3    0    0  0.23375383238E+02 -0.24184149758E+02  0.14983136606E+02  0.36820863971E+02  0.00000000000E+00 0.  1.
         11    1    4    4    0    0 -0.17820050355E+02  0.26036841137E+02 -0.22018209987E+02  0.38474314319E+02  0.51100000000E-03 0. -1.
        -11    1    4    4    0    0  0.39443792259E+01  0.14184599922E+01  0.17745762752E+01  0.45518433019E+01  0.51100000000E-03 0.  1.
         12    1    4    4    0    0 -0.94997121088E+01 -0.32711513705E+01  0.52604971062E+01  0.11340978408E+02  0.00000000000E+00 0. -1.
</event>
<event>
 8    1  0.1290800E-006  0.9118800E+02  0.7816164E-02  0.1184000E+00
        -11   -1    0    0    0    0  0.00000000000E+00  0.00000000000E+00  0.45593999997E+02  0.45594000000E+02  0.51100000000E-03 0. -1.
         11   -1    0    0    0    0 -0.00000000000E+00 -0.00000000000E+00 -0.45593999997E+02  0.45594000000E+02  0.51100000000E-03 0.  1.
         23    2    1    2    0    0  0.00000000000E+00 -0.35527136788E-14  0.35527136788E-14  0.91188000000E+02  0.91188000000E+02 0.  0.
    9900012    2    3    3    0    0 -0.12506675570E+02  0.19088657870E+02 -0.28896121212E+02  0.54367087271E+02  0.40000007052E+02 0.  0.
         12    1    3    3    0    0  0.12506675570E+02 -0.19088657870E+02  0.28896121212E+02  0.36820912729E+02  0.00000000000E+00 0. -1.
         11    1    4    4    0    0  0.97590689020E+01  0.47078093027E+00 -0.15601725358E+02  0.18408554939E+02  0.51100000000E-03 0.  1.
        -11    1    4    4    0    0 -0.60162295252E+01  0.10403990836E+01  0.31951421005E+01  0.68910362978E+01  0.51100000000E-03 0. -1.
        -12    1    4    4    0    0 -0.16249514946E+02  0.17577477856E+02 -0.16489537954E+02  0.29067496035E+02  0.00000000000E+00 0.  1.
</event>
<event>
 8    1  0.1290800E-006  0.9118800E+02  0.7816164E-02  0.1184000E+00
        -11   -1    0    0    0    0  0.00000000000E+00  0.00000000000E+00  0.45593999997E+02  0.45594000000E+02  0.51100000000E-03 0.  1.
         11   -1    0    0    0    0 -0.00000000000E+00 -0.00000000000E+00 -0.45593999997E+02  0.45594000000E+02  0.51100000000E-03 0. -1.
         23    2    1    2    0    0  0.11102230246E-15  0.17763568394E-14  0.00000000000E+00  0.91188000000E+02  0.91188000000E+02 0.  0.
    9900012    2    3    3    0    0  0.83245469200E+00 -0.11404108793E+02 -0.35000475504E+02  0.54367082526E+02  0.39999996233E+02 0.  0.
        -12    1    3    3    0    0 -0.83245469200E+00  0.11404108793E+02  0.35000475504E+02  0.36820917474E+02  0.00000000000E+00 0.  1.
         11    1    4    4    0    0  0.30628867466E+01 -0.54520003220E+01  0.24439273771E+01  0.67140423010E+01  0.51100000000E-03 0. -1.
        -11    1    4    4    0    0  0.23033650213E+01 -0.11990228896E+01  0.45010369246E+01  0.51963910523E+01  0.51100000000E-03 0.  1.
         12    1    4    4    0    0 -0.45337970759E+01 -0.47530855813E+01 -0.41945439805E+02  0.42456649172E+02  0.00000000000E+00 0. -1.
</event>
<event>
 8    1  0.1290800E-006  0.9118800E+02  0.7816164E-02  0.1184000E+00
        -11   -1    0    0    0    0  0.00000000000E+00  0.00000000000E+00  0.45593999997E+02  0.45594000000E+02  0.51100000000E-03 0.  1.
         11   -1    0    0    0    0 -0.00000000000E+00 -0.00000000000E+00 -0.45593999997E+02  0.45594000000E+02  0.51100000000E-03 0. -1.
         23    2    1    2    0    0  0.35527136788E-14 -0.88817841970E-15  0.00000000000E+00  0.91188000000E+02  0.91188000000E+02 0.  0.
    9900012    2    3    3    0    0  0.21923905181E+02 -0.69425419108E+01 -0.28756273068E+02  0.54367085463E+02  0.40000002930E+02 0.  0.
         12    1    3    3    0    0 -0.21923905181E+02  0.69425419108E+01  0.28756273068E+02  0.36820914537E+02  0.00000000000E+00 0. -1.
         11    1    4    4    0    0  0.29670500185E+01 -0.14691321249E+02 -0.25934111319E+01  0.15210657034E+02  0.51100000000E-03 0.  1.
        -11    1    4    4    0    0  0.13076510147E+02 -0.50082110078E+01 -0.18351258934E+02  0.23083457277E+02  0.51100000000E-03 0. -1.
        -12    1    4    4    0    0  0.58803450150E+01  0.12756990346E+02 -0.78116030021E+01  0.16072971152E+02  0.00000000000E+00 0.  1.
</event>
<event>
 8    1  0.1290800E-006  0.9118800E+02  0.7816164E-02  0.1184000E+00
        -11   -1    0    0    0    0  0.00000000000E+00  0.00000000000E+00  0.45593999997E+02  0.45594000000E+02  0.51100000000E-03 0. -1.
         11   -1    0    0    0    0 -0.00000000000E+00 -0.00000000000E+00 -0.45593999997E+02  0.45594000000E+02  0.51100000000E-03 0.  1.
         23    2    1    2    0    0 -0.35527136788E-14  0.00000000000E+00  0.00000000000E+00  0.91188000000E+02  0.91188000000E+02 0.  0.
    9900012    2    3    3    0    0  0.14990960441E+02 -0.17904989008E+02 -0.28468628976E+02  0.54367077115E+02  0.39999983899E+02 0.  0.
         12    1    3    3    0    0 -0.14990960441E+02  0.17904989008E+02  0.28468628976E+02  0.36820922885E+02  0.00000000000E+00 0. -1.
         11    1    4    4    0    0 -0.29643550841E+01  0.29386813247E+01 -0.99561717055E-01  0.41753037961E+01  0.51100000000E-03 0. -1.
        -11    1    4    4    0    0 -0.77770453807E+01 -0.31450929177E+01 -0.61673670135E+00  0.84115639886E+01  0.51100000000E-03 0.  1.
         12    1    4    4    0    0  0.25732360906E+02 -0.17698577415E+02 -0.27752330558E+02  0.41780209330E+02  0.00000000000E+00 0. -1.
</event>
<event>
 8    1  0.1290800E-006  0.9118800E+02  0.7816164E-02  0.1184000E+00
        -11   -1    0    0    0    0  0.00000000000E+00  0.00000000000E+00  0.45593999997E+02  0.45594000000E+02  0.51100000000E-03 0.  1.
         11   -1    0    0    0    0 -0.00000000000E+00 -0.00000000000E+00 -0.45593999997E+02  0.45594000000E+02  0.51100000000E-03 0. -1.
         23    2    1    2    0    0 -0.17763568394E-14 -0.44408920985E-15  0.00000000000E+00  0.91188000000E+02  0.91188000000E+02 0.  0.
    9900012    2    3    3    0    0  0.85457107655E+01  0.30955632536E+01  0.35681357558E+02  0.54367204768E+02  0.40000274909E+02 0.  0.
         12    1    3    3    0    0 -0.85457107655E+01 -0.30955632536E+01 -0.35681357558E+02  0.36820795232E+02  0.00000000000E+00 0. -1.
         11    1    4    4    0    0 -0.58016297516E+01 -0.20163652013E+01  0.31207955612E+02  0.31806620854E+02  0.51100000000E-03 0. -1.
        -11    1    4    4    0    0  0.11740291488E+02  0.64802463940E+01  0.97077206806E+01  0.16554995579E+02  0.51100000000E-03 0.  1.
         12    1    4    4    0    0  0.26070490295E+01 -0.13683179391E+01 -0.52343187352E+01  0.60055883347E+01  0.00000000000E+00 0. -1.
</event>
<event>
 8    1  0.1290800E-006  0.9118800E+02  0.7816164E-02  0.1184000E+00
        -11   -1    0    0    0    0  0.00000000000E+00  0.00000000000E+00  0.45593999997E+02  0.45594000000E+02  0.51100000000E-03 0. -1.
         11   -1    0    0    0    0 -0.00000000000E+00 -0.00000000000E+00 -0.45593999997E+02  0.45594000000E+02  0.51100000000E-03 0.  1.
         23    2    1    2    0    0  0.35527136788E-14  0.35527136788E-14  0.17763568394E-14  0.91188000000E+02  0.91188000000E+02 0.  0.
    9900012    2    3    3    0    0  0.30254958978E+02  0.19261598065E+02  0.83311504826E+01  0.54367085139E+02  0.40000002192E+02 0.  0.
         12    1    3    3    0    0 -0.30254958978E+02 -0.19261598065E+02 -0.83311504826E+01  0.36820914861E+02  0.00000000000E+00 0. -1.
         11    1    4    4    0    0  0.14333454794E+02  0.12706023962E+02  0.33904119564E+01  0.19452142934E+02  0.51100000000E-03 0. -1.
        -11    1    4    4    0    0  0.18228929807E+02  0.69845791779E+01 -0.84850630349E+01  0.21285547284E+02  0.51100000000E-03 0.  1.
         12    1    4    4    0    0 -0.23074256229E+01 -0.42900507424E+00  0.13425801561E+02  0.13629394921E+02  0.00000000000E+00 0. -1.
</event>
<event>
 8    1  0.1290800E-006  0.9118800E+02  0.7816164E-02  0.1184000E+00
        -11   -1    0    0    0    0  0.00000000000E+00  0.00000000000E+00  0.45593999997E+02  0.45594000000E+02  0.51100000000E-03 0. -1.
         11   -1    0    0    0    0 -0.00000000000E+00 -0.00000000000E+00 -0.45593999997E+02  0.45594000000E+02  0.51100000000E-03 0.  1.
         23    2    1    2    0    0  0.00000000000E+00  0.00000000000E+00  0.00000000000E+00  0.91188000000E+02  0.91188000000E+02 0.  0.
    9900012    2    3    3    0    0 -0.28642518261E+02  0.20618415681E+02 -0.10500982745E+02  0.54367033743E+02  0.39999885023E+02 0.  0.
         12    1    3    3    0    0  0.28642518261E+02 -0.20618415681E+02  0.10500982745E+02  0.36820966257E+02  0.00000000000E+00 0. -1.
         11    1    4    4    0    0 -0.11746763468E+02 -0.91496299664E+01 -0.42335717665E+01  0.15479835615E+02  0.51100000000E-03 0. -1.
        -11    1    4    4    0    0 -0.13842297982E+02  0.20543475118E+02  0.36077111566E+01  0.25033161274E+02  0.51100000000E-03 0.  1.
        -12    1    4    4    0    0 -0.30534568111E+01  0.92245705295E+01 -0.98751221353E+01  0.13854036854E+02  0.00000000000E+00 0.  1.
</event>
<event>
 8    1  0.1290800E-006  0.9118800E+02  0.7816164E-02  0.1184000E+00
        -11   -1    0    0    0    0  0.00000000000E+00  0.00000000000E+00  0.45593999997E+02  0.45594000000E+02  0.51100000000E-03 0.  1.
         11   -1    0    0    0    0 -0.00000000000E+00 -0.00000000000E+00 -0.45593999997E+02  0.45594000000E+02  0.51100000000E-03 0. -1.
         23    2    1    2    0    0  0.00000000000E+00  0.35527136788E-14  0.71054273576E-14  0.91188000000E+02  0.91188000000E+02 0.  0.
    9900012    2    3    3    0    0 -0.24842638732E+02 -0.19481945701E+02  0.18949300735E+02  0.54367096891E+02  0.40000028982E+02 0.  0.
         12    1    3    3    0    0  0.24842638732E+02  0.19481945701E+02 -0.18949300735E+02  0.36820903109E+02  0.00000000000E+00 0. -1.
         11    1    4    4    0    0 -0.14738052048E+02  0.45635489173E+01 -0.22552348602E+01  0.15592377671E+02  0.51100000000E-03 0. -1.
        -11    1    4    4    0    0 -0.67031502954E+01  0.10878494649E+01  0.24035456077E+01  0.72036568554E+01  0.51100000000E-03 0.  1.
        -12    1    4    4    0    0 -0.34014363880E+01 -0.25133344083E+02  0.18800989987E+02  0.31571062364E+02  0.00000000000E+00 0.  1.
</event>
<event>
 8    1  0.1290800E-006  0.9118800E+02  0.7816164E-02  0.1184000E+00
        -11   -1    0    0    0    0  0.00000000000E+00  0.00000000000E+00  0.45593999997E+02  0.45594000000E+02  0.51100000000E-03 0.  1.
         11   -1    0    0    0    0 -0.00000000000E+00 -0.00000000000E+00 -0.45593999997E+02  0.45594000000E+02  0.51100000000E-03 0. -1.
         23    2    1    2    0    0  0.22204460493E-14  0.00000000000E+00  0.00000000000E+00  0.91188000000E+02  0.91188000000E+02 0.  0.
    9900012    2    3    3    0    0 -0.28595736631E+01  0.32456593519E+02 -0.17151434384E+02  0.54367091187E+02  0.40000015978E+02 0.  0.
        -12    1    3    3    0    0  0.28595736631E+01 -0.32456593519E+02  0.17151434384E+02  0.36820908813E+02  0.00000000000E+00 0.  1.
         11    1    4    4    0    0  0.60700795701E+01  0.63673570120E+00 -0.18289374793E+01  0.63715234367E+01  0.51100000000E-03 0.  1.
        -11    1    4    4    0    0  0.93463674911E+01  0.70347628261E+01 -0.12424352322E+02  0.17064788431E+02  0.51100000000E-03 0. -1.
         12    1    4    4    0    0 -0.18276020724E+02  0.24785094992E+02 -0.28981445824E+01  0.30930779319E+02  0.00000000000E+00 0. -1.
</event>
<event>
 8    1  0.1290800E-006  0.9118800E+02  0.7816164E-02  0.1184000E+00
        -11   -1    0    0    0    0  0.00000000000E+00  0.00000000000E+00  0.45593999997E+02  0.45594000000E+02  0.51100000000E-03 0.  1.
         11   -1    0    0    0    0 -0.00000000000E+00 -0.00000000000E+00 -0.45593999997E+02  0.45594000000E+02  0.51100000000E-03 0. -1.
         23    2    1    2    0    0 -0.35527136788E-14 -0.11102230246E-14 -0.35527136788E-14  0.91188000000E+02  0.91188000000E+02 0.  0.
    9900012    2    3    3    0    0  0.28539462200E+02 -0.19915236215E+01  0.23180028760E+02  0.54367071137E+02  0.39999970272E+02 0.  0.
         12    1    3    3    0    0 -0.28539462200E+02  0.19915236215E+01 -0.23180028760E+02  0.36820928863E+02  0.00000000000E+00 0. -1.
         11    1    4    4    0    0  0.58702658181E+01  0.11729468661E+02  0.15638105690E+01  0.13209313366E+02  0.51100000000E-03 0. -1.
        -11    1    4    4    0    0  0.24127361561E+02 -0.15785788249E+02  0.12026212936E+02  0.31240206216E+02  0.51100000000E-03 0.  1.
        -12    1    4    4    0    0 -0.14581651791E+01  0.20647959670E+01  0.95900052546E+01  0.99175515556E+01  0.00000000000E+00 0.  1.
</event>
<event>
 8    1  0.1290800E-006  0.9118800E+02  0.7816164E-02  0.1184000E+00
        -11   -1    0    0    0    0  0.00000000000E+00  0.00000000000E+00  0.45593999997E+02  0.45594000000E+02  0.51100000000E-03 0.  1.
         11   -1    0    0    0    0 -0.00000000000E+00 -0.00000000000E+00 -0.45593999997E+02  0.45594000000E+02  0.51100000000E-03 0. -1.
         23    2    1    2    0    0 -0.53290705182E-14  0.71054273576E-14  0.88817841970E-15  0.91188000000E+02  0.91188000000E+02 0.  0.
    9900012    2    3    3    0    0 -0.15619907475E+02  0.33007520192E+02  0.47225018414E+01  0.54367083086E+02  0.39999997512E+02 0.  0.
        -12    1    3    3    0    0  0.15619907475E+02 -0.33007520192E+02 -0.47225018414E+01  0.36820916914E+02  0.00000000000E+00 0.  1.
         11    1    4    4    0    0  0.37812245255E+01  0.55598307994E+01 -0.11556421543E+02  0.13370125526E+02  0.51100000000E-03 0. -1.
        -11    1    4    4    0    0 -0.68905265573E+00  0.99223424063E+01 -0.11258700310E+01  0.10009758038E+02  0.51100000000E-03 0.  1.
        -12    1    4    4    0    0 -0.18712079345E+02  0.17525346986E+02  0.17404793416E+02  0.30987199522E+02  0.00000000000E+00 0.  1.
</event>
<event>
 8    1  0.1290800E-006  0.9118800E+02  0.7816164E-02  0.1184000E+00
        -11   -1    0    0    0    0  0.00000000000E+00  0.00000000000E+00  0.45593999997E+02  0.45594000000E+02  0.51100000000E-03 0.  1.
         11   -1    0    0    0    0 -0.00000000000E+00 -0.00000000000E+00 -0.45593999997E+02  0.45594000000E+02  0.51100000000E-03 0. -1.
         23    2    1    2    0    0  0.00000000000E+00  0.00000000000E+00 -0.17763568394E-14  0.91188000000E+02  0.91188000000E+02 0.  0.
    9900012    2    3    3    0    0 -0.19590289643E+02 -0.28271192021E+02 -0.13143038898E+02  0.54367092650E+02  0.40000019315E+02 0.  0.
        -12    1    3    3    0    0  0.19590289643E+02  0.28271192021E+02  0.13143038898E+02  0.36820907350E+02  0.00000000000E+00 0.  1.
         11    1    4    4    0    0 -0.69434844968E+01 -0.10088293929E+02 -0.16152113193E+02  0.20270086636E+02  0.51100000000E-03 0.  1.
        -11    1    4    4    0    0 -0.40000131308E+01 -0.19061023754E+02 -0.71321353248E+01  0.20741024231E+02  0.51100000000E-03 0. -1.
        -12    1    4    4    0    0 -0.86467920155E+01  0.87812566266E+00  0.10141209620E+02  0.13355981783E+02  0.00000000000E+00 0.  1.
</event>
<event>
 8    1  0.1290800E-006  0.9118800E+02  0.7816164E-02  0.1184000E+00
        -11   -1    0    0    0    0  0.00000000000E+00  0.00000000000E+00  0.45593999997E+02  0.45594000000E+02  0.51100000000E-03 0. -1.
         11   -1    0    0    0    0 -0.00000000000E+00 -0.00000000000E+00 -0.45593999997E+02  0.45594000000E+02  0.51100000000E-03 0.  1.
         23    2    1    2    0    0 -0.88817841970E-15  0.00000000000E+00  0.71817551905E-15  0.91188000000E+02  0.91188000000E+02 0.  0.
    9900012    2    3    3    0    0  0.76692152243E+01  0.36013357565E+02 -0.23379248320E-01  0.54367091105E+02  0.40000015791E+02 0.  0.
         12    1    3    3    0    0 -0.76692152243E+01 -0.36013357565E+02  0.23379248320E-01  0.36820908895E+02  0.00000000000E+00 0. -1.
         11    1    4    4    0    0  0.74286873344E+01 -0.47161923513E+00  0.72756123695E+01  0.10408763415E+02  0.51100000000E-03 0. -1.
        -11    1    4    4    0    0  0.65010195468E+01  0.33116257817E+00 -0.24143493858E+01  0.69427665249E+01  0.51100000000E-03 0.  1.
        -12    1    4    4    0    0 -0.62604916569E+01  0.36153814222E+02 -0.48846422320E+01  0.37015561165E+02  0.00000000000E+00 0.  1.
</event>
<event>
 8    1  0.1290800E-006  0.9118800E+02  0.7816164E-02  0.1184000E+00
        -11   -1    0    0    0    0  0.00000000000E+00  0.00000000000E+00  0.45593999997E+02  0.45594000000E+02  0.51100000000E-03 0. -1.
         11   -1    0    0    0    0 -0.00000000000E+00 -0.00000000000E+00 -0.45593999997E+02  0.45594000000E+02  0.51100000000E-03 0.  1.
         23    2    1    2    0    0  0.00000000000E+00 -0.88817841970E-15  0.35527136788E-14  0.91188000000E+02  0.91188000000E+02 0.  0.
    9900012    2    3    3    0    0  0.29679164753E+02  0.59435934672E+01 -0.20966666945E+02  0.54367078685E+02  0.39999987478E+02 0.  0.
         12    1    3    3    0    0 -0.29679164753E+02 -0.59435934672E+01  0.20966666945E+02  0.36820921315E+02  0.00000000000E+00 0. -1.
         11    1    4    4    0    0  0.29046902090E+02  0.64171856944E+00 -0.63924689382E+01  0.29748915663E+02  0.51100000000E-03 0. -1.
        -11    1    4    4    0    0 -0.24297340987E+01 -0.44532969168E+01 -0.13398031026E+02  0.14326293898E+02  0.51100000000E-03 0.  1.
         12    1    4    4    0    0  0.30619967617E+01  0.97551718145E+01 -0.11761669811E+01  0.10291869124E+02  0.00000000000E+00 0. -1.
</event>
<event>
 8    1  0.1290800E-006  0.9118800E+02  0.7816164E-02  0.1184000E+00
        -11   -1    0    0    0    0  0.00000000000E+00  0.00000000000E+00  0.45593999997E+02  0.45594000000E+02  0.51100000000E-03 0. -1.
         11   -1    0    0    0    0 -0.00000000000E+00 -0.00000000000E+00 -0.45593999997E+02  0.45594000000E+02  0.51100000000E-03 0.  1.
         23    2    1    2    0    0 -0.14210854715E-13 -0.11102230246E-14 -0.35527136788E-14  0.91188000000E+02  0.91188000000E+02 0.  0.
    9900012    2    3    3    0    0 -0.32983786758E+02  0.15521022588E+01 -0.16292308224E+02  0.54367102162E+02  0.40000041000E+02 0.  0.
         12    1    3    3    0    0  0.32983786758E+02 -0.15521022588E+01  0.16292308224E+02  0.36820897838E+02  0.00000000000E+00 0. -1.
         11    1    4    4    0    0  0.41269800494E+01 -0.14005245266E+01  0.62218678431E+01  0.75963855218E+01  0.51100000000E-03 0. -1.
        -11    1    4    4    0    0 -0.13782957693E+02 -0.59348619892E+01 -0.13633307668E+02  0.20274604505E+02  0.51100000000E-03 0.  1.
         12    1    4    4    0    0 -0.23327809114E+02  0.88874887746E+01 -0.88808683988E+01  0.26496112136E+02  0.00000000000E+00 0. -1.
</event>
<event>
 8    1  0.1290800E-006  0.9118800E+02  0.7816164E-02  0.1184000E+00
        -11   -1    0    0    0    0  0.00000000000E+00  0.00000000000E+00  0.45593999997E+02  0.45594000000E+02  0.51100000000E-03 0. -1.
         11   -1    0    0    0    0 -0.00000000000E+00 -0.00000000000E+00 -0.45593999997E+02  0.45594000000E+02  0.51100000000E-03 0.  1.
         23    2    1    2    0    0 -0.35527136788E-14  0.00000000000E+00  0.00000000000E+00  0.91188000000E+02  0.91188000000E+02 0.  0.
    9900012    2    3    3    0    0 -0.63260399629E+01  0.11841029620E+02  0.34286316108E+02  0.54367078823E+02  0.39999987793E+02 0.  0.
        -12    1    3    3    0    0  0.63260399629E+01 -0.11841029620E+02 -0.34286316108E+02  0.36820921177E+02  0.00000000000E+00 0.  1.
         11    1    4    4    0    0 -0.19926539394E-01 -0.13111649320E+01  0.92233415997E+01  0.93160925861E+01  0.51100000000E-03 0. -1.
        -11    1    4    4    0    0 -0.17342453273E+02  0.17603839023E+02  0.21141895468E+02  0.32521309600E+02  0.51100000000E-03 0.  1.
        -12    1    4    4    0    0  0.11036339850E+02 -0.44516444713E+01  0.39210790403E+01  0.12529676637E+02  0.00000000000E+00 0.  1.
</event>
<event>
 8    1  0.1290800E-006  0.9118800E+02  0.7816164E-02  0.1184000E+00
        -11   -1    0    0    0    0  0.00000000000E+00  0.00000000000E+00  0.45593999997E+02  0.45594000000E+02  0.51100000000E-03 0.  1.
         11   -1    0    0    0    0 -0.00000000000E+00 -0.00000000000E+00 -0.45593999997E+02  0.45594000000E+02  0.51100000000E-03 0. -1.
         23    2    1    2    0    0  0.00000000000E+00  0.00000000000E+00 -0.11102230246E-14  0.91188000000E+02  0.91188000000E+02 0.  0.
    9900012    2    3    3    0    0 -0.77170967520E+01  0.35991468745E+02  0.91563862565E+00  0.54367111923E+02  0.40000063250E+02 0.  0.
        -12    1    3    3    0    0  0.77170967520E+01 -0.35991468745E+02 -0.91563862565E+00  0.36820888077E+02  0.00000000000E+00 0.  1.
         11    1    4    4    0    0 -0.68675658098E+01  0.84451785125E+01  0.12303612699E+02  0.16427519166E+02  0.51100000000E-03 0. -1.
        -11    1    4    4    0    0 -0.47447900876E+01  0.23972604802E+00  0.41265449106E+01  0.62927636785E+01  0.51100000000E-03 0.  1.
         12    1    4    4    0    0  0.38952591454E+01  0.27306564185E+02 -0.15514518984E+02  0.31646829078E+02  0.00000000000E+00 0. -1.
</event>
<event>
 8    1  0.1290800E-006  0.9118800E+02  0.7816164E-02  0.1184000E+00
        -11   -1    0    0    0    0  0.00000000000E+00  0.00000000000E+00  0.45593999997E+02  0.45594000000E+02  0.51100000000E-03 0. -1.
         11   -1    0    0    0    0 -0.00000000000E+00 -0.00000000000E+00 -0.45593999997E+02  0.45594000000E+02  0.51100000000E-03 0.  1.
         23    2    1    2    0    0  0.00000000000E+00  0.00000000000E+00 -0.35527136788E-14  0.91188000000E+02  0.91188000000E+02 0.  0.
    9900012    2    3    3    0    0 -0.14132789932E+02  0.23287491480E+02  0.24773617754E+02  0.54367147928E+02  0.40000145331E+02 0.  0.
        -12    1    3    3    0    0  0.14132789932E+02 -0.23287491480E+02 -0.24773617754E+02  0.36820852072E+02  0.00000000000E+00 0.  1.
         11    1    4    4    0    0 -0.72210023344E+01  0.16292965472E+02  0.26659916571E+02  0.32067970787E+02  0.51100000000E-03 0. -1.
        -11    1    4    4    0    0 -0.11654110125E+02  0.42928032360E+01 -0.74684174694E+01  0.14492194526E+02  0.51100000000E-03 0.  1.
         12    1    4    4    0    0  0.47423225273E+01  0.27017227722E+01  0.55821186525E+01  0.78069826144E+01  0.00000000000E+00 0. -1.
</event>
<event>
 8    1  0.1290800E-006  0.9118800E+02  0.7816164E-02  0.1184000E+00
        -11   -1    0    0    0    0  0.00000000000E+00  0.00000000000E+00  0.45593999997E+02  0.45594000000E+02  0.51100000000E-03 0. -1.
         11   -1    0    0    0    0 -0.00000000000E+00 -0.00000000000E+00 -0.45593999997E+02  0.45594000000E+02  0.51100000000E-03 0.  1.
         23    2    1    2    0    0  0.00000000000E+00  0.00000000000E+00 -0.35527136788E-14  0.91188000000E+02  0.91188000000E+02 0.  0.
    9900012    2    3    3    0    0 -0.16908363180E+02  0.14913115374E+02 -0.29111612235E+02  0.54367085800E+02  0.40000003698E+02 0.  0.
         12    1    3    3    0    0  0.16908363180E+02 -0.14913115374E+02  0.29111612235E+02  0.36820914200E+02  0.00000000000E+00 0. -1.
         11    1    4    4    0    0  0.12097415662E+02  0.83334779622E+01 -0.14086831602E+02  0.20352718381E+02  0.51100000000E-03 0. -1.
        -11    1    4    4    0    0 -0.11368660056E+02  0.54475440291E+01 -0.83575722394E+01  0.15125183682E+02  0.51100000000E-03 0.  1.
         12    1    4    4    0    0 -0.17637118786E+02  0.11320933832E+01 -0.66672083940E+01  0.18889183738E+02  0.00000000000E+00 0. -1.
</event>
<event>
 8    1  0.1290800E-006  0.9118800E+02  0.7816164E-02  0.1184000E+00
        -11   -1    0    0    0    0  0.00000000000E+00  0.00000000000E+00  0.45593999997E+02  0.45594000000E+02  0.51100000000E-03 0.  1.
         11   -1    0    0    0    0 -0.00000000000E+00 -0.00000000000E+00 -0.45593999997E+02  0.45594000000E+02  0.51100000000E-03 0. -1.
         23    2    1    2    0    0 -0.35527136788E-14  0.00000000000E+00  0.00000000000E+00  0.91188000000E+02  0.91188000000E+02 0.  0.
    9900012    2    3    3    0    0 -0.31485902271E+02  0.14773864112E+02 -0.12089331221E+02  0.54367068019E+02  0.39999963162E+02 0.  0.
        -12    1    3    3    0    0  0.31485902271E+02 -0.14773864112E+02  0.12089331221E+02  0.36820931981E+02  0.00000000000E+00 0.  1.
         11    1    4    4    0    0 -0.19628389853E-01  0.22421932487E+01 -0.78600118608E+01  0.81735917779E+01  0.51100000000E-03 0. -1.
        -11    1    4    4    0    0  0.54176479067E+01 -0.23363795775E+01  0.13044470969E+01  0.60424465956E+01  0.51100000000E-03 0.  1.
        -12    1    4    4    0    0 -0.36883921788E+02  0.14868050441E+02 -0.55337664567E+01  0.40151029645E+02  0.00000000000E+00 0.  1.
</event>
<event>
 8    1  0.1290800E-006  0.9118800E+02  0.7816164E-02  0.1184000E+00
        -11   -1    0    0    0    0  0.00000000000E+00  0.00000000000E+00  0.45593999997E+02  0.45594000000E+02  0.51100000000E-03 0.  1.
         11   -1    0    0    0    0 -0.00000000000E+00 -0.00000000000E+00 -0.45593999997E+02  0.45594000000E+02  0.51100000000E-03 0. -1.
         23    2    1    2    0    0  0.00000000000E+00  0.00000000000E+00  0.15543122345E-14  0.91188000000E+02  0.91188000000E+02 0.  0.
    9900012    2    3    3    0    0 -0.36597011980E+02  0.38370344625E+01  0.13099644835E+01  0.54367080318E+02  0.39999991200E+02 0.  0.
         12    1    3    3    0    0  0.36597011980E+02 -0.38370344625E+01 -0.13099644835E+01  0.36820919682E+02  0.00000000000E+00 0. -1.
         11    1    4    4    0    0 -0.50545828985E+01 -0.15958072465E+01 -0.48438951000E+01  0.71804407278E+01  0.51100000000E-03 0. -1.
        -11    1    4    4    0    0 -0.27016902856E+02 -0.56298541625E+00  0.18490130967E+02  0.32743166248E+02  0.51100000000E-03 0.  1.
        -12    1    4    4    0    0 -0.45255262250E+01  0.59958271253E+01 -0.12336271383E+02  0.14443473342E+02  0.00000000000E+00 0.  1.
</event>
<event>
 8    1  0.1290800E-006  0.9118800E+02  0.7816164E-02  0.1184000E+00
        -11   -1    0    0    0    0  0.00000000000E+00  0.00000000000E+00  0.45593999997E+02  0.45594000000E+02  0.51100000000E-03 0.  1.
         11   -1    0    0    0    0 -0.00000000000E+00 -0.00000000000E+00 -0.45593999997E+02  0.45594000000E+02  0.51100000000E-03 0. -1.
         23    2    1    2    0    0  0.00000000000E+00  0.00000000000E+00 -0.35527136788E-14  0.91188000000E+02  0.91188000000E+02 0.  0.
    9900012    2    3    3    0    0  0.13243079855E+02  0.12628806816E+02 -0.31951737309E+02  0.54367089600E+02  0.40000012361E+02 0.  0.
        -12    1    3    3    0    0 -0.13243079855E+02 -0.12628806816E+02  0.31951737309E+02  0.36820910400E+02  0.00000000000E+00 0.  1.
         11    1    4    4    0    0 -0.35019739127E+01  0.67082170499E+01 -0.35251519788E+02  0.36054592563E+02  0.51100000000E-03 0. -1.
        -11    1    4    4    0    0  0.80310371529E+01  0.30855262839E+01  0.31059076735E+01  0.91468405986E+01  0.51100000000E-03 0.  1.
         12    1    4    4    0    0  0.87140166147E+01  0.28350634822E+01  0.19387480535E+00  0.91656564385E+01  0.00000000000E+00 0. -1.
</event>
<event>
 8    1  0.1290800E-006  0.9118800E+02  0.7816164E-02  0.1184000E+00
        -11   -1    0    0    0    0  0.00000000000E+00  0.00000000000E+00  0.45593999997E+02  0.45594000000E+02  0.51100000000E-03 0. -1.
         11   -1    0    0    0    0 -0.00000000000E+00 -0.00000000000E+00 -0.45593999997E+02  0.45594000000E+02  0.51100000000E-03 0.  1.
         23    2    1    2    0    0  0.88817841970E-15  0.00000000000E+00  0.00000000000E+00  0.91188000000E+02  0.91188000000E+02 0.  0.
    9900012    2    3    3    0    0 -0.75512994428E+01  0.30436462981E+02 -0.19297168592E+02  0.54367066854E+02  0.39999960508E+02 0.  0.
        -12    1    3    3    0    0  0.75512994428E+01 -0.30436462981E+02  0.19297168592E+02  0.36820933146E+02  0.00000000000E+00 0.  1.
         11    1    4    4    0    0 -0.19694107275E+01  0.48405982536E+01  0.55432131443E+01  0.76182138517E+01  0.51100000000E-03 0. -1.
        -11    1    4    4    0    0  0.28412538668E+01  0.15047727428E+02 -0.28854251702E+02  0.32666108826E+02  0.51100000000E-03 0.  1.
        -12    1    4    4    0    0 -0.84231425821E+01  0.10548137300E+02  0.40138699659E+01  0.14082744177E+02  0.00000000000E+00 0.  1.
</event>
<event>
 8    1  0.1290800E-006  0.9118800E+02  0.7816164E-02  0.1184000E+00
        -11   -1    0    0    0    0  0.00000000000E+00  0.00000000000E+00  0.45593999997E+02  0.45594000000E+02  0.51100000000E-03 0. -1.
         11   -1    0    0    0    0 -0.00000000000E+00 -0.00000000000E+00 -0.45593999997E+02  0.45594000000E+02  0.51100000000E-03 0.  1.
         23    2    1    2    0    0  0.00000000000E+00  0.00000000000E+00  0.00000000000E+00  0.91188000000E+02  0.91188000000E+02 0.  0.
    9900012    2    3    3    0    0 -0.21368268433E+02 -0.29379355076E+02 -0.60025267417E+01  0.54367085729E+02  0.40000003536E+02 0.  0.
         12    1    3    3    0    0  0.21368268433E+02  0.29379355076E+02  0.60025267417E+01  0.36820914271E+02  0.00000000000E+00 0. -1.
         11    1    4    4    0    0  0.91547734567E-01  0.39339952944E+01 -0.86733546284E+00  0.40295125053E+01  0.51100000000E-03 0. -1.
        -11    1    4    4    0    0  0.44615189501E+01 -0.20757535461E+02 -0.31888876262E+01  0.21469732982E+02  0.51100000000E-03 0.  1.
        -12    1    4    4    0    0 -0.25921335117E+02 -0.12555814909E+02 -0.19463036526E+01  0.28867840242E+02  0.00000000000E+00 0.  1.
</event>
<event>
 8    1  0.1290800E-006  0.9118800E+02  0.7816164E-02  0.1184000E+00
        -11   -1    0    0    0    0  0.00000000000E+00  0.00000000000E+00  0.45593999997E+02  0.45594000000E+02  0.51100000000E-03 0.  1.
         11   -1    0    0    0    0 -0.00000000000E+00 -0.00000000000E+00 -0.45593999997E+02  0.45594000000E+02  0.51100000000E-03 0. -1.
         23    2    1    2    0    0  0.00000000000E+00  0.17763568394E-14  0.88817841970E-15  0.91188000000E+02  0.91188000000E+02 0.  0.
    9900012    2    3    3    0    0 -0.33964877907E+02  0.12429440660E+02  0.69047679569E+01  0.54367085469E+02  0.40000002944E+02 0.  0.
         12    1    3    3    0    0  0.33964877907E+02 -0.12429440660E+02 -0.69047679569E+01  0.36820914531E+02  0.00000000000E+00 0. -1.
         11    1    4    4    0    0 -0.54489659191E+01  0.10211560332E+02 -0.47201434275E+01  0.12499877929E+02  0.51100000000E-03 0. -1.
        -11    1    4    4    0    0 -0.15855902684E+02 -0.53889706614E+01 -0.69538664743E+01  0.18133033776E+02  0.51100000000E-03 0.  1.
        -12    1    4    4    0    0 -0.12660009303E+02  0.76068509897E+01  0.18578777859E+02  0.23734173764E+02  0.00000000000E+00 0.  1.
</event>
<event>
 8    1  0.1290800E-006  0.9118800E+02  0.7816164E-02  0.1184000E+00
        -11   -1    0    0    0    0  0.00000000000E+00  0.00000000000E+00  0.45593999997E+02  0.45594000000E+02  0.51100000000E-03 0. -1.
         11   -1    0    0    0    0 -0.00000000000E+00 -0.00000000000E+00 -0.45593999997E+02  0.45594000000E+02  0.51100000000E-03 0.  1.
         23    2    1    2    0    0  0.00000000000E+00 -0.35527136788E-14  0.00000000000E+00  0.91188000000E+02  0.91188000000E+02 0.  0.
    9900012    2    3    3    0    0  0.16218167672E+02  0.31466987525E+02 -0.10128077113E+02  0.54367106304E+02  0.40000050442E+02 0.  0.
        -12    1    3    3    0    0 -0.16218167672E+02 -0.31466987525E+02  0.10128077113E+02  0.36820893696E+02  0.00000000000E+00 0.  1.
         11    1    4    4    0    0  0.22481983888E+02  0.10117105767E+02  0.67084509165E+01  0.25549926470E+02  0.51100000000E-03 0. -1.
        -11    1    4    4    0    0 -0.53873926845E+00  0.37774525171E+01 -0.67717841848E+01  0.77728018645E+01  0.51100000000E-03 0.  1.
         12    1    4    4    0    0 -0.57250769476E+01  0.17572429241E+02 -0.10064743845E+02  0.21044377970E+02  0.00000000000E+00 0. -1.
</event>
<event>
 8    1  0.1290800E-006  0.9118800E+02  0.7816164E-02  0.1184000E+00
        -11   -1    0    0    0    0  0.00000000000E+00  0.00000000000E+00  0.45593999997E+02  0.45594000000E+02  0.51100000000E-03 0. -1.
         11   -1    0    0    0    0 -0.00000000000E+00 -0.00000000000E+00 -0.45593999997E+02  0.45594000000E+02  0.51100000000E-03 0.  1.
         23    2    1    2    0    0  0.22204460493E-15  0.00000000000E+00  0.71054273576E-14  0.91188000000E+02  0.91188000000E+02 0.  0.
    9900012    2    3    3    0    0 -0.19404732267E+01 -0.60464044327E+01 -0.36269192293E+02  0.54367098973E+02  0.40000033728E+02 0.  0.
         12    1    3    3    0    0  0.19404732267E+01  0.60464044327E+01  0.36269192293E+02  0.36820901027E+02  0.00000000000E+00 0. -1.
         11    1    4    4    0    0 -0.61873667677E+01  0.26965005626E+01  0.38272645939E+01  0.77590319844E+01  0.51100000000E-03 0. -1.
        -11    1    4    4    0    0 -0.67642699659E+01 -0.28275134961E+01 -0.38790965001E+01  0.82944300986E+01  0.51100000000E-03 0.  1.
        -12    1    4    4    0    0  0.11011163507E+02 -0.59153914992E+01 -0.36217360386E+02  0.38313636890E+02  0.00000000000E+00 0.  1.
</event>
<event>
 8    1  0.1290800E-006  0.9118800E+02  0.7816164E-02  0.1184000E+00
        -11   -1    0    0    0    0  0.00000000000E+00  0.00000000000E+00  0.45593999997E+02  0.45594000000E+02  0.51100000000E-03 0.  1.
         11   -1    0    0    0    0 -0.00000000000E+00 -0.00000000000E+00 -0.45593999997E+02  0.45594000000E+02  0.51100000000E-03 0. -1.
         23    2    1    2    0    0  0.00000000000E+00  0.00000000000E+00 -0.35527136788E-14  0.91188000000E+02  0.91188000000E+02 0.  0.
    9900012    2    3    3    0    0  0.22892664877E+02  0.17044945828E+02  0.23262915585E+02  0.54367251434E+02  0.40000381292E+02 0.  0.
         12    1    3    3    0    0 -0.22892664877E+02 -0.17044945828E+02 -0.23262915585E+02  0.36820748566E+02  0.00000000000E+00 0. -1.
         11    1    4    4    0    0  0.41995133458E+01 -0.11368693041E+01 -0.34923882766E+01  0.55789927668E+01  0.51100000000E-03 0. -1.
        -11    1    4    4    0    0  0.16930050961E+02  0.72202623175E+01  0.31683218654E+02  0.36641303989E+02  0.51100000000E-03 0.  1.
        -12    1    4    4    0    0  0.17631005698E+01  0.10961552815E+02 -0.49279147925E+01  0.12146954678E+02  0.00000000000E+00 0.  1.
</event>
<event>
 8    1  0.1290800E-006  0.9118800E+02  0.7816164E-02  0.1184000E+00
        -11   -1    0    0    0    0  0.00000000000E+00  0.00000000000E+00  0.45593999997E+02  0.45594000000E+02  0.51100000000E-03 0.  1.
         11   -1    0    0    0    0 -0.00000000000E+00 -0.00000000000E+00 -0.45593999997E+02  0.45594000000E+02  0.51100000000E-03 0. -1.
         23    2    1    2    0    0  0.35527136788E-14  0.00000000000E+00  0.00000000000E+00  0.91188000000E+02  0.91188000000E+02 0.  0.
    9900012    2    3    3    0    0  0.86161266983E+01  0.46898898440E+01  0.35490088062E+02  0.54367094842E+02  0.40000024311E+02 0.  0.
         12    1    3    3    0    0 -0.86161266983E+01 -0.46898898440E+01 -0.35490088062E+02  0.36820905158E+02  0.00000000000E+00 0. -1.
         11    1    4    4    0    0 -0.72638841934E+01 -0.23028693793E+01  0.69406935849E+01  0.10307300745E+02  0.51100000000E-03 0. -1.
        -11    1    4    4    0    0 -0.66358733029E+01  0.87234641607E+01  0.99719941011E+01  0.14818039954E+02  0.51100000000E-03 0.  1.
        -12    1    4    4    0    0  0.22515884195E+02 -0.17307049375E+01  0.18577400376E+02  0.29241754143E+02  0.00000000000E+00 0.  1.
</event>
<event>
 8    1  0.1290800E-006  0.9118800E+02  0.7816164E-02  0.1184000E+00
        -11   -1    0    0    0    0  0.00000000000E+00  0.00000000000E+00  0.45593999997E+02  0.45594000000E+02  0.51100000000E-03 0.  1.
         11   -1    0    0    0    0 -0.00000000000E+00 -0.00000000000E+00 -0.45593999997E+02  0.45594000000E+02  0.51100000000E-03 0. -1.
         23    2    1    2    0    0  0.35527136788E-14 -0.35527136788E-14 -0.88817841970E-15  0.91188000000E+02  0.91188000000E+02 0.  0.
    9900012    2    3    3    0    0 -0.30594061371E+02  0.19783352713E+02 -0.53292074608E+01  0.54367107997E+02  0.40000054300E+02 0.  0.
         12    1    3    3    0    0  0.30594061371E+02 -0.19783352713E+02  0.53292074608E+01  0.36820892003E+02  0.00000000000E+00 0. -1.
         11    1    4    4    0    0 -0.77712137691E+01  0.65710897386E+01 -0.12614378120E+01  0.10254862720E+02  0.51100000000E-03 0. -1.
        -11    1    4    4    0    0 -0.28466074760E+02  0.18477592489E+02  0.24285219935E+01  0.34024058484E+02  0.51100000000E-03 0.  1.
         12    1    4    4    0    0  0.56432271579E+01 -0.52653295143E+01 -0.64962916423E+01  0.10088186792E+02  0.00000000000E+00 0. -1.
</event>
<event>
 8    1  0.1290800E-006  0.9118800E+02  0.7816164E-02  0.1184000E+00
        -11   -1    0    0    0    0  0.00000000000E+00  0.00000000000E+00  0.45593999997E+02  0.45594000000E+02  0.51100000000E-03 0. -1.
         11   -1    0    0    0    0 -0.00000000000E+00 -0.00000000000E+00 -0.45593999997E+02  0.45594000000E+02  0.51100000000E-03 0.  1.
         23    2    1    2    0    0  0.00000000000E+00  0.00000000000E+00  0.00000000000E+00  0.91188000000E+02  0.91188000000E+02 0.  0.
    9900012    2    3    3    0    0  0.19063266910E+02  0.71263586675E+01  0.30685295478E+02  0.54367075356E+02  0.39999979888E+02 0.  0.
        -12    1    3    3    0    0 -0.19063266910E+02 -0.71263586675E+01 -0.30685295478E+02  0.36820924644E+02  0.00000000000E+00 0.  1.
         11    1    4    4    0    0  0.17835156443E+02 -0.36599824073E+01  0.18351472915E+02  0.25850818846E+02  0.51100000000E-03 0. -1.
        -11    1    4    4    0    0 -0.84858422575E+01  0.56163187463E+01 -0.20755796920E+01  0.10385595139E+02  0.51100000000E-03 0.  1.
         12    1    4    4    0    0  0.97139527241E+01  0.51700223284E+01  0.14409402255E+02  0.18130661371E+02  0.00000000000E+00 0. -1.
</event>
<event>
 8    1  0.1290800E-006  0.9118800E+02  0.7816164E-02  0.1184000E+00
        -11   -1    0    0    0    0  0.00000000000E+00  0.00000000000E+00  0.45593999997E+02  0.45594000000E+02  0.51100000000E-03 0. -1.
         11   -1    0    0    0    0 -0.00000000000E+00 -0.00000000000E+00 -0.45593999997E+02  0.45594000000E+02  0.51100000000E-03 0.  1.
         23    2    1    2    0    0  0.00000000000E+00  0.00000000000E+00 -0.88817841970E-15  0.91188000000E+02  0.91188000000E+02 0.  0.
    9900012    2    3    3    0    0 -0.15382207529E+02  0.33114844546E+02 -0.47507589540E+01  0.54367150628E+02  0.40000151487E+02 0.  0.
         12    1    3    3    0    0  0.15382207529E+02 -0.33114844546E+02  0.47507589540E+01  0.36820849372E+02  0.00000000000E+00 0. -1.
         11    1    4    4    0    0  0.43653472318E+01 -0.10168546348E+01  0.42018743203E+00  0.45018671173E+01  0.51100000000E-03 0. -1.
        -11    1    4    4    0    0 -0.66597869987E+01  0.13318221393E+02  0.12618494355E+02  0.19518047648E+02  0.51100000000E-03 0.  1.
        -12    1    4    4    0    0 -0.13087767763E+02  0.20813477789E+02 -0.17789440741E+02  0.30347235863E+02  0.00000000000E+00 0.  1.
</event>
<event>
 8    1  0.1290800E-006  0.9118800E+02  0.7816164E-02  0.1184000E+00
        -11   -1    0    0    0    0  0.00000000000E+00  0.00000000000E+00  0.45593999997E+02  0.45594000000E+02  0.51100000000E-03 0.  1.
         11   -1    0    0    0    0 -0.00000000000E+00 -0.00000000000E+00 -0.45593999997E+02  0.45594000000E+02  0.51100000000E-03 0. -1.
         23    2    1    2    0    0  0.00000000000E+00 -0.17763568394E-14  0.00000000000E+00  0.91188000000E+02  0.91188000000E+02 0.  0.
    9900012    2    3    3    0    0 -0.12974290382E+02  0.15707065414E+02  0.30671158014E+02  0.54367298638E+02  0.40000488903E+02 0.  0.
         12    1    3    3    0    0  0.12974290382E+02 -0.15707065414E+02 -0.30671158014E+02  0.36820701362E+02  0.00000000000E+00 0. -1.
         11    1    4    4    0    0  0.54089465649E+01  0.14053603394E+02  0.12076670933E+02  0.19303016666E+02  0.51100000000E-03 0. -1.
        -11    1    4    4    0    0 -0.22144758515E+01 -0.22844240673E+01  0.18139783100E+02  0.18416683409E+02  0.51100000000E-03 0.  1.
         12    1    4    4    0    0 -0.16168761095E+02  0.39378860874E+01  0.45470398022E+00  0.16647598563E+02  0.00000000000E+00 0. -1.
</event>
<event>
 8    1  0.1290800E-006  0.9118800E+02  0.7816164E-02  0.1184000E+00
        -11   -1    0    0    0    0  0.00000000000E+00  0.00000000000E+00  0.45593999997E+02  0.45594000000E+02  0.51100000000E-03 0.  1.
         11   -1    0    0    0    0 -0.00000000000E+00 -0.00000000000E+00 -0.45593999997E+02  0.45594000000E+02  0.51100000000E-03 0. -1.
         23    2    1    2    0    0 -0.99920072216E-15  0.35527136788E-14  0.00000000000E+00  0.91188000000E+02  0.91188000000E+02 0.  0.
    9900012    2    3    3    0    0 -0.88838081252E+00 -0.24074772141E+02 -0.27845936562E+02  0.54367081256E+02  0.39999993339E+02 0.  0.
        -12    1    3    3    0    0  0.88838081252E+00  0.24074772141E+02  0.27845936562E+02  0.36820918744E+02  0.00000000000E+00 0.  1.
         11    1    4    4    0    0 -0.48080149542E+01 -0.15250841653E+02 -0.21702596900E+02  0.26957520127E+02  0.51100000000E-03 0. -1.
        -11    1    4    4    0    0  0.34198140063E+01 -0.14823787228E+02 -0.11719151308E+02  0.19203601309E+02  0.51100000000E-03 0.  1.
        -12    1    4    4    0    0  0.49982013538E+00  0.59998567388E+01  0.55758116460E+01  0.82059598199E+01  0.00000000000E+00 0.  1.
</event>
<event>
 8    1  0.1290800E-006  0.9118800E+02  0.7816164E-02  0.1184000E+00
        -11   -1    0    0    0    0  0.00000000000E+00  0.00000000000E+00  0.45593999997E+02  0.45594000000E+02  0.51100000000E-03 0.  1.
         11   -1    0    0    0    0 -0.00000000000E+00 -0.00000000000E+00 -0.45593999997E+02  0.45594000000E+02  0.51100000000E-03 0. -1.
         23    2    1    2    0    0  0.71054273576E-14  0.00000000000E+00  0.17763568394E-14  0.91188000000E+02  0.91188000000E+02 0.  0.
    9900012    2    3    3    0    0  0.25006325454E+02 -0.24363542859E+02  0.11699625195E+02  0.54367085249E+02  0.40000002443E+02 0.  0.
         12    1    3    3    0    0 -0.25006325454E+02  0.24363542859E+02 -0.11699625195E+02  0.36820914751E+02  0.00000000000E+00 0. -1.
         11    1    4    4    0    0  0.13174003690E+02 -0.93700162916E+01 -0.90279650104E+01  0.18516363871E+02  0.51100000000E-03 0. -1.
        -11    1    4    4    0    0  0.55922024587E+00  0.56227023079E+01  0.28674814335E+01  0.63363994949E+01  0.51100000000E-03 0.  1.
        -12    1    4    4    0    0  0.11273101519E+02 -0.20616228875E+02  0.17860108772E+02  0.29514321883E+02  0.00000000000E+00 0.  1.
</event>
<event>
 8    1  0.1290800E-006  0.9118800E+02  0.7816164E-02  0.1184000E+00
        -11   -1    0    0    0    0  0.00000000000E+00  0.00000000000E+00  0.45593999997E+02  0.45594000000E+02  0.51100000000E-03 0.  1.
         11   -1    0    0    0    0 -0.00000000000E+00 -0.00000000000E+00 -0.45593999997E+02  0.45594000000E+02  0.51100000000E-03 0. -1.
         23    2    1    2    0    0  0.00000000000E+00  0.00000000000E+00  0.35527136788E-14  0.91188000000E+02  0.91188000000E+02 0.  0.
    9900012    2    3    3    0    0  0.36226534079E+01 -0.19771783489E+02  0.30850208662E+02  0.54367049244E+02  0.39999920361E+02 0.  0.
         12    1    3    3    0    0 -0.36226534079E+01  0.19771783489E+02 -0.30850208662E+02  0.36820950756E+02  0.00000000000E+00 0. -1.
         11    1    4    4    0    0 -0.98284842409E+01 -0.13268783568E+02  0.90268040404E+01  0.18818685163E+02  0.51100000000E-03 0. -1.
        -11    1    4    4    0    0  0.53749729261E+01  0.41767360353E+01  0.21064767987E+02  0.22137296774E+02  0.51100000000E-03 0.  1.
        -12    1    4    4    0    0  0.80761647227E+01 -0.10679735957E+02  0.75863663474E+00  0.13411067306E+02  0.00000000000E+00 0.  1.
</event>
<event>
 8    1  0.1290800E-006  0.9118800E+02  0.7816164E-02  0.1184000E+00
        -11   -1    0    0    0    0  0.00000000000E+00  0.00000000000E+00  0.45593999997E+02  0.45594000000E+02  0.51100000000E-03 0.  1.
         11   -1    0    0    0    0 -0.00000000000E+00 -0.00000000000E+00 -0.45593999997E+02  0.45594000000E+02  0.51100000000E-03 0. -1.
         23    2    1    2    0    0  0.00000000000E+00 -0.44408920985E-15 -0.88817841970E-15  0.91188000000E+02  0.91188000000E+02 0.  0.
    9900012    2    3    3    0    0 -0.36617001678E+02 -0.23846046538E+01  0.30479440814E+01  0.54367066900E+02  0.39999960611E+02 0.  0.
         12    1    3    3    0    0  0.36617001678E+02  0.23846046538E+01 -0.30479440814E+01  0.36820933100E+02  0.00000000000E+00 0. -1.
         11    1    4    4    0    0 -0.14778860309E+02 -0.12701290163E+02  0.79953954323E+00  0.19503249667E+02  0.51100000000E-03 0. -1.
        -11    1    4    4    0    0 -0.62677021479E+01  0.87523901810E+01  0.12237481853E+02  0.16298600751E+02  0.51100000000E-03 0.  1.
        -12    1    4    4    0    0 -0.15570439222E+02  0.15642953280E+01 -0.99890773144E+01  0.18565216482E+02  0.00000000000E+00 0.  1.
</event>
<event>
 8    1  0.1290800E-006  0.9118800E+02  0.7816164E-02  0.1184000E+00
        -11   -1    0    0    0    0  0.00000000000E+00  0.00000000000E+00  0.45593999997E+02  0.45594000000E+02  0.51100000000E-03 0.  1.
         11   -1    0    0    0    0 -0.00000000000E+00 -0.00000000000E+00 -0.45593999997E+02  0.45594000000E+02  0.51100000000E-03 0. -1.
         23    2    1    2    0    0 -0.17763568394E-14  0.00000000000E+00  0.13322676296E-14  0.91188000000E+02  0.91188000000E+02 0.  0.
    9900012    2    3    3    0    0  0.11313354518E+02  0.35004546689E+02 -0.15707099941E+01  0.54367117212E+02  0.40000075309E+02 0.  0.
         12    1    3    3    0    0 -0.11313354518E+02 -0.35004546689E+02  0.15707099941E+01  0.36820882788E+02  0.00000000000E+00 0. -1.
         11    1    4    4    0    0 -0.99737482460E+00 -0.29017808660E+00  0.11690698065E+01  0.15638683884E+01  0.51100000000E-03 0. -1.
        -11    1    4    4    0    0 -0.12183628714E+01  0.25159863887E+02  0.14163100878E+02  0.28898037747E+02  0.51100000000E-03 0.  1.
        -12    1    4    4    0    0  0.13529092214E+02  0.10134860889E+02 -0.16902880679E+02  0.23905211077E+02  0.00000000000E+00 0.  1.
</event>
<event>
 8    1  0.1290800E-006  0.9118800E+02  0.7816164E-02  0.1184000E+00
        -11   -1    0    0    0    0  0.00000000000E+00  0.00000000000E+00  0.45593999997E+02  0.45594000000E+02  0.51100000000E-03 0. -1.
         11   -1    0    0    0    0 -0.00000000000E+00 -0.00000000000E+00 -0.45593999997E+02  0.45594000000E+02  0.51100000000E-03 0.  1.
         23    2    1    2    0    0 -0.10658141036E-13  0.17763568394E-14  0.00000000000E+00  0.91188000000E+02  0.91188000000E+02 0.  0.
    9900012    2    3    3    0    0 -0.29399164242E+02 -0.15310036503E+02 -0.16033433934E+02  0.54367094531E+02  0.40000023602E+02 0.  0.
         12    1    3    3    0    0  0.29399164242E+02  0.15310036503E+02  0.16033433934E+02  0.36820905469E+02  0.00000000000E+00 0. -1.
         11    1    4    4    0    0  0.34012166603E+01 -0.16540188823E+02 -0.13127607132E+02  0.21388786556E+02  0.51100000000E-03 0. -1.
        -11    1    4    4    0    0 -0.11270257749E+02  0.79181162029E-01 -0.15254320011E+01  0.11373298661E+02  0.51100000000E-03 0.  1.
         12    1    4    4    0    0 -0.21530123154E+02  0.11509711587E+01 -0.13803948008E+01  0.21605009313E+02  0.00000000000E+00 0. -1.
</event>
<event>
 8    1  0.1290800E-006  0.9118800E+02  0.7816164E-02  0.1184000E+00
        -11   -1    0    0    0    0  0.00000000000E+00  0.00000000000E+00  0.45593999997E+02  0.45594000000E+02  0.51100000000E-03 0. -1.
         11   -1    0    0    0    0 -0.00000000000E+00 -0.00000000000E+00 -0.45593999997E+02  0.45594000000E+02  0.51100000000E-03 0.  1.
         23    2    1    2    0    0  0.00000000000E+00  0.35527136788E-14  0.00000000000E+00  0.91188000000E+02  0.91188000000E+02 0.  0.
    9900012    2    3    3    0    0  0.18694982085E+02 -0.31203486054E+02  0.57113273687E+01  0.54367093474E+02  0.40000021194E+02 0.  0.
        -12    1    3    3    0    0 -0.18694982085E+02  0.31203486054E+02 -0.57113273687E+01  0.36820906526E+02  0.00000000000E+00 0.  1.
         11    1    4    4    0    0  0.18273744315E+02 -0.34079913608E+02 -0.56937779061E+01  0.39086946030E+02  0.51100000000E-03 0. -1.
        -11    1    4    4    0    0 -0.18735848771E+01  0.60007663963E+01  0.73056700315E+01  0.96380668448E+01  0.51100000000E-03 0.  1.
        -12    1    4    4    0    0  0.22948226471E+01 -0.31243388414E+01  0.40994352433E+01  0.56420805995E+01  0.00000000000E+00 0.  1.
</event>
<event>
 8    1  0.1290800E-006  0.9118800E+02  0.7816164E-02  0.1184000E+00
        -11   -1    0    0    0    0  0.00000000000E+00  0.00000000000E+00  0.45593999997E+02  0.45594000000E+02  0.51100000000E-03 0.  1.
         11   -1    0    0    0    0 -0.00000000000E+00 -0.00000000000E+00 -0.45593999997E+02  0.45594000000E+02  0.51100000000E-03 0. -1.
         23    2    1    2    0    0  0.17763568394E-14  0.00000000000E+00  0.00000000000E+00  0.91188000000E+02  0.91188000000E+02 0.  0.
    9900012    2    3    3    0    0 -0.86076189292E+01  0.15508348244E+02  0.32267395002E+02  0.54367017543E+02  0.39999848092E+02 0.  0.
         12    1    3    3    0    0  0.86076189292E+01 -0.15508348244E+02 -0.32267395002E+02  0.36820982457E+02  0.00000000000E+00 0. -1.
         11    1    4    4    0    0  0.12669793230E+02  0.50588635497E+01  0.16834907761E+02  0.21668638178E+02  0.51100000000E-03 0. -1.
        -11    1    4    4    0    0 -0.48535906854E+01  0.58636743760E+01  0.13551469822E+02  0.15542919749E+02  0.51100000000E-03 0.  1.
         12    1    4    4    0    0 -0.16423821474E+02  0.45858103184E+01  0.18810174190E+01  0.17155459615E+02  0.00000000000E+00 0. -1.
</event>
<event>
 8    1  0.1290800E-006  0.9118800E+02  0.7816164E-02  0.1184000E+00
        -11   -1    0    0    0    0  0.00000000000E+00  0.00000000000E+00  0.45593999997E+02  0.45594000000E+02  0.51100000000E-03 0. -1.
         11   -1    0    0    0    0 -0.00000000000E+00 -0.00000000000E+00 -0.45593999997E+02  0.45594000000E+02  0.51100000000E-03 0.  1.
         23    2    1    2    0    0  0.00000000000E+00 -0.35527136788E-14 -0.44408920985E-15  0.91188000000E+02  0.91188000000E+02 0.  0.
    9900012    2    3    3    0    0 -0.21732060243E+02  0.29637955926E+02  0.22557112771E+01  0.54367094155E+02  0.40000022745E+02 0.  0.
        -12    1    3    3    0    0  0.21732060243E+02 -0.29637955926E+02 -0.22557112771E+01  0.36820905845E+02  0.00000000000E+00 0.  1.
         11    1    4    4    0    0 -0.49583385435E+01 -0.16778402787E+01  0.13084569096E+01  0.53955841999E+01  0.51100000000E-03 0. -1.
        -11    1    4    4    0    0 -0.16613302529E+02  0.11507400107E+01 -0.65390939433E+01  0.17890941097E+02  0.51100000000E-03 0.  1.
        -12    1    4    4    0    0 -0.16041917064E+00  0.30165056194E+02  0.74863483107E+01  0.31080568858E+02  0.00000000000E+00 0.  1.
</event>
<event>
 8    1  0.1290800E-006  0.9118800E+02  0.7816164E-02  0.1184000E+00
        -11   -1    0    0    0    0  0.00000000000E+00  0.00000000000E+00  0.45593999997E+02  0.45594000000E+02  0.51100000000E-03 0.  1.
         11   -1    0    0    0    0 -0.00000000000E+00 -0.00000000000E+00 -0.45593999997E+02  0.45594000000E+02  0.51100000000E-03 0. -1.
         23    2    1    2    0    0 -0.35527136788E-14  0.00000000000E+00  0.00000000000E+00  0.91188000000E+02  0.91188000000E+02 0.  0.
    9900012    2    3    3    0    0  0.12081292780E+02 -0.10519422707E+02  0.33153533315E+02  0.54367181696E+02  0.40000222311E+02 0.  0.
         12    1    3    3    0    0 -0.12081292780E+02  0.10519422707E+02 -0.33153533315E+02  0.36820818304E+02  0.00000000000E+00 0. -1.
         11    1    4    4    0    0  0.26046544197E+01 -0.65008795260E+01  0.16819862248E+02  0.18219589061E+02  0.51100000000E-03 0. -1.
        -11    1    4    4    0    0  0.13985665528E+02 -0.14020671387E+02  0.15493222106E+02  0.25143945552E+02  0.51100000000E-03 0.  1.
         12    1    4    4    0    0 -0.45090271674E+01  0.10002128207E+02  0.84044896060E+00  0.11003647083E+02  0.00000000000E+00 0. -1.
</event>
<event>
 8    1  0.1290800E-006  0.9118800E+02  0.7816164E-02  0.1184000E+00
        -11   -1    0    0    0    0  0.00000000000E+00  0.00000000000E+00  0.45593999997E+02  0.45594000000E+02  0.51100000000E-03 0. -1.
         11   -1    0    0    0    0 -0.00000000000E+00 -0.00000000000E+00 -0.45593999997E+02  0.45594000000E+02  0.51100000000E-03 0.  1.
         23    2    1    2    0    0  0.22204460493E-15  0.00000000000E+00  0.00000000000E+00  0.91188000000E+02  0.91188000000E+02 0.  0.
    9900012    2    3    3    0    0 -0.23762849685E+00 -0.36725223619E+02  0.26413450447E+01  0.54367146930E+02  0.40000143057E+02 0.  0.
        -12    1    3    3    0    0  0.23762849685E+00  0.36725223619E+02 -0.26413450447E+01  0.36820853070E+02  0.00000000000E+00 0.  1.
         11    1    4    4    0    0 -0.34457133282E+00 -0.29132073681E+01  0.35128922888E+01  0.45766711774E+01  0.51100000000E-03 0.  1.
        -11    1    4    4    0    0  0.31060450409E+01 -0.21343183927E+02  0.17230784954E+02  0.27605777771E+02  0.51100000000E-03 0. -1.
        -12    1    4    4    0    0 -0.29991022049E+01 -0.12468832323E+02 -0.18102332198E+02  0.22184697982E+02  0.00000000000E+00 0.  1.
</event>
<event>
 8    1  0.1290800E-006  0.9118800E+02  0.7816164E-02  0.1184000E+00
        -11   -1    0    0    0    0  0.00000000000E+00  0.00000000000E+00  0.45593999997E+02  0.45594000000E+02  0.51100000000E-03 0.  1.
         11   -1    0    0    0    0 -0.00000000000E+00 -0.00000000000E+00 -0.45593999997E+02  0.45594000000E+02  0.51100000000E-03 0. -1.
         23    2    1    2    0    0  0.11102230246E-14  0.71054273576E-14  0.00000000000E+00  0.91188000000E+02  0.91188000000E+02 0.  0.
    9900012    2    3    3    0    0 -0.70580465612E+00  0.32345818217E+02 -0.17579268444E+02  0.54367071231E+02  0.39999970486E+02 0.  0.
        -12    1    3    3    0    0  0.70580465612E+00 -0.32345818217E+02  0.17579268444E+02  0.36820928769E+02  0.00000000000E+00 0.  1.
         11    1    4    4    0    0 -0.60400206037E+01  0.61755179401E+01  0.33827946820E+01  0.92769699171E+01  0.51100000000E-03 0.  1.
        -11    1    4    4    0    0 -0.90538444754E+01 -0.57773804870E+00 -0.78937955677E+01  0.12025717848E+02  0.51100000000E-03 0. -1.
        -12    1    4    4    0    0  0.14388060423E+02  0.26748038326E+02 -0.13068267558E+02  0.33064383466E+02  0.00000000000E+00 0.  1.
</event>
<event>
 8    1  0.1290800E-006  0.9118800E+02  0.7816164E-02  0.1184000E+00
        -11   -1    0    0    0    0  0.00000000000E+00  0.00000000000E+00  0.45593999997E+02  0.45594000000E+02  0.51100000000E-03 0.  1.
         11   -1    0    0    0    0 -0.00000000000E+00 -0.00000000000E+00 -0.45593999997E+02  0.45594000000E+02  0.51100000000E-03 0. -1.
         23    2    1    2    0    0 -0.88817841970E-15  0.88817841970E-15  0.00000000000E+00  0.91188000000E+02  0.91188000000E+02 0.  0.
    9900012    2    3    3    0    0 -0.42343629898E+01  0.43010531184E+01 -0.36322859239E+02  0.54367095732E+02  0.40000026340E+02 0.  0.
        -12    1    3    3    0    0  0.42343629898E+01 -0.43010531184E+01  0.36322859239E+02  0.36820904268E+02  0.00000000000E+00 0.  1.
         11    1    4    4    0    0 -0.97329538189E+01 -0.16130761507E+01 -0.92559917304E+01  0.13527963183E+02  0.51100000000E-03 0. -1.
        -11    1    4    4    0    0  0.17518418267E+02  0.85968781710E+00 -0.15264102135E+02  0.23251383958E+02  0.51100000000E-03 0.  1.
         12    1    4    4    0    0 -0.12019827438E+02  0.50544414520E+01 -0.11802765374E+02  0.17587748591E+02  0.00000000000E+00 0. -1.
</event>
<event>
 8    1  0.1290800E-006  0.9118800E+02  0.7816164E-02  0.1184000E+00
        -11   -1    0    0    0    0  0.00000000000E+00  0.00000000000E+00  0.45593999997E+02  0.45594000000E+02  0.51100000000E-03 0.  1.
         11   -1    0    0    0    0 -0.00000000000E+00 -0.00000000000E+00 -0.45593999997E+02  0.45594000000E+02  0.51100000000E-03 0. -1.
         23    2    1    2    0    0  0.00000000000E+00  0.00000000000E+00  0.17763568394E-14  0.91188000000E+02  0.91188000000E+02 0.  0.
    9900012    2    3    3    0    0 -0.33837351740E+02 -0.12236624760E+01  0.14467753591E+02  0.54367087238E+02  0.40000006977E+02 0.  0.
         12    1    3    3    0    0  0.33837351740E+02  0.12236624760E+01 -0.14467753591E+02  0.36820912762E+02  0.00000000000E+00 0. -1.
         11    1    4    4    0    0 -0.13781645866E+02  0.87930641823E+01 -0.28973563630E+01  0.16602602646E+02  0.51100000000E-03 0. -1.
        -11    1    4    4    0    0 -0.17010739060E+02  0.53769094470E+01  0.89872285942E+01  0.19976152699E+02  0.51100000000E-03 0.  1.
         12    1    4    4    0    0 -0.30449668141E+01 -0.15393636105E+02  0.83778813602E+01  0.17788331893E+02  0.00000000000E+00 0. -1.
</event>
<event>
 8    1  0.1290800E-006  0.9118800E+02  0.7816164E-02  0.1184000E+00
        -11   -1    0    0    0    0  0.00000000000E+00  0.00000000000E+00  0.45593999997E+02  0.45594000000E+02  0.51100000000E-03 0. -1.
         11   -1    0    0    0    0 -0.00000000000E+00 -0.00000000000E+00 -0.45593999997E+02  0.45594000000E+02  0.51100000000E-03 0.  1.
         23    2    1    2    0    0  0.00000000000E+00  0.11102230246E-15  0.00000000000E+00  0.91188000000E+02  0.91188000000E+02 0.  0.
    9900012    2    3    3    0    0 -0.35739613748E+02  0.53087612662E+00 -0.88418421778E+01  0.54367082121E+02  0.39999995312E+02 0.  0.
         12    1    3    3    0    0  0.35739613748E+02 -0.53087612662E+00  0.88418421778E+01  0.36820917879E+02  0.00000000000E+00 0. -1.
         11    1    4    4    0    0  0.23479052086E+01 -0.71835949929E+01  0.33649156084E+01  0.82728080604E+01  0.51100000000E-03 0. -1.
        -11    1    4    4    0    0 -0.99449936729E+01 -0.39977942088E+01 -0.11333761355E+02  0.15599339871E+02  0.51100000000E-03 0.  1.
        -12    1    4    4    0    0 -0.28142525284E+02  0.11712265328E+02 -0.87299643082E+00  0.30494934190E+02  0.00000000000E+00 0.  1.
</event>
<event>
 8    1  0.1290800E-006  0.9118800E+02  0.7816164E-02  0.1184000E+00
        -11   -1    0    0    0    0  0.00000000000E+00  0.00000000000E+00  0.45593999997E+02  0.45594000000E+02  0.51100000000E-03 0. -1.
         11   -1    0    0    0    0 -0.00000000000E+00 -0.00000000000E+00 -0.45593999997E+02  0.45594000000E+02  0.51100000000E-03 0.  1.
         23    2    1    2    0    0  0.00000000000E+00  0.17763568394E-14 -0.35527136788E-14  0.91188000000E+02  0.91188000000E+02 0.  0.
    9900012    2    3    3    0    0  0.19236025090E+02 -0.13285719302E+02 -0.28447217053E+02  0.54367093483E+02  0.40000021213E+02 0.  0.
         12    1    3    3    0    0 -0.19236025090E+02  0.13285719302E+02  0.28447217053E+02  0.36820906517E+02  0.00000000000E+00 0. -1.
         11    1    4    4    0    0  0.13266322423E+02 -0.98530538835E+00  0.47993767173E+01  0.14142141086E+02  0.51100000000E-03 0. -1.
        -11    1    4    4    0    0  0.25806220027E+00  0.45603633187E+01 -0.95537760856E+01  0.10589530086E+02  0.51100000000E-03 0.  1.
         12    1    4    4    0    0  0.57116404664E+01 -0.16860777232E+02 -0.23692817685E+02  0.29635422311E+02  0.00000000000E+00 0. -1.
</event>
<event>
 8    1  0.1290800E-006  0.9118800E+02  0.7816164E-02  0.1184000E+00
        -11   -1    0    0    0    0  0.00000000000E+00  0.00000000000E+00  0.45593999997E+02  0.45594000000E+02  0.51100000000E-03 0.  1.
         11   -1    0    0    0    0 -0.00000000000E+00 -0.00000000000E+00 -0.45593999997E+02  0.45594000000E+02  0.51100000000E-03 0. -1.
         23    2    1    2    0    0  0.44408920985E-15 -0.35527136788E-14  0.35527136788E-14  0.91188000000E+02  0.91188000000E+02 0.  0.
    9900012    2    3    3    0    0  0.23041758391E+01 -0.24842309982E+02 -0.27079995758E+02  0.54367139584E+02  0.40000126309E+02 0.  0.
        -12    1    3    3    0    0 -0.23041758391E+01  0.24842309982E+02  0.27079995758E+02  0.36820860416E+02  0.00000000000E+00 0.  1.
         11    1    4    4    0    0  0.10132604468E+02 -0.13220184030E+00 -0.80200478679E+01  0.12923169840E+02  0.51100000000E-03 0. -1.
        -11    1    4    4    0    0 -0.93744918549E+01  0.22187402058E+01 -0.31870893737E+01  0.10146991898E+02  0.51100000000E-03 0.  1.
         12    1    4    4    0    0  0.15460632255E+01 -0.26928848347E+02 -0.15872858517E+02  0.31296977846E+02  0.00000000000E+00 0. -1.
</event>
<event>
 8    1  0.1290800E-006  0.9118800E+02  0.7816164E-02  0.1184000E+00
        -11   -1    0    0    0    0  0.00000000000E+00  0.00000000000E+00  0.45593999997E+02  0.45594000000E+02  0.51100000000E-03 0.  1.
         11   -1    0    0    0    0 -0.00000000000E+00 -0.00000000000E+00 -0.45593999997E+02  0.45594000000E+02  0.51100000000E-03 0. -1.
         23    2    1    2    0    0 -0.71054273576E-14  0.34694469520E-16 -0.11102230246E-15  0.91188000000E+02  0.91188000000E+02 0.  0.
    9900012    2    3    3    0    0 -0.36813925775E+02 -0.37007263042E-01  0.71653262014E+00  0.54367083125E+02  0.39999997600E+02 0.  0.
        -12    1    3    3    0    0  0.36813925775E+02  0.37007263042E-01 -0.71653262014E+00  0.36820916875E+02  0.00000000000E+00 0.  1.
         11    1    4    4    0    0 -0.96797510686E+01 -0.24044477785E+01 -0.63773589746E+01  0.11838482066E+02  0.51100000000E-03 0. -1.
        -11    1    4    4    0    0  0.11224736186E+01  0.36404927249E+01  0.13074264504E+02  0.13617985420E+02  0.51100000000E-03 0.  1.
         12    1    4    4    0    0 -0.28256648325E+02 -0.12730522094E+01 -0.59803729094E+01  0.28910615639E+02  0.00000000000E+00 0. -1.
</event>
<event>
 8    1  0.1290800E-006  0.9118800E+02  0.7816164E-02  0.1184000E+00
        -11   -1    0    0    0    0  0.00000000000E+00  0.00000000000E+00  0.45593999997E+02  0.45594000000E+02  0.51100000000E-03 0.  1.
         11   -1    0    0    0    0 -0.00000000000E+00 -0.00000000000E+00 -0.45593999997E+02  0.45594000000E+02  0.51100000000E-03 0. -1.
         23    2    1    2    0    0  0.17763568394E-14  0.71054273576E-14 -0.35527136788E-14  0.91188000000E+02  0.91188000000E+02 0.  0.
    9900012    2    3    3    0    0  0.12657796259E+02  0.23400637948E+02 -0.25455254620E+02  0.54367086781E+02  0.40000005935E+02 0.  0.
        -12    1    3    3    0    0 -0.12657796259E+02 -0.23400637948E+02  0.25455254620E+02  0.36820913219E+02  0.00000000000E+00 0.  1.
         11    1    4    4    0    0  0.16667030242E+02  0.17687133921E+02 -0.10735387279E+02  0.26568273254E+02  0.51100000000E-03 0. -1.
        -11    1    4    4    0    0 -0.73040472398E+00 -0.35195964363E+01 -0.17297805396E+02  0.17667346205E+02  0.51100000000E-03 0.  1.
        -12    1    4    4    0    0 -0.32788292594E+01  0.92331004633E+01  0.25779380551E+01  0.10131467322E+02  0.00000000000E+00 0.  1.
</event>
<event>
 8    1  0.1290800E-006  0.9118800E+02  0.7816164E-02  0.1184000E+00
        -11   -1    0    0    0    0  0.00000000000E+00  0.00000000000E+00  0.45593999997E+02  0.45594000000E+02  0.51100000000E-03 0.  1.
         11   -1    0    0    0    0 -0.00000000000E+00 -0.00000000000E+00 -0.45593999997E+02  0.45594000000E+02  0.51100000000E-03 0. -1.
         23    2    1    2    0    0  0.00000000000E+00  0.00000000000E+00  0.00000000000E+00  0.91188000000E+02  0.91188000000E+02 0.  0.
    9900012    2    3    3    0    0  0.17292903787E+02 -0.11930463983E+02  0.30239005831E+02  0.54367109654E+02  0.40000058078E+02 0.  0.
         12    1    3    3    0    0 -0.17292903787E+02  0.11930463983E+02 -0.30239005831E+02  0.36820890346E+02  0.00000000000E+00 0. -1.
         11    1    4    4    0    0  0.44806767920E+01  0.59485467091E+01  0.15081432041E+02  0.16819966264E+02  0.51100000000E-03 0. -1.
        -11    1    4    4    0    0  0.19994911988E+02 -0.17732705716E+02  0.93653743177E+01  0.28318820488E+02  0.51100000000E-03 0.  1.
        -12    1    4    4    0    0 -0.71826849930E+01 -0.14630497605E+00  0.57921994720E+01  0.92283229017E+01  0.00000000000E+00 0.  1.
</event>
<event>
 8    1  0.1290800E-006  0.9118800E+02  0.7816164E-02  0.1184000E+00
        -11   -1    0    0    0    0  0.00000000000E+00  0.00000000000E+00  0.45593999997E+02  0.45594000000E+02  0.51100000000E-03 0.  1.
         11   -1    0    0    0    0 -0.00000000000E+00 -0.00000000000E+00 -0.45593999997E+02  0.45594000000E+02  0.51100000000E-03 0. -1.
         23    2    1    2    0    0  0.13392065235E-14  0.00000000000E+00 -0.35527136788E-14  0.91188000000E+02  0.91188000000E+02 0.  0.
    9900012    2    3    3    0    0 -0.36161368575E-01 -0.23689130207E+02  0.28188735826E+02  0.54367068112E+02  0.39999963375E+02 0.  0.
         12    1    3    3    0    0  0.36161368575E-01  0.23689130207E+02 -0.28188735826E+02  0.36820931888E+02  0.00000000000E+00 0. -1.
         11    1    4    4    0    0  0.47079222457E+01 -0.19463301122E+02  0.14478274307E+02  0.24710423906E+02  0.51100000000E-03 0. -1.
        -11    1    4    4    0    0  0.43803686521E+00 -0.94242074011E+01  0.18586983274E+02  0.20844268011E+02  0.51100000000E-03 0.  1.
         12    1    4    4    0    0 -0.51821204795E+01  0.51983783158E+01 -0.48765217549E+01  0.88123761951E+01  0.00000000000E+00 0. -1.
</event>
<event>
 8    1  0.1290800E-006  0.9118800E+02  0.7816164E-02  0.1184000E+00
        -11   -1    0    0    0    0  0.00000000000E+00  0.00000000000E+00  0.45593999997E+02  0.45594000000E+02  0.51100000000E-03 0.  1.
         11   -1    0    0    0    0 -0.00000000000E+00 -0.00000000000E+00 -0.45593999997E+02  0.45594000000E+02  0.51100000000E-03 0. -1.
         23    2    1    2    0    0  0.17763568394E-14 -0.22204460493E-15  0.00000000000E+00  0.91188000000E+02  0.91188000000E+02 0.  0.
    9900012    2    3    3    0    0 -0.79919665968E+01 -0.12123030770E+01  0.35922676794E+02  0.54367083161E+02  0.39999997681E+02 0.  0.
         12    1    3    3    0    0  0.79919665968E+01  0.12123030770E+01 -0.35922676794E+02  0.36820916839E+02  0.00000000000E+00 0. -1.
         11    1    4    4    0    0  0.97107069347E+01  0.35068181112E+01  0.33539122369E+00  0.10329960792E+02  0.51100000000E-03 0. -1.
        -11    1    4    4    0    0 -0.85620564543E+01 -0.11582892689E+02  0.17868336161E+02  0.22951027236E+02  0.51100000000E-03 0.  1.
         12    1    4    4    0    0 -0.91406170771E+01  0.68637715004E+01  0.17718949409E+02  0.21086095132E+02  0.00000000000E+00 0. -1.
</event>
<event>
 8    1  0.1290800E-006  0.9118800E+02  0.7816164E-02  0.1184000E+00
        -11   -1    0    0    0    0  0.00000000000E+00  0.00000000000E+00  0.45593999997E+02  0.45594000000E+02  0.51100000000E-03 0. -1.
         11   -1    0    0    0    0 -0.00000000000E+00 -0.00000000000E+00 -0.45593999997E+02  0.45594000000E+02  0.51100000000E-03 0.  1.
         23    2    1    2    0    0  0.35527136788E-14  0.00000000000E+00  0.17763568394E-14  0.91188000000E+02  0.91188000000E+02 0.  0.
    9900012    2    3    3    0    0  0.28704195256E+02  0.19472768214E+02 -0.12355557189E+02  0.54367091257E+02  0.40000016139E+02 0.  0.
        -12    1    3    3    0    0 -0.28704195256E+02 -0.19472768214E+02  0.12355557189E+02  0.36820908743E+02  0.00000000000E+00 0.  1.
         11    1    4    4    0    0  0.36633113454E+02  0.12240100935E+02 -0.10488471430E+02  0.40022657401E+02  0.51100000000E-03 0. -1.
        -11    1    4    4    0    0 -0.21839203205E+01 -0.15789532681E+00 -0.41651549056E+01  0.47056300906E+01  0.51100000000E-03 0.  1.
         12    1    4    4    0    0 -0.57449978771E+01  0.73905626053E+01  0.22980691466E+01  0.96388037657E+01  0.00000000000E+00 0. -1.
</event>
<event>
 8    1  0.1290800E-006  0.9118800E+02  0.7816164E-02  0.1184000E+00
        -11   -1    0    0    0    0  0.00000000000E+00  0.00000000000E+00  0.45593999997E+02  0.45594000000E+02  0.51100000000E-03 0.  1.
         11   -1    0    0    0    0 -0.00000000000E+00 -0.00000000000E+00 -0.45593999997E+02  0.45594000000E+02  0.51100000000E-03 0. -1.
         23    2    1    2    0    0  0.00000000000E+00 -0.71054273576E-14 -0.88817841970E-15  0.91188000000E+02  0.91188000000E+02 0.  0.
    9900012    2    3    3    0    0  0.25668296805E+01 -0.36447543754E+02  0.45571730133E+01  0.54367083577E+02  0.39999998631E+02 0.  0.
         12    1    3    3    0    0 -0.25668296805E+01  0.36447543754E+02 -0.45571730133E+01  0.36820916423E+02  0.00000000000E+00 0. -1.
         11    1    4    4    0    0  0.46655177787E+01  0.49001655578E+01 -0.62482278262E+01  0.92097247444E+01  0.51100000000E-03 0. -1.
        -11    1    4    4    0    0  0.58246976286E+01 -0.17379323007E+02  0.70357001754E+01  0.19633365678E+02  0.51100000000E-03 0.  1.
        -12    1    4    4    0    0 -0.79233857268E+01 -0.23968386305E+02  0.37697006642E+01  0.25523993155E+02  0.00000000000E+00 0.  1.
</event>
<event>
 8    1  0.1290800E-006  0.9118800E+02  0.7816164E-02  0.1184000E+00
        -11   -1    0    0    0    0  0.00000000000E+00  0.00000000000E+00  0.45593999997E+02  0.45594000000E+02  0.51100000000E-03 0.  1.
         11   -1    0    0    0    0 -0.00000000000E+00 -0.00000000000E+00 -0.45593999997E+02  0.45594000000E+02  0.51100000000E-03 0. -1.
         23    2    1    2    0    0  0.35527136788E-14  0.00000000000E+00 -0.35527136788E-14  0.91188000000E+02  0.91188000000E+02 0.  0.
    9900012    2    3    3    0    0  0.12562722288E+02  0.17483161913E+02 -0.29871353769E+02  0.54367072286E+02  0.39999972890E+02 0.  0.
        -12    1    3    3    0    0 -0.12562722288E+02 -0.17483161913E+02  0.29871353769E+02  0.36820927714E+02  0.00000000000E+00 0.  1.
         11    1    4    4    0    0 -0.55121682581E+01  0.55529216890E+01 -0.27726805211E+02  0.28809628003E+02  0.51100000000E-03 0. -1.
        -11    1    4    4    0    0  0.26926239956E+01  0.80938748352E+01  0.27554567107E+01  0.89640156055E+01  0.51100000000E-03 0.  1.
         12    1    4    4    0    0  0.15382266551E+02  0.38363653884E+01 -0.49000052681E+01  0.16593428677E+02  0.00000000000E+00 0. -1.
</event>
<event>
 8    1  0.1290800E-006  0.9118800E+02  0.7816164E-02  0.1184000E+00
        -11   -1    0    0    0    0  0.00000000000E+00  0.00000000000E+00  0.45593999997E+02  0.45594000000E+02  0.51100000000E-03 0.  1.
         11   -1    0    0    0    0 -0.00000000000E+00 -0.00000000000E+00 -0.45593999997E+02  0.45594000000E+02  0.51100000000E-03 0. -1.
         23    2    1    2    0    0 -0.71054273576E-14  0.26645352591E-14  0.00000000000E+00  0.91188000000E+02  0.91188000000E+02 0.  0.
    9900012    2    3    3    0    0 -0.34402376971E+02  0.71417382190E+01 -0.11011415640E+02  0.54367092346E+02  0.40000018621E+02 0.  0.
        -12    1    3    3    0    0  0.34402376971E+02 -0.71417382190E+01  0.11011415640E+02  0.36820907654E+02  0.00000000000E+00 0.  1.
         11    1    4    4    0    0 -0.18001853907E+02 -0.21190071247E+01 -0.13372078661E+02  0.22524862336E+02  0.51100000000E-03 0. -1.
        -11    1    4    4    0    0 -0.19872667110E+02  0.10151593583E+02  0.91865540330E+01  0.24132354332E+02  0.51100000000E-03 0.  1.
         12    1    4    4    0    0  0.34721440458E+01 -0.89084823903E+00 -0.68258910128E+01  0.77098756785E+01  0.00000000000E+00 0. -1.
</event>
<event>
 8    1  0.1290800E-006  0.9118800E+02  0.7816164E-02  0.1184000E+00
        -11   -1    0    0    0    0  0.00000000000E+00  0.00000000000E+00  0.45593999997E+02  0.45594000000E+02  0.51100000000E-03 0. -1.
         11   -1    0    0    0    0 -0.00000000000E+00 -0.00000000000E+00 -0.45593999997E+02  0.45594000000E+02  0.51100000000E-03 0.  1.
         23    2    1    2    0    0  0.00000000000E+00  0.88817841970E-15  0.00000000000E+00  0.91188000000E+02  0.91188000000E+02 0.  0.
    9900012    2    3    3    0    0 -0.94222307524E+01 -0.33420660745E+01  0.35437586161E+02  0.54367213060E+02  0.40000293811E+02 0.  0.
        -12    1    3    3    0    0  0.94222307524E+01  0.33420660745E+01 -0.35437586161E+02  0.36820786940E+02  0.00000000000E+00 0.  1.
         11    1    4    4    0    0 -0.18523622557E+02  0.90883813312E+01  0.12123912815E+02  0.23931413039E+02  0.51100000000E-03 0. -1.
        -11    1    4    4    0    0  0.25021072587E+01 -0.24897805521E+01 -0.72070671134E+00  0.36026332531E+01  0.51100000000E-03 0.  1.
         12    1    4    4    0    0  0.65992845459E+01 -0.99406668536E+01  0.24034380057E+02  0.26833166767E+02  0.00000000000E+00 0. -1.
</event>
<event>
 8    1  0.1290800E-006  0.9118800E+02  0.7816164E-02  0.1184000E+00
        -11   -1    0    0    0    0  0.00000000000E+00  0.00000000000E+00  0.45593999997E+02  0.45594000000E+02  0.51100000000E-03 0. -1.
         11   -1    0    0    0    0 -0.00000000000E+00 -0.00000000000E+00 -0.45593999997E+02  0.45594000000E+02  0.51100000000E-03 0.  1.
         23    2    1    2    0    0  0.00000000000E+00  0.00000000000E+00  0.00000000000E+00  0.91188000000E+02  0.91188000000E+02 0.  0.
    9900012    2    3    3    0    0  0.29015905422E+02  0.11751664252E+02 -0.19384421666E+02  0.54367079541E+02  0.39999989429E+02 0.  0.
         12    1    3    3    0    0 -0.29015905422E+02 -0.11751664252E+02  0.19384421666E+02  0.36820920459E+02  0.00000000000E+00 0. -1.
         11    1    4    4    0    0  0.20461057911E+02  0.12708058403E+02 -0.12311007695E+02  0.27050148797E+02  0.51100000000E-03 0.  1.
        -11    1    4    4    0    0  0.78485997276E+01 -0.11207330238E+02 -0.96262783001E+01  0.16729315674E+02  0.51100000000E-03 0. -1.
         12    1    4    4    0    0  0.70624778338E+00  0.10250936086E+02  0.25528643291E+01  0.10587615070E+02  0.00000000000E+00 0. -1.
</event>
<event>
 8    1  0.1290800E-006  0.9118800E+02  0.7816164E-02  0.1184000E+00
        -11   -1    0    0    0    0  0.00000000000E+00  0.00000000000E+00  0.45593999997E+02  0.45594000000E+02  0.51100000000E-03 0.  1.
         11   -1    0    0    0    0 -0.00000000000E+00 -0.00000000000E+00 -0.45593999997E+02  0.45594000000E+02  0.51100000000E-03 0. -1.
         23    2    1    2    0    0  0.00000000000E+00  0.00000000000E+00  0.00000000000E+00  0.91188000000E+02  0.91188000000E+02 0.  0.
    9900012    2    3    3    0    0  0.36099656624E+02 -0.64062813735E+01 -0.33999967783E+01  0.54367005615E+02  0.39999820900E+02 0.  0.
        -12    1    3    3    0    0 -0.36099656624E+02  0.64062813735E+01  0.33999967783E+01  0.36820994385E+02  0.00000000000E+00 0.  1.
         11    1    4    4    0    0 -0.20050656409E+01 -0.74940139819E+01 -0.30759197530E+01  0.83451672466E+01  0.51100000000E-03 0.  1.
        -11    1    4    4    0    0  0.19315399444E+02 -0.11518898185E+02 -0.47018251893E+01  0.22975570318E+02  0.51100000000E-03 0. -1.
        -12    1    4    4    0    0  0.18789322821E+02  0.12606630793E+02  0.43777481640E+01  0.23046268050E+02  0.00000000000E+00 0.  1.
</event>
<event>
 8    1  0.1290800E-006  0.9118800E+02  0.7816164E-02  0.1184000E+00
        -11   -1    0    0    0    0  0.00000000000E+00  0.00000000000E+00  0.45593999997E+02  0.45594000000E+02  0.51100000000E-03 0.  1.
         11   -1    0    0    0    0 -0.00000000000E+00 -0.00000000000E+00 -0.45593999997E+02  0.45594000000E+02  0.51100000000E-03 0. -1.
         23    2    1    2    0    0  0.00000000000E+00  0.00000000000E+00  0.00000000000E+00  0.91188000000E+02  0.91188000000E+02 0.  0.
    9900012    2    3    3    0    0 -0.95976597841E+01 -0.26646089124E+02  0.23529787139E+02  0.54367081736E+02  0.39999994434E+02 0.  0.
         12    1    3    3    0    0  0.95976597841E+01  0.26646089124E+02 -0.23529787139E+02  0.36820918264E+02  0.00000000000E+00 0. -1.
         11    1    4    4    0    0 -0.40902758864E+01 -0.11786102150E+02 -0.99705787447E+01  0.15970441493E+02  0.51100000000E-03 0. -1.
        -11    1    4    4    0    0 -0.52876438836E+01 -0.15264417590E+02  0.24269156677E+02  0.29153963508E+02  0.51100000000E-03 0.  1.
        -12    1    4    4    0    0 -0.21974001415E+00  0.40443061537E+00  0.92312092075E+01  0.92426767350E+01  0.00000000000E+00 0.  1.
</event>
<event>
 8    1  0.1290800E-006  0.9118800E+02  0.7816164E-02  0.1184000E+00
        -11   -1    0    0    0    0  0.00000000000E+00  0.00000000000E+00  0.45593999997E+02  0.45594000000E+02  0.51100000000E-03 0. -1.
         11   -1    0    0    0    0 -0.00000000000E+00 -0.00000000000E+00 -0.45593999997E+02  0.45594000000E+02  0.51100000000E-03 0.  1.
         23    2    1    2    0    0  0.26645352591E-14  0.53290705182E-14 -0.71054273576E-14  0.91188000000E+02  0.91188000000E+02 0.  0.
    9900012    2    3    3    0    0  0.56940641904E+01  0.12860879480E+02 -0.34028725692E+02  0.54367098868E+02  0.40000033488E+02 0.  0.
         12    1    3    3    0    0 -0.56940641904E+01 -0.12860879480E+02  0.34028725692E+02  0.36820901132E+02  0.00000000000E+00 0. -1.
         11    1    4    4    0    0 -0.79491971108E+01 -0.91901703278E+01 -0.10257676201E+02  0.15901851674E+02  0.51100000000E-03 0. -1.
        -11    1    4    4    0    0  0.64080654898E+01  0.13042676115E+01 -0.11679730346E+02  0.13385832755E+02  0.51100000000E-03 0.  1.
         12    1    4    4    0    0  0.72351958113E+01  0.20746782196E+02 -0.12091319145E+02  0.25079414439E+02  0.00000000000E+00 0. -1.
</event>
<event>
 8    1  0.1290800E-006  0.9118800E+02  0.7816164E-02  0.1184000E+00
        -11   -1    0    0    0    0  0.00000000000E+00  0.00000000000E+00  0.45593999997E+02  0.45594000000E+02  0.51100000000E-03 0.  1.
         11   -1    0    0    0    0 -0.00000000000E+00 -0.00000000000E+00 -0.45593999997E+02  0.45594000000E+02  0.51100000000E-03 0. -1.
         23    2    1    2    0    0  0.17763568394E-14  0.00000000000E+00  0.00000000000E+00  0.91188000000E+02  0.91188000000E+02 0.  0.
    9900012    2    3    3    0    0  0.80485531021E+01 -0.23834948960E+02  0.26886815072E+02  0.54367016530E+02  0.39999845784E+02 0.  0.
         12    1    3    3    0    0 -0.80485531021E+01  0.23834948960E+02 -0.26886815072E+02  0.36820983470E+02  0.00000000000E+00 0. -1.
         11    1    4    4    0    0  0.16587133470E+02 -0.14044084229E+01  0.27402108599E+01  0.16870510235E+02  0.51100000000E-03 0. -1.
        -11    1    4    4    0    0 -0.99055089843E+01 -0.89321334932E+01  0.54793050229E+01  0.14419601270E+02  0.51100000000E-03 0.  1.
         12    1    4    4    0    0  0.13669286164E+01 -0.13498407044E+02  0.18667299189E+02  0.23076905026E+02  0.00000000000E+00 0. -1.
</event>
<event>
 8    1  0.1290800E-006  0.9118800E+02  0.7816164E-02  0.1184000E+00
        -11   -1    0    0    0    0  0.00000000000E+00  0.00000000000E+00  0.45593999997E+02  0.45594000000E+02  0.51100000000E-03 0.  1.
         11   -1    0    0    0    0 -0.00000000000E+00 -0.00000000000E+00 -0.45593999997E+02  0.45594000000E+02  0.51100000000E-03 0. -1.
         23    2    1    2    0    0 -0.44408920985E-15  0.00000000000E+00  0.00000000000E+00  0.91188000000E+02  0.91188000000E+02 0.  0.
    9900012    2    3    3    0    0 -0.20456931592E+01  0.11637251540E+01  0.36745654617E+02  0.54367051479E+02  0.39999925457E+02 0.  0.
         12    1    3    3    0    0  0.20456931592E+01 -0.11637251540E+01 -0.36745654617E+02  0.36820948521E+02  0.00000000000E+00 0. -1.
         11    1    4    4    0    0  0.56034243237E+01  0.12315889648E+01  0.30391690645E+02  0.30928466435E+02  0.51100000000E-03 0. -1.
        -11    1    4    4    0    0  0.74487732139E+01 -0.39782803623E+00  0.21152046755E+01  0.77534882872E+01  0.51100000000E-03 0.  1.
        -12    1    4    4    0    0 -0.15097890697E+02  0.32996422549E+00  0.42387592970E+01  0.15685096757E+02  0.00000000000E+00 0.  1.
</event>
<event>
 8    1  0.1290800E-006  0.9118800E+02  0.7816164E-02  0.1184000E+00
        -11   -1    0    0    0    0  0.00000000000E+00  0.00000000000E+00  0.45593999997E+02  0.45594000000E+02  0.51100000000E-03 0.  1.
         11   -1    0    0    0    0 -0.00000000000E+00 -0.00000000000E+00 -0.45593999997E+02  0.45594000000E+02  0.51100000000E-03 0. -1.
         23    2    1    2    0    0  0.17763568394E-14 -0.71054273576E-14 -0.88817841970E-15  0.91188000000E+02  0.91188000000E+02 0.  0.
    9900012    2    3    3    0    0  0.15679658227E+02 -0.33010138744E+02 -0.45022633561E+01  0.54366928352E+02  0.39999644762E+02 0.  0.
        -12    1    3    3    0    0 -0.15679658227E+02  0.33010138744E+02  0.45022633561E+01  0.36821071648E+02  0.00000000000E+00 0.  1.
         11    1    4    4    0    0  0.13259151185E+02 -0.40802672816E+02 -0.36779306819E+01  0.43060310884E+02  0.51100000000E-03 0. -1.
        -11    1    4    4    0    0  0.38116520702E+01  0.35445843594E+01  0.24626316410E+01  0.57582397176E+01  0.51100000000E-03 0.  1.
         12    1    4    4    0    0 -0.13911450284E+01  0.42479497124E+01 -0.32869643151E+01  0.55483777501E+01  0.00000000000E+00 0. -1.
</event>
<event>
 8    1  0.1290800E-006  0.9118800E+02  0.7816164E-02  0.1184000E+00
        -11   -1    0    0    0    0  0.00000000000E+00  0.00000000000E+00  0.45593999997E+02  0.45594000000E+02  0.51100000000E-03 0. -1.
         11   -1    0    0    0    0 -0.00000000000E+00 -0.00000000000E+00 -0.45593999997E+02  0.45594000000E+02  0.51100000000E-03 0.  1.
         23    2    1    2    0    0  0.22204460493E-15  0.00000000000E+00  0.00000000000E+00  0.91188000000E+02  0.91188000000E+02 0.  0.
    9900012    2    3    3    0    0  0.18207195268E+01  0.36501437936E+02 -0.44845329326E+01  0.54367068092E+02  0.39999963329E+02 0.  0.
         12    1    3    3    0    0 -0.18207195268E+01 -0.36501437936E+02  0.44845329326E+01  0.36820931908E+02  0.00000000000E+00 0. -1.
         11    1    4    4    0    0 -0.37955562083E+00  0.28897576191E+02 -0.19940804706E+01  0.28968781979E+02  0.51100000000E-03 0. -1.
        -11    1    4    4    0    0 -0.50361328693E+01  0.12261117208E+02 -0.77092154900E+01  0.15333937302E+02  0.51100000000E-03 0.  1.
         12    1    4    4    0    0  0.72364080169E+01 -0.46572554627E+01  0.52187630280E+01  0.10064348810E+02  0.00000000000E+00 0. -1.
</event>
<event>
 8    1  0.1290800E-006  0.9118800E+02  0.7816164E-02  0.1184000E+00
        -11   -1    0    0    0    0  0.00000000000E+00  0.00000000000E+00  0.45593999997E+02  0.45594000000E+02  0.51100000000E-03 0.  1.
         11   -1    0    0    0    0 -0.00000000000E+00 -0.00000000000E+00 -0.45593999997E+02  0.45594000000E+02  0.51100000000E-03 0. -1.
         23    2    1    2    0    0  0.00000000000E+00  0.00000000000E+00  0.00000000000E+00  0.91188000000E+02  0.91188000000E+02 0.  0.
    9900012    2    3    3    0    0 -0.15559829309E+02  0.32879398055E+02  0.57112601750E+01  0.54367060341E+02  0.39999945660E+02 0.  0.
         12    1    3    3    0    0  0.15559829309E+02 -0.32879398055E+02 -0.57112601750E+01  0.36820939659E+02  0.00000000000E+00 0. -1.
         11    1    4    4    0    0  0.68149726635E+01  0.12733315319E+02 -0.10994497898E+02  0.18151037318E+02  0.51100000000E-03 0. -1.
        -11    1    4    4    0    0 -0.56337352122E+01  0.75357626871E+01  0.11038358716E+02  0.14504208187E+02  0.51100000000E-03 0.  1.
        -12    1    4    4    0    0 -0.16741066760E+02  0.12610320048E+02  0.56673993571E+01  0.21711814836E+02  0.00000000000E+00 0.  1.
</event>
<event>
 8    1  0.1290800E-006  0.9118800E+02  0.7816164E-02  0.1184000E+00
        -11   -1    0    0    0    0  0.00000000000E+00  0.00000000000E+00  0.45593999997E+02  0.45594000000E+02  0.51100000000E-03 0.  1.
         11   -1    0    0    0    0 -0.00000000000E+00 -0.00000000000E+00 -0.45593999997E+02  0.45594000000E+02  0.51100000000E-03 0. -1.
         23    2    1    2    0    0  0.17763568394E-14  0.00000000000E+00  0.88817841970E-15  0.91188000000E+02  0.91188000000E+02 0.  0.
    9900012    2    3    3    0    0  0.88817186337E+01  0.35468474738E+02  0.43451345980E+01  0.54367111624E+02  0.40000062569E+02 0.  0.
        -12    1    3    3    0    0 -0.88817186337E+01 -0.35468474738E+02 -0.43451345980E+01  0.36820888376E+02  0.00000000000E+00 0.  1.
         11    1    4    4    0    0 -0.90553235824E+01  0.87524036349E+01  0.42186424593E+01  0.13281581195E+02  0.51100000000E-03 0. -1.
        -11    1    4    4    0    0  0.13876028015E+02  0.27473756995E+01  0.70550901183E+01  0.15807166841E+02  0.51100000000E-03 0.  1.
        -12    1    4    4    0    0  0.40610142007E+01  0.23968695404E+02 -0.69285979797E+01  0.25278363588E+02  0.00000000000E+00 0.  1.
</event>
<event>
 8    1  0.1290800E-006  0.9118800E+02  0.7816164E-02  0.1184000E+00
        -11   -1    0    0    0    0  0.00000000000E+00  0.00000000000E+00  0.45593999997E+02  0.45594000000E+02  0.51100000000E-03 0. -1.
         11   -1    0    0    0    0 -0.00000000000E+00 -0.00000000000E+00 -0.45593999997E+02  0.45594000000E+02  0.51100000000E-03 0.  1.
         23    2    1    2    0    0  0.88817841970E-15  0.00000000000E+00  0.00000000000E+00  0.91188000000E+02  0.91188000000E+02 0.  0.
    9900012    2    3    3    0    0  0.26093880503E+01 -0.31086125442E+02 -0.19560764765E+02  0.54367087203E+02  0.40000006897E+02 0.  0.
         12    1    3    3    0    0 -0.26093880503E+01  0.31086125442E+02  0.19560764765E+02  0.36820912797E+02  0.00000000000E+00 0. -1.
         11    1    4    4    0    0  0.42895536572E+01 -0.10905156885E+02 -0.72950265081E+01  0.13803627396E+02  0.51100000000E-03 0. -1.
        -11    1    4    4    0    0 -0.14103136621E+02 -0.11225878004E+01 -0.10740162502E+02  0.17762594314E+02  0.51100000000E-03 0.  1.
         12    1    4    4    0    0  0.12422971014E+02 -0.19058380756E+02 -0.15255757550E+01  0.22800865493E+02  0.00000000000E+00 0. -1.
</event>
<event>
 8    1  0.1290800E-006  0.9118800E+02  0.7816164E-02  0.1184000E+00
        -11   -1    0    0    0    0  0.00000000000E+00  0.00000000000E+00  0.45593999997E+02  0.45594000000E+02  0.51100000000E-03 0.  1.
         11   -1    0    0    0    0 -0.00000000000E+00 -0.00000000000E+00 -0.45593999997E+02  0.45594000000E+02  0.51100000000E-03 0. -1.
         23    2    1    2    0    0 -0.17763568394E-14  0.00000000000E+00  0.00000000000E+00  0.91188000000E+02  0.91188000000E+02 0.  0.
    9900012    2    3    3    0    0 -0.15427801535E+02 -0.72211698421E+01 -0.32643666669E+02  0.54367199795E+02  0.40000263572E+02 0.  0.
        -12    1    3    3    0    0  0.15427801535E+02  0.72211698421E+01  0.32643666669E+02  0.36820800205E+02  0.00000000000E+00 0.  1.
         11    1    4    4    0    0 -0.70643468290E+01  0.46027965504E+01 -0.11871619039E+02  0.14561115036E+02  0.51100000000E-03 0. -1.
        -11    1    4    4    0    0  0.10038367886E+02 -0.50457191957E+01  0.60114771859E-02  0.11235130102E+02  0.51100000000E-03 0.  1.
         12    1    4    4    0    0 -0.18401822592E+02 -0.67782471968E+01 -0.20778059107E+02  0.28570954657E+02  0.00000000000E+00 0. -1.
</event>
<event>
 8    1  0.1290800E-006  0.9118800E+02  0.7816164E-02  0.1184000E+00
        -11   -1    0    0    0    0  0.00000000000E+00  0.00000000000E+00  0.45593999997E+02  0.45594000000E+02  0.51100000000E-03 0.  1.
         11   -1    0    0    0    0 -0.00000000000E+00 -0.00000000000E+00 -0.45593999997E+02  0.45594000000E+02  0.51100000000E-03 0. -1.
         23    2    1    2    0    0  0.88817841970E-15  0.00000000000E+00  0.35527136788E-14  0.91188000000E+02  0.91188000000E+02 0.  0.
    9900012    2    3    3    0    0  0.31815947087E+01 -0.19731182110E+02  0.30924714192E+02  0.54367081486E+02  0.39999993863E+02 0.  0.
         12    1    3    3    0    0 -0.31815947087E+01  0.19731182110E+02 -0.30924714192E+02  0.36820918514E+02  0.00000000000E+00 0. -1.
         11    1    4    4    0    0 -0.81002490862E+01  0.35423980258E+01  0.61712680379E+01  0.10781798017E+02  0.51100000000E-03 0. -1.
        -11    1    4    4    0    0  0.75445129005E+01 -0.37724608470E+01  0.21971872700E+02  0.23535384550E+02  0.51100000000E-03 0.  1.
         12    1    4    4    0    0  0.37373308944E+01 -0.19501119289E+02  0.27815734548E+01  0.20049898918E+02  0.00000000000E+00 0. -1.
</event>
<event>
 8    1  0.1290800E-006  0.9118800E+02  0.7816164E-02  0.1184000E+00
        -11   -1    0    0    0    0  0.00000000000E+00  0.00000000000E+00  0.45593999997E+02  0.45594000000E+02  0.51100000000E-03 0.  1.
         11   -1    0    0    0    0 -0.00000000000E+00 -0.00000000000E+00 -0.45593999997E+02  0.45594000000E+02  0.51100000000E-03 0. -1.
         23    2    1    2    0    0  0.35527136788E-14  0.00000000000E+00  0.35527136788E-14  0.91188000000E+02  0.91188000000E+02 0.  0.
    9900012    2    3    3    0    0 -0.25157257965E+02 -0.16381946475E+02  0.21319337182E+02  0.54367218687E+02  0.40000306639E+02 0.  0.
         12    1    3    3    0    0  0.25157257965E+02  0.16381946475E+02 -0.21319337182E+02  0.36820781313E+02  0.00000000000E+00 0. -1.
         11    1    4    4    0    0 -0.14071469612E+02 -0.39619847774E+01 -0.64169951464E+01  0.15965005712E+02  0.51100000000E-03 0. -1.
        -11    1    4    4    0    0 -0.74633605988E+01 -0.25939692190E+01 -0.86061681828E+00  0.79480242391E+01  0.51100000000E-03 0.  1.
        -12    1    4    4    0    0 -0.36224277546E+01 -0.98259924790E+01  0.28596949147E+02  0.30454188735E+02  0.00000000000E+00 0.  1.
</event>
<event>
 8    1  0.1290800E-006  0.9118800E+02  0.7816164E-02  0.1184000E+00
        -11   -1    0    0    0    0  0.00000000000E+00  0.00000000000E+00  0.45593999997E+02  0.45594000000E+02  0.51100000000E-03 0. -1.
         11   -1    0    0    0    0 -0.00000000000E+00 -0.00000000000E+00 -0.45593999997E+02  0.45594000000E+02  0.51100000000E-03 0.  1.
         23    2    1    2    0    0  0.00000000000E+00  0.00000000000E+00  0.00000000000E+00  0.91188000000E+02  0.91188000000E+02 0.  0.
    9900012    2    3    3    0    0  0.81220299661E+01  0.31211072858E+02 -0.17767380213E+02  0.54367105941E+02  0.40000049614E+02 0.  0.
        -12    1    3    3    0    0 -0.81220299661E+01 -0.31211072858E+02  0.17767380213E+02  0.36820894059E+02  0.00000000000E+00 0.  1.
         11    1    4    4    0    0 -0.82268645612E+01  0.15636904199E+02 -0.55421289700E+00  0.17677704195E+02  0.51100000000E-03 0.  1.
        -11    1    4    4    0    0  0.21731906701E+02  0.15850833986E+02 -0.13158263611E+02  0.29944358541E+02  0.51100000000E-03 0. -1.
        -12    1    4    4    0    0 -0.53830121742E+01 -0.27666532731E+00 -0.40549037046E+01  0.67450432041E+01  0.00000000000E+00 0.  1.
</event>
<event>
 8    1  0.1290800E-006  0.9118800E+02  0.7816164E-02  0.1184000E+00
        -11   -1    0    0    0    0  0.00000000000E+00  0.00000000000E+00  0.45593999997E+02  0.45594000000E+02  0.51100000000E-03 0. -1.
         11   -1    0    0    0    0 -0.00000000000E+00 -0.00000000000E+00 -0.45593999997E+02  0.45594000000E+02  0.51100000000E-03 0.  1.
         23    2    1    2    0    0 -0.88817841970E-15  0.00000000000E+00 -0.35527136788E-14  0.91188000000E+02  0.91188000000E+02 0.  0.
    9900012    2    3    3    0    0 -0.15402143699E+01 -0.21439710725E+02 -0.29895579430E+02  0.54367093904E+02  0.40000022173E+02 0.  0.
         12    1    3    3    0    0  0.15402143699E+01  0.21439710725E+02  0.29895579430E+02  0.36820906096E+02  0.00000000000E+00 0. -1.
         11    1    4    4    0    0  0.40823236779E+01 -0.72761868929E+00 -0.27356888923E+01  0.49677751102E+01  0.51100000000E-03 0. -1.
        -11    1    4    4    0    0  0.13671833944E+02 -0.97595142490E+01 -0.38790855985E+01  0.17239909139E+02  0.51100000000E-03 0.  1.
         12    1    4    4    0    0 -0.19294371992E+02 -0.10952577787E+02 -0.23280804939E+02  0.32159409655E+02  0.00000000000E+00 0. -1.
</event>
<event>
 8    1  0.1290800E-006  0.9118800E+02  0.7816164E-02  0.1184000E+00
        -11   -1    0    0    0    0  0.00000000000E+00  0.00000000000E+00  0.45593999997E+02  0.45594000000E+02  0.51100000000E-03 0. -1.
         11   -1    0    0    0    0 -0.00000000000E+00 -0.00000000000E+00 -0.45593999997E+02  0.45594000000E+02  0.51100000000E-03 0.  1.
         23    2    1    2    0    0  0.35527136788E-14 -0.35527136788E-14  0.00000000000E+00  0.91188000000E+02  0.91188000000E+02 0.  0.
    9900012    2    3    3    0    0 -0.22043978434E+02  0.23245424571E+02  0.18151936204E+02  0.54367088324E+02  0.40000009453E+02 0.  0.
        -12    1    3    3    0    0  0.22043978434E+02 -0.23245424571E+02 -0.18151936204E+02  0.36820911676E+02  0.00000000000E+00 0.  1.
         11    1    4    4    0    0 -0.11591253581E+02  0.13424784857E+02  0.95218635824E+01  0.20130769840E+02  0.51100000000E-03 0. -1.
        -11    1    4    4    0    0 -0.17713991368E+02  0.79670477970E+00  0.12861228061E+02  0.21905054580E+02  0.51100000000E-03 0.  1.
        -12    1    4    4    0    0  0.72612665150E+01  0.90239349346E+01 -0.42311554392E+01  0.12331263903E+02  0.00000000000E+00 0.  1.
</event>
<event>
 8    1  0.1290800E-006  0.9118800E+02  0.7816164E-02  0.1184000E+00
        -11   -1    0    0    0    0  0.00000000000E+00  0.00000000000E+00  0.45593999997E+02  0.45594000000E+02  0.51100000000E-03 0.  1.
         11   -1    0    0    0    0 -0.00000000000E+00 -0.00000000000E+00 -0.45593999997E+02  0.45594000000E+02  0.51100000000E-03 0. -1.
         23    2    1    2    0    0  0.00000000000E+00  0.00000000000E+00  0.71054273576E-14  0.91188000000E+02  0.91188000000E+02 0.  0.
    9900012    2    3    3    0    0 -0.17456969839E+02 -0.12174399251E+02  0.30046939081E+02  0.54367077398E+02  0.39999984545E+02 0.  0.
         12    1    3    3    0    0  0.17456969839E+02  0.12174399251E+02 -0.30046939081E+02  0.36820922602E+02  0.00000000000E+00 0. -1.
         11    1    4    4    0    0  0.16521332269E+01  0.44953424318E+01  0.11660689735E+01  0.49292357309E+01  0.51100000000E-03 0. -1.
        -11    1    4    4    0    0 -0.16285541368E+02  0.45022322940E+01  0.54991669648E+01  0.17768786983E+02  0.51100000000E-03 0.  1.
         12    1    4    4    0    0 -0.28235616979E+01 -0.21171973977E+02  0.23381703143E+02  0.31669054684E+02  0.00000000000E+00 0. -1.
</event>
<event>
 8    1  0.1290800E-006  0.9118800E+02  0.7816164E-02  0.1184000E+00
        -11   -1    0    0    0    0  0.00000000000E+00  0.00000000000E+00  0.45593999997E+02  0.45594000000E+02  0.51100000000E-03 0.  1.
         11   -1    0    0    0    0 -0.00000000000E+00 -0.00000000000E+00 -0.45593999997E+02  0.45594000000E+02  0.51100000000E-03 0. -1.
         23    2    1    2    0    0 -0.17763568394E-14 -0.44408920985E-15  0.00000000000E+00  0.91188000000E+02  0.91188000000E+02 0.  0.
    9900012    2    3    3    0    0 -0.15535596044E+02  0.88019876245E+00 -0.33371387432E+02  0.54367095700E+02  0.40000026267E+02 0.  0.
        -12    1    3    3    0    0  0.15535596044E+02 -0.88019876245E+00  0.33371387432E+02  0.36820904300E+02  0.00000000000E+00 0.  1.
         11    1    4    4    0    0  0.51124620019E+00  0.22098494621E+01 -0.22320433610E+01  0.31822672969E+01  0.51100000000E-03 0. -1.
        -11    1    4    4    0    0 -0.33176615253E+01  0.22071658046E+01 -0.36653058714E+02  0.36869027276E+02  0.51100000000E-03 0.  1.
        -12    1    4    4    0    0 -0.12729180719E+02 -0.35368165043E+01  0.55137146428E+01  0.14315801127E+02  0.00000000000E+00 0.  1.
</event>
<event>
 8    1  0.1290800E-006  0.9118800E+02  0.7816164E-02  0.1184000E+00
        -11   -1    0    0    0    0  0.00000000000E+00  0.00000000000E+00  0.45593999997E+02  0.45594000000E+02  0.51100000000E-03 0.  1.
         11   -1    0    0    0    0 -0.00000000000E+00 -0.00000000000E+00 -0.45593999997E+02  0.45594000000E+02  0.51100000000E-03 0. -1.
         23    2    1    2    0    0  0.00000000000E+00 -0.12767564783E-14  0.00000000000E+00  0.91188000000E+02  0.91188000000E+02 0.  0.
    9900012    2    3    3    0    0 -0.33545698262E+02 -0.44573163392E+00 -0.15174549761E+02  0.54367088700E+02  0.40000010308E+02 0.  0.
        -12    1    3    3    0    0  0.33545698262E+02  0.44573163392E+00  0.15174549761E+02  0.36820911300E+02  0.00000000000E+00 0.  1.
         11    1    4    4    0    0  0.13878778450E+00 -0.94680644405E+01 -0.47309219691E+01  0.10585137186E+02  0.51100000000E-03 0. -1.
        -11    1    4    4    0    0 -0.19595388270E+02 -0.33724972307E+01  0.37745278069E+01  0.20238578000E+02  0.51100000000E-03 0.  1.
         12    1    4    4    0    0 -0.14089097776E+02  0.12394830037E+02 -0.14218155599E+02  0.23543373514E+02  0.00000000000E+00 0. -1.
</event>
<event>
 8    1  0.1290800E-006  0.9118800E+02  0.7816164E-02  0.1184000E+00
        -11   -1    0    0    0    0  0.00000000000E+00  0.00000000000E+00  0.45593999997E+02  0.45594000000E+02  0.51100000000E-03 0. -1.
         11   -1    0    0    0    0 -0.00000000000E+00 -0.00000000000E+00 -0.45593999997E+02  0.45594000000E+02  0.51100000000E-03 0.  1.
         23    2    1    2    0    0 -0.35527136788E-14  0.00000000000E+00  0.00000000000E+00  0.91188000000E+02  0.91188000000E+02 0.  0.
    9900012    2    3    3    0    0 -0.22162200290E+02  0.94974327721E+01  0.27828314300E+02  0.54367089803E+02  0.40000012825E+02 0.  0.
        -12    1    3    3    0    0  0.22162200290E+02 -0.94974327721E+01 -0.27828314300E+02  0.36820910197E+02  0.00000000000E+00 0.  1.
         11    1    4    4    0    0  0.58218459447E+01  0.76035805910E+01  0.23661833952E+02  0.25526274978E+02  0.51100000000E-03 0. -1.
        -11    1    4    4    0    0 -0.16342615717E+02 -0.12276005339E+01  0.12247410877E+01  0.16434356773E+02  0.51100000000E-03 0.  1.
         12    1    4    4    0    0 -0.11641430518E+02  0.31214527150E+01  0.29417392604E+01  0.12406458053E+02  0.00000000000E+00 0. -1.
</event>
<event>
 8    1  0.1290800E-006  0.9118800E+02  0.7816164E-02  0.1184000E+00
        -11   -1    0    0    0    0  0.00000000000E+00  0.00000000000E+00  0.45593999997E+02  0.45594000000E+02  0.51100000000E-03 0. -1.
         11   -1    0    0    0    0 -0.00000000000E+00 -0.00000000000E+00 -0.45593999997E+02  0.45594000000E+02  0.51100000000E-03 0.  1.
         23    2    1    2    0    0  0.00000000000E+00  0.00000000000E+00  0.35527136788E-14  0.91188000000E+02  0.91188000000E+02 0.  0.
    9900012    2    3    3    0    0  0.26377152960E+02 -0.18869198825E+02  0.17434966053E+02  0.54367096917E+02  0.40000029041E+02 0.  0.
        -12    1    3    3    0    0 -0.26377152960E+02  0.18869198825E+02 -0.17434966053E+02  0.36820903083E+02  0.00000000000E+00 0.  1.
         11    1    4    4    0    0  0.79811038731E+01 -0.40755489994E+01 -0.82641359029E+01  0.12190326540E+02  0.51100000000E-03 0. -1.
        -11    1    4    4    0    0 -0.19848180739E+01  0.47632766040E+01  0.47014421263E+01  0.69808212355E+01  0.51100000000E-03 0.  1.
         12    1    4    4    0    0  0.20380867161E+02 -0.19556926430E+02  0.20997659830E+02  0.35195949141E+02  0.00000000000E+00 0. -1.
</event>
<event>
 8    1  0.1290800E-006  0.9118800E+02  0.7816164E-02  0.1184000E+00
        -11   -1    0    0    0    0  0.00000000000E+00  0.00000000000E+00  0.45593999997E+02  0.45594000000E+02  0.51100000000E-03 0.  1.
         11   -1    0    0    0    0 -0.00000000000E+00 -0.00000000000E+00 -0.45593999997E+02  0.45594000000E+02  0.51100000000E-03 0. -1.
         23    2    1    2    0    0  0.00000000000E+00  0.00000000000E+00 -0.17763568394E-14  0.91188000000E+02  0.91188000000E+02 0.  0.
    9900012    2    3    3    0    0  0.12540505151E+02  0.31810865325E+02 -0.13659506401E+02  0.54367115473E+02  0.40000071345E+02 0.  0.
        -12    1    3    3    0    0 -0.12540505151E+02 -0.31810865325E+02  0.13659506401E+02  0.36820884527E+02  0.00000000000E+00 0.  1.
         11    1    4    4    0    0  0.87330416997E+01  0.25874831214E+01 -0.14558349017E+02  0.17172845210E+02  0.51100000000E-03 0. -1.
        -11    1    4    4    0    0 -0.35830663071E+01  0.31627401044E+01  0.78843182096E+01  0.92197485334E+01  0.51100000000E-03 0.  1.
         12    1    4    4    0    0  0.73905297587E+01  0.26060642100E+02 -0.69854755934E+01  0.27974521730E+02  0.00000000000E+00 0. -1.
</event>
<event>
 8    1  0.1290800E-006  0.9118800E+02  0.7816164E-02  0.1184000E+00
        -11   -1    0    0    0    0  0.00000000000E+00  0.00000000000E+00  0.45593999997E+02  0.45594000000E+02  0.51100000000E-03 0. -1.
         11   -1    0    0    0    0 -0.00000000000E+00 -0.00000000000E+00 -0.45593999997E+02  0.45594000000E+02  0.51100000000E-03 0.  1.
         23    2    1    2    0    0  0.00000000000E+00 -0.88817841970E-15  0.00000000000E+00  0.91188000000E+02  0.91188000000E+02 0.  0.
    9900012    2    3    3    0    0  0.22754070071E+02 -0.41992178536E+01  0.28642615019E+02  0.54367074829E+02  0.39999978687E+02 0.  0.
        -12    1    3    3    0    0 -0.22754070071E+02  0.41992178536E+01 -0.28642615019E+02  0.36820925171E+02  0.00000000000E+00 0.  1.
         11    1    4    4    0    0  0.25896529584E+02  0.13514357751E+01  0.29481471876E+02  0.39263390167E+02  0.51100000000E-03 0. -1.
        -11    1    4    4    0    0  0.21179297829E+01 -0.86574328287E+01 -0.11490598124E+01  0.89864958945E+01  0.51100000000E-03 0.  1.
         12    1    4    4    0    0 -0.52603892961E+01  0.31067792000E+01  0.31020295506E+00  0.61171887675E+01  0.00000000000E+00 0. -1.
</event>
<event>
 8    1  0.1290800E-006  0.9118800E+02  0.7816164E-02  0.1184000E+00
        -11   -1    0    0    0    0  0.00000000000E+00  0.00000000000E+00  0.45593999997E+02  0.45594000000E+02  0.51100000000E-03 0. -1.
         11   -1    0    0    0    0 -0.00000000000E+00 -0.00000000000E+00 -0.45593999997E+02  0.45594000000E+02  0.51100000000E-03 0.  1.
         23    2    1    2    0    0 -0.35527136788E-14 -0.35527136788E-14 -0.44408920985E-15  0.91188000000E+02  0.91188000000E+02 0.  0.
    9900012    2    3    3    0    0 -0.27593591948E+02 -0.24367436430E+02 -0.78284755454E+00  0.54366930962E+02  0.39999650714E+02 0.  0.
        -12    1    3    3    0    0  0.27593591948E+02  0.24367436430E+02  0.78284755454E+00  0.36821069038E+02  0.00000000000E+00 0.  1.
         11    1    4    4    0    0  0.45657162146E+00  0.64268307267E+00  0.48228884337E+01  0.48868959763E+01  0.51100000000E-03 0. -1.
        -11    1    4    4    0    0  0.68217604601E+01 -0.33890581671E+01  0.16983165143E+01  0.78042559081E+01  0.51100000000E-03 0.  1.
        -12    1    4    4    0    0 -0.34871924030E+02 -0.21621061335E+02 -0.73040525025E+01  0.41675779078E+02  0.00000000000E+00 0.  1.
</event>
<event>
 8    1  0.1290800E-006  0.9118800E+02  0.7816164E-02  0.1184000E+00
        -11   -1    0    0    0    0  0.00000000000E+00  0.00000000000E+00  0.45593999997E+02  0.45594000000E+02  0.51100000000E-03 0. -1.
         11   -1    0    0    0    0 -0.00000000000E+00 -0.00000000000E+00 -0.45593999997E+02  0.45594000000E+02  0.51100000000E-03 0.  1.
         23    2    1    2    0    0  0.00000000000E+00  0.00000000000E+00  0.00000000000E+00  0.91188000000E+02  0.91188000000E+02 0.  0.
    9900012    2    3    3    0    0 -0.34546449029E+02 -0.78268910936E+01  0.10053008130E+02  0.54367077453E+02  0.39999984670E+02 0.  0.
        -12    1    3    3    0    0  0.34546449029E+02  0.78268910936E+01 -0.10053008130E+02  0.36820922547E+02  0.00000000000E+00 0.  1.
         11    1    4    4    0    0  0.57980284678E+01  0.61726149798E+01 -0.25163204931E+01  0.88346012297E+01  0.51100000000E-03 0.  1.
        -11    1    4    4    0    0 -0.15424341788E+02 -0.28894833072E+01  0.50786607206E+00  0.15700871364E+02  0.51100000000E-03 0. -1.
        -12    1    4    4    0    0 -0.24920135709E+02 -0.11110022766E+02  0.12061462551E+02  0.29831604859E+02  0.00000000000E+00 0.  1.
</event>
<event>
 8    1  0.1290800E-006  0.9118800E+02  0.7816164E-02  0.1184000E+00
        -11   -1    0    0    0    0  0.00000000000E+00  0.00000000000E+00  0.45593999997E+02  0.45594000000E+02  0.51100000000E-03 0.  1.
         11   -1    0    0    0    0 -0.00000000000E+00 -0.00000000000E+00 -0.45593999997E+02  0.45594000000E+02  0.51100000000E-03 0. -1.
         23    2    1    2    0    0  0.00000000000E+00 -0.88817841970E-15  0.71054273576E-14  0.91188000000E+02  0.91188000000E+02 0.  0.
    9900012    2    3    3    0    0  0.10714928280E+02  0.68140219229E+01 -0.34562111110E+02  0.54367080576E+02  0.39999991790E+02 0.  0.
        -12    1    3    3    0    0 -0.10714928280E+02 -0.68140219229E+01  0.34562111110E+02  0.36820919424E+02  0.00000000000E+00 0.  1.
         11    1    4    4    0    0  0.14238203362E+02  0.15793926655E+02 -0.29467211106E+02  0.36338561953E+02  0.51100000000E-03 0. -1.
        -11    1    4    4    0    0  0.53494813861E+01 -0.12891486652E+01 -0.22636929126E+01  0.59500555666E+01  0.51100000000E-03 0.  1.
        -12    1    4    4    0    0 -0.88727564686E+01 -0.76907560665E+01 -0.28312070916E+01  0.12078463057E+02  0.00000000000E+00 0.  1.
</event>
<event>
 8    1  0.1290800E-006  0.9118800E+02  0.7816164E-02  0.1184000E+00
        -11   -1    0    0    0    0  0.00000000000E+00  0.00000000000E+00  0.45593999997E+02  0.45594000000E+02  0.51100000000E-03 0.  1.
         11   -1    0    0    0    0 -0.00000000000E+00 -0.00000000000E+00 -0.45593999997E+02  0.45594000000E+02  0.51100000000E-03 0. -1.
         23    2    1    2    0    0  0.00000000000E+00  0.00000000000E+00  0.44408920985E-15  0.91188000000E+02  0.91188000000E+02 0.  0.
    9900012    2    3    3    0    0 -0.16127776140E+02 -0.33078508857E+02  0.12250280944E+01  0.54366897283E+02  0.39999573935E+02 0.  0.
         12    1    3    3    0    0  0.16127776140E+02  0.33078508857E+02 -0.12250280944E+01  0.36821102717E+02  0.00000000000E+00 0. -1.
         11    1    4    4    0    0 -0.21874032821E+02 -0.76218127438E+01  0.74543590481E+00  0.23175871425E+02  0.51100000000E-03 0. -1.
        -11    1    4    4    0    0 -0.97691253615E+00 -0.19573725337E+02  0.62325560395E+01  0.20565258003E+02  0.51100000000E-03 0.  1.
         12    1    4    4    0    0  0.67231692169E+01 -0.58829707764E+01 -0.57529638498E+01  0.10625767856E+02  0.00000000000E+00 0. -1.
</event>
<event>
 8    1  0.1290800E-006  0.9118800E+02  0.7816164E-02  0.1184000E+00
        -11   -1    0    0    0    0  0.00000000000E+00  0.00000000000E+00  0.45593999997E+02  0.45594000000E+02  0.51100000000E-03 0.  1.
         11   -1    0    0    0    0 -0.00000000000E+00 -0.00000000000E+00 -0.45593999997E+02  0.45594000000E+02  0.51100000000E-03 0. -1.
         23    2    1    2    0    0  0.00000000000E+00  0.00000000000E+00  0.22204460493E-14  0.91188000000E+02  0.91188000000E+02 0.  0.
    9900012    2    3    3    0    0 -0.30368994526E+01 -0.36486220764E+02 -0.39130441789E+01  0.54367095901E+02  0.40000026726E+02 0.  0.
         12    1    3    3    0    0  0.30368994526E+01  0.36486220764E+02  0.39130441789E+01  0.36820904099E+02  0.00000000000E+00 0. -1.
         11    1    4    4    0    0  0.29943866605E+01 -0.52885295853E+01 -0.24872193589E+01  0.65666701643E+01  0.51100000000E-03 0. -1.
        -11    1    4    4    0    0  0.73314854728E+00 -0.24364369401E+01 -0.15050680754E+02  0.15264230187E+02  0.51100000000E-03 0.  1.
        -12    1    4    4    0    0 -0.67644346604E+01 -0.28761254239E+02  0.13624855934E+02  0.32536195550E+02  0.00000000000E+00 0.  1.
</event>
<event>
 8    1  0.1290800E-006  0.9118800E+02  0.7816164E-02  0.1184000E+00
        -11   -1    0    0    0    0  0.00000000000E+00  0.00000000000E+00  0.45593999997E+02  0.45594000000E+02  0.51100000000E-03 0.  1.
         11   -1    0    0    0    0 -0.00000000000E+00 -0.00000000000E+00 -0.45593999997E+02  0.45594000000E+02  0.51100000000E-03 0. -1.
         23    2    1    2    0    0  0.00000000000E+00 -0.15543122345E-14  0.71054273576E-14  0.91188000000E+02  0.91188000000E+02 0.  0.
    9900012    2    3    3    0    0  0.13602345367E+02 -0.19329182227E+01  0.34161677101E+02  0.54367079932E+02  0.39999990321E+02 0.  0.
         12    1    3    3    0    0 -0.13602345367E+02  0.19329182227E+01 -0.34161677101E+02  0.36820920068E+02  0.00000000000E+00 0. -1.
         11    1    4    4    0    0  0.24786761394E+02 -0.10758176206E+02  0.27549069776E+02  0.38588510485E+02  0.51100000000E-03 0. -1.
        -11    1    4    4    0    0 -0.71129163049E+01  0.60288827856E+01  0.50149727714E+01  0.10587301741E+02  0.51100000000E-03 0.  1.
         12    1    4    4    0    0 -0.40714997214E+01  0.27963751975E+01  0.15976345535E+01  0.51912677058E+01  0.00000000000E+00 0. -1.
</event>
<event>
 8    1  0.1290800E-006  0.9118800E+02  0.7816164E-02  0.1184000E+00
        -11   -1    0    0    0    0  0.00000000000E+00  0.00000000000E+00  0.45593999997E+02  0.45594000000E+02  0.51100000000E-03 0.  1.
         11   -1    0    0    0    0 -0.00000000000E+00 -0.00000000000E+00 -0.45593999997E+02  0.45594000000E+02  0.51100000000E-03 0. -1.
         23    2    1    2    0    0 -0.71054273576E-14  0.00000000000E+00  0.00000000000E+00  0.91188000000E+02  0.91188000000E+02 0.  0.
    9900012    2    3    3    0    0  0.23285048085E+02  0.11646440909E+02 -0.26037394767E+02  0.54367095931E+02  0.40000026795E+02 0.  0.
        -12    1    3    3    0    0 -0.23285048085E+02 -0.11646440909E+02  0.26037394767E+02  0.36820904069E+02  0.00000000000E+00 0.  1.
         11    1    4    4    0    0 -0.86003338289E-01 -0.70532651300E+01 -0.22066130804E+02  0.23166140690E+02  0.51100000000E-03 0. -1.
        -11    1    4    4    0    0  0.92236807820E+01  0.58185592530E+01  0.21441719853E+01  0.11114377747E+02  0.51100000000E-03 0.  1.
         12    1    4    4    0    0  0.14147370641E+02  0.12881146786E+02 -0.61154359490E+01  0.20086577494E+02  0.00000000000E+00 0. -1.
</event>
<event>
 8    1  0.1290800E-006  0.9118800E+02  0.7816164E-02  0.1184000E+00
        -11   -1    0    0    0    0  0.00000000000E+00  0.00000000000E+00  0.45593999997E+02  0.45594000000E+02  0.51100000000E-03 0.  1.
         11   -1    0    0    0    0 -0.00000000000E+00 -0.00000000000E+00 -0.45593999997E+02  0.45594000000E+02  0.51100000000E-03 0. -1.
         23    2    1    2    0    0  0.71054273576E-14  0.00000000000E+00  0.35527136788E-14  0.91188000000E+02  0.91188000000E+02 0.  0.
    9900012    2    3    3    0    0 -0.29798749261E+02 -0.57370557652E+01 -0.20854297202E+02  0.54367068749E+02  0.39999964828E+02 0.  0.
         12    1    3    3    0    0  0.29798749261E+02  0.57370557652E+01  0.20854297202E+02  0.36820931251E+02  0.00000000000E+00 0. -1.
         11    1    4    4    0    0  0.48991666624E+01 -0.61750854702E+01 -0.16807817347E+01  0.80596862254E+01  0.51100000000E-03 0. -1.
        -11    1    4    4    0    0 -0.29462853663E+02 -0.28677003879E+01 -0.39392562361E+01  0.29863040560E+02  0.51100000000E-03 0.  1.
         12    1    4    4    0    0 -0.52350622604E+01  0.33057300928E+01 -0.15234259231E+02  0.16444341964E+02  0.00000000000E+00 0. -1.
</event>
<event>
 8    1  0.1290800E-006  0.9118800E+02  0.7816164E-02  0.1184000E+00
        -11   -1    0    0    0    0  0.00000000000E+00  0.00000000000E+00  0.45593999997E+02  0.45594000000E+02  0.51100000000E-03 0.  1.
         11   -1    0    0    0    0 -0.00000000000E+00 -0.00000000000E+00 -0.45593999997E+02  0.45594000000E+02  0.51100000000E-03 0. -1.
         23    2    1    2    0    0  0.00000000000E+00 -0.17763568394E-14  0.00000000000E+00  0.91188000000E+02  0.91188000000E+02 0.  0.
    9900012    2    3    3    0    0  0.27380705589E+02  0.99038851252E+01  0.22538637107E+02  0.54367080107E+02  0.39999990720E+02 0.  0.
         12    1    3    3    0    0 -0.27380705589E+02 -0.99038851252E+01 -0.22538637107E+02  0.36820919893E+02  0.00000000000E+00 0. -1.
         11    1    4    4    0    0  0.31212579693E+02  0.26219993016E+01  0.12499657335E+02  0.33724493253E+02  0.51100000000E-03 0. -1.
        -11    1    4    4    0    0 -0.68354774717E+00  0.11907117808E+02  0.90246974282E+01  0.14956331634E+02  0.51100000000E-03 0.  1.
         12    1    4    4    0    0 -0.31483263567E+01 -0.46252319843E+01  0.10142823432E+01  0.56862552202E+01  0.00000000000E+00 0. -1.
</event>
<event>
 8    1  0.1290800E-006  0.9118800E+02  0.7816164E-02  0.1184000E+00
        -11   -1    0    0    0    0  0.00000000000E+00  0.00000000000E+00  0.45593999997E+02  0.45594000000E+02  0.51100000000E-03 0. -1.
         11   -1    0    0    0    0 -0.00000000000E+00 -0.00000000000E+00 -0.45593999997E+02  0.45594000000E+02  0.51100000000E-03 0.  1.
         23    2    1    2    0    0 -0.44408920985E-15  0.00000000000E+00 -0.35527136788E-14  0.91188000000E+02  0.91188000000E+02 0.  0.
    9900012    2    3    3    0    0 -0.22453280123E+01  0.22991026069E+02  0.28673156544E+02  0.54367099906E+02  0.40000035855E+02 0.  0.
        -12    1    3    3    0    0  0.22453280123E+01 -0.22991026069E+02 -0.28673156544E+02  0.36820900094E+02  0.00000000000E+00 0.  1.
         11    1    4    4    0    0  0.87187348778E+01  0.74513233116E+00  0.23922623207E+02  0.25472798461E+02  0.51100000000E-03 0. -1.
        -11    1    4    4    0    0 -0.11510262480E+02  0.15805171242E+02  0.86120520185E+01  0.21364854799E+02  0.51100000000E-03 0.  1.
        -12    1    4    4    0    0  0.54619958966E+00  0.64407224953E+01 -0.38615186823E+01  0.75294466455E+01  0.00000000000E+00 0.  1.
</event>
<event>
 8    1  0.1290800E-006  0.9118800E+02  0.7816164E-02  0.1184000E+00
        -11   -1    0    0    0    0  0.00000000000E+00  0.00000000000E+00  0.45593999997E+02  0.45594000000E+02  0.51100000000E-03 0.  1.
         11   -1    0    0    0    0 -0.00000000000E+00 -0.00000000000E+00 -0.45593999997E+02  0.45594000000E+02  0.51100000000E-03 0. -1.
         23    2    1    2    0    0  0.35527136788E-14 -0.49960036108E-15  0.35527136788E-14  0.91188000000E+02  0.91188000000E+02 0.  0.
    9900012    2    3    3    0    0  0.29409604753E+02  0.34689027226E+00  0.22152546758E+02  0.54367075073E+02  0.39999979245E+02 0.  0.
         12    1    3    3    0    0 -0.29409604753E+02 -0.34689027226E+00 -0.22152546758E+02  0.36820924927E+02  0.00000000000E+00 0. -1.
         11    1    4    4    0    0  0.16085067306E+02 -0.13893847650E+02  0.13889086414E+01  0.21300175123E+02  0.51100000000E-03 0. -1.
        -11    1    4    4    0    0  0.37769397732E+01 -0.36817036441E+01  0.28896522577E+01  0.60141754385E+01  0.51100000000E-03 0.  1.
        -12    1    4    4    0    0  0.95475976733E+01  0.17922441567E+02  0.17873985859E+02  0.27052724512E+02  0.00000000000E+00 0.  1.
</event>
<event>
 8    1  0.1290800E-006  0.9118800E+02  0.7816164E-02  0.1184000E+00
        -11   -1    0    0    0    0  0.00000000000E+00  0.00000000000E+00  0.45593999997E+02  0.45594000000E+02  0.51100000000E-03 0. -1.
         11   -1    0    0    0    0 -0.00000000000E+00 -0.00000000000E+00 -0.45593999997E+02  0.45594000000E+02  0.51100000000E-03 0.  1.
         23    2    1    2    0    0  0.00000000000E+00  0.22204460493E-14  0.00000000000E+00  0.91188000000E+02  0.91188000000E+02 0.  0.
    9900012    2    3    3    0    0 -0.35491018057E+02 -0.45322231778E+00  0.97960288619E+01  0.54367082648E+02  0.39999996512E+02 0.  0.
        -12    1    3    3    0    0  0.35491018057E+02  0.45322231778E+00 -0.97960288619E+01  0.36820917352E+02  0.00000000000E+00 0.  1.
         11    1    4    4    0    0 -0.20819956934E+02 -0.24708163110E+01  0.51139504408E+01  0.21580732827E+02  0.51100000000E-03 0. -1.
        -11    1    4    4    0    0 -0.11080831243E+02  0.13440115570E+02 -0.41516081827E+01  0.17906908676E+02  0.51100000000E-03 0.  1.
        -12    1    4    4    0    0 -0.35902298807E+01 -0.11422521577E+02  0.88336866038E+01  0.14879441145E+02  0.00000000000E+00 0.  1.
</event>
<event>
 8    1  0.1290800E-006  0.9118800E+02  0.7816164E-02  0.1184000E+00
        -11   -1    0    0    0    0  0.00000000000E+00  0.00000000000E+00  0.45593999997E+02  0.45594000000E+02  0.51100000000E-03 0.  1.
         11   -1    0    0    0    0 -0.00000000000E+00 -0.00000000000E+00 -0.45593999997E+02  0.45594000000E+02  0.51100000000E-03 0. -1.
         23    2    1    2    0    0 -0.17763568394E-14 -0.35527136788E-14 -0.35527136788E-14  0.91188000000E+02  0.91188000000E+02 0.  0.
    9900012    2    3    3    0    0 -0.71197535119E+01 -0.30718604490E+02 -0.19011987487E+02  0.54367092623E+02  0.40000019252E+02 0.  0.
        -12    1    3    3    0    0  0.71197535119E+01  0.30718604490E+02  0.19011987487E+02  0.36820907377E+02  0.00000000000E+00 0.  1.
         11    1    4    4    0    0  0.24906255518E+01 -0.56926315192E+01  0.55025216641E+01  0.82998201292E+01  0.51100000000E-03 0. -1.
        -11    1    4    4    0    0 -0.74377825338E+01  0.42627957679E+01 -0.10413580564E+02  0.13488317064E+02  0.51100000000E-03 0.  1.
         12    1    4    4    0    0 -0.21725965299E+01 -0.29288768738E+02 -0.14100928587E+02  0.32578955430E+02  0.00000000000E+00 0. -1.
</event>
<event>
 8    1  0.1290800E-006  0.9118800E+02  0.7816164E-02  0.1184000E+00
        -11   -1    0    0    0    0  0.00000000000E+00  0.00000000000E+00  0.45593999997E+02  0.45594000000E+02  0.51100000000E-03 0.  1.
         11   -1    0    0    0    0 -0.00000000000E+00 -0.00000000000E+00 -0.45593999997E+02  0.45594000000E+02  0.51100000000E-03 0. -1.
         23    2    1    2    0    0  0.17763568394E-14  0.15543122345E-14  0.00000000000E+00  0.91188000000E+02  0.91188000000E+02 0.  0.
    9900012    2    3    3    0    0 -0.90690561009E+01  0.67634688899E+00  0.35680203718E+02  0.54367052687E+02  0.39999928210E+02 0.  0.
         12    1    3    3    0    0  0.90690561009E+01 -0.67634688899E+00 -0.35680203718E+02  0.36820947313E+02  0.00000000000E+00 0. -1.
         11    1    4    4    0    0 -0.97078793749E+01 -0.52413391335E+01  0.15092660414E+02  0.18694998168E+02  0.51100000000E-03 0. -1.
        -11    1    4    4    0    0  0.98018302201E+01  0.11105385815E+02  0.20311437408E+02  0.25138813807E+02  0.51100000000E-03 0.  1.
         12    1    4    4    0    0 -0.91630069461E+01 -0.51876997927E+01  0.27610589589E+00  0.10533240712E+02  0.00000000000E+00 0. -1.
</event>
<event>
 8    1  0.1290800E-006  0.9118800E+02  0.7816164E-02  0.1184000E+00
        -11   -1    0    0    0    0  0.00000000000E+00  0.00000000000E+00  0.45593999997E+02  0.45594000000E+02  0.51100000000E-03 0.  1.
         11   -1    0    0    0    0 -0.00000000000E+00 -0.00000000000E+00 -0.45593999997E+02  0.45594000000E+02  0.51100000000E-03 0. -1.
         23    2    1    2    0    0 -0.11102230246E-14  0.71054273576E-14  0.00000000000E+00  0.91188000000E+02  0.91188000000E+02 0.  0.
    9900012    2    3    3    0    0  0.14206664317E+01 -0.32695846818E+02  0.16874343738E+02  0.54367079739E+02  0.39999989881E+02 0.  0.
        -12    1    3    3    0    0 -0.14206664317E+01  0.32695846818E+02 -0.16874343738E+02  0.36820920261E+02  0.00000000000E+00 0.  1.
         11    1    4    4    0    0  0.11310701077E+02 -0.12499411354E+02  0.28686773093E+01  0.17099606803E+02  0.51100000000E-03 0. -1.
        -11    1    4    4    0    0 -0.59870075318E+01  0.57435317255E+01  0.36893713525E+01  0.90798610731E+01  0.51100000000E-03 0.  1.
        -12    1    4    4    0    0 -0.39030271130E+01 -0.25939967190E+02  0.10316295076E+02  0.28187611863E+02  0.00000000000E+00 0.  1.
</event>
<event>
 8    1  0.1290800E-006  0.9118800E+02  0.7816164E-02  0.1184000E+00
        -11   -1    0    0    0    0  0.00000000000E+00  0.00000000000E+00  0.45593999997E+02  0.45594000000E+02  0.51100000000E-03 0. -1.
         11   -1    0    0    0    0 -0.00000000000E+00 -0.00000000000E+00 -0.45593999997E+02  0.45594000000E+02  0.51100000000E-03 0.  1.
         23    2    1    2    0    0  0.00000000000E+00  0.00000000000E+00  0.00000000000E+00  0.91188000000E+02  0.91188000000E+02 0.  0.
    9900012    2    3    3    0    0  0.60894126374E+01  0.32989218546E+02 -0.15179276536E+02  0.54367083082E+02  0.39999997501E+02 0.  0.
         12    1    3    3    0    0 -0.60894126374E+01 -0.32989218546E+02  0.15179276536E+02  0.36820916918E+02  0.00000000000E+00 0. -1.
         11    1    4    4    0    0 -0.54673286280E+01  0.83795529753E+00 -0.84681060422E+01  0.10114478316E+02  0.51100000000E-03 0. -1.
        -11    1    4    4    0    0 -0.39397188979E+01  0.25793259282E+02 -0.84157729802E+01  0.27416032618E+02  0.51100000000E-03 0.  1.
         12    1    4    4    0    0  0.15496460163E+02  0.63580039662E+01  0.17046024863E+01  0.16836572147E+02  0.00000000000E+00 0. -1.
</event>
<event>
 8    1  0.1290800E-006  0.9118800E+02  0.7816164E-02  0.1184000E+00
        -11   -1    0    0    0    0  0.00000000000E+00  0.00000000000E+00  0.45593999997E+02  0.45594000000E+02  0.51100000000E-03 0. -1.
         11   -1    0    0    0    0 -0.00000000000E+00 -0.00000000000E+00 -0.45593999997E+02  0.45594000000E+02  0.51100000000E-03 0.  1.
         23    2    1    2    0    0  0.00000000000E+00  0.00000000000E+00 -0.17763568394E-14  0.91188000000E+02  0.91188000000E+02 0.  0.
    9900012    2    3    3    0    0 -0.99749211044E+01  0.35331663982E+02  0.28204590857E+01  0.54367074968E+02  0.39999979004E+02 0.  0.
        -12    1    3    3    0    0  0.99749211044E+01 -0.35331663982E+02 -0.28204590857E+01  0.36820925032E+02  0.00000000000E+00 0.  1.
         11    1    4    4    0    0 -0.29613384454E+01  0.10700737825E+02  0.14387115575E+02  0.18173178319E+02  0.51100000000E-03 0. -1.
        -11    1    4    4    0    0  0.29249867019E+00 -0.28181030177E+01 -0.68334511131E+01  0.73975208325E+01  0.51100000000E-03 0.  1.
         12    1    4    4    0    0 -0.73060813291E+01  0.27449029175E+02 -0.47332053762E+01  0.28796375816E+02  0.00000000000E+00 0. -1.
</event>
<event>
 8    1  0.1290800E-006  0.9118800E+02  0.7816164E-02  0.1184000E+00
        -11   -1    0    0    0    0  0.00000000000E+00  0.00000000000E+00  0.45593999997E+02  0.45594000000E+02  0.51100000000E-03 0. -1.
         11   -1    0    0    0    0 -0.00000000000E+00 -0.00000000000E+00 -0.45593999997E+02  0.45594000000E+02  0.51100000000E-03 0.  1.
         23    2    1    2    0    0  0.00000000000E+00  0.17763568394E-14 -0.17763568394E-14  0.91188000000E+02  0.91188000000E+02 0.  0.
    9900012    2    3    3    0    0  0.35091597046E+02  0.85388204887E+01 -0.71727477241E+01  0.54367082731E+02  0.39999996702E+02 0.  0.
         12    1    3    3    0    0 -0.35091597046E+02 -0.85388204887E+01  0.71727477241E+01  0.36820917269E+02  0.00000000000E+00 0. -1.
         11    1    4    4    0    0  0.90064509198E+01 -0.27448378451E+01  0.14285392319E+02  0.17109141619E+02  0.51100000000E-03 0. -1.
        -11    1    4    4    0    0  0.64845216399E+01  0.84344159443E+01 -0.80114343776E+01  0.13318088236E+02  0.51100000000E-03 0.  1.
         12    1    4    4    0    0  0.19600624487E+02  0.28492423896E+01 -0.13446705666E+02  0.23939852876E+02  0.00000000000E+00 0. -1.
</event>
<event>
 8    1  0.1290800E-006  0.9118800E+02  0.7816164E-02  0.1184000E+00
        -11   -1    0    0    0    0  0.00000000000E+00  0.00000000000E+00  0.45593999997E+02  0.45594000000E+02  0.51100000000E-03 0.  1.
         11   -1    0    0    0    0 -0.00000000000E+00 -0.00000000000E+00 -0.45593999997E+02  0.45594000000E+02  0.51100000000E-03 0. -1.
         23    2    1    2    0    0  0.35527136788E-14  0.00000000000E+00  0.00000000000E+00  0.91188000000E+02  0.91188000000E+02 0.  0.
    9900012    2    3    3    0    0  0.25199635803E+02  0.14721133847E+02  0.22450979708E+02  0.54367083170E+02  0.39999997703E+02 0.  0.
         12    1    3    3    0    0 -0.25199635803E+02 -0.14721133847E+02 -0.22450979708E+02  0.36820916830E+02  0.00000000000E+00 0. -1.
         11    1    4    4    0    0 -0.41639966503E+01  0.57642471650E+00  0.28393434052E+01  0.50727709185E+01  0.51100000000E-03 0. -1.
        -11    1    4    4    0    0  0.33495217277E+01  0.14765165372E+02  0.17569149913E+02  0.23192766829E+02  0.51100000000E-03 0.  1.
        -12    1    4    4    0    0  0.26014110726E+02 -0.62045624147E+00  0.20424863894E+01  0.26101545422E+02  0.00000000000E+00 0.  1.
</event>
<event>
 8    1  0.1290800E-006  0.9118800E+02  0.7816164E-02  0.1184000E+00
        -11   -1    0    0    0    0  0.00000000000E+00  0.00000000000E+00  0.45593999997E+02  0.45594000000E+02  0.51100000000E-03 0.  1.
         11   -1    0    0    0    0 -0.00000000000E+00 -0.00000000000E+00 -0.45593999997E+02  0.45594000000E+02  0.51100000000E-03 0. -1.
         23    2    1    2    0    0  0.00000000000E+00  0.00000000000E+00 -0.35527136788E-14  0.91188000000E+02  0.91188000000E+02 0.  0.
    9900012    2    3    3    0    0 -0.16650020950E+02 -0.93015422451E+01 -0.31496599652E+02  0.54367113598E+02  0.40000067070E+02 0.  0.
        -12    1    3    3    0    0  0.16650020950E+02  0.93015422451E+01  0.31496599652E+02  0.36820886402E+02  0.00000000000E+00 0.  1.
         11    1    4    4    0    0 -0.12228121616E+02 -0.83716414948E+01 -0.21966086765E+02  0.26497552861E+02  0.51100000000E-03 0. -1.
        -11    1    4    4    0    0 -0.13725631258E+02  0.24938936145E+01 -0.11106158304E+02  0.17831410806E+02  0.51100000000E-03 0.  1.
        -12    1    4    4    0    0  0.93037319244E+01 -0.34237943648E+01  0.15756454170E+01  0.10038149932E+02  0.00000000000E+00 0.  1.
</event>
<event>
 8    1  0.1290800E-006  0.9118800E+02  0.7816164E-02  0.1184000E+00
        -11   -1    0    0    0    0  0.00000000000E+00  0.00000000000E+00  0.45593999997E+02  0.45594000000E+02  0.51100000000E-03 0.  1.
         11   -1    0    0    0    0 -0.00000000000E+00 -0.00000000000E+00 -0.45593999997E+02  0.45594000000E+02  0.51100000000E-03 0. -1.
         23    2    1    2    0    0 -0.13322676296E-14 -0.17763568394E-14  0.00000000000E+00  0.91188000000E+02  0.91188000000E+02 0.  0.
    9900012    2    3    3    0    0  0.33635960555E+01  0.96510846394E+01  0.35374043156E+02  0.54367080099E+02  0.39999990702E+02 0.  0.
         12    1    3    3    0    0 -0.33635960555E+01 -0.96510846394E+01 -0.35374043156E+02  0.36820919901E+02  0.00000000000E+00 0. -1.
         11    1    4    4    0    0  0.53438843169E+01  0.73568636890E+01 -0.13776093236E+00  0.90939277140E+01  0.51100000000E-03 0. -1.
        -11    1    4    4    0    0  0.95953003184E+01 -0.60845108847E+01  0.25225535654E+02  0.27666201586E+02  0.51100000000E-03 0.  1.
        -12    1    4    4    0    0 -0.11575588580E+02  0.83787318351E+01  0.10286268435E+02  0.17606950799E+02  0.00000000000E+00 0.  1.
</event>
<event>
 8    1  0.1290800E-006  0.9118800E+02  0.7816164E-02  0.1184000E+00
        -11   -1    0    0    0    0  0.00000000000E+00  0.00000000000E+00  0.45593999997E+02  0.45594000000E+02  0.51100000000E-03 0.  1.
         11   -1    0    0    0    0 -0.00000000000E+00 -0.00000000000E+00 -0.45593999997E+02  0.45594000000E+02  0.51100000000E-03 0. -1.
         23    2    1    2    0    0  0.35527136788E-14  0.00000000000E+00  0.00000000000E+00  0.91188000000E+02  0.91188000000E+02 0.  0.
    9900012    2    3    3    0    0 -0.10114811423E+02  0.31006804766E+02 -0.17089379112E+02  0.54367106063E+02  0.40000049892E+02 0.  0.
        -12    1    3    3    0    0  0.10114811423E+02 -0.31006804766E+02  0.17089379112E+02  0.36820893937E+02  0.00000000000E+00 0.  1.
         11    1    4    4    0    0  0.86068827233E+00  0.41984102402E+01  0.68663946994E+00  0.43403809590E+01  0.51100000000E-03 0. -1.
        -11    1    4    4    0    0 -0.10714100985E+02  0.12656553170E+02  0.96339309966E+01  0.19177928063E+02  0.51100000000E-03 0.  1.
         12    1    4    4    0    0 -0.26139871034E+00  0.14151841355E+02 -0.27409949578E+02  0.30848797041E+02  0.00000000000E+00 0. -1.
</event>
<event>
 8    1  0.1290800E-006  0.9118800E+02  0.7816164E-02  0.1184000E+00
        -11   -1    0    0    0    0  0.00000000000E+00  0.00000000000E+00  0.45593999997E+02  0.45594000000E+02  0.51100000000E-03 0.  1.
         11   -1    0    0    0    0 -0.00000000000E+00 -0.00000000000E+00 -0.45593999997E+02  0.45594000000E+02  0.51100000000E-03 0. -1.
         23    2    1    2    0    0  0.00000000000E+00  0.00000000000E+00  0.00000000000E+00  0.91188000000E+02  0.91188000000E+02 0.  0.
    9900012    2    3    3    0    0 -0.18825797394E+02  0.14485973366E+02  0.28134052517E+02  0.54367095843E+02  0.40000026593E+02 0.  0.
         12    1    3    3    0    0  0.18825797394E+02 -0.14485973366E+02 -0.28134052517E+02  0.36820904157E+02  0.00000000000E+00 0. -1.
         11    1    4    4    0    0 -0.13068305795E+02 -0.75421015231E+01  0.19746480329E+02  0.24851305748E+02  0.51100000000E-03 0. -1.
        -11    1    4    4    0    0 -0.98148328268E+01  0.54862778190E+01  0.39153669639E+01  0.11906312882E+02  0.51100000000E-03 0.  1.
         12    1    4    4    0    0  0.40573412274E+01  0.16541797070E+02  0.44722052242E+01  0.17609477213E+02  0.00000000000E+00 0. -1.
</event>
<event>
 8    1  0.1290800E-006  0.9118800E+02  0.7816164E-02  0.1184000E+00
        -11   -1    0    0    0    0  0.00000000000E+00  0.00000000000E+00  0.45593999997E+02  0.45594000000E+02  0.51100000000E-03 0. -1.
         11   -1    0    0    0    0 -0.00000000000E+00 -0.00000000000E+00 -0.45593999997E+02  0.45594000000E+02  0.51100000000E-03 0.  1.
         23    2    1    2    0    0  0.00000000000E+00 -0.17763568394E-14  0.00000000000E+00  0.91188000000E+02  0.91188000000E+02 0.  0.
    9900012    2    3    3    0    0  0.30718346053E+02  0.14411767038E+02 -0.14299069265E+02  0.54367092960E+02  0.40000020021E+02 0.  0.
         12    1    3    3    0    0 -0.30718346053E+02 -0.14411767038E+02  0.14299069265E+02  0.36820907040E+02  0.00000000000E+00 0. -1.
         11    1    4    4    0    0 -0.47526349441E+01  0.26040916255E+01  0.50025877561E+00  0.54423424378E+01  0.51100000000E-03 0. -1.
        -11    1    4    4    0    0  0.38453353743E+02  0.46139708769E+01 -0.13588062615E+02  0.41043691198E+02  0.51100000000E-03 0.  1.
        -12    1    4    4    0    0 -0.29823727456E+01  0.71937045354E+01 -0.12112654264E+01  0.78810593241E+01  0.00000000000E+00 0.  1.
</event>
<event>
 8    1  0.1290800E-006  0.9118800E+02  0.7816164E-02  0.1184000E+00
        -11   -1    0    0    0    0  0.00000000000E+00  0.00000000000E+00  0.45593999997E+02  0.45594000000E+02  0.51100000000E-03 0.  1.
         11   -1    0    0    0    0 -0.00000000000E+00 -0.00000000000E+00 -0.45593999997E+02  0.45594000000E+02  0.51100000000E-03 0. -1.
         23    2    1    2    0    0 -0.88817841970E-15  0.35527136788E-14  0.00000000000E+00  0.91188000000E+02  0.91188000000E+02 0.  0.
    9900012    2    3    3    0    0 -0.66334544236E+01  0.31282890510E+02 -0.18252619893E+02  0.54367080821E+02  0.39999992347E+02 0.  0.
        -12    1    3    3    0    0  0.66334544236E+01 -0.31282890510E+02  0.18252619893E+02  0.36820919179E+02  0.00000000000E+00 0.  1.
         11    1    4    4    0    0 -0.86106137331E+00  0.16450368369E+02  0.77437575083E+01  0.18202247850E+02  0.51100000000E-03 0. -1.
        -11    1    4    4    0    0  0.48377195788E+00  0.19753649219E+01  0.31215796670E+01  0.37256357525E+01  0.51100000000E-03 0.  1.
         12    1    4    4    0    0 -0.62561650081E+01  0.12857157219E+02 -0.29117957068E+02  0.32439197218E+02  0.00000000000E+00 0. -1.
</event>
<event>
 8    1  0.1290800E-006  0.9118800E+02  0.7816164E-02  0.1184000E+00
        -11   -1    0    0    0    0  0.00000000000E+00  0.00000000000E+00  0.45593999997E+02  0.45594000000E+02  0.51100000000E-03 0. -1.
         11   -1    0    0    0    0 -0.00000000000E+00 -0.00000000000E+00 -0.45593999997E+02  0.45594000000E+02  0.51100000000E-03 0.  1.
         23    2    1    2    0    0 -0.35527136788E-14 -0.35527136788E-14  0.35527136788E-14  0.91188000000E+02  0.91188000000E+02 0.  0.
    9900012    2    3    3    0    0 -0.20676026035E+02 -0.13956819304E+02  0.27082979592E+02  0.54367100482E+02  0.40000037170E+02 0.  0.
        -12    1    3    3    0    0  0.20676026035E+02  0.13956819304E+02 -0.27082979592E+02  0.36820899518E+02  0.00000000000E+00 0.  1.
         11    1    4    4    0    0  0.29529267290E+01  0.62541316372E+01  0.19149360572E+02  0.20360057696E+02  0.51100000000E-03 0. -1.
        -11    1    4    4    0    0 -0.40161425089E+01 -0.35284040136E+01 -0.28891975825E+01  0.60767177380E+01  0.51100000000E-03 0.  1.
        -12    1    4    4    0    0 -0.19612810255E+02 -0.16682546928E+02  0.10822816603E+02  0.27930325048E+02  0.00000000000E+00 0.  1.
</event>
<event>
 8    1  0.1290800E-006  0.9118800E+02  0.7816164E-02  0.1184000E+00
        -11   -1    0    0    0    0  0.00000000000E+00  0.00000000000E+00  0.45593999997E+02  0.45594000000E+02  0.51100000000E-03 0. -1.
         11   -1    0    0    0    0 -0.00000000000E+00 -0.00000000000E+00 -0.45593999997E+02  0.45594000000E+02  0.51100000000E-03 0.  1.
         23    2    1    2    0    0  0.17763568394E-14  0.00000000000E+00  0.00000000000E+00  0.91188000000E+02  0.91188000000E+02 0.  0.
    9900012    2    3    3    0    0 -0.12898924306E+02 -0.22139591184E+02  0.26443081826E+02  0.54367077652E+02  0.39999985124E+02 0.  0.
        -12    1    3    3    0    0  0.12898924306E+02  0.22139591184E+02 -0.26443081826E+02  0.36820922348E+02  0.00000000000E+00 0.  1.
         11    1    4    4    0    0 -0.36620848568E+01 -0.88925769266E+01  0.14984934556E+02  0.17805534359E+02  0.51100000000E-03 0. -1.
        -11    1    4    4    0    0 -0.41910595278E+01 -0.17510446070E+02 -0.51174418420E+01  0.18718143947E+02  0.51100000000E-03 0.  1.
        -12    1    4    4    0    0 -0.50457799211E+01  0.42634318123E+01  0.16575589112E+02  0.17843399347E+02  0.00000000000E+00 0.  1.
</event>
<event>
 8    1  0.1290800E-006  0.9118800E+02  0.7816164E-02  0.1184000E+00
        -11   -1    0    0    0    0  0.00000000000E+00  0.00000000000E+00  0.45593999997E+02  0.45594000000E+02  0.51100000000E-03 0. -1.
         11   -1    0    0    0    0 -0.00000000000E+00 -0.00000000000E+00 -0.45593999997E+02  0.45594000000E+02  0.51100000000E-03 0.  1.
         23    2    1    2    0    0  0.00000000000E+00  0.00000000000E+00  0.00000000000E+00  0.91188000000E+02  0.91188000000E+02 0.  0.
    9900012    2    3    3    0    0 -0.95692534099E+01  0.16912104108E+02 -0.31276006756E+02  0.54367102744E+02  0.40000042324E+02 0.  0.
         12    1    3    3    0    0  0.95692534099E+01 -0.16912104108E+02  0.31276006756E+02  0.36820897256E+02  0.00000000000E+00 0. -1.
         11    1    4    4    0    0 -0.10534128839E+02  0.32278213783E+01 -0.13491783302E+02  0.17418809321E+02  0.51100000000E-03 0. -1.
        -11    1    4    4    0    0  0.36511873880E+01  0.19500800461E+02 -0.21729427437E+02  0.29424146631E+02  0.51100000000E-03 0.  1.
         12    1    4    4    0    0 -0.26863119592E+01 -0.58165177316E+01  0.39452039832E+01  0.75241467911E+01  0.00000000000E+00 0. -1.
</event>
<event>
 8    1  0.1290800E-006  0.9118800E+02  0.7816164E-02  0.1184000E+00
        -11   -1    0    0    0    0  0.00000000000E+00  0.00000000000E+00  0.45593999997E+02  0.45594000000E+02  0.51100000000E-03 0. -1.
         11   -1    0    0    0    0 -0.00000000000E+00 -0.00000000000E+00 -0.45593999997E+02  0.45594000000E+02  0.51100000000E-03 0.  1.
         23    2    1    2    0    0  0.00000000000E+00  0.00000000000E+00  0.44408920985E-15  0.91188000000E+02  0.91188000000E+02 0.  0.
    9900012    2    3    3    0    0  0.36220509644E+02 -0.58168049571E+01 -0.31653586624E+01  0.54367081567E+02  0.39999994048E+02 0.  0.
         12    1    3    3    0    0 -0.36220509644E+02  0.58168049571E+01  0.31653586624E+01  0.36820918433E+02  0.00000000000E+00 0. -1.
         11    1    4    4    0    0 -0.26860279617E+01 -0.31857776175E+01 -0.38194870068E+00  0.41844725247E+01  0.51100000000E-03 0. -1.
        -11    1    4    4    0    0  0.15102867561E+02 -0.42946207144E+01  0.13978186493E+02  0.21022132945E+02  0.51100000000E-03 0.  1.
        -12    1    4    4    0    0  0.23803670045E+02  0.16635933748E+01 -0.16761596455E+02  0.29160476098E+02  0.00000000000E+00 0.  1.
</event>
<event>
 8    1  0.1290800E-006  0.9118800E+02  0.7816164E-02  0.1184000E+00
        -11   -1    0    0    0    0  0.00000000000E+00  0.00000000000E+00  0.45593999997E+02  0.45594000000E+02  0.51100000000E-03 0. -1.
         11   -1    0    0    0    0 -0.00000000000E+00 -0.00000000000E+00 -0.45593999997E+02  0.45594000000E+02  0.51100000000E-03 0.  1.
         23    2    1    2    0    0  0.00000000000E+00 -0.88817841970E-15  0.35527136788E-14  0.91188000000E+02  0.91188000000E+02 0.  0.
    9900012    2    3    3    0    0 -0.35021594801E+02 -0.66920338787E+01  0.91910581437E+01  0.54367204658E+02  0.40000274657E+02 0.  0.
        -12    1    3    3    0    0  0.35021594801E+02  0.66920338787E+01 -0.91910581437E+01  0.36820795342E+02  0.00000000000E+00 0.  1.
         11    1    4    4    0    0 -0.32101874141E+01 -0.15384429191E+01 -0.87205262189E+01  0.94191128906E+01  0.51100000000E-03 0. -1.
        -11    1    4    4    0    0 -0.10074794541E+02  0.71076720296E+01 -0.26513764420E+01  0.12611513947E+02  0.51100000000E-03 0.  1.
         12    1    4    4    0    0 -0.21736612846E+02 -0.12261262989E+02  0.20562960805E+02  0.32336577821E+02  0.00000000000E+00 0. -1.
</event>
<event>
 8    1  0.1290800E-006  0.9118800E+02  0.7816164E-02  0.1184000E+00
        -11   -1    0    0    0    0  0.00000000000E+00  0.00000000000E+00  0.45593999997E+02  0.45594000000E+02  0.51100000000E-03 0.  1.
         11   -1    0    0    0    0 -0.00000000000E+00 -0.00000000000E+00 -0.45593999997E+02  0.45594000000E+02  0.51100000000E-03 0. -1.
         23    2    1    2    0    0  0.00000000000E+00  0.00000000000E+00  0.12628786905E-14  0.91188000000E+02  0.91188000000E+02 0.  0.
    9900012    2    3    3    0    0 -0.35460062710E+02 -0.99176307301E+01 -0.66677123839E-01  0.54367083491E+02  0.39999998435E+02 0.  0.
         12    1    3    3    0    0  0.35460062710E+02  0.99176307301E+01  0.66677123839E-01  0.36820916509E+02  0.00000000000E+00 0. -1.
         11    1    4    4    0    0 -0.24208802117E+01 -0.69759954080E+01 -0.13179529476E+02  0.15107123168E+02  0.51100000000E-03 0. -1.
        -11    1    4    4    0    0 -0.73019824840E+01 -0.76448432312E+01  0.16667985021E+01  0.10702373276E+02  0.51100000000E-03 0.  1.
        -12    1    4    4    0    0 -0.25737200015E+02  0.47032079091E+01  0.11446053850E+02  0.28557587047E+02  0.00000000000E+00 0.  1.
</event>
<event>
 8    1  0.1290800E-006  0.9118800E+02  0.7816164E-02  0.1184000E+00
        -11   -1    0    0    0    0  0.00000000000E+00  0.00000000000E+00  0.45593999997E+02  0.45594000000E+02  0.51100000000E-03 0. -1.
         11   -1    0    0    0    0 -0.00000000000E+00 -0.00000000000E+00 -0.45593999997E+02  0.45594000000E+02  0.51100000000E-03 0.  1.
         23    2    1    2    0    0 -0.88817841970E-15 -0.35527136788E-14  0.00000000000E+00  0.91188000000E+02  0.91188000000E+02 0.  0.
    9900012    2    3    3    0    0 -0.53189297878E+01  0.18294115071E+02 -0.31508936068E+02  0.54367099516E+02  0.40000034967E+02 0.  0.
         12    1    3    3    0    0  0.53189297878E+01 -0.18294115071E+02  0.31508936068E+02  0.36820900484E+02  0.00000000000E+00 0. -1.
         11    1    4    4    0    0  0.90241900942E+01 -0.89719611834E+01 -0.88404471038E+01  0.15494695853E+02  0.51100000000E-03 0. -1.
        -11    1    4    4    0    0 -0.11646539456E+02  0.15119765130E+02 -0.14796082507E+02  0.24148980035E+02  0.51100000000E-03 0.  1.
         12    1    4    4    0    0 -0.26965804261E+01  0.12146311124E+02 -0.78724064570E+01  0.14723423628E+02  0.00000000000E+00 0. -1.
</event>
<event>
 8    1  0.1290800E-006  0.9118800E+02  0.7816164E-02  0.1184000E+00
        -11   -1    0    0    0    0  0.00000000000E+00  0.00000000000E+00  0.45593999997E+02  0.45594000000E+02  0.51100000000E-03 0. -1.
         11   -1    0    0    0    0 -0.00000000000E+00 -0.00000000000E+00 -0.45593999997E+02  0.45594000000E+02  0.51100000000E-03 0.  1.
         23    2    1    2    0    0 -0.22204460493E-15  0.00000000000E+00 -0.35527136788E-14  0.91188000000E+02  0.91188000000E+02 0.  0.
    9900012    2    3    3    0    0  0.16253805065E+01  0.21425147172E+02 -0.29901527422E+02  0.54367080195E+02  0.39999990920E+02 0.  0.
         12    1    3    3    0    0 -0.16253805065E+01 -0.21425147172E+02  0.29901527422E+02  0.36820919805E+02  0.00000000000E+00 0. -1.
         11    1    4    4    0    0  0.12984255028E+02 -0.36953330955E+01 -0.53552585244E+01  0.14523262699E+02  0.51100000000E-03 0.  1.
        -11    1    4    4    0    0 -0.12176747847E+01  0.39860796436E+01  0.18336949519E+01  0.45534602495E+01  0.51100000000E-03 0. -1.
        -12    1    4    4    0    0 -0.10141199736E+02  0.21134400624E+02 -0.26379963850E+02  0.35290357246E+02  0.00000000000E+00 0.  1.
</event>
<event>
 8    1  0.1290800E-006  0.9118800E+02  0.7816164E-02  0.1184000E+00
        -11   -1    0    0    0    0  0.00000000000E+00  0.00000000000E+00  0.45593999997E+02  0.45594000000E+02  0.51100000000E-03 0.  1.
         11   -1    0    0    0    0 -0.00000000000E+00 -0.00000000000E+00 -0.45593999997E+02  0.45594000000E+02  0.51100000000E-03 0. -1.
         23    2    1    2    0    0  0.35527136788E-14  0.35527136788E-14 -0.88817841970E-15  0.91188000000E+02  0.91188000000E+02 0.  0.
    9900012    2    3    3    0    0 -0.29484085909E+02 -0.20760856423E+02  0.74468274947E+01  0.54367085820E+02  0.40000003745E+02 0.  0.
         12    1    3    3    0    0  0.29484085909E+02  0.20760856423E+02 -0.74468274947E+01  0.36820914180E+02  0.00000000000E+00 0. -1.
         11    1    4    4    0    0 -0.27861292075E+02 -0.68063854860E+01 -0.96457931521E+00  0.28696844652E+02  0.51100000000E-03 0. -1.
        -11    1    4    4    0    0 -0.35330224095E+01  0.42758326543E+01  0.10937114928E+00  0.55476981302E+01  0.51100000000E-03 0.  1.
         12    1    4    4    0    0  0.19102285752E+01 -0.18230303591E+02  0.83020356606E+01  0.20122543039E+02  0.00000000000E+00 0. -1.
</event>
<event>
 8    1  0.1290800E-006  0.9118800E+02  0.7816164E-02  0.1184000E+00
        -11   -1    0    0    0    0  0.00000000000E+00  0.00000000000E+00  0.45593999997E+02  0.45594000000E+02  0.51100000000E-03 0. -1.
         11   -1    0    0    0    0 -0.00000000000E+00 -0.00000000000E+00 -0.45593999997E+02  0.45594000000E+02  0.51100000000E-03 0.  1.
         23    2    1    2    0    0 -0.88817841970E-15 -0.88817841970E-15  0.00000000000E+00  0.91188000000E+02  0.91188000000E+02 0.  0.
    9900012    2    3    3    0    0 -0.65676375869E+01  0.68152559057E+01 -0.35583689115E+02  0.54367075140E+02  0.39999979396E+02 0.  0.
         12    1    3    3    0    0  0.65676375869E+01 -0.68152559057E+01  0.35583689115E+02  0.36820924860E+02  0.00000000000E+00 0. -1.
         11    1    4    4    0    0 -0.11004213615E+02  0.51162858591E+00 -0.61951172920E+01  0.12638590096E+02  0.51100000000E-03 0. -1.
        -11    1    4    4    0    0  0.36725645072E+01 -0.11000742301E+02 -0.74829128883E+01  0.13802102984E+02  0.51100000000E-03 0.  1.
        -12    1    4    4    0    0  0.76401152044E+00  0.17304369621E+02 -0.21905658935E+02  0.27926382060E+02  0.00000000000E+00 0.  1.
</event>
<event>
 8    1  0.1290800E-006  0.9118800E+02  0.7816164E-02  0.1184000E+00
        -11   -1    0    0    0    0  0.00000000000E+00  0.00000000000E+00  0.45593999997E+02  0.45594000000E+02  0.51100000000E-03 0. -1.
         11   -1    0    0    0    0 -0.00000000000E+00 -0.00000000000E+00 -0.45593999997E+02  0.45594000000E+02  0.51100000000E-03 0.  1.
         23    2    1    2    0    0  0.17763568394E-14  0.00000000000E+00  0.00000000000E+00  0.91188000000E+02  0.91188000000E+02 0.  0.
    9900012    2    3    3    0    0 -0.15980560450E+02  0.32239800023E+02 -0.78101408933E+01  0.54367064127E+02  0.39999954289E+02 0.  0.
        -12    1    3    3    0    0  0.15980560450E+02 -0.32239800023E+02  0.78101408933E+01  0.36820935873E+02  0.00000000000E+00 0.  1.
         11    1    4    4    0    0 -0.14018898724E+02  0.57456062662E+01  0.48051295351E+01  0.15894363243E+02  0.51100000000E-03 0. -1.
        -11    1    4    4    0    0  0.96668868705E+01  0.13099366105E+02  0.69658369836E+00  0.16295009151E+02  0.51100000000E-03 0.  1.
        -12    1    4    4    0    0 -0.11628548596E+02  0.13394827652E+02 -0.13311854127E+02  0.22177691732E+02  0.00000000000E+00 0.  1.
</event>
<event>
 8    1  0.1290800E-006  0.9118800E+02  0.7816164E-02  0.1184000E+00
        -11   -1    0    0    0    0  0.00000000000E+00  0.00000000000E+00  0.45593999997E+02  0.45594000000E+02  0.51100000000E-03 0.  1.
         11   -1    0    0    0    0 -0.00000000000E+00 -0.00000000000E+00 -0.45593999997E+02  0.45594000000E+02  0.51100000000E-03 0. -1.
         23    2    1    2    0    0  0.00000000000E+00  0.88817841970E-15  0.00000000000E+00  0.91188000000E+02  0.91188000000E+02 0.  0.
    9900012    2    3    3    0    0 -0.35791626573E+02 -0.64386019638E+01 -0.57692322611E+01  0.54367079739E+02  0.39999989882E+02 0.  0.
        -12    1    3    3    0    0  0.35791626573E+02  0.64386019638E+01  0.57692322611E+01  0.36820920261E+02  0.00000000000E+00 0.  1.
         11    1    4    4    0    0 -0.30564914642E+02  0.71318885363E+01  0.86835866318E+00  0.31397959937E+02  0.51100000000E-03 0. -1.
        -11    1    4    4    0    0  0.34392417751E+01  0.17539333967E+01  0.65067266357E+00  0.39151042801E+01  0.51100000000E-03 0.  1.
         12    1    4    4    0    0 -0.86659537057E+01 -0.15324423897E+02 -0.72882635879E+01  0.19054015522E+02  0.00000000000E+00 0. -1.
</event>
<event>
 8    1  0.1290800E-006  0.9118800E+02  0.7816164E-02  0.1184000E+00
        -11   -1    0    0    0    0  0.00000000000E+00  0.00000000000E+00  0.45593999997E+02  0.45594000000E+02  0.51100000000E-03 0.  1.
         11   -1    0    0    0    0 -0.00000000000E+00 -0.00000000000E+00 -0.45593999997E+02  0.45594000000E+02  0.51100000000E-03 0. -1.
         23    2    1    2    0    0  0.17763568394E-14 -0.35527136788E-14  0.00000000000E+00  0.91188000000E+02  0.91188000000E+02 0.  0.
    9900012    2    3    3    0    0 -0.12755349565E+02  0.24240186656E+02  0.24606790567E+02  0.54367085649E+02  0.40000003354E+02 0.  0.
        -12    1    3    3    0    0  0.12755349565E+02 -0.24240186656E+02 -0.24606790567E+02  0.36820914351E+02  0.00000000000E+00 0.  1.
         11    1    4    4    0    0 -0.15860244002E+02  0.15380298159E+02  0.52465479580E+01  0.22707425592E+02  0.51100000000E-03 0. -1.
        -11    1    4    4    0    0  0.88831166487E+01 -0.39067229889E+01  0.13121963442E+02  0.16320483165E+02  0.51100000000E-03 0.  1.
        -12    1    4    4    0    0 -0.57782222114E+01  0.12766611486E+02  0.62382791671E+01  0.15339176892E+02  0.00000000000E+00 0.  1.
</event>
<event>
 8    1  0.1290800E-006  0.9118800E+02  0.7816164E-02  0.1184000E+00
        -11   -1    0    0    0    0  0.00000000000E+00  0.00000000000E+00  0.45593999997E+02  0.45594000000E+02  0.51100000000E-03 0.  1.
         11   -1    0    0    0    0 -0.00000000000E+00 -0.00000000000E+00 -0.45593999997E+02  0.45594000000E+02  0.51100000000E-03 0. -1.
         23    2    1    2    0    0  0.17763568394E-14  0.00000000000E+00  0.35527136788E-14  0.91188000000E+02  0.91188000000E+02 0.  0.
    9900012    2    3    3    0    0 -0.10987321500E+02 -0.17911749040E+02 -0.30236225670E+02  0.54367063969E+02  0.39999953930E+02 0.  0.
        -12    1    3    3    0    0  0.10987321500E+02  0.17911749040E+02  0.30236225670E+02  0.36820936031E+02  0.00000000000E+00 0.  1.
         11    1    4    4    0    0 -0.59873130204E+01 -0.70941466035E+01 -0.17452505865E+02  0.19767771611E+02  0.51100000000E-03 0. -1.
        -11    1    4    4    0    0 -0.12705314712E+02 -0.15641806348E+02 -0.15143063307E+02  0.25207211157E+02  0.51100000000E-03 0.  1.
        -12    1    4    4    0    0  0.77053062323E+01  0.48242039120E+01  0.23593435016E+01  0.93920812005E+01  0.00000000000E+00 0.  1.
</event>
<event>
 8    1  0.1290800E-006  0.9118800E+02  0.7816164E-02  0.1184000E+00
        -11   -1    0    0    0    0  0.00000000000E+00  0.00000000000E+00  0.45593999997E+02  0.45594000000E+02  0.51100000000E-03 0. -1.
         11   -1    0    0    0    0 -0.00000000000E+00 -0.00000000000E+00 -0.45593999997E+02  0.45594000000E+02  0.51100000000E-03 0.  1.
         23    2    1    2    0    0 -0.71054273576E-14 -0.44408920985E-15 -0.17763568394E-14  0.91188000000E+02  0.91188000000E+02 0.  0.
    9900012    2    3    3    0    0  0.35361810037E+02  0.20932817342E+01 -0.10046964507E+02  0.54367069358E+02  0.39999966217E+02 0.  0.
         12    1    3    3    0    0 -0.35361810037E+02 -0.20932817342E+01  0.10046964507E+02  0.36820930642E+02  0.00000000000E+00 0. -1.
         11    1    4    4    0    0  0.39616006916E+01 -0.12345825589E+01 -0.89873584152E+01  0.98990446851E+01  0.51100000000E-03 0. -1.
        -11    1    4    4    0    0 -0.59972034835E+01 -0.25879049618E+01 -0.98454789023E+00  0.66055307526E+01  0.51100000000E-03 0.  1.
        -12    1    4    4    0    0  0.37397412829E+02  0.59157692549E+01 -0.75058201812E-01  0.37862493921E+02  0.00000000000E+00 0.  1.
</event>
<event>
 8    1  0.1290800E-006  0.9118800E+02  0.7816164E-02  0.1184000E+00
        -11   -1    0    0    0    0  0.00000000000E+00  0.00000000000E+00  0.45593999997E+02  0.45594000000E+02  0.51100000000E-03 0.  1.
         11   -1    0    0    0    0 -0.00000000000E+00 -0.00000000000E+00 -0.45593999997E+02  0.45594000000E+02  0.51100000000E-03 0. -1.
         23    2    1    2    0    0 -0.17763568394E-14  0.00000000000E+00  0.00000000000E+00  0.91188000000E+02  0.91188000000E+02 0.  0.
    9900012    2    3    3    0    0  0.94279542591E+01 -0.30844467140E+02  0.17762761600E+02  0.54367038927E+02  0.39999896842E+02 0.  0.
         12    1    3    3    0    0 -0.94279542591E+01  0.30844467140E+02 -0.17762761600E+02  0.36820961073E+02  0.00000000000E+00 0. -1.
         11    1    4    4    0    0 -0.97188486877E+01 -0.74729571287E+01 -0.74323509370E+01  0.14336699368E+02  0.51100000000E-03 0. -1.
        -11    1    4    4    0    0  0.68613191489E+01 -0.13418432874E+02  0.14700230997E+02  0.21053000567E+02  0.51100000000E-03 0.  1.
         12    1    4    4    0    0  0.12285483798E+02 -0.99530771374E+01  0.10494881540E+02  0.18977338991E+02  0.00000000000E+00 0. -1.
</event>
<event>
 8    1  0.1290800E-006  0.9118800E+02  0.7816164E-02  0.1184000E+00
        -11   -1    0    0    0    0  0.00000000000E+00  0.00000000000E+00  0.45593999997E+02  0.45594000000E+02  0.51100000000E-03 0.  1.
         11   -1    0    0    0    0 -0.00000000000E+00 -0.00000000000E+00 -0.45593999997E+02  0.45594000000E+02  0.51100000000E-03 0. -1.
         23    2    1    2    0    0  0.00000000000E+00  0.00000000000E+00  0.00000000000E+00  0.91188000000E+02  0.91188000000E+02 0.  0.
    9900012    2    3    3    0    0  0.19641148551E+02  0.94037482337E+01 -0.29691328963E+02  0.54367079142E+02  0.39999988519E+02 0.  0.
        -12    1    3    3    0    0 -0.19641148551E+02 -0.94037482337E+01  0.29691328963E+02  0.36820920858E+02  0.00000000000E+00 0.  1.
         11    1    4    4    0    0  0.29282571962E+02  0.60176420952E+01 -0.17647666458E+02  0.34714855160E+02  0.51100000000E-03 0. -1.
        -11    1    4    4    0    0 -0.37672354302E+01  0.64203494855E+01 -0.21418780544E+01  0.77460049163E+01  0.51100000000E-03 0.  1.
         12    1    4    4    0    0 -0.58741879807E+01 -0.30342433470E+01 -0.99017844512E+01  0.11906219066E+02  0.00000000000E+00 0. -1.
</event>
<event>
 8    1  0.1290800E-006  0.9118800E+02  0.7816164E-02  0.1184000E+00
        -11   -1    0    0    0    0  0.00000000000E+00  0.00000000000E+00  0.45593999997E+02  0.45594000000E+02  0.51100000000E-03 0. -1.
         11   -1    0    0    0    0 -0.00000000000E+00 -0.00000000000E+00 -0.45593999997E+02  0.45594000000E+02  0.51100000000E-03 0.  1.
         23    2    1    2    0    0  0.00000000000E+00  0.17763568394E-14 -0.27755575616E-15  0.91188000000E+02  0.91188000000E+02 0.  0.
    9900012    2    3    3    0    0 -0.33588494464E+02  0.15080846525E+02  0.40145409626E+00  0.54367081249E+02  0.39999993323E+02 0.  0.
        -12    1    3    3    0    0  0.33588494464E+02 -0.15080846525E+02 -0.40145409626E+00  0.36820918751E+02  0.00000000000E+00 0.  1.
         11    1    4    4    0    0 -0.95924963266E+01 -0.53072529806E+01 -0.17634663820E+01  0.11103726128E+02  0.51100000000E-03 0. -1.
        -11    1    4    4    0    0  0.23949231217E+01 -0.53841911803E+01  0.24317391285E+01  0.63748354391E+01  0.51100000000E-03 0.  1.
         12    1    4    4    0    0 -0.26390921260E+02  0.25772290686E+02 -0.26681865015E+00  0.36888519682E+02  0.00000000000E+00 0. -1.
</event>
<event>
 8    1  0.1290800E-006  0.9118800E+02  0.7816164E-02  0.1184000E+00
        -11   -1    0    0    0    0  0.00000000000E+00  0.00000000000E+00  0.45593999997E+02  0.45594000000E+02  0.51100000000E-03 0. -1.
         11   -1    0    0    0    0 -0.00000000000E+00 -0.00000000000E+00 -0.45593999997E+02  0.45594000000E+02  0.51100000000E-03 0.  1.
         23    2    1    2    0    0  0.17763568394E-14  0.00000000000E+00  0.00000000000E+00  0.91188000000E+02  0.91188000000E+02 0.  0.
    9900012    2    3    3    0    0 -0.12738203489E+02 -0.29730091104E+02 -0.17596586556E+02  0.54367081983E+02  0.39999994997E+02 0.  0.
        -12    1    3    3    0    0  0.12738203489E+02  0.29730091104E+02  0.17596586556E+02  0.36820918017E+02  0.00000000000E+00 0.  1.
         11    1    4    4    0    0 -0.16068050888E+02 -0.80677304780E+01 -0.13641347723E+02  0.22568936669E+02  0.51100000000E-03 0. -1.
        -11    1    4    4    0    0  0.50080953844E+00  0.52390728770E+00 -0.88692129471E+01  0.88987767475E+01  0.51100000000E-03 0.  1.
         12    1    4    4    0    0  0.28290378606E+01 -0.22186267914E+02  0.49139741142E+01  0.22899368567E+02  0.00000000000E+00 0. -1.
</event>
<event>
 8    1  0.1290800E-006  0.9118800E+02  0.7816164E-02  0.1184000E+00
        -11   -1    0    0    0    0  0.00000000000E+00  0.00000000000E+00  0.45593999997E+02  0.45594000000E+02  0.51100000000E-03 0.  1.
         11   -1    0    0    0    0 -0.00000000000E+00 -0.00000000000E+00 -0.45593999997E+02  0.45594000000E+02  0.51100000000E-03 0. -1.
         23    2    1    2    0    0 -0.35527136788E-14  0.17763568394E-14  0.00000000000E+00  0.91188000000E+02  0.91188000000E+02 0.  0.
    9900012    2    3    3    0    0  0.21246440097E+02 -0.12916497907E+02  0.27157541795E+02  0.54367092741E+02  0.40000019523E+02 0.  0.
        -12    1    3    3    0    0 -0.21246440097E+02  0.12916497907E+02 -0.27157541795E+02  0.36820907259E+02  0.00000000000E+00 0.  1.
         11    1    4    4    0    0  0.12309692265E+02 -0.13417400611E+02  0.13250534497E+02  0.22519587641E+02  0.51100000000E-03 0. -1.
        -11    1    4    4    0    0  0.25632534868E+01  0.10119408896E+02  0.16957070538E+02  0.19912683052E+02  0.51100000000E-03 0.  1.
        -12    1    4    4    0    0  0.63734943453E+01 -0.96185061925E+01 -0.30500632401E+01  0.11934822048E+02  0.00000000000E+00 0.  1.
</event>
<event>
 8    1  0.1290800E-006  0.9118800E+02  0.7816164E-02  0.1184000E+00
        -11   -1    0    0    0    0  0.00000000000E+00  0.00000000000E+00  0.45593999997E+02  0.45594000000E+02  0.51100000000E-03 0.  1.
         11   -1    0    0    0    0 -0.00000000000E+00 -0.00000000000E+00 -0.45593999997E+02  0.45594000000E+02  0.51100000000E-03 0. -1.
         23    2    1    2    0    0  0.00000000000E+00  0.17763568394E-14  0.00000000000E+00  0.91188000000E+02  0.91188000000E+02 0.  0.
    9900012    2    3    3    0    0  0.16224711528E+02  0.36251432747E+01  0.32854186895E+02  0.54367074910E+02  0.39999978873E+02 0.  0.
         12    1    3    3    0    0 -0.16224711528E+02 -0.36251432747E+01 -0.32854186895E+02  0.36820925090E+02  0.00000000000E+00 0. -1.
         11    1    4    4    0    0  0.14787058783E+01 -0.13195162548E+02  0.23655274223E+01  0.13486830835E+02  0.51100000000E-03 0. -1.
        -11    1    4    4    0    0  0.80974142743E+01  0.12837850223E+02  0.81341770171E+01  0.17220434149E+02  0.51100000000E-03 0.  1.
        -12    1    4    4    0    0  0.66485913753E+01  0.39824555991E+01  0.22354482455E+02  0.23659809926E+02  0.00000000000E+00 0.  1.
</event>
<event>
 8    1  0.1290800E-006  0.9118800E+02  0.7816164E-02  0.1184000E+00
        -11   -1    0    0    0    0  0.00000000000E+00  0.00000000000E+00  0.45593999997E+02  0.45594000000E+02  0.51100000000E-03 0.  1.
         11   -1    0    0    0    0 -0.00000000000E+00 -0.00000000000E+00 -0.45593999997E+02  0.45594000000E+02  0.51100000000E-03 0. -1.
         23    2    1    2    0    0  0.88817841970E-15  0.11102230246E-15  0.00000000000E+00  0.91188000000E+02  0.91188000000E+02 0.  0.
    9900012    2    3    3    0    0 -0.79707039577E+01 -0.66823707763E+00 -0.35941636811E+02  0.54367083132E+02  0.39999997616E+02 0.  0.
        -12    1    3    3    0    0  0.79707039577E+01  0.66823707763E+00  0.35941636811E+02  0.36820916868E+02  0.00000000000E+00 0.  1.
         11    1    4    4    0    0  0.12526972141E+02 -0.46073023315E+01 -0.16768147979E+02  0.21431823364E+02  0.51100000000E-03 0. -1.
        -11    1    4    4    0    0  0.29845569765E+01  0.11057881652E+00 -0.21386773256E+01  0.36733838603E+01  0.51100000000E-03 0.  1.
         12    1    4    4    0    0 -0.23482233075E+02  0.38284864373E+01 -0.17034811507E+02  0.29261875908E+02  0.00000000000E+00 0. -1.
</event>
<event>
 8    1  0.1290800E-006  0.9118800E+02  0.7816164E-02  0.1184000E+00
        -11   -1    0    0    0    0  0.00000000000E+00  0.00000000000E+00  0.45593999997E+02  0.45594000000E+02  0.51100000000E-03 0.  1.
         11   -1    0    0    0    0 -0.00000000000E+00 -0.00000000000E+00 -0.45593999997E+02  0.45594000000E+02  0.51100000000E-03 0. -1.
         23    2    1    2    0    0  0.00000000000E+00  0.00000000000E+00  0.00000000000E+00  0.91188000000E+02  0.91188000000E+02 0.  0.
    9900012    2    3    3    0    0 -0.26593530411E+02  0.13135371561E+02 -0.21817989182E+02  0.54367102432E+02  0.40000041615E+02 0.  0.
        -12    1    3    3    0    0  0.26593530411E+02 -0.13135371561E+02  0.21817989182E+02  0.36820897568E+02  0.00000000000E+00 0.  1.
         11    1    4    4    0    0 -0.25213740719E+01  0.15006248022E+02 -0.10627401088E+02  0.18560346469E+02  0.51100000000E-03 0. -1.
        -11    1    4    4    0    0 -0.19388969903E+02  0.94650619175E+01 -0.53895338980E+01  0.22238853992E+02  0.51100000000E-03 0.  1.
        -12    1    4    4    0    0 -0.46831864359E+01 -0.11335938378E+02 -0.58010541952E+01  0.13567901971E+02  0.00000000000E+00 0.  1.
</event>
<event>
 8    1  0.1290800E-006  0.9118800E+02  0.7816164E-02  0.1184000E+00
        -11   -1    0    0    0    0  0.00000000000E+00  0.00000000000E+00  0.45593999997E+02  0.45594000000E+02  0.51100000000E-03 0.  1.
         11   -1    0    0    0    0 -0.00000000000E+00 -0.00000000000E+00 -0.45593999997E+02  0.45594000000E+02  0.51100000000E-03 0. -1.
         23    2    1    2    0    0  0.35527136788E-14 -0.35527136788E-14  0.00000000000E+00  0.91188000000E+02  0.91188000000E+02 0.  0.
    9900012    2    3    3    0    0  0.31022804532E+02 -0.19112460236E+02 -0.52989974719E+01  0.54367083233E+02  0.39999997847E+02 0.  0.
        -12    1    3    3    0    0 -0.31022804532E+02  0.19112460236E+02  0.52989974719E+01  0.36820916767E+02  0.00000000000E+00 0.  1.
         11    1    4    4    0    0  0.29957586240E+01 -0.18294927184E+02  0.28400056648E+01  0.18754854381E+02  0.51100000000E-03 0. -1.
        -11    1    4    4    0    0  0.79709895580E+01 -0.69897498792E+01  0.40451879060E+01  0.11347106387E+02  0.51100000000E-03 0.  1.
         12    1    4    4    0    0  0.20056056350E+02  0.61722168272E+01 -0.12184191043E+02  0.24265122465E+02  0.00000000000E+00 0. -1.
</event>
<event>
 8    1  0.1290800E-006  0.9118800E+02  0.7816164E-02  0.1184000E+00
        -11   -1    0    0    0    0  0.00000000000E+00  0.00000000000E+00  0.45593999997E+02  0.45594000000E+02  0.51100000000E-03 0.  1.
         11   -1    0    0    0    0 -0.00000000000E+00 -0.00000000000E+00 -0.45593999997E+02  0.45594000000E+02  0.51100000000E-03 0. -1.
         23    2    1    2    0    0 -0.35527136788E-14 -0.88817841970E-15 -0.35527136788E-14  0.91188000000E+02  0.91188000000E+02 0.  0.
    9900012    2    3    3    0    0  0.25356561248E+02  0.59011544439E+01  0.26038454889E+02  0.54367082642E+02  0.39999996499E+02 0.  0.
         12    1    3    3    0    0 -0.25356561248E+02 -0.59011544439E+01 -0.26038454889E+02  0.36820917358E+02  0.00000000000E+00 0. -1.
         11    1    4    4    0    0  0.49600397024E+01 -0.45538232325E+01 -0.42680015398E+01  0.79721475957E+01  0.51100000000E-03 0. -1.
        -11    1    4    4    0    0  0.20367385634E+02 -0.17538182032E+01  0.10136726870E+02  0.22817964584E+02  0.51100000000E-03 0.  1.
         12    1    4    4    0    0  0.29135911867E-01  0.12208795880E+02  0.20169729558E+02  0.23576970462E+02  0.00000000000E+00 0. -1.
</event>
<event>
 8    1  0.1290800E-006  0.9118800E+02  0.7816164E-02  0.1184000E+00
        -11   -1    0    0    0    0  0.00000000000E+00  0.00000000000E+00  0.45593999997E+02  0.45594000000E+02  0.51100000000E-03 0.  1.
         11   -1    0    0    0    0 -0.00000000000E+00 -0.00000000000E+00 -0.45593999997E+02  0.45594000000E+02  0.51100000000E-03 0. -1.
         23    2    1    2    0    0  0.00000000000E+00  0.35527136788E-14  0.00000000000E+00  0.91188000000E+02  0.91188000000E+02 0.  0.
    9900012    2    3    3    0    0 -0.29279813542E+02 -0.20202758857E+02 -0.95037591506E+01  0.54367076812E+02  0.39999983207E+02 0.  0.
         12    1    3    3    0    0  0.29279813542E+02  0.20202758857E+02  0.95037591506E+01  0.36820923188E+02  0.00000000000E+00 0. -1.
         11    1    4    4    0    0  0.64002445101E+01 -0.96801522735E+01 -0.45164934303E+01  0.12452597761E+02  0.51100000000E-03 0. -1.
        -11    1    4    4    0    0 -0.91535573364E+00  0.37827695563E+01  0.49725920574E+00  0.39235810957E+01  0.51100000000E-03 0.  1.
         12    1    4    4    0    0 -0.34764702318E+02 -0.14305376140E+02 -0.54845249261E+01  0.37990897955E+02  0.00000000000E+00 0. -1.
</event>
<event>
 8    1  0.1290800E-006  0.9118800E+02  0.7816164E-02  0.1184000E+00
        -11   -1    0    0    0    0  0.00000000000E+00  0.00000000000E+00  0.45593999997E+02  0.45594000000E+02  0.51100000000E-03 0.  1.
         11   -1    0    0    0    0 -0.00000000000E+00 -0.00000000000E+00 -0.45593999997E+02  0.45594000000E+02  0.51100000000E-03 0. -1.
         23    2    1    2    0    0  0.00000000000E+00 -0.71054273576E-14  0.35527136788E-14  0.91188000000E+02  0.91188000000E+02 0.  0.
    9900012    2    3    3    0    0  0.11104589812E+01  0.33002174333E+02 -0.16291203681E+02  0.54367082749E+02  0.39999996743E+02 0.  0.
        -12    1    3    3    0    0 -0.11104589812E+01 -0.33002174333E+02  0.16291203681E+02  0.36820917251E+02  0.00000000000E+00 0.  1.
         11    1    4    4    0    0 -0.53347872201E+01 -0.51972351141E+01 -0.21559569548E+01  0.77536674011E+01  0.51100000000E-03 0. -1.
        -11    1    4    4    0    0 -0.73036771826E+01  0.64315308341E+01 -0.20216961423E+01  0.99395948012E+01  0.51100000000E-03 0.  1.
         12    1    4    4    0    0  0.13748923384E+02  0.31767878612E+02 -0.12113550584E+02  0.36673820547E+02  0.00000000000E+00 0. -1.
</event>
<event>
 8    1  0.1290800E-006  0.9118800E+02  0.7816164E-02  0.1184000E+00
        -11   -1    0    0    0    0  0.00000000000E+00  0.00000000000E+00  0.45593999997E+02  0.45594000000E+02  0.51100000000E-03 0.  1.
         11   -1    0    0    0    0 -0.00000000000E+00 -0.00000000000E+00 -0.45593999997E+02  0.45594000000E+02  0.51100000000E-03 0. -1.
         23    2    1    2    0    0  0.35527136788E-14  0.00000000000E+00  0.00000000000E+00  0.91188000000E+02  0.91188000000E+02 0.  0.
    9900012    2    3    3    0    0 -0.19160907643E+02 -0.11222760592E+02 -0.29371725194E+02  0.54366960120E+02  0.39999717184E+02 0.  0.
        -12    1    3    3    0    0  0.19160907643E+02  0.11222760592E+02  0.29371725194E+02  0.36821039880E+02  0.00000000000E+00 0.  1.
         11    1    4    4    0    0  0.35372374435E+01 -0.19066444663E+01  0.51266126083E+01  0.65137929771E+01  0.51100000000E-03 0.  1.
        -11    1    4    4    0    0 -0.15184640682E+02  0.51341100572E+00 -0.31722729267E+02  0.35173405521E+02  0.51100000000E-03 0. -1.
        -12    1    4    4    0    0 -0.75135044037E+01 -0.98295271313E+01 -0.27756085351E+01  0.12679761622E+02  0.00000000000E+00 0.  1.
</event>
<event>
 8    1  0.1290800E-006  0.9118800E+02  0.7816164E-02  0.1184000E+00
        -11   -1    0    0    0    0  0.00000000000E+00  0.00000000000E+00  0.45593999997E+02  0.45594000000E+02  0.51100000000E-03 0.  1.
         11   -1    0    0    0    0 -0.00000000000E+00 -0.00000000000E+00 -0.45593999997E+02  0.45594000000E+02  0.51100000000E-03 0. -1.
         23    2    1    2    0    0 -0.17763568394E-14  0.35527136788E-14  0.00000000000E+00  0.91188000000E+02  0.91188000000E+02 0.  0.
    9900012    2    3    3    0    0 -0.60335950062E+01  0.15634362458E+02  0.32786264537E+02  0.54367126837E+02  0.40000097250E+02 0.  0.
         12    1    3    3    0    0  0.60335950062E+01 -0.15634362458E+02 -0.32786264537E+02  0.36820873163E+02  0.00000000000E+00 0. -1.
         11    1    4    4    0    0  0.85943365279E+01 -0.93738570969E+01  0.55075116634E+01  0.13858733788E+02  0.51100000000E-03 0. -1.
        -11    1    4    4    0    0 -0.10809007723E+02  0.22652372115E+02  0.20641580666E+02  0.32496760809E+02  0.51100000000E-03 0.  1.
         12    1    4    4    0    0 -0.38189238107E+01  0.23558474401E+01  0.66371722076E+01  0.80116322398E+01  0.00000000000E+00 0. -1.
</event>
<event>
 8    1  0.1290800E-006  0.9118800E+02  0.7816164E-02  0.1184000E+00
        -11   -1    0    0    0    0  0.00000000000E+00  0.00000000000E+00  0.45593999997E+02  0.45594000000E+02  0.51100000000E-03 0. -1.
         11   -1    0    0    0    0 -0.00000000000E+00 -0.00000000000E+00 -0.45593999997E+02  0.45594000000E+02  0.51100000000E-03 0.  1.
         23    2    1    2    0    0  0.00000000000E+00 -0.13322676296E-14  0.13322676296E-14  0.91188000000E+02  0.91188000000E+02 0.  0.
    9900012    2    3    3    0    0 -0.36582995443E+02 -0.12565898792E+01 -0.39857023778E+01  0.54367076640E+02  0.39999982815E+02 0.  0.
        -12    1    3    3    0    0  0.36582995443E+02  0.12565898792E+01  0.39857023778E+01  0.36820923360E+02  0.00000000000E+00 0.  1.
         11    1    4    4    0    0 -0.98876340050E+01 -0.87783260893E+01  0.38751409479E+01  0.13778281198E+02  0.51100000000E-03 0. -1.
        -11    1    4    4    0    0 -0.61784826658E+01 -0.79314955639E+01 -0.10776645427E+02  0.14738329514E+02  0.51100000000E-03 0.  1.
         12    1    4    4    0    0 -0.20516878772E+02  0.15453231774E+02  0.29158021012E+01  0.25850465928E+02  0.00000000000E+00 0. -1.
</event>
<event>
 8    1  0.1290800E-006  0.9118800E+02  0.7816164E-02  0.1184000E+00
        -11   -1    0    0    0    0  0.00000000000E+00  0.00000000000E+00  0.45593999997E+02  0.45594000000E+02  0.51100000000E-03 0. -1.
         11   -1    0    0    0    0 -0.00000000000E+00 -0.00000000000E+00 -0.45593999997E+02  0.45594000000E+02  0.51100000000E-03 0.  1.
         23    2    1    2    0    0  0.00000000000E+00 -0.13322676296E-14  0.00000000000E+00  0.91188000000E+02  0.91188000000E+02 0.  0.
    9900012    2    3    3    0    0  0.96439707240E+01 -0.24008800710E+01  0.35454323675E+02  0.54367089315E+02  0.40000011711E+02 0.  0.
        -12    1    3    3    0    0 -0.96439707240E+01  0.24008800710E+01 -0.35454323675E+02  0.36820910685E+02  0.00000000000E+00 0.  1.
         11    1    4    4    0    0  0.73530474637E+01 -0.62978709375E+01  0.13793143256E+02  0.16851744316E+02  0.51100000000E-03 0. -1.
        -11    1    4    4    0    0  0.77853198787E+00 -0.13002531193E+02  0.56917972851E+01  0.14215079531E+02  0.51100000000E-03 0.  1.
        -12    1    4    4    0    0  0.15123912724E+01  0.16899522059E+02  0.15969383134E+02  0.23300265468E+02  0.00000000000E+00 0.  1.
</event>
<event>
 8    1  0.1290800E-006  0.9118800E+02  0.7816164E-02  0.1184000E+00
        -11   -1    0    0    0    0  0.00000000000E+00  0.00000000000E+00  0.45593999997E+02  0.45594000000E+02  0.51100000000E-03 0.  1.
         11   -1    0    0    0    0 -0.00000000000E+00 -0.00000000000E+00 -0.45593999997E+02  0.45594000000E+02  0.51100000000E-03 0. -1.
         23    2    1    2    0    0  0.00000000000E+00 -0.17763568394E-14  0.00000000000E+00  0.91188000000E+02  0.91188000000E+02 0.  0.
    9900012    2    3    3    0    0  0.11050317414E+02 -0.88246270397E+01 -0.33997003377E+02  0.54367084803E+02  0.40000001425E+02 0.  0.
        -12    1    3    3    0    0 -0.11050317414E+02  0.88246270397E+01  0.33997003377E+02  0.36820915197E+02  0.00000000000E+00 0.  1.
         11    1    4    4    0    0 -0.35141867500E+01  0.39824879993E+01  0.92180232380E+00  0.53906807514E+01  0.51100000000E-03 0. -1.
        -11    1    4    4    0    0  0.58171688301E+01  0.83090547144E+01 -0.49499926750E+01  0.11286375467E+02  0.51100000000E-03 0.  1.
         12    1    4    4    0    0  0.87473353337E+01 -0.21116169753E+02 -0.29968813026E+02  0.37690028584E+02  0.00000000000E+00 0. -1.
</event>
<event>
 8    1  0.1290800E-006  0.9118800E+02  0.7816164E-02  0.1184000E+00
        -11   -1    0    0    0    0  0.00000000000E+00  0.00000000000E+00  0.45593999997E+02  0.45594000000E+02  0.51100000000E-03 0. -1.
         11   -1    0    0    0    0 -0.00000000000E+00 -0.00000000000E+00 -0.45593999997E+02  0.45594000000E+02  0.51100000000E-03 0.  1.
         23    2    1    2    0    0  0.00000000000E+00  0.35527136788E-14  0.00000000000E+00  0.91188000000E+02  0.91188000000E+02 0.  0.
    9900012    2    3    3    0    0 -0.10498850805E+02  0.19709803137E+02 -0.29275720449E+02  0.54367217611E+02  0.40000304187E+02 0.  0.
         12    1    3    3    0    0  0.10498850805E+02 -0.19709803137E+02  0.29275720449E+02  0.36820782389E+02  0.00000000000E+00 0. -1.
         11    1    4    4    0    0 -0.64275560979E+01  0.14553454959E+02 -0.85157437969E+01  0.18045343480E+02  0.51100000000E-03 0. -1.
        -11    1    4    4    0    0  0.40583554790E+01  0.15660989864E+02 -0.14111373645E+02  0.21467829866E+02  0.51100000000E-03 0.  1.
        -12    1    4    4    0    0 -0.81296501863E+01 -0.10504641686E+02 -0.66486030065E+01  0.14854044266E+02  0.00000000000E+00 0.  1.
</event>
<event>
 8    1  0.1290800E-006  0.9118800E+02  0.7816164E-02  0.1184000E+00
        -11   -1    0    0    0    0  0.00000000000E+00  0.00000000000E+00  0.45593999997E+02  0.45594000000E+02  0.51100000000E-03 0. -1.
         11   -1    0    0    0    0 -0.00000000000E+00 -0.00000000000E+00 -0.45593999997E+02  0.45594000000E+02  0.51100000000E-03 0.  1.
         23    2    1    2    0    0  0.00000000000E+00  0.00000000000E+00  0.00000000000E+00  0.91188000000E+02  0.91188000000E+02 0.  0.
    9900012    2    3    3    0    0 -0.18484206059E+02 -0.30021454141E+02 -0.10621966152E+02  0.54367085464E+02  0.40000002932E+02 0.  0.
         12    1    3    3    0    0  0.18484206059E+02  0.30021454141E+02  0.10621966152E+02  0.36820914536E+02  0.00000000000E+00 0. -1.
         11    1    4    4    0    0 -0.86985038240E+00  0.48493865976E+01  0.31193225677E+01  0.58312403143E+01  0.51100000000E-03 0. -1.
        -11    1    4    4    0    0 -0.13767261579E+02 -0.23935726762E+02  0.34227975296E+01  0.27823947423E+02  0.51100000000E-03 0.  1.
        -12    1    4    4    0    0 -0.38470940975E+01 -0.10935113977E+02 -0.17164086249E+02  0.20711897727E+02  0.00000000000E+00 0.  1.
</event>
<event>
 8    1  0.1290800E-006  0.9118800E+02  0.7816164E-02  0.1184000E+00
        -11   -1    0    0    0    0  0.00000000000E+00  0.00000000000E+00  0.45593999997E+02  0.45594000000E+02  0.51100000000E-03 0.  1.
         11   -1    0    0    0    0 -0.00000000000E+00 -0.00000000000E+00 -0.45593999997E+02  0.45594000000E+02  0.51100000000E-03 0. -1.
         23    2    1    2    0    0 -0.44408920985E-15  0.00000000000E+00  0.53290705182E-14  0.91188000000E+02  0.91188000000E+02 0.  0.
    9900012    2    3    3    0    0  0.27555733096E+01  0.36313830208E+02  0.54307134493E+01  0.54367080712E+02  0.39999992100E+02 0.  0.
        -12    1    3    3    0    0 -0.27555733096E+01 -0.36313830208E+02 -0.54307134493E+01  0.36820919288E+02  0.00000000000E+00 0.  1.
         11    1    4    4    0    0  0.67676938669E+01  0.10163017757E+02  0.56750446712E+01  0.13464573609E+02  0.51100000000E-03 0. -1.
        -11    1    4    4    0    0  0.16777936237E+01  0.84139926396E+01 -0.14905016863E+02  0.17197958935E+02  0.51100000000E-03 0.  1.
        -12    1    4    4    0    0 -0.56899141810E+01  0.17736819811E+02  0.14660685641E+02  0.23704548168E+02  0.00000000000E+00 0.  1.
</event>
<event>
 8    1  0.1290800E-006  0.9118800E+02  0.7816164E-02  0.1184000E+00
        -11   -1    0    0    0    0  0.00000000000E+00  0.00000000000E+00  0.45593999997E+02  0.45594000000E+02  0.51100000000E-03 0. -1.
         11   -1    0    0    0    0 -0.00000000000E+00 -0.00000000000E+00 -0.45593999997E+02  0.45594000000E+02  0.51100000000E-03 0.  1.
         23    2    1    2    0    0  0.00000000000E+00  0.00000000000E+00  0.00000000000E+00  0.91188000000E+02  0.91188000000E+02 0.  0.
    9900012    2    3    3    0    0  0.19514637144E+02  0.27566556230E+02 -0.14664349947E+02  0.54367092290E+02  0.40000018493E+02 0.  0.
         12    1    3    3    0    0 -0.19514637144E+02 -0.27566556230E+02  0.14664349947E+02  0.36820907710E+02  0.00000000000E+00 0. -1.
         11    1    4    4    0    0  0.14867850170E+02 -0.39165805361E+01  0.32551545832E+01  0.15715871067E+02  0.51100000000E-03 0. -1.
        -11    1    4    4    0    0  0.75842330982E+01  0.20336396911E+02 -0.70856637515E+01  0.22831913237E+02  0.51100000000E-03 0.  1.
         12    1    4    4    0    0 -0.29374461236E+01  0.11146739855E+02 -0.10833840779E+02  0.15819307985E+02  0.00000000000E+00 0. -1.
</event>
<event>
 8    1  0.1290800E-006  0.9118800E+02  0.7816164E-02  0.1184000E+00
        -11   -1    0    0    0    0  0.00000000000E+00  0.00000000000E+00  0.45593999997E+02  0.45594000000E+02  0.51100000000E-03 0.  1.
         11   -1    0    0    0    0 -0.00000000000E+00 -0.00000000000E+00 -0.45593999997E+02  0.45594000000E+02  0.51100000000E-03 0. -1.
         23    2    1    2    0    0 -0.22204460493E-15  0.35527136788E-14  0.00000000000E+00  0.91188000000E+02  0.91188000000E+02 0.  0.
    9900012    2    3    3    0    0 -0.13138329805E+01  0.30319683723E+02 -0.20851171283E+02  0.54367072227E+02  0.39999972756E+02 0.  0.
        -12    1    3    3    0    0  0.13138329805E+01 -0.30319683723E+02  0.20851171283E+02  0.36820927773E+02  0.00000000000E+00 0.  1.
         11    1    4    4    0    0  0.69873680566E-01  0.48783562829E+01 -0.16512693854E+02  0.17218371030E+02  0.51100000000E-03 0.  1.
        -11    1    4    4    0    0 -0.61499798062E+01  0.31050203581E+01 -0.11332777167E+02  0.13262550344E+02  0.51100000000E-03 0. -1.
         12    1    4    4    0    0  0.47662731451E+01  0.22336307082E+02  0.69942997379E+01  0.23886150853E+02  0.00000000000E+00 0. -1.
</event>
<event>
 8    1  0.1290800E-006  0.9118800E+02  0.7816164E-02  0.1184000E+00
        -11   -1    0    0    0    0  0.00000000000E+00  0.00000000000E+00  0.45593999997E+02  0.45594000000E+02  0.51100000000E-03 0.  1.
         11   -1    0    0    0    0 -0.00000000000E+00 -0.00000000000E+00 -0.45593999997E+02  0.45594000000E+02  0.51100000000E-03 0. -1.
         23    2    1    2    0    0  0.88817841970E-15  0.00000000000E+00  0.00000000000E+00  0.91188000000E+02  0.91188000000E+02 0.  0.
    9900012    2    3    3    0    0 -0.70001091833E+01  0.32988958812E+02 -0.14782021013E+02  0.54367067403E+02  0.39999961758E+02 0.  0.
        -12    1    3    3    0    0  0.70001091833E+01 -0.32988958812E+02  0.14782021013E+02  0.36820932597E+02  0.00000000000E+00 0.  1.
         11    1    4    4    0    0 -0.13159514318E+02  0.20963455401E+02 -0.63216501818E+01  0.25546086603E+02  0.51100000000E-03 0. -1.
        -11    1    4    4    0    0 -0.56770057081E+01 -0.28346797004E+01  0.25778229200E+01  0.68490126355E+01  0.51100000000E-03 0.  1.
         12    1    4    4    0    0  0.11836410842E+02  0.14860183112E+02 -0.11038193751E+02  0.21971968165E+02  0.00000000000E+00 0. -1.
</event>
<event>
 8    1  0.1290800E-006  0.9118800E+02  0.7816164E-02  0.1184000E+00
        -11   -1    0    0    0    0  0.00000000000E+00  0.00000000000E+00  0.45593999997E+02  0.45594000000E+02  0.51100000000E-03 0.  1.
         11   -1    0    0    0    0 -0.00000000000E+00 -0.00000000000E+00 -0.45593999997E+02  0.45594000000E+02  0.51100000000E-03 0. -1.
         23    2    1    2    0    0  0.00000000000E+00  0.00000000000E+00  0.00000000000E+00  0.91188000000E+02  0.91188000000E+02 0.  0.
    9900012    2    3    3    0    0  0.32271870604E+02 -0.53468695637E+01  0.16903215352E+02  0.54367063895E+02  0.39999953761E+02 0.  0.
         12    1    3    3    0    0 -0.32271870604E+02  0.53468695637E+01 -0.16903215352E+02  0.36820936105E+02  0.00000000000E+00 0. -1.
         11    1    4    4    0    0 -0.31343076508E+01 -0.38672089301E+01 -0.87677026592E+01  0.10082251710E+02  0.51100000000E-03 0. -1.
        -11    1    4    4    0    0  0.22353105783E+02  0.14979995693E+00  0.19869781970E+02  0.29908059348E+02  0.51100000000E-03 0.  1.
         12    1    4    4    0    0  0.13053072472E+02 -0.16294605905E+01  0.58011360413E+01  0.14376752837E+02  0.00000000000E+00 0. -1.
</event>
<event>
 8    1  0.1290800E-006  0.9118800E+02  0.7816164E-02  0.1184000E+00
        -11   -1    0    0    0    0  0.00000000000E+00  0.00000000000E+00  0.45593999997E+02  0.45594000000E+02  0.51100000000E-03 0.  1.
         11   -1    0    0    0    0 -0.00000000000E+00 -0.00000000000E+00 -0.45593999997E+02  0.45594000000E+02  0.51100000000E-03 0. -1.
         23    2    1    2    0    0 -0.22204460493E-15 -0.35527136788E-14 -0.35527136788E-14  0.91188000000E+02  0.91188000000E+02 0.  0.
    9900012    2    3    3    0    0  0.18904751432E+00 -0.20097926316E+02 -0.30851531654E+02  0.54367090362E+02  0.40000014098E+02 0.  0.
        -12    1    3    3    0    0 -0.18904751432E+00  0.20097926316E+02  0.30851531654E+02  0.36820909638E+02  0.00000000000E+00 0.  1.
         11    1    4    4    0    0 -0.77007983267E+01 -0.13975300609E+02 -0.24267255065E+02  0.29043260675E+02  0.51100000000E-03 0. -1.
        -11    1    4    4    0    0  0.10552245233E+02 -0.12641031446E+02 -0.12950219779E+01  0.16517343541E+02  0.51100000000E-03 0.  1.
        -12    1    4    4    0    0 -0.26623993916E+01  0.65184057390E+01 -0.52892546105E+01  0.88064861456E+01  0.00000000000E+00 0.  1.
</event>
<event>
 8    1  0.1290800E-006  0.9118800E+02  0.7816164E-02  0.1184000E+00
        -11   -1    0    0    0    0  0.00000000000E+00  0.00000000000E+00  0.45593999997E+02  0.45594000000E+02  0.51100000000E-03 0.  1.
         11   -1    0    0    0    0 -0.00000000000E+00 -0.00000000000E+00 -0.45593999997E+02  0.45594000000E+02  0.51100000000E-03 0. -1.
         23    2    1    2    0    0  0.17763568394E-14 -0.35527136788E-14  0.00000000000E+00  0.91188000000E+02  0.91188000000E+02 0.  0.
    9900012    2    3    3    0    0  0.14338313356E+02  0.15911390155E+02  0.29950308998E+02  0.54367074215E+02  0.39999977289E+02 0.  0.
         12    1    3    3    0    0 -0.14338313356E+02 -0.15911390155E+02 -0.29950308998E+02  0.36820925785E+02  0.00000000000E+00 0. -1.
         11    1    4    4    0    0  0.16868178938E+01 -0.12860272129E+01  0.26528964638E+02  0.26613627817E+02  0.51100000000E-03 0.  1.
        -11    1    4    4    0    0  0.50505568663E+00 -0.26759630813E+01 -0.25264282092E+01  0.37146600674E+01  0.51100000000E-03 0. -1.
        -12    1    4    4    0    0  0.12146439776E+02  0.19873380449E+02  0.59477725695E+01  0.24038786331E+02  0.00000000000E+00 0.  1.
</event>
<event>
 8    1  0.1290800E-006  0.9118800E+02  0.7816164E-02  0.1184000E+00
        -11   -1    0    0    0    0  0.00000000000E+00  0.00000000000E+00  0.45593999997E+02  0.45594000000E+02  0.51100000000E-03 0. -1.
         11   -1    0    0    0    0 -0.00000000000E+00 -0.00000000000E+00 -0.45593999997E+02  0.45594000000E+02  0.51100000000E-03 0.  1.
         23    2    1    2    0    0  0.00000000000E+00  0.88817841970E-15  0.00000000000E+00  0.91188000000E+02  0.91188000000E+02 0.  0.
    9900012    2    3    3    0    0  0.61162420133E+01  0.76024035047E+01 -0.35504567602E+02  0.54367091863E+02  0.40000017521E+02 0.  0.
         12    1    3    3    0    0 -0.61162420133E+01 -0.76024035047E+01  0.35504567602E+02  0.36820908137E+02  0.00000000000E+00 0. -1.
         11    1    4    4    0    0 -0.66670683023E+00 -0.10557804106E+01 -0.34534516246E+02  0.34557082962E+02  0.51100000000E-03 0. -1.
        -11    1    4    4    0    0 -0.17246050369E+01  0.38815986693E+01 -0.71099840270E+01  0.82820857209E+01  0.51100000000E-03 0.  1.
         12    1    4    4    0    0  0.85075538804E+01  0.47765852461E+01  0.61399326711E+01  0.11527923180E+02  0.00000000000E+00 0. -1.
</event>
<event>
 8    1  0.1290800E-006  0.9118800E+02  0.7816164E-02  0.1184000E+00
        -11   -1    0    0    0    0  0.00000000000E+00  0.00000000000E+00  0.45593999997E+02  0.45594000000E+02  0.51100000000E-03 0. -1.
         11   -1    0    0    0    0 -0.00000000000E+00 -0.00000000000E+00 -0.45593999997E+02  0.45594000000E+02  0.51100000000E-03 0.  1.
         23    2    1    2    0    0 -0.71054273576E-14  0.71054273576E-14  0.00000000000E+00  0.91188000000E+02  0.91188000000E+02 0.  0.
    9900012    2    3    3    0    0  0.24755242105E+02 -0.26489774830E+02  0.64226985714E+01  0.54367065205E+02  0.39999956748E+02 0.  0.
        -12    1    3    3    0    0 -0.24755242105E+02  0.26489774830E+02 -0.64226985714E+01  0.36820934795E+02  0.00000000000E+00 0.  1.
         11    1    4    4    0    0  0.28278278400E+02 -0.26743294000E+02  0.11911912522E+01  0.38939488185E+02  0.51100000000E-03 0. -1.
        -11    1    4    4    0    0  0.13668913711E+01 -0.29815292336E+01  0.82174535758E+01  0.88478501413E+01  0.51100000000E-03 0.  1.
        -12    1    4    4    0    0 -0.48899276660E+01  0.32350484035E+01 -0.29859462566E+01  0.65797268787E+01  0.00000000000E+00 0.  1.
</event>
<event>
 8    1  0.1290800E-006  0.9118800E+02  0.7816164E-02  0.1184000E+00
        -11   -1    0    0    0    0  0.00000000000E+00  0.00000000000E+00  0.45593999997E+02  0.45594000000E+02  0.51100000000E-03 0. -1.
         11   -1    0    0    0    0 -0.00000000000E+00 -0.00000000000E+00 -0.45593999997E+02  0.45594000000E+02  0.51100000000E-03 0.  1.
         23    2    1    2    0    0  0.88817841970E-15  0.17763568394E-14  0.00000000000E+00  0.91188000000E+02  0.91188000000E+02 0.  0.
    9900012    2    3    3    0    0 -0.53016183483E+01 -0.10120582292E+02  0.35003538977E+02  0.54367067312E+02  0.39999961552E+02 0.  0.
        -12    1    3    3    0    0  0.53016183483E+01  0.10120582292E+02 -0.35003538977E+02  0.36820932688E+02  0.00000000000E+00 0.  1.
         11    1    4    4    0    0 -0.28400515576E+01  0.11958690945E+02  0.18524160540E+02  0.22231075232E+02  0.51100000000E-03 0. -1.
        -11    1    4    4    0    0  0.42895508942E+01 -0.45471229457E+01 -0.11691970868E+01  0.63595279736E+01  0.51100000000E-03 0.  1.
         12    1    4    4    0    0 -0.67511176848E+01 -0.17532150292E+02  0.17648575524E+02  0.25776464107E+02  0.00000000000E+00 0. -1.
</event>
<event>
 8    1  0.1290800E-006  0.9118800E+02  0.7816164E-02  0.1184000E+00
        -11   -1    0    0    0    0  0.00000000000E+00  0.00000000000E+00  0.45593999997E+02  0.45594000000E+02  0.51100000000E-03 0. -1.
         11   -1    0    0    0    0 -0.00000000000E+00 -0.00000000000E+00 -0.45593999997E+02  0.45594000000E+02  0.51100000000E-03 0.  1.
         23    2    1    2    0    0 -0.17763568394E-14  0.00000000000E+00  0.17763568394E-14  0.91188000000E+02  0.91188000000E+02 0.  0.
    9900012    2    3    3    0    0  0.14892469248E+02 -0.30385783320E+02 -0.14515401781E+02  0.54367104341E+02  0.40000045967E+02 0.  0.
         12    1    3    3    0    0 -0.14892469248E+02  0.30385783320E+02  0.14515401781E+02  0.36820895659E+02  0.00000000000E+00 0. -1.
         11    1    4    4    0    0 -0.42774049688E+01 -0.98488418732E+00  0.38682622530E+01  0.58506105022E+01  0.51100000000E-03 0. -1.
        -11    1    4    4    0    0  0.15739116776E+02 -0.18222142863E+01 -0.12322450160E+02  0.20071946592E+02  0.51100000000E-03 0.  1.
         12    1    4    4    0    0  0.34307574407E+01 -0.27578684846E+02 -0.60612138737E+01  0.28444547247E+02  0.00000000000E+00 0. -1.
</event>
<event>
 8    1  0.1290800E-006  0.9118800E+02  0.7816164E-02  0.1184000E+00
        -11   -1    0    0    0    0  0.00000000000E+00  0.00000000000E+00  0.45593999997E+02  0.45594000000E+02  0.51100000000E-03 0. -1.
         11   -1    0    0    0    0 -0.00000000000E+00 -0.00000000000E+00 -0.45593999997E+02  0.45594000000E+02  0.51100000000E-03 0.  1.
         23    2    1    2    0    0 -0.35527136788E-14  0.35527136788E-14  0.00000000000E+00  0.91188000000E+02  0.91188000000E+02 0.  0.
    9900012    2    3    3    0    0  0.17495008918E+02  0.22731508752E+02  0.23086459327E+02  0.54367062595E+02  0.39999950797E+02 0.  0.
        -12    1    3    3    0    0 -0.17495008918E+02 -0.22731508752E+02 -0.23086459327E+02  0.36820937405E+02  0.00000000000E+00 0.  1.
         11    1    4    4    0    0  0.29402448567E+01  0.79048864220E+00  0.13526830337E+02  0.13865246170E+02  0.51100000000E-03 0. -1.
        -11    1    4    4    0    0  0.45329043887E+01  0.26226652135E+02  0.98526762115E+00  0.26633724054E+02  0.51100000000E-03 0.  1.
         12    1    4    4    0    0  0.10021859672E+02 -0.42856320256E+01  0.85743613683E+01  0.13868092371E+02  0.00000000000E+00 0. -1.
</event>
<event>
 8    1  0.1290800E-006  0.9118800E+02  0.7816164E-02  0.1184000E+00
        -11   -1    0    0    0    0  0.00000000000E+00  0.00000000000E+00  0.45593999997E+02  0.45594000000E+02  0.51100000000E-03 0.  1.
         11   -1    0    0    0    0 -0.00000000000E+00 -0.00000000000E+00 -0.45593999997E+02  0.45594000000E+02  0.51100000000E-03 0. -1.
         23    2    1    2    0    0  0.00000000000E+00  0.00000000000E+00  0.53290705182E-14  0.91188000000E+02  0.91188000000E+02 0.  0.
    9900012    2    3    3    0    0  0.29644418498E+02 -0.18509763792E+02  0.11592055809E+02  0.54367100206E+02  0.40000036539E+02 0.  0.
        -12    1    3    3    0    0 -0.29644418498E+02  0.18509763792E+02 -0.11592055809E+02  0.36820899794E+02  0.00000000000E+00 0.  1.
         11    1    4    4    0    0 -0.33572787955E+01 -0.11611307993E+02 -0.62745754682E+01  0.13618520176E+02  0.51100000000E-03 0. -1.
        -11    1    4    4    0    0  0.64196411505E+01  0.16132914430E+01  0.95586639467E+01  0.11626803451E+02  0.51100000000E-03 0.  1.
         12    1    4    4    0    0  0.26582056143E+02 -0.85117472421E+01  0.83079673308E+01  0.29121776579E+02  0.00000000000E+00 0. -1.
</event>
<event>
 8    1  0.1290800E-006  0.9118800E+02  0.7816164E-02  0.1184000E+00
        -11   -1    0    0    0    0  0.00000000000E+00  0.00000000000E+00  0.45593999997E+02  0.45594000000E+02  0.51100000000E-03 0. -1.
         11   -1    0    0    0    0 -0.00000000000E+00 -0.00000000000E+00 -0.45593999997E+02  0.45594000000E+02  0.51100000000E-03 0.  1.
         23    2    1    2    0    0  0.00000000000E+00  0.35527136788E-14  0.35527136788E-14  0.91188000000E+02  0.91188000000E+02 0.  0.
    9900012    2    3    3    0    0 -0.16554980442E+02  0.25921463596E+02  0.20243252694E+02  0.54367096534E+02  0.40000028169E+02 0.  0.
        -12    1    3    3    0    0  0.16554980442E+02 -0.25921463596E+02 -0.20243252694E+02  0.36820903466E+02  0.00000000000E+00 0.  1.
         11    1    4    4    0    0 -0.90468129921E+01 -0.26349314572E+01 -0.28110993629E+01  0.98331057651E+01  0.51100000000E-03 0. -1.
        -11    1    4    4    0    0  0.14281444887E+01  0.10135041445E+02  0.21726330336E+02  0.24016496245E+02  0.51100000000E-03 0.  1.
        -12    1    4    4    0    0 -0.89363119383E+01  0.18421353609E+02  0.13280217205E+01  0.20517494524E+02  0.00000000000E+00 0.  1.
</event>
<event>
 8    1  0.1290800E-006  0.9118800E+02  0.7816164E-02  0.1184000E+00
        -11   -1    0    0    0    0  0.00000000000E+00  0.00000000000E+00  0.45593999997E+02  0.45594000000E+02  0.51100000000E-03 0.  1.
         11   -1    0    0    0    0 -0.00000000000E+00 -0.00000000000E+00 -0.45593999997E+02  0.45594000000E+02  0.51100000000E-03 0. -1.
         23    2    1    2    0    0  0.00000000000E+00  0.00000000000E+00  0.71054273576E-14  0.91188000000E+02  0.91188000000E+02 0.  0.
    9900012    2    3    3    0    0  0.10791593714E+02  0.27619262498E+02 -0.21828857362E+02  0.54367066150E+02  0.39999958902E+02 0.  0.
        -12    1    3    3    0    0 -0.10791593714E+02 -0.27619262498E+02  0.21828857362E+02  0.36820933850E+02  0.00000000000E+00 0.  1.
         11    1    4    4    0    0  0.78622124254E+01  0.13856162112E+02  0.72565432997E+01  0.17506142740E+02  0.51100000000E-03 0. -1.
        -11    1    4    4    0    0 -0.70912374538E+01  0.25227476639E+01 -0.84616684483E+01  0.11324740067E+02  0.51100000000E-03 0.  1.
         12    1    4    4    0    0  0.10020618742E+02  0.11240352722E+02 -0.20623732214E+02  0.25536183343E+02  0.00000000000E+00 0. -1.
</event>
<event>
 8    1  0.1290800E-006  0.9118800E+02  0.7816164E-02  0.1184000E+00
        -11   -1    0    0    0    0  0.00000000000E+00  0.00000000000E+00  0.45593999997E+02  0.45594000000E+02  0.51100000000E-03 0.  1.
         11   -1    0    0    0    0 -0.00000000000E+00 -0.00000000000E+00 -0.45593999997E+02  0.45594000000E+02  0.51100000000E-03 0. -1.
         23    2    1    2    0    0  0.35527136788E-14 -0.17763568394E-14  0.00000000000E+00  0.91188000000E+02  0.91188000000E+02 0.  0.
    9900012    2    3    3    0    0  0.23236048136E+02 -0.12231416689E+02  0.25811932067E+02  0.54367118367E+02  0.40000077942E+02 0.  0.
         12    1    3    3    0    0 -0.23236048136E+02  0.12231416689E+02 -0.25811932067E+02  0.36820881633E+02  0.00000000000E+00 0. -1.
         11    1    4    4    0    0  0.42964673565E+01 -0.22877832285E+02  0.14195018049E+02  0.27264507688E+02  0.51100000000E-03 0. -1.
        -11    1    4    4    0    0  0.30419031374E+01  0.46289122212E+00  0.70298373763E+01  0.76737250915E+01  0.51100000000E-03 0.  1.
        -12    1    4    4    0    0  0.15897677642E+02  0.10183524373E+02  0.45870766416E+01  0.19428885588E+02  0.00000000000E+00 0.  1.
</event>
<event>
 8    1  0.1290800E-006  0.9118800E+02  0.7816164E-02  0.1184000E+00
        -11   -1    0    0    0    0  0.00000000000E+00  0.00000000000E+00  0.45593999997E+02  0.45594000000E+02  0.51100000000E-03 0. -1.
         11   -1    0    0    0    0 -0.00000000000E+00 -0.00000000000E+00 -0.45593999997E+02  0.45594000000E+02  0.51100000000E-03 0.  1.
         23    2    1    2    0    0  0.00000000000E+00  0.00000000000E+00  0.00000000000E+00  0.91188000000E+02  0.91188000000E+02 0.  0.
    9900012    2    3    3    0    0  0.17008997970E+02  0.32573100520E+02  0.23381319493E+01  0.54367085421E+02  0.40000002835E+02 0.  0.
        -12    1    3    3    0    0 -0.17008997970E+02 -0.32573100520E+02 -0.23381319493E+01  0.36820914579E+02  0.00000000000E+00 0.  1.
         11    1    4    4    0    0  0.54077163894E+01  0.10601537527E+01  0.41510154819E+01  0.68991486663E+01  0.51100000000E-03 0. -1.
        -11    1    4    4    0    0  0.23450690129E+02  0.19583634765E+02 -0.23723753835E+01  0.30644441312E+02  0.51100000000E-03 0.  1.
        -12    1    4    4    0    0 -0.11849408548E+02  0.11929312002E+02  0.55949185098E+00  0.16823495443E+02  0.00000000000E+00 0.  1.
</event>
<event>
 8    1  0.1290800E-006  0.9118800E+02  0.7816164E-02  0.1184000E+00
        -11   -1    0    0    0    0  0.00000000000E+00  0.00000000000E+00  0.45593999997E+02  0.45594000000E+02  0.51100000000E-03 0. -1.
         11   -1    0    0    0    0 -0.00000000000E+00 -0.00000000000E+00 -0.45593999997E+02  0.45594000000E+02  0.51100000000E-03 0.  1.
         23    2    1    2    0    0  0.00000000000E+00  0.00000000000E+00  0.00000000000E+00  0.91188000000E+02  0.91188000000E+02 0.  0.
    9900012    2    3    3    0    0 -0.19715127296E+02  0.12002088731E+02 -0.28688686271E+02  0.54367121436E+02  0.40000084938E+02 0.  0.
         12    1    3    3    0    0  0.19715127296E+02 -0.12002088731E+02  0.28688686271E+02  0.36820878564E+02  0.00000000000E+00 0. -1.
         11    1    4    4    0    0  0.30890827005E+01 -0.40334848935E+01  0.86508898447E-02  0.50805026735E+01  0.51100000000E-03 0. -1.
        -11    1    4    4    0    0 -0.97625332924E+01  0.22933219800E+02 -0.14628070471E+02  0.28900174266E+02  0.51100000000E-03 0.  1.
        -12    1    4    4    0    0 -0.13041676704E+02 -0.68976461746E+01 -0.14069266690E+02  0.20386444496E+02  0.00000000000E+00 0.  1.
</event>
<event>
 8    1  0.1290800E-006  0.9118800E+02  0.7816164E-02  0.1184000E+00
        -11   -1    0    0    0    0  0.00000000000E+00  0.00000000000E+00  0.45593999997E+02  0.45594000000E+02  0.51100000000E-03 0.  1.
         11   -1    0    0    0    0 -0.00000000000E+00 -0.00000000000E+00 -0.45593999997E+02  0.45594000000E+02  0.51100000000E-03 0. -1.
         23    2    1    2    0    0  0.00000000000E+00 -0.22204460493E-15  0.00000000000E+00  0.91188000000E+02  0.91188000000E+02 0.  0.
    9900012    2    3    3    0    0 -0.99474648453E+01  0.15697518116E+01 -0.35416974253E+02  0.54367105893E+02  0.40000049504E+02 0.  0.
        -12    1    3    3    0    0  0.99474648453E+01 -0.15697518116E+01  0.35416974253E+02  0.36820894107E+02  0.00000000000E+00 0.  1.
         11    1    4    4    0    0  0.82608414857E+01  0.36661920630E+01 -0.69252606397E+01  0.11386030980E+02  0.51100000000E-03 0. -1.
        -11    1    4    4    0    0 -0.10197523275E+02 -0.35524634147E+00  0.28424933639E+01  0.10592235349E+02  0.51100000000E-03 0.  1.
        -12    1    4    4    0    0 -0.80107830563E+01 -0.17411939099E+01 -0.31334206977E+02  0.32388839564E+02  0.00000000000E+00 0.  1.
</event>
<event>
 8    1  0.1290800E-006  0.9118800E+02  0.7816164E-02  0.1184000E+00
        -11   -1    0    0    0    0  0.00000000000E+00  0.00000000000E+00  0.45593999997E+02  0.45594000000E+02  0.51100000000E-03 0.  1.
         11   -1    0    0    0    0 -0.00000000000E+00 -0.00000000000E+00 -0.45593999997E+02  0.45594000000E+02  0.51100000000E-03 0. -1.
         23    2    1    2    0    0  0.35527136788E-14  0.00000000000E+00 -0.35527136788E-14  0.91188000000E+02  0.91188000000E+02 0.  0.
    9900012    2    3    3    0    0  0.24394860241E+02 -0.16140857179E+02 -0.22363848848E+02  0.54367106312E+02  0.40000050460E+02 0.  0.
        -12    1    3    3    0    0 -0.24394860241E+02  0.16140857179E+02  0.22363848848E+02  0.36820893688E+02  0.00000000000E+00 0.  1.
         11    1    4    4    0    0  0.23531447192E+01  0.45889985241E+01 -0.15433353196E+02  0.16272202944E+02  0.51100000000E-03 0. -1.
        -11    1    4    4    0    0 -0.12549190093E+01 -0.12049469827E+01 -0.74937538324E+01  0.76930530814E+01  0.51100000000E-03 0.  1.
        -12    1    4    4    0    0  0.23296634532E+02 -0.19524908721E+02  0.56325818082E+00  0.30401850286E+02  0.00000000000E+00 0.  1.
</event>
<event>
 8    1  0.1290800E-006  0.9118800E+02  0.7816164E-02  0.1184000E+00
        -11   -1    0    0    0    0  0.00000000000E+00  0.00000000000E+00  0.45593999997E+02  0.45594000000E+02  0.51100000000E-03 0.  1.
         11   -1    0    0    0    0 -0.00000000000E+00 -0.00000000000E+00 -0.45593999997E+02  0.45594000000E+02  0.51100000000E-03 0. -1.
         23    2    1    2    0    0  0.00000000000E+00  0.00000000000E+00  0.35527136788E-14  0.91188000000E+02  0.91188000000E+02 0.  0.
    9900012    2    3    3    0    0  0.12021597905E+02  0.29646766891E+02 -0.18229940958E+02  0.54367077271E+02  0.39999984255E+02 0.  0.
        -12    1    3    3    0    0 -0.12021597905E+02 -0.29646766891E+02  0.18229940958E+02  0.36820922729E+02  0.00000000000E+00 0.  1.
         11    1    4    4    0    0  0.15382308221E+02  0.14737826526E+02  0.63962722417E+01  0.22242554614E+02  0.51100000000E-03 0. -1.
        -11    1    4    4    0    0 -0.21338057692E+01  0.46588980310E+01  0.31231032182E+00  0.51338091046E+01  0.51100000000E-03 0.  1.
         12    1    4    4    0    0 -0.12269045473E+01  0.10250042334E+02 -0.24938523522E+02  0.26990713552E+02  0.00000000000E+00 0. -1.
</event>
<event>
 8    1  0.1290800E-006  0.9118800E+02  0.7816164E-02  0.1184000E+00
        -11   -1    0    0    0    0  0.00000000000E+00  0.00000000000E+00  0.45593999997E+02  0.45594000000E+02  0.51100000000E-03 0.  1.
         11   -1    0    0    0    0 -0.00000000000E+00 -0.00000000000E+00 -0.45593999997E+02  0.45594000000E+02  0.51100000000E-03 0. -1.
         23    2    1    2    0    0  0.44408920985E-15  0.00000000000E+00  0.00000000000E+00  0.91188000000E+02  0.91188000000E+02 0.  0.
    9900012    2    3    3    0    0  0.11232035512E+01 -0.15631122580E+02  0.33319424798E+02  0.54367113968E+02  0.40000067912E+02 0.  0.
         12    1    3    3    0    0 -0.11232035512E+01  0.15631122580E+02 -0.33319424798E+02  0.36820886032E+02  0.00000000000E+00 0. -1.
         11    1    4    4    0    0  0.25224481051E+01  0.41540699245E+01  0.23567558425E+00  0.48656535658E+01  0.51100000000E-03 0. -1.
        -11    1    4    4    0    0 -0.20340249578E+01 -0.12048175409E+02 -0.30086553897E+01  0.12583632056E+02  0.51100000000E-03 0.  1.
        -12    1    4    4    0    0  0.63478040391E+00 -0.77370170955E+01  0.36092404604E+02  0.36917828346E+02  0.00000000000E+00 0.  1.
</event>
<event>
 8    1  0.1290800E-006  0.9118800E+02  0.7816164E-02  0.1184000E+00
        -11   -1    0    0    0    0  0.00000000000E+00  0.00000000000E+00  0.45593999997E+02  0.45594000000E+02  0.51100000000E-03 0. -1.
         11   -1    0    0    0    0 -0.00000000000E+00 -0.00000000000E+00 -0.45593999997E+02  0.45594000000E+02  0.51100000000E-03 0.  1.
         23    2    1    2    0    0  0.00000000000E+00 -0.35527136788E-14 -0.44408920985E-15  0.91188000000E+02  0.91188000000E+02 0.  0.
    9900012    2    3    3    0    0  0.20849889784E+02  0.30303736297E+02  0.16563946248E+01  0.54367109453E+02  0.40000057619E+02 0.  0.
         12    1    3    3    0    0 -0.20849889784E+02 -0.30303736297E+02 -0.16563946248E+01  0.36820890547E+02  0.00000000000E+00 0. -1.
         11    1    4    4    0    0 -0.39410731848E+01  0.99296885728E+01 -0.12006587576E+02  0.16071369527E+02  0.51100000000E-03 0. -1.
        -11    1    4    4    0    0  0.10634806465E+01  0.95988713829E+01  0.27327233094E+01  0.10036787328E+02  0.51100000000E-03 0.  1.
        -12    1    4    4    0    0  0.23727482322E+02  0.10775176341E+02  0.10930258891E+02  0.28258952598E+02  0.00000000000E+00 0.  1.
</event>
<event>
 8    1  0.1290800E-006  0.9118800E+02  0.7816164E-02  0.1184000E+00
        -11   -1    0    0    0    0  0.00000000000E+00  0.00000000000E+00  0.45593999997E+02  0.45594000000E+02  0.51100000000E-03 0. -1.
         11   -1    0    0    0    0 -0.00000000000E+00 -0.00000000000E+00 -0.45593999997E+02  0.45594000000E+02  0.51100000000E-03 0.  1.
         23    2    1    2    0    0 -0.88817841970E-15  0.00000000000E+00  0.88817841970E-15  0.91188000000E+02  0.91188000000E+02 0.  0.
    9900012    2    3    3    0    0 -0.22265134901E+01 -0.36718568824E+02 -0.16025553708E+01  0.54367097749E+02  0.40000030940E+02 0.  0.
         12    1    3    3    0    0  0.22265134901E+01  0.36718568824E+02  0.16025553708E+01  0.36820902251E+02  0.00000000000E+00 0. -1.
         11    1    4    4    0    0  0.25009499362E+01 -0.26628470540E+01 -0.55753551285E+01  0.66655900029E+01  0.51100000000E-03 0. -1.
        -11    1    4    4    0    0 -0.62775900559E+01 -0.34224640335E+02 -0.79375842931E+01  0.35689485673E+02  0.51100000000E-03 0.  1.
         12    1    4    4    0    0  0.15501266296E+01  0.16891856464E+00  0.11910384051E+02  0.12012022073E+02  0.00000000000E+00 0. -1.
</event>
<event>
 8    1  0.1290800E-006  0.9118800E+02  0.7816164E-02  0.1184000E+00
        -11   -1    0    0    0    0  0.00000000000E+00  0.00000000000E+00  0.45593999997E+02  0.45594000000E+02  0.51100000000E-03 0. -1.
         11   -1    0    0    0    0 -0.00000000000E+00 -0.00000000000E+00 -0.45593999997E+02  0.45594000000E+02  0.51100000000E-03 0.  1.
         23    2    1    2    0    0 -0.35527136788E-14  0.35527136788E-14 -0.35527136788E-14  0.91188000000E+02  0.91188000000E+02 0.  0.
    9900012    2    3    3    0    0 -0.26915926927E+02  0.13568516687E+02 -0.21147376459E+02  0.54367037241E+02  0.39999892997E+02 0.  0.
         12    1    3    3    0    0  0.26915926927E+02 -0.13568516687E+02  0.21147376459E+02  0.36820962759E+02  0.00000000000E+00 0. -1.
         11    1    4    4    0    0 -0.11289917285E+01  0.33853617040E+01 -0.34017516698E+01  0.49302343630E+01  0.51100000000E-03 0. -1.
        -11    1    4    4    0    0  0.44364317991E+00 -0.45659600890E+01  0.84008644784E+01  0.95717989454E+01  0.51100000000E-03 0.  1.
        -12    1    4    4    0    0 -0.26230578379E+02  0.14749115071E+02 -0.26146489268E+02  0.39865003932E+02  0.00000000000E+00 0.  1.
</event>
<event>
 8    1  0.1290800E-006  0.9118800E+02  0.7816164E-02  0.1184000E+00
        -11   -1    0    0    0    0  0.00000000000E+00  0.00000000000E+00  0.45593999997E+02  0.45594000000E+02  0.51100000000E-03 0. -1.
         11   -1    0    0    0    0 -0.00000000000E+00 -0.00000000000E+00 -0.45593999997E+02  0.45594000000E+02  0.51100000000E-03 0.  1.
         23    2    1    2    0    0  0.35527136788E-14  0.17763568394E-14 -0.35527136788E-14  0.91188000000E+02  0.91188000000E+02 0.  0.
    9900012    2    3    3    0    0 -0.17999309378E+02 -0.10659214468E+02  0.30301558619E+02  0.54367103135E+02  0.40000043217E+02 0.  0.
        -12    1    3    3    0    0  0.17999309378E+02  0.10659214468E+02 -0.30301558619E+02  0.36820896865E+02  0.00000000000E+00 0.  1.
         11    1    4    4    0    0  0.44701781071E+01  0.35011801418E+01  0.10966263901E+02  0.12349076844E+02  0.51100000000E-03 0. -1.
        -11    1    4    4    0    0  0.29161503871E+01 -0.10245696804E+02  0.10221458392E+02  0.14763348129E+02  0.51100000000E-03 0.  1.
        -12    1    4    4    0    0 -0.25385637872E+02 -0.39146978061E+01  0.91138363266E+01  0.27254678161E+02  0.00000000000E+00 0.  1.
</event>
<event>
 8    1  0.1290800E-006  0.9118800E+02  0.7816164E-02  0.1184000E+00
        -11   -1    0    0    0    0  0.00000000000E+00  0.00000000000E+00  0.45593999997E+02  0.45594000000E+02  0.51100000000E-03 0.  1.
         11   -1    0    0    0    0 -0.00000000000E+00 -0.00000000000E+00 -0.45593999997E+02  0.45594000000E+02  0.51100000000E-03 0. -1.
         23    2    1    2    0    0  0.17763568394E-14  0.00000000000E+00 -0.17763568394E-14  0.91188000000E+02  0.91188000000E+02 0.  0.
    9900012    2    3    3    0    0 -0.15160081988E+02  0.31612468677E+02  0.11251795082E+02  0.54367093516E+02  0.40000021288E+02 0.  0.
        -12    1    3    3    0    0  0.15160081988E+02 -0.31612468677E+02 -0.11251795082E+02  0.36820906484E+02  0.00000000000E+00 0.  1.
         11    1    4    4    0    0  0.22699205994E+01  0.10109709905E+01 -0.91853715367E+01  0.95155479295E+01  0.51100000000E-03 0. -1.
        -11    1    4    4    0    0 -0.15711376086E+02  0.88109924366E+01  0.10387684337E+02  0.20793867182E+02  0.51100000000E-03 0.  1.
         12    1    4    4    0    0 -0.17186265020E+01  0.21790505250E+02  0.10049482281E+02  0.24057678404E+02  0.00000000000E+00 0. -1.
</event>
<event>
 8    1  0.1290800E-006  0.9118800E+02  0.7816164E-02  0.1184000E+00
        -11   -1    0    0    0    0  0.00000000000E+00  0.00000000000E+00  0.45593999997E+02  0.45594000000E+02  0.51100000000E-03 0. -1.
         11   -1    0    0    0    0 -0.00000000000E+00 -0.00000000000E+00 -0.45593999997E+02  0.45594000000E+02  0.51100000000E-03 0.  1.
         23    2    1    2    0    0  0.00000000000E+00  0.00000000000E+00 -0.88817841970E-15  0.91188000000E+02  0.91188000000E+02 0.  0.
    9900012    2    3    3    0    0  0.33110872054E+02 -0.15231463409E+02  0.52394950858E+01  0.54367086995E+02  0.40000006423E+02 0.  0.
        -12    1    3    3    0    0 -0.33110872054E+02  0.15231463409E+02 -0.52394950858E+01  0.36820913005E+02  0.00000000000E+00 0.  1.
         11    1    4    4    0    0  0.11339047136E+02 -0.27645555771E+01  0.42212487321E+01  0.12411111901E+02  0.51100000000E-03 0. -1.
        -11    1    4    4    0    0  0.30312672807E+02 -0.11103350512E+02 -0.29956934670E+01  0.32420930044E+02  0.51100000000E-03 0.  1.
        -12    1    4    4    0    0 -0.85408478890E+01 -0.13635573196E+01  0.40139398208E+01  0.95350450503E+01  0.00000000000E+00 0.  1.
</event>
<event>
 8    1  0.1290800E-006  0.9118800E+02  0.7816164E-02  0.1184000E+00
        -11   -1    0    0    0    0  0.00000000000E+00  0.00000000000E+00  0.45593999997E+02  0.45594000000E+02  0.51100000000E-03 0.  1.
         11   -1    0    0    0    0 -0.00000000000E+00 -0.00000000000E+00 -0.45593999997E+02  0.45594000000E+02  0.51100000000E-03 0. -1.
         23    2    1    2    0    0  0.35527136788E-14  0.00000000000E+00  0.17763568394E-14  0.91188000000E+02  0.91188000000E+02 0.  0.
    9900012    2    3    3    0    0  0.22814403589E+02  0.27758962793E+02  0.80450506426E+01  0.54367083848E+02  0.39999999248E+02 0.  0.
         12    1    3    3    0    0 -0.22814403589E+02 -0.27758962793E+02 -0.80450506426E+01  0.36820916152E+02  0.00000000000E+00 0. -1.
         11    1    4    4    0    0  0.26934387613E+02  0.65066692817E+01  0.14878872150E+02  0.31451213299E+02  0.51100000000E-03 0.  1.
        -11    1    4    4    0    0 -0.30233699625E+01  0.18776251883E+02 -0.68314704765E+01  0.20207854657E+02  0.51100000000E-03 0. -1.
        -12    1    4    4    0    0 -0.10966140622E+01  0.24760416280E+01 -0.23510308472E-02  0.27080158922E+01  0.00000000000E+00 0.  1.
</event>
<event>
 8    1  0.1290800E-006  0.9118800E+02  0.7816164E-02  0.1184000E+00
        -11   -1    0    0    0    0  0.00000000000E+00  0.00000000000E+00  0.45593999997E+02  0.45594000000E+02  0.51100000000E-03 0.  1.
         11   -1    0    0    0    0 -0.00000000000E+00 -0.00000000000E+00 -0.45593999997E+02  0.45594000000E+02  0.51100000000E-03 0. -1.
         23    2    1    2    0    0  0.00000000000E+00  0.00000000000E+00  0.00000000000E+00  0.91188000000E+02  0.91188000000E+02 0.  0.
    9900012    2    3    3    0    0 -0.24751423572E+02 -0.22705174021E+02  0.15087147368E+02  0.54367083229E+02  0.39999997836E+02 0.  0.
         12    1    3    3    0    0  0.24751423572E+02  0.22705174021E+02 -0.15087147368E+02  0.36820916771E+02  0.00000000000E+00 0. -1.
         11    1    4    4    0    0  0.46856140661E+01 -0.10903049668E+02  0.40913736332E+01  0.12552721207E+02  0.51100000000E-03 0. -1.
        -11    1    4    4    0    0 -0.24163158557E+01  0.61015042636E+01  0.62359985222E+01  0.90528787921E+01  0.51100000000E-03 0.  1.
        -12    1    4    4    0    0 -0.27020721783E+02 -0.17903628617E+02  0.47597752128E+01  0.32761483229E+02  0.00000000000E+00 0.  1.
</event>
<event>
 8    1  0.1290800E-006  0.9118800E+02  0.7816164E-02  0.1184000E+00
        -11   -1    0    0    0    0  0.00000000000E+00  0.00000000000E+00  0.45593999997E+02  0.45594000000E+02  0.51100000000E-03 0.  1.
         11   -1    0    0    0    0 -0.00000000000E+00 -0.00000000000E+00 -0.45593999997E+02  0.45594000000E+02  0.51100000000E-03 0. -1.
         23    2    1    2    0    0 -0.44408920985E-15  0.00000000000E+00  0.17763568394E-14  0.91188000000E+02  0.91188000000E+02 0.  0.
    9900012    2    3    3    0    0 -0.24368450321E+01 -0.34149908686E+02  0.13550840702E+02  0.54367085282E+02  0.40000002517E+02 0.  0.
         12    1    3    3    0    0  0.24368450321E+01  0.34149908686E+02 -0.13550840702E+02  0.36820914718E+02  0.00000000000E+00 0. -1.
         11    1    4    4    0    0 -0.78629053278E+01 -0.42474828887E+01  0.85438822754E-01  0.89372082407E+01  0.51100000000E-03 0. -1.
        -11    1    4    4    0    0  0.91495529629E+01 -0.95416555282E+01  0.19778904259E+02  0.23789967709E+02  0.51100000000E-03 0.  1.
        -12    1    4    4    0    0 -0.37234926672E+01 -0.20360770269E+02 -0.63135023802E+01  0.21639909332E+02  0.00000000000E+00 0.  1.
</event>
<event>
 8    1  0.1290800E-006  0.9118800E+02  0.7816164E-02  0.1184000E+00
        -11   -1    0    0    0    0  0.00000000000E+00  0.00000000000E+00  0.45593999997E+02  0.45594000000E+02  0.51100000000E-03 0. -1.
         11   -1    0    0    0    0 -0.00000000000E+00 -0.00000000000E+00 -0.45593999997E+02  0.45594000000E+02  0.51100000000E-03 0.  1.
         23    2    1    2    0    0  0.00000000000E+00 -0.35527136788E-14  0.00000000000E+00  0.91188000000E+02  0.91188000000E+02 0.  0.
    9900012    2    3    3    0    0 -0.23673662940E+02  0.21589650512E+02  0.18144559996E+02  0.54367076822E+02  0.39999983230E+02 0.  0.
        -12    1    3    3    0    0  0.23673662940E+02 -0.21589650512E+02 -0.18144559996E+02  0.36820923178E+02  0.00000000000E+00 0.  1.
         11    1    4    4    0    0  0.29334113123E+00  0.46806865481E+01 -0.11060523805E+02  0.12013744740E+02  0.51100000000E-03 0. -1.
        -11    1    4    4    0    0 -0.31153817223E+01  0.17788072717E+01  0.24979292228E+00  0.35961306082E+01  0.51100000000E-03 0.  1.
         12    1    4    4    0    0 -0.20851622349E+02  0.15130156693E+02  0.28955290879E+02  0.38757201473E+02  0.00000000000E+00 0. -1.
</event>
<event>
 8    1  0.1290800E-006  0.9118800E+02  0.7816164E-02  0.1184000E+00
        -11   -1    0    0    0    0  0.00000000000E+00  0.00000000000E+00  0.45593999997E+02  0.45594000000E+02  0.51100000000E-03 0. -1.
         11   -1    0    0    0    0 -0.00000000000E+00 -0.00000000000E+00 -0.45593999997E+02  0.45594000000E+02  0.51100000000E-03 0.  1.
         23    2    1    2    0    0  0.00000000000E+00  0.00000000000E+00  0.35527136788E-14  0.91188000000E+02  0.91188000000E+02 0.  0.
    9900012    2    3    3    0    0 -0.13876990599E+02 -0.18322448624E+02  0.28766257166E+02  0.54367074658E+02  0.39999978298E+02 0.  0.
        -12    1    3    3    0    0  0.13876990599E+02  0.18322448624E+02 -0.28766257166E+02  0.36820925342E+02  0.00000000000E+00 0.  1.
         11    1    4    4    0    0  0.12895749003E+00 -0.20535529027E+02  0.17291565345E+02  0.26846281210E+02  0.51100000000E-03 0. -1.
        -11    1    4    4    0    0  0.50117610400E+01 -0.15745026559E+01  0.59731188350E+00  0.52871153839E+01  0.51100000000E-03 0.  1.
         12    1    4    4    0    0 -0.19017709129E+02  0.37875830593E+01  0.10877379937E+02  0.22233678064E+02  0.00000000000E+00 0. -1.
</event>
<event>
 8    1  0.1290800E-006  0.9118800E+02  0.7816164E-02  0.1184000E+00
        -11   -1    0    0    0    0  0.00000000000E+00  0.00000000000E+00  0.45593999997E+02  0.45594000000E+02  0.51100000000E-03 0.  1.
         11   -1    0    0    0    0 -0.00000000000E+00 -0.00000000000E+00 -0.45593999997E+02  0.45594000000E+02  0.51100000000E-03 0. -1.
         23    2    1    2    0    0  0.00000000000E+00  0.88817841970E-15  0.00000000000E+00  0.91188000000E+02  0.91188000000E+02 0.  0.
    9900012    2    3    3    0    0  0.36327139390E+02 -0.55565396900E+01  0.22897917735E+01  0.54367091050E+02  0.40000015666E+02 0.  0.
        -12    1    3    3    0    0 -0.36327139390E+02  0.55565396900E+01 -0.22897917735E+01  0.36820908950E+02  0.00000000000E+00 0.  1.
         11    1    4    4    0    0  0.82634853832E+01 -0.33026588811E+00 -0.23849574899E+01  0.86071068731E+01  0.51100000000E-03 0. -1.
        -11    1    4    4    0    0  0.83826577102E+01  0.15072752419E+02  0.17207886554E+01  0.17332568466E+02  0.51100000000E-03 0.  1.
        -12    1    4    4    0    0  0.19680996296E+02 -0.20299026221E+02  0.29539606080E+01  0.28427415711E+02  0.00000000000E+00 0.  1.
</event>
<event>
 8    1  0.1290800E-006  0.9118800E+02  0.7816164E-02  0.1184000E+00
        -11   -1    0    0    0    0  0.00000000000E+00  0.00000000000E+00  0.45593999997E+02  0.45594000000E+02  0.51100000000E-03 0.  1.
         11   -1    0    0    0    0 -0.00000000000E+00 -0.00000000000E+00 -0.45593999997E+02  0.45594000000E+02  0.51100000000E-03 0. -1.
         23    2    1    2    0    0 -0.17763568394E-14 -0.17763568394E-14  0.00000000000E+00  0.91188000000E+02  0.91188000000E+02 0.  0.
    9900012    2    3    3    0    0 -0.21406265207E+01  0.13385930498E+02  0.34234721579E+02  0.54367060594E+02  0.39999946236E+02 0.  0.
         12    1    3    3    0    0  0.21406265207E+01 -0.13385930498E+02 -0.34234721579E+02  0.36820939406E+02  0.00000000000E+00 0. -1.
         11    1    4    4    0    0 -0.90705908306E+01 -0.85040989364E+00  0.29898751581E+01  0.95884393269E+01  0.51100000000E-03 0. -1.
        -11    1    4    4    0    0 -0.95569358886E+01  0.23737153110E+01  0.18039397316E+02  0.20552114338E+02  0.51100000000E-03 0.  1.
        -12    1    4    4    0    0  0.16486900198E+02  0.11862625080E+02  0.13205449104E+02  0.24226506929E+02  0.00000000000E+00 0.  1.
</event>
<event>
 8    1  0.1290800E-006  0.9118800E+02  0.7816164E-02  0.1184000E+00
        -11   -1    0    0    0    0  0.00000000000E+00  0.00000000000E+00  0.45593999997E+02  0.45594000000E+02  0.51100000000E-03 0. -1.
         11   -1    0    0    0    0 -0.00000000000E+00 -0.00000000000E+00 -0.45593999997E+02  0.45594000000E+02  0.51100000000E-03 0.  1.
         23    2    1    2    0    0  0.71054273576E-14  0.00000000000E+00  0.00000000000E+00  0.91188000000E+02  0.91188000000E+02 0.  0.
    9900012    2    3    3    0    0 -0.34946597569E+02  0.11400629248E+02 -0.21309423115E+01  0.54367082792E+02  0.39999996841E+02 0.  0.
        -12    1    3    3    0    0  0.34946597569E+02 -0.11400629248E+02  0.21309423115E+01  0.36820917208E+02  0.00000000000E+00 0.  1.
         11    1    4    4    0    0 -0.53393901180E+01 -0.62596391647E+01  0.14644816531E+01  0.83568460604E+01  0.51100000000E-03 0. -1.
        -11    1    4    4    0    0 -0.26100931945E+02 -0.15163841337E+01 -0.43337988208E+01  0.26501695827E+02  0.51100000000E-03 0.  1.
         12    1    4    4    0    0 -0.35062755062E+01  0.19176652546E+02  0.73837485613E+00  0.19508540904E+02  0.00000000000E+00 0. -1.
</event>
<event>
 8    1  0.1290800E-006  0.9118800E+02  0.7816164E-02  0.1184000E+00
        -11   -1    0    0    0    0  0.00000000000E+00  0.00000000000E+00  0.45593999997E+02  0.45594000000E+02  0.51100000000E-03 0.  1.
         11   -1    0    0    0    0 -0.00000000000E+00 -0.00000000000E+00 -0.45593999997E+02  0.45594000000E+02  0.51100000000E-03 0. -1.
         23    2    1    2    0    0 -0.17763568394E-14  0.00000000000E+00  0.71054273576E-14  0.91188000000E+02  0.91188000000E+02 0.  0.
    9900012    2    3    3    0    0  0.73352697497E+01 -0.80077895746E+01 -0.35183066334E+02  0.54367095165E+02  0.40000025048E+02 0.  0.
        -12    1    3    3    0    0 -0.73352697497E+01  0.80077895746E+01  0.35183066334E+02  0.36820904835E+02  0.00000000000E+00 0.  1.
         11    1    4    4    0    0  0.79593517405E+01  0.11211626890E+01 -0.36884337957E+02  0.37750002288E+02  0.51100000000E-03 0. -1.
        -11    1    4    4    0    0 -0.21624337403E+01  0.33094876052E+01 -0.10304053881E+00  0.39546738808E+01  0.51100000000E-03 0.  1.
        -12    1    4    4    0    0  0.15383517495E+01 -0.12438439869E+02  0.18043121616E+01  0.12662418997E+02  0.00000000000E+00 0.  1.
</event>
<event>
 8    1  0.1290800E-006  0.9118800E+02  0.7816164E-02  0.1184000E+00
        -11   -1    0    0    0    0  0.00000000000E+00  0.00000000000E+00  0.45593999997E+02  0.45594000000E+02  0.51100000000E-03 0. -1.
         11   -1    0    0    0    0 -0.00000000000E+00 -0.00000000000E+00 -0.45593999997E+02  0.45594000000E+02  0.51100000000E-03 0.  1.
         23    2    1    2    0    0  0.00000000000E+00  0.00000000000E+00  0.00000000000E+00  0.91188000000E+02  0.91188000000E+02 0.  0.
    9900012    2    3    3    0    0 -0.13856608493E+02 -0.33416579249E+02 -0.68637460457E+01  0.54367022590E+02  0.39999859598E+02 0.  0.
        -12    1    3    3    0    0  0.13856608493E+02  0.33416579249E+02  0.68637460457E+01  0.36820977410E+02  0.00000000000E+00 0.  1.
         11    1    4    4    0    0  0.11462071126E+01 -0.22141949897E+02 -0.11724494651E+00  0.22171907510E+02  0.51100000000E-03 0. -1.
        -11    1    4    4    0    0 -0.10435351048E+02  0.69620936357E+01 -0.12425271435E+01  0.12605997511E+02  0.51100000000E-03 0.  1.
        -12    1    4    4    0    0 -0.45674645578E+01 -0.18236722988E+02 -0.55039739556E+01  0.19589117569E+02  0.00000000000E+00 0.  1.
</event>
<event>
 8    1  0.1290800E-006  0.9118800E+02  0.7816164E-02  0.1184000E+00
        -11   -1    0    0    0    0  0.00000000000E+00  0.00000000000E+00  0.45593999997E+02  0.45594000000E+02  0.51100000000E-03 0.  1.
         11   -1    0    0    0    0 -0.00000000000E+00 -0.00000000000E+00 -0.45593999997E+02  0.45594000000E+02  0.51100000000E-03 0. -1.
         23    2    1    2    0    0  0.35527136788E-14 -0.35527136788E-14  0.00000000000E+00  0.91188000000E+02  0.91188000000E+02 0.  0.
    9900012    2    3    3    0    0  0.25391852893E+02 -0.14641740420E+02 -0.22285707990E+02  0.54367088327E+02  0.40000009458E+02 0.  0.
        -12    1    3    3    0    0 -0.25391852893E+02  0.14641740420E+02  0.22285707990E+02  0.36820911673E+02  0.00000000000E+00 0.  1.
         11    1    4    4    0    0  0.16384709576E+02 -0.22713822931E+02 -0.20731717237E+01  0.28083349183E+02  0.51100000000E-03 0. -1.
        -11    1    4    4    0    0  0.10190562686E+02  0.10160968317E+02 -0.17630078470E+02  0.22757691274E+02  0.51100000000E-03 0.  1.
         12    1    4    4    0    0 -0.11834193695E+01 -0.20888858059E+01 -0.25824577957E+01  0.35260478699E+01  0.00000000000E+00 0. -1.
</event>
<event>
 8    1  0.1290800E-006  0.9118800E+02  0.7816164E-02  0.1184000E+00
        -11   -1    0    0    0    0  0.00000000000E+00  0.00000000000E+00  0.45593999997E+02  0.45594000000E+02  0.51100000000E-03 0.  1.
         11   -1    0    0    0    0 -0.00000000000E+00 -0.00000000000E+00 -0.45593999997E+02  0.45594000000E+02  0.51100000000E-03 0. -1.
         23    2    1    2    0    0  0.00000000000E+00 -0.88817841970E-15  0.17763568394E-14  0.91188000000E+02  0.91188000000E+02 0.  0.
    9900012    2    3    3    0    0  0.34777048648E+02 -0.74953613286E+01  0.94952637125E+01  0.54367033322E+02  0.39999884064E+02 0.  0.
         12    1    3    3    0    0 -0.34777048648E+02  0.74953613286E+01 -0.94952637125E+01  0.36820966678E+02  0.00000000000E+00 0. -1.
         11    1    4    4    0    0 -0.42213183347E+01 -0.10002404213E+01 -0.71852900114E+01  0.83933546447E+01  0.51100000000E-03 0. -1.
        -11    1    4    4    0    0  0.30397152980E+02 -0.39182141897E+00  0.60438126119E+01  0.30994646384E+02  0.51100000000E-03 0.  1.
        -12    1    4    4    0    0  0.86012140029E+01 -0.61032994883E+01  0.10636741112E+02  0.14979032293E+02  0.00000000000E+00 0.  1.
</event>
<event>
 8    1  0.1290800E-006  0.9118800E+02  0.7816164E-02  0.1184000E+00
        -11   -1    0    0    0    0  0.00000000000E+00  0.00000000000E+00  0.45593999997E+02  0.45594000000E+02  0.51100000000E-03 0.  1.
         11   -1    0    0    0    0 -0.00000000000E+00 -0.00000000000E+00 -0.45593999997E+02  0.45594000000E+02  0.51100000000E-03 0. -1.
         23    2    1    2    0    0  0.00000000000E+00  0.00000000000E+00  0.17763568394E-14  0.91188000000E+02  0.91188000000E+02 0.  0.
    9900012    2    3    3    0    0  0.21672111796E+02 -0.29700387343E+02  0.19964065852E+01  0.54367094562E+02  0.40000023673E+02 0.  0.
        -12    1    3    3    0    0 -0.21672111796E+02  0.29700387343E+02 -0.19964065852E+01  0.36820905438E+02  0.00000000000E+00 0.  1.
         11    1    4    4    0    0  0.95389446845E+01 -0.69082022142E+01  0.18006341013E+02  0.21516111183E+02  0.51100000000E-03 0. -1.
        -11    1    4    4    0    0  0.21878404522E+01  0.13459442038E+01 -0.11871154351E+01  0.28297446813E+01  0.51100000000E-03 0.  1.
         12    1    4    4    0    0  0.99453266590E+01 -0.24138129333E+02 -0.14822818993E+02  0.30021238697E+02  0.00000000000E+00 0. -1.
</event>
<event>
 8    1  0.1290800E-006  0.9118800E+02  0.7816164E-02  0.1184000E+00
        -11   -1    0    0    0    0  0.00000000000E+00  0.00000000000E+00  0.45593999997E+02  0.45594000000E+02  0.51100000000E-03 0.  1.
         11   -1    0    0    0    0 -0.00000000000E+00 -0.00000000000E+00 -0.45593999997E+02  0.45594000000E+02  0.51100000000E-03 0. -1.
         23    2    1    2    0    0  0.00000000000E+00  0.00000000000E+00  0.35527136788E-14  0.91188000000E+02  0.91188000000E+02 0.  0.
    9900012    2    3    3    0    0 -0.17659750489E+02 -0.16114600158E+02 -0.28004135001E+02  0.54367099648E+02  0.40000035267E+02 0.  0.
        -12    1    3    3    0    0  0.17659750489E+02  0.16114600158E+02  0.28004135001E+02  0.36820900352E+02  0.00000000000E+00 0.  1.
         11    1    4    4    0    0 -0.45219696579E+01  0.88378634171E+01 -0.54547998397E+01  0.11327439292E+02  0.51100000000E-03 0. -1.
        -11    1    4    4    0    0 -0.17625898736E+02 -0.11380960035E+02 -0.74934696870E+01  0.22278928291E+02  0.51100000000E-03 0.  1.
         12    1    4    4    0    0  0.44881179049E+01 -0.13571503540E+02 -0.15055865475E+02  0.20760732064E+02  0.00000000000E+00 0. -1.
</event>
<event>
 8    1  0.1290800E-006  0.9118800E+02  0.7816164E-02  0.1184000E+00
        -11   -1    0    0    0    0  0.00000000000E+00  0.00000000000E+00  0.45593999997E+02  0.45594000000E+02  0.51100000000E-03 0. -1.
         11   -1    0    0    0    0 -0.00000000000E+00 -0.00000000000E+00 -0.45593999997E+02  0.45594000000E+02  0.51100000000E-03 0.  1.
         23    2    1    2    0    0 -0.17763568394E-14 -0.35527136788E-14  0.00000000000E+00  0.91188000000E+02  0.91188000000E+02 0.  0.
    9900012    2    3    3    0    0  0.13954056393E+02 -0.11882238103E+02  0.31935517202E+02  0.54367074820E+02  0.39999978668E+02 0.  0.
        -12    1    3    3    0    0 -0.13954056393E+02  0.11882238103E+02 -0.31935517202E+02  0.36820925180E+02  0.00000000000E+00 0.  1.
         11    1    4    4    0    0  0.95208294370E+00  0.73364162627E+01  0.49315783026E+01  0.88910027740E+01  0.51100000000E-03 0. -1.
        -11    1    4    4    0    0  0.21786600889E+01  0.19186460475E+01  0.20705196134E+02  0.20907723684E+02  0.51100000000E-03 0.  1.
        -12    1    4    4    0    0  0.10823313360E+02 -0.21137300413E+02  0.62987427653E+01  0.24568348363E+02  0.00000000000E+00 0.  1.
</event>
<event>
 8    1  0.1290800E-006  0.9118800E+02  0.7816164E-02  0.1184000E+00
        -11   -1    0    0    0    0  0.00000000000E+00  0.00000000000E+00  0.45593999997E+02  0.45594000000E+02  0.51100000000E-03 0.  1.
         11   -1    0    0    0    0 -0.00000000000E+00 -0.00000000000E+00 -0.45593999997E+02  0.45594000000E+02  0.51100000000E-03 0. -1.
         23    2    1    2    0    0  0.00000000000E+00 -0.44408920985E-15  0.00000000000E+00  0.91188000000E+02  0.91188000000E+02 0.  0.
    9900012    2    3    3    0    0  0.11347335641E+02  0.39980514288E+01 -0.34799926302E+02  0.54367064216E+02  0.39999954493E+02 0.  0.
        -12    1    3    3    0    0 -0.11347335641E+02 -0.39980514288E+01  0.34799926302E+02  0.36820935784E+02  0.00000000000E+00 0.  1.
         11    1    4    4    0    0  0.98676895462E+01  0.68541988946E+01  0.38880097312E+00  0.12020919512E+02  0.51100000000E-03 0. -1.
        -11    1    4    4    0    0  0.11531647271E+02  0.28964517359E+01 -0.19629519767E+02  0.22949648538E+02  0.51100000000E-03 0.  1.
        -12    1    4    4    0    0 -0.10052001176E+02 -0.57525992016E+01 -0.15559207508E+02  0.19396496166E+02  0.00000000000E+00 0.  1.
</event>
<event>
 8    1  0.1290800E-006  0.9118800E+02  0.7816164E-02  0.1184000E+00
        -11   -1    0    0    0    0  0.00000000000E+00  0.00000000000E+00  0.45593999997E+02  0.45594000000E+02  0.51100000000E-03 0. -1.
         11   -1    0    0    0    0 -0.00000000000E+00 -0.00000000000E+00 -0.45593999997E+02  0.45594000000E+02  0.51100000000E-03 0.  1.
         23    2    1    2    0    0  0.00000000000E+00  0.00000000000E+00  0.35527136788E-14  0.91188000000E+02  0.91188000000E+02 0.  0.
    9900012    2    3    3    0    0  0.16560489052E+02  0.10149684637E+02  0.31281207224E+02  0.54367084459E+02  0.40000000641E+02 0.  0.
        -12    1    3    3    0    0 -0.16560489052E+02 -0.10149684637E+02 -0.31281207224E+02  0.36820915541E+02  0.00000000000E+00 0.  1.
         11    1    4    4    0    0  0.28351916929E+01 -0.13583618681E+01  0.32951384150E+02  0.33101014736E+02  0.51100000000E-03 0. -1.
        -11    1    4    4    0    0  0.13220349800E+02  0.44458119017E+01  0.17635967614E+00  0.13948978289E+02  0.51100000000E-03 0.  1.
        -12    1    4    4    0    0  0.50494755919E+00  0.70622346037E+01 -0.18465366017E+01  0.73170914342E+01  0.00000000000E+00 0.  1.
</event>
<event>
 8    1  0.1290800E-006  0.9118800E+02  0.7816164E-02  0.1184000E+00
        -11   -1    0    0    0    0  0.00000000000E+00  0.00000000000E+00  0.45593999997E+02  0.45594000000E+02  0.51100000000E-03 0. -1.
         11   -1    0    0    0    0 -0.00000000000E+00 -0.00000000000E+00 -0.45593999997E+02  0.45594000000E+02  0.51100000000E-03 0.  1.
         23    2    1    2    0    0 -0.35527136788E-14 -0.35527136788E-14  0.53290705182E-14  0.91188000000E+02  0.91188000000E+02 0.  0.
    9900012    2    3    3    0    0 -0.26496866086E+02 -0.20286567708E+02 -0.15561206631E+02  0.54367083477E+02  0.39999998402E+02 0.  0.
         12    1    3    3    0    0  0.26496866086E+02  0.20286567708E+02  0.15561206631E+02  0.36820916523E+02  0.00000000000E+00 0. -1.
         11    1    4    4    0    0 -0.17201143300E+02 -0.15101825351E+02  0.38057847459E+01  0.23204061229E+02  0.51100000000E-03 0.  1.
        -11    1    4    4    0    0  0.37627093595E+00 -0.31364397789E+01  0.44030077585E+01  0.54189770148E+01  0.51100000000E-03 0. -1.
         12    1    4    4    0    0 -0.96719937224E+01 -0.20483025788E+01 -0.23769999136E+02  0.25744045233E+02  0.00000000000E+00 0. -1.
</event>
<event>
 8    1  0.1290800E-006  0.9118800E+02  0.7816164E-02  0.1184000E+00
        -11   -1    0    0    0    0  0.00000000000E+00  0.00000000000E+00  0.45593999997E+02  0.45594000000E+02  0.51100000000E-03 0. -1.
         11   -1    0    0    0    0 -0.00000000000E+00 -0.00000000000E+00 -0.45593999997E+02  0.45594000000E+02  0.51100000000E-03 0.  1.
         23    2    1    2    0    0  0.00000000000E+00  0.11102230246E-15  0.00000000000E+00  0.91188000000E+02  0.91188000000E+02 0.  0.
    9900012    2    3    3    0    0 -0.10324739363E+02 -0.53155086258E+00  0.35339735678E+02  0.54367086011E+02  0.40000004179E+02 0.  0.
        -12    1    3    3    0    0  0.10324739363E+02  0.53155086258E+00 -0.35339735678E+02  0.36820913989E+02  0.00000000000E+00 0.  1.
         11    1    4    4    0    0 -0.72726653590E+01 -0.15972016858E+01  0.24379548146E+02  0.25491274639E+02  0.51100000000E-03 0. -1.
        -11    1    4    4    0    0 -0.28381307281E+00 -0.24677375307E+00 -0.88359834518E+01  0.88439838855E+01  0.51100000000E-03 0.  1.
        -12    1    4    4    0    0 -0.27682609310E+01  0.13124245763E+01  0.19796170983E+02  0.20031827486E+02  0.00000000000E+00 0.  1.
</event>
<event>
 8    1  0.1290800E-006  0.9118800E+02  0.7816164E-02  0.1184000E+00
        -11   -1    0    0    0    0  0.00000000000E+00  0.00000000000E+00  0.45593999997E+02  0.45594000000E+02  0.51100000000E-03 0. -1.
         11   -1    0    0    0    0 -0.00000000000E+00 -0.00000000000E+00 -0.45593999997E+02  0.45594000000E+02  0.51100000000E-03 0.  1.
         23    2    1    2    0    0  0.00000000000E+00  0.00000000000E+00  0.35527136788E-14  0.91188000000E+02  0.91188000000E+02 0.  0.
    9900012    2    3    3    0    0 -0.13778214691E+02 -0.18021013967E+02  0.29003170049E+02  0.54367081797E+02  0.39999994572E+02 0.  0.
        -12    1    3    3    0    0  0.13778214691E+02  0.18021013967E+02 -0.29003170049E+02  0.36820918203E+02  0.00000000000E+00 0.  1.
         11    1    4    4    0    0 -0.75044522349E+00 -0.70406281727E+01  0.22513549466E+02  0.23600710221E+02  0.51100000000E-03 0. -1.
        -11    1    4    4    0    0  0.55778406370E+01  0.20505239151E+01 -0.23518871217E+01  0.63912696542E+01  0.51100000000E-03 0.  1.
         12    1    4    4    0    0 -0.18605610105E+02 -0.13030909709E+02  0.88415077041E+01  0.24375101922E+02  0.00000000000E+00 0. -1.
</event>
<event>
 8    1  0.1290800E-006  0.9118800E+02  0.7816164E-02  0.1184000E+00
        -11   -1    0    0    0    0  0.00000000000E+00  0.00000000000E+00  0.45593999997E+02  0.45594000000E+02  0.51100000000E-03 0.  1.
         11   -1    0    0    0    0 -0.00000000000E+00 -0.00000000000E+00 -0.45593999997E+02  0.45594000000E+02  0.51100000000E-03 0. -1.
         23    2    1    2    0    0  0.00000000000E+00  0.00000000000E+00  0.00000000000E+00  0.91188000000E+02  0.91188000000E+02 0.  0.
    9900012    2    3    3    0    0  0.33329276136E+02 -0.95224587360E+01  0.12420291639E+02  0.54367061493E+02  0.39999948285E+02 0.  0.
         12    1    3    3    0    0 -0.33329276136E+02  0.95224587360E+01 -0.12420291639E+02  0.36820938507E+02  0.00000000000E+00 0. -1.
         11    1    4    4    0    0  0.41234793739E+01  0.55565391763E+01  0.71663116266E+01  0.99616380357E+01  0.51100000000E-03 0. -1.
        -11    1    4    4    0    0  0.17376331555E+02  0.62806880173E+01  0.73810026748E+01  0.19896309734E+02  0.51100000000E-03 0.  1.
        -12    1    4    4    0    0  0.11829465208E+02 -0.21359685930E+02 -0.21270226626E+01  0.24509113724E+02  0.00000000000E+00 0.  1.
</event>
<event>
 8    1  0.1290800E-006  0.9118800E+02  0.7816164E-02  0.1184000E+00
        -11   -1    0    0    0    0  0.00000000000E+00  0.00000000000E+00  0.45593999997E+02  0.45594000000E+02  0.51100000000E-03 0. -1.
         11   -1    0    0    0    0 -0.00000000000E+00 -0.00000000000E+00 -0.45593999997E+02  0.45594000000E+02  0.51100000000E-03 0.  1.
         23    2    1    2    0    0  0.00000000000E+00 -0.35527136788E-14  0.00000000000E+00  0.91188000000E+02  0.91188000000E+02 0.  0.
    9900012    2    3    3    0    0  0.34446584739E+01 -0.24548071157E+02 -0.27226941656E+02  0.54367084456E+02  0.40000000635E+02 0.  0.
         12    1    3    3    0    0 -0.34446584739E+01  0.24548071157E+02  0.27226941656E+02  0.36820915544E+02  0.00000000000E+00 0. -1.
         11    1    4    4    0    0 -0.18915006495E+01  0.65450069810E+01 -0.52666259559E+01  0.86111695088E+01  0.51100000000E-03 0. -1.
        -11    1    4    4    0    0 -0.42454833556E+01  0.25238862633E+01 -0.45016500271E+01  0.66827377638E+01  0.51100000000E-03 0.  1.
        -12    1    4    4    0    0  0.95816424790E+01 -0.33616964401E+02 -0.17458665673E+02  0.39073177184E+02  0.00000000000E+00 0.  1.
</event>
<event>
 8    1  0.1290800E-006  0.9118800E+02  0.7816164E-02  0.1184000E+00
        -11   -1    0    0    0    0  0.00000000000E+00  0.00000000000E+00  0.45593999997E+02  0.45594000000E+02  0.51100000000E-03 0. -1.
         11   -1    0    0    0    0 -0.00000000000E+00 -0.00000000000E+00 -0.45593999997E+02  0.45594000000E+02  0.51100000000E-03 0.  1.
         23    2    1    2    0    0 -0.35527136788E-14  0.00000000000E+00 -0.35527136788E-14  0.91188000000E+02  0.91188000000E+02 0.  0.
    9900012    2    3    3    0    0  0.28548225913E+02 -0.17166149427E+02  0.15687633346E+02  0.54367085713E+02  0.40000003500E+02 0.  0.
        -12    1    3    3    0    0 -0.28548225913E+02  0.17166149427E+02 -0.15687633346E+02  0.36820914287E+02  0.00000000000E+00 0.  1.
         11    1    4    4    0    0  0.19527900055E+02 -0.71633164037E+01  0.74079477342E+01  0.22080074102E+02  0.51100000000E-03 0. -1.
        -11    1    4    4    0    0 -0.33413615436E+01  0.10775961924E+01 -0.81848674890E+01  0.89060634734E+01  0.51100000000E-03 0.  1.
         12    1    4    4    0    0  0.12361687402E+02 -0.11080429216E+02  0.16464553101E+02  0.23380948138E+02  0.00000000000E+00 0. -1.
</event>
<event>
 8    1  0.1290800E-006  0.9118800E+02  0.7816164E-02  0.1184000E+00
        -11   -1    0    0    0    0  0.00000000000E+00  0.00000000000E+00  0.45593999997E+02  0.45594000000E+02  0.51100000000E-03 0. -1.
         11   -1    0    0    0    0 -0.00000000000E+00 -0.00000000000E+00 -0.45593999997E+02  0.45594000000E+02  0.51100000000E-03 0.  1.
         23    2    1    2    0    0 -0.35527136788E-14  0.00000000000E+00  0.00000000000E+00  0.91188000000E+02  0.91188000000E+02 0.  0.
    9900012    2    3    3    0    0 -0.19600883327E+02  0.60047015754E+01 -0.30586396901E+02  0.54367099093E+02  0.40000034003E+02 0.  0.
         12    1    3    3    0    0  0.19600883327E+02 -0.60047015754E+01  0.30586396901E+02  0.36820900907E+02  0.00000000000E+00 0. -1.
         11    1    4    4    0    0 -0.79154981486E+01 -0.99642727607E+01 -0.15503393428E+02  0.20057344057E+02  0.51100000000E-03 0. -1.
        -11    1    4    4    0    0  0.28270996211E+01 -0.44119948020E+01 -0.29941823145E+00  0.52486038085E+01  0.51100000000E-03 0.  1.
        -12    1    4    4    0    0 -0.14512484799E+02  0.20380969138E+02 -0.14783585242E+02  0.29061151227E+02  0.00000000000E+00 0.  1.
</event>
<event>
 8    1  0.1290800E-006  0.9118800E+02  0.7816164E-02  0.1184000E+00
        -11   -1    0    0    0    0  0.00000000000E+00  0.00000000000E+00  0.45593999997E+02  0.45594000000E+02  0.51100000000E-03 0.  1.
         11   -1    0    0    0    0 -0.00000000000E+00 -0.00000000000E+00 -0.45593999997E+02  0.45594000000E+02  0.51100000000E-03 0. -1.
         23    2    1    2    0    0  0.00000000000E+00  0.00000000000E+00 -0.17763568394E-14  0.91188000000E+02  0.91188000000E+02 0.  0.
    9900012    2    3    3    0    0 -0.87174988451E+01 -0.35184708504E+02 -0.64669194981E+01  0.54367088192E+02  0.40000009151E+02 0.  0.
         12    1    3    3    0    0  0.87174988451E+01  0.35184708504E+02  0.64669194981E+01  0.36820911808E+02  0.00000000000E+00 0. -1.
         11    1    4    4    0    0 -0.12136138805E+02 -0.17187038344E+02 -0.92443536465E+01  0.22981258163E+02  0.51100000000E-03 0. -1.
        -11    1    4    4    0    0 -0.91473051177E+01 -0.14066347223E+01 -0.30983335299E+01  0.97596866282E+01  0.51100000000E-03 0.  1.
        -12    1    4    4    0    0  0.12565945078E+02 -0.16591035437E+02  0.58757676783E+01  0.21626143400E+02  0.00000000000E+00 0.  1.
</event>
<event>
 8    1  0.1290800E-006  0.9118800E+02  0.7816164E-02  0.1184000E+00
        -11   -1    0    0    0    0  0.00000000000E+00  0.00000000000E+00  0.45593999997E+02  0.45594000000E+02  0.51100000000E-03 0.  1.
         11   -1    0    0    0    0 -0.00000000000E+00 -0.00000000000E+00 -0.45593999997E+02  0.45594000000E+02  0.51100000000E-03 0. -1.
         23    2    1    2    0    0  0.35527136788E-14  0.00000000000E+00  0.88817841970E-15  0.91188000000E+02  0.91188000000E+02 0.  0.
    9900012    2    3    3    0    0  0.14367131382E+02 -0.33480062774E+02 -0.53339105686E+01  0.54367086521E+02  0.40000005341E+02 0.  0.
        -12    1    3    3    0    0 -0.14367131382E+02  0.33480062774E+02  0.53339105686E+01  0.36820913479E+02  0.00000000000E+00 0.  1.
         11    1    4    4    0    0  0.23185787495E+02 -0.19781363720E+02 -0.85390436970E+01  0.31651198396E+02  0.51100000000E-03 0. -1.
        -11    1    4    4    0    0 -0.79436453008E+00 -0.14381791264E+02  0.26319438575E+01  0.14642201463E+02  0.51100000000E-03 0.  1.
        -12    1    4    4    0    0 -0.80242915826E+01  0.68309220948E+00  0.57318927092E+00  0.80736866615E+01  0.00000000000E+00 0.  1.
</event>
<event>
 8    1  0.1290800E-006  0.9118800E+02  0.7816164E-02  0.1184000E+00
        -11   -1    0    0    0    0  0.00000000000E+00  0.00000000000E+00  0.45593999997E+02  0.45594000000E+02  0.51100000000E-03 0. -1.
         11   -1    0    0    0    0 -0.00000000000E+00 -0.00000000000E+00 -0.45593999997E+02  0.45594000000E+02  0.51100000000E-03 0.  1.
         23    2    1    2    0    0  0.00000000000E+00 -0.35527136788E-14  0.00000000000E+00  0.91188000000E+02  0.91188000000E+02 0.  0.
    9900012    2    3    3    0    0 -0.19887144252E+02 -0.25027305653E+02  0.18273417193E+02  0.54367050654E+02  0.39999923577E+02 0.  0.
        -12    1    3    3    0    0  0.19887144252E+02  0.25027305653E+02 -0.18273417193E+02  0.36820949346E+02  0.00000000000E+00 0.  1.
         11    1    4    4    0    0 -0.15073635630E+02 -0.82217865963E+01  0.71309165960E+01  0.18591993914E+02  0.51100000000E-03 0. -1.
        -11    1    4    4    0    0 -0.12567245419E+02 -0.61954606433E+01  0.16444765056E+02  0.21604390480E+02  0.51100000000E-03 0.  1.
        -12    1    4    4    0    0  0.77537367971E+01 -0.10610058414E+02 -0.53022644585E+01  0.14170666260E+02  0.00000000000E+00 0.  1.
</event>
<event>
 8    1  0.1290800E-006  0.9118800E+02  0.7816164E-02  0.1184000E+00
        -11   -1    0    0    0    0  0.00000000000E+00  0.00000000000E+00  0.45593999997E+02  0.45594000000E+02  0.51100000000E-03 0.  1.
         11   -1    0    0    0    0 -0.00000000000E+00 -0.00000000000E+00 -0.45593999997E+02  0.45594000000E+02  0.51100000000E-03 0. -1.
         23    2    1    2    0    0  0.00000000000E+00  0.35527136788E-14 -0.35527136788E-14  0.91188000000E+02  0.91188000000E+02 0.  0.
    9900012    2    3    3    0    0  0.14333518773E+02 -0.24598708841E+02  0.23350236339E+02  0.54367085099E+02  0.40000002100E+02 0.  0.
         12    1    3    3    0    0 -0.14333518773E+02  0.24598708841E+02 -0.23350236339E+02  0.36820914901E+02  0.00000000000E+00 0. -1.
         11    1    4    4    0    0  0.43434245741E+01 -0.42157873081E+01  0.23824212362E+02  0.24581116626E+02  0.51100000000E-03 0.  1.
        -11    1    4    4    0    0  0.14803673546E+01  0.18909693441E+01  0.47984852686E+01  0.53658842420E+01  0.51100000000E-03 0. -1.
         12    1    4    4    0    0  0.85097268446E+01 -0.22273890877E+02 -0.52724612918E+01  0.24420084231E+02  0.00000000000E+00 0. -1.
</event>
<event>
 8    1  0.1290800E-006  0.9118800E+02  0.7816164E-02  0.1184000E+00
        -11   -1    0    0    0    0  0.00000000000E+00  0.00000000000E+00  0.45593999997E+02  0.45594000000E+02  0.51100000000E-03 0. -1.
         11   -1    0    0    0    0 -0.00000000000E+00 -0.00000000000E+00 -0.45593999997E+02  0.45594000000E+02  0.51100000000E-03 0.  1.
         23    2    1    2    0    0 -0.35527136788E-14  0.00000000000E+00  0.22204460493E-15  0.91188000000E+02  0.91188000000E+02 0.  0.
    9900012    2    3    3    0    0  0.20790006329E+02 -0.30380631161E+02  0.75600884887E+00  0.54367100198E+02  0.40000036520E+02 0.  0.
        -12    1    3    3    0    0 -0.20790006329E+02  0.30380631161E+02 -0.75600884887E+00  0.36820899802E+02  0.00000000000E+00 0.  1.
         11    1    4    4    0    0  0.19500210252E+02 -0.62450998081E+01  0.32293061573E+01  0.20728914347E+02  0.51100000000E-03 0. -1.
        -11    1    4    4    0    0 -0.29613720685E+01  0.23277359026E+00 -0.77898024458E+01  0.83369617054E+01  0.51100000000E-03 0.  1.
         12    1    4    4    0    0  0.42511681462E+01 -0.24368304943E+02  0.53165051373E+01  0.25301224146E+02  0.00000000000E+00 0. -1.
</event>
<event>
 8    1  0.1290800E-006  0.9118800E+02  0.7816164E-02  0.1184000E+00
        -11   -1    0    0    0    0  0.00000000000E+00  0.00000000000E+00  0.45593999997E+02  0.45594000000E+02  0.51100000000E-03 0.  1.
         11   -1    0    0    0    0 -0.00000000000E+00 -0.00000000000E+00 -0.45593999997E+02  0.45594000000E+02  0.51100000000E-03 0. -1.
         23    2    1    2    0    0  0.00000000000E+00  0.00000000000E+00  0.00000000000E+00  0.91188000000E+02  0.91188000000E+02 0.  0.
    9900012    2    3    3    0    0  0.13676909385E+02 -0.25011431488E+02  0.23305593928E+02  0.54367078451E+02  0.39999986944E+02 0.  0.
         12    1    3    3    0    0 -0.13676909385E+02  0.25011431488E+02 -0.23305593928E+02  0.36820921549E+02  0.00000000000E+00 0. -1.
         11    1    4    4    0    0  0.20591447308E+01 -0.18914971683E+01 -0.27779382252E+01  0.39414184762E+01  0.51100000000E-03 0. -1.
        -11    1    4    4    0    0 -0.30610508678E+01 -0.27249495059E+02  0.13058950600E+02  0.30371717179E+02  0.51100000000E-03 0.  1.
        -12    1    4    4    0    0  0.14678815522E+02  0.41295607391E+01  0.13024581553E+02  0.20053942795E+02  0.00000000000E+00 0.  1.
</event>
<event>
 8    1  0.1290800E-006  0.9118800E+02  0.7816164E-02  0.1184000E+00
        -11   -1    0    0    0    0  0.00000000000E+00  0.00000000000E+00  0.45593999997E+02  0.45594000000E+02  0.51100000000E-03 0.  1.
         11   -1    0    0    0    0 -0.00000000000E+00 -0.00000000000E+00 -0.45593999997E+02  0.45594000000E+02  0.51100000000E-03 0. -1.
         23    2    1    2    0    0 -0.17763568394E-14  0.17763568394E-14  0.00000000000E+00  0.91188000000E+02  0.91188000000E+02 0.  0.
    9900012    2    3    3    0    0 -0.70198306118E+01 -0.14172276857E+02 -0.33251318099E+02  0.54367060190E+02  0.39999945316E+02 0.  0.
        -12    1    3    3    0    0  0.70198306118E+01  0.14172276857E+02  0.33251318099E+02  0.36820939810E+02  0.00000000000E+00 0.  1.
         11    1    4    4    0    0 -0.12772482834E+02 -0.12949995047E+01 -0.22330539732E+01  0.13030727983E+02  0.51100000000E-03 0. -1.
        -11    1    4    4    0    0  0.47885651627E+00  0.68684529998E+01 -0.77408726407E+01  0.10359829133E+02  0.51100000000E-03 0.  1.
         12    1    4    4    0    0  0.52737957062E+01 -0.19745730352E+02 -0.23277391485E+02  0.30976503073E+02  0.00000000000E+00 0. -1.
</event>
<event>
 8    1  0.1290800E-006  0.9118800E+02  0.7816164E-02  0.1184000E+00
        -11   -1    0    0    0    0  0.00000000000E+00  0.00000000000E+00  0.45593999997E+02  0.45594000000E+02  0.51100000000E-03 0. -1.
         11   -1    0    0    0    0 -0.00000000000E+00 -0.00000000000E+00 -0.45593999997E+02  0.45594000000E+02  0.51100000000E-03 0.  1.
         23    2    1    2    0    0  0.00000000000E+00 -0.17763568394E-14  0.00000000000E+00  0.91188000000E+02  0.91188000000E+02 0.  0.
    9900012    2    3    3    0    0 -0.27671678301E+02  0.15621108262E+02 -0.18602160809E+02  0.54367065872E+02  0.39999958268E+02 0.  0.
         12    1    3    3    0    0  0.27671678301E+02 -0.15621108262E+02  0.18602160809E+02  0.36820934128E+02  0.00000000000E+00 0. -1.
         11    1    4    4    0    0 -0.73368726382E+01  0.16918046547E+02 -0.27813258215E+01  0.18649015327E+02  0.51100000000E-03 0. -1.
        -11    1    4    4    0    0 -0.13265338642E+02 -0.49795884234E+01  0.36899472692E+01  0.14641762915E+02  0.51100000000E-03 0.  1.
        -12    1    4    4    0    0 -0.70694670208E+01  0.36826501387E+01 -0.19510782257E+02  0.21076287630E+02  0.00000000000E+00 0.  1.
</event>
<event>
 8    1  0.1290800E-006  0.9118800E+02  0.7816164E-02  0.1184000E+00
        -11   -1    0    0    0    0  0.00000000000E+00  0.00000000000E+00  0.45593999997E+02  0.45594000000E+02  0.51100000000E-03 0. -1.
         11   -1    0    0    0    0 -0.00000000000E+00 -0.00000000000E+00 -0.45593999997E+02  0.45594000000E+02  0.51100000000E-03 0.  1.
         23    2    1    2    0    0 -0.44408920985E-15  0.00000000000E+00  0.35527136788E-14  0.91188000000E+02  0.91188000000E+02 0.  0.
    9900012    2    3    3    0    0  0.16926705987E+01  0.23436404064E+02 -0.28348729579E+02  0.54367073369E+02  0.39999975359E+02 0.  0.
         12    1    3    3    0    0 -0.16926705987E+01 -0.23436404064E+02  0.28348729579E+02  0.36820926631E+02  0.00000000000E+00 0. -1.
         11    1    4    4    0    0 -0.16815302963E+02  0.81154005141E+01 -0.11283303303E+02  0.21815752862E+02  0.51100000000E-03 0. -1.
        -11    1    4    4    0    0 -0.16811214376E+01  0.44811477367E+01 -0.34004797075E+01  0.58711256866E+01  0.51100000000E-03 0.  1.
         12    1    4    4    0    0  0.20189094999E+02  0.10839855813E+02 -0.13664946569E+02  0.26680194821E+02  0.00000000000E+00 0. -1.
</event>
<event>
 8    1  0.1290800E-006  0.9118800E+02  0.7816164E-02  0.1184000E+00
        -11   -1    0    0    0    0  0.00000000000E+00  0.00000000000E+00  0.45593999997E+02  0.45594000000E+02  0.51100000000E-03 0. -1.
         11   -1    0    0    0    0 -0.00000000000E+00 -0.00000000000E+00 -0.45593999997E+02  0.45594000000E+02  0.51100000000E-03 0.  1.
         23    2    1    2    0    0 -0.17763568394E-14 -0.13322676296E-14  0.00000000000E+00  0.91188000000E+02  0.91188000000E+02 0.  0.
    9900012    2    3    3    0    0 -0.69382827232E+01  0.17909507757E+01 -0.36116926051E+02  0.54367087203E+02  0.40000006896E+02 0.  0.
         12    1    3    3    0    0  0.69382827232E+01 -0.17909507757E+01  0.36116926051E+02  0.36820912797E+02  0.00000000000E+00 0. -1.
         11    1    4    4    0    0 -0.10599795722E+02  0.13637505627E+02 -0.18782869616E+02  0.25517316088E+02  0.51100000000E-03 0. -1.
        -11    1    4    4    0    0 -0.46754882766E+01  0.32709274221E+01 -0.54523048877E+01  0.78921977721E+01  0.51100000000E-03 0.  1.
        -12    1    4    4    0    0  0.83370012757E+01 -0.15117482273E+02 -0.11881751548E+02  0.20957573342E+02  0.00000000000E+00 0.  1.
</event>
<event>
 8    1  0.1290800E-006  0.9118800E+02  0.7816164E-02  0.1184000E+00
        -11   -1    0    0    0    0  0.00000000000E+00  0.00000000000E+00  0.45593999997E+02  0.45594000000E+02  0.51100000000E-03 0.  1.
         11   -1    0    0    0    0 -0.00000000000E+00 -0.00000000000E+00 -0.45593999997E+02  0.45594000000E+02  0.51100000000E-03 0. -1.
         23    2    1    2    0    0 -0.71054273576E-14  0.35527136788E-14  0.13322676296E-14  0.91188000000E+02  0.91188000000E+02 0.  0.
    9900012    2    3    3    0    0 -0.25846527764E+02  0.25998707924E+02  0.34355294992E+01  0.54367100037E+02  0.40000036153E+02 0.  0.
        -12    1    3    3    0    0  0.25846527764E+02 -0.25998707924E+02 -0.34355294992E+01  0.36820899963E+02  0.00000000000E+00 0.  1.
         11    1    4    4    0    0 -0.16949332243E+02  0.10343032828E+02 -0.57297934849E+01  0.20666125065E+02  0.51100000000E-03 0. -1.
        -11    1    4    4    0    0 -0.26153505638E+01  0.13082075753E+02 -0.77818665267E+01  0.15444682304E+02  0.51100000000E-03 0.  1.
        -12    1    4    4    0    0 -0.62818449580E+01  0.25735993430E+01  0.16947189511E+02  0.18256292668E+02  0.00000000000E+00 0.  1.
</event>
<event>
 8    1  0.1290800E-006  0.9118800E+02  0.7816164E-02  0.1184000E+00
        -11   -1    0    0    0    0  0.00000000000E+00  0.00000000000E+00  0.45593999997E+02  0.45594000000E+02  0.51100000000E-03 0.  1.
         11   -1    0    0    0    0 -0.00000000000E+00 -0.00000000000E+00 -0.45593999997E+02  0.45594000000E+02  0.51100000000E-03 0. -1.
         23    2    1    2    0    0  0.00000000000E+00 -0.17763568394E-14 -0.71054273576E-14  0.91188000000E+02  0.91188000000E+02 0.  0.
    9900012    2    3    3    0    0 -0.16214190044E+02  0.15127685415E+02 -0.29394480058E+02  0.54367051035E+02  0.39999924444E+02 0.  0.
        -12    1    3    3    0    0  0.16214190044E+02 -0.15127685415E+02  0.29394480058E+02  0.36820948965E+02  0.00000000000E+00 0.  1.
         11    1    4    4    0    0 -0.11015229528E+01  0.49912219528E+01 -0.34131683744E+02  0.34512280203E+02  0.51100000000E-03 0. -1.
        -11    1    4    4    0    0 -0.11184962088E+02  0.37926753454E+01  0.25974851957E+01  0.12092753730E+02  0.51100000000E-03 0.  1.
         12    1    4    4    0    0 -0.39277050039E+01  0.63437881165E+01  0.21397184895E+01  0.77620171012E+01  0.00000000000E+00 0. -1.
</event>
<event>
 8    1  0.1290800E-006  0.9118800E+02  0.7816164E-02  0.1184000E+00
        -11   -1    0    0    0    0  0.00000000000E+00  0.00000000000E+00  0.45593999997E+02  0.45594000000E+02  0.51100000000E-03 0.  1.
         11   -1    0    0    0    0 -0.00000000000E+00 -0.00000000000E+00 -0.45593999997E+02  0.45594000000E+02  0.51100000000E-03 0. -1.
         23    2    1    2    0    0  0.00000000000E+00  0.00000000000E+00 -0.35527136788E-14  0.91188000000E+02  0.91188000000E+02 0.  0.
    9900012    2    3    3    0    0  0.17436094383E+02  0.11116738534E+02  0.30466040912E+02  0.54367096809E+02  0.40000028795E+02 0.  0.
         12    1    3    3    0    0 -0.17436094383E+02 -0.11116738534E+02 -0.30466040912E+02  0.36820903191E+02  0.00000000000E+00 0. -1.
         11    1    4    4    0    0  0.13335177016E+01 -0.79809411291E+01 -0.29135876717E+01  0.86001560537E+01  0.51100000000E-03 0. -1.
        -11    1    4    4    0    0  0.43846921368E+01  0.60137411257E+01  0.25413261522E+02  0.26480643288E+02  0.51100000000E-03 0.  1.
        -12    1    4    4    0    0  0.11717884545E+02  0.13083938538E+02  0.79663670608E+01  0.19286297468E+02  0.00000000000E+00 0.  1.
</event>
<event>
 8    1  0.1290800E-006  0.9118800E+02  0.7816164E-02  0.1184000E+00
        -11   -1    0    0    0    0  0.00000000000E+00  0.00000000000E+00  0.45593999997E+02  0.45594000000E+02  0.51100000000E-03 0. -1.
         11   -1    0    0    0    0 -0.00000000000E+00 -0.00000000000E+00 -0.45593999997E+02  0.45594000000E+02  0.51100000000E-03 0.  1.
         23    2    1    2    0    0  0.35527136788E-14 -0.35527136788E-14 -0.35527136788E-14  0.91188000000E+02  0.91188000000E+02 0.  0.
    9900012    2    3    3    0    0  0.24212111039E+02 -0.16268903987E+02 -0.22469463334E+02  0.54367077409E+02  0.39999984570E+02 0.  0.
         12    1    3    3    0    0 -0.24212111039E+02  0.16268903987E+02  0.22469463334E+02  0.36820922591E+02  0.00000000000E+00 0. -1.
         11    1    4    4    0    0  0.49170074954E+01  0.50963582851E+01 -0.50550629734E+01  0.87007753911E+01  0.51100000000E-03 0. -1.
        -11    1    4    4    0    0  0.21187172565E+01 -0.17892083065E+02  0.35279858163E+01  0.18359256069E+02  0.51100000000E-03 0.  1.
         12    1    4    4    0    0  0.17176386287E+02 -0.34731792068E+01 -0.20942386177E+02  0.27307045949E+02  0.00000000000E+00 0. -1.
</event>
<event>
 8    1  0.1290800E-006  0.9118800E+02  0.7816164E-02  0.1184000E+00
        -11   -1    0    0    0    0  0.00000000000E+00  0.00000000000E+00  0.45593999997E+02  0.45594000000E+02  0.51100000000E-03 0.  1.
         11   -1    0    0    0    0 -0.00000000000E+00 -0.00000000000E+00 -0.45593999997E+02  0.45594000000E+02  0.51100000000E-03 0. -1.
         23    2    1    2    0    0 -0.88817841970E-15  0.00000000000E+00  0.00000000000E+00  0.91188000000E+02  0.91188000000E+02 0.  0.
    9900012    2    3    3    0    0 -0.39591846920E+01  0.21095045806E+02 -0.29918300837E+02  0.54367070816E+02  0.39999969539E+02 0.  0.
        -12    1    3    3    0    0  0.39591846920E+01 -0.21095045806E+02  0.29918300837E+02  0.36820929184E+02  0.00000000000E+00 0.  1.
         11    1    4    4    0    0  0.84765306493E+01  0.27854790814E+01  0.36931695591E+01  0.96566022603E+01  0.51100000000E-03 0. -1.
        -11    1    4    4    0    0 -0.57039755378E+01 -0.12460727322E+01 -0.17635255598E+02  0.18576605569E+02  0.51100000000E-03 0.  1.
         12    1    4    4    0    0 -0.67317398034E+01  0.19555639457E+02 -0.15976214799E+02  0.26133862987E+02  0.00000000000E+00 0. -1.
</event>
<event>
 8    1  0.1290800E-006  0.9118800E+02  0.7816164E-02  0.1184000E+00
        -11   -1    0    0    0    0  0.00000000000E+00  0.00000000000E+00  0.45593999997E+02  0.45594000000E+02  0.51100000000E-03 0.  1.
         11   -1    0    0    0    0 -0.00000000000E+00 -0.00000000000E+00 -0.45593999997E+02  0.45594000000E+02  0.51100000000E-03 0. -1.
         23    2    1    2    0    0  0.00000000000E+00  0.88817841970E-15  0.71054273576E-14  0.91188000000E+02  0.91188000000E+02 0.  0.
    9900012    2    3    3    0    0 -0.41227358795E+01  0.42297495752E+01  0.36344078840E+02  0.54367084757E+02  0.40000001321E+02 0.  0.
         12    1    3    3    0    0  0.41227358795E+01 -0.42297495752E+01 -0.36344078840E+02  0.36820915243E+02  0.00000000000E+00 0. -1.
         11    1    4    4    0    0 -0.10061943346E+02  0.84977020657E+01 -0.31086377042E+00  0.13173848369E+02  0.51100000000E-03 0. -1.
        -11    1    4    4    0    0 -0.23816600779E+01  0.28568782093E+01  0.94039461681E+00  0.38364567150E+01  0.51100000000E-03 0.  1.
        -12    1    4    4    0    0  0.83208675444E+01 -0.71248306998E+01  0.35714547993E+02  0.37356779673E+02  0.00000000000E+00 0.  1.
</event>
<event>
 8    1  0.1290800E-006  0.9118800E+02  0.7816164E-02  0.1184000E+00
        -11   -1    0    0    0    0  0.00000000000E+00  0.00000000000E+00  0.45593999997E+02  0.45594000000E+02  0.51100000000E-03 0.  1.
         11   -1    0    0    0    0 -0.00000000000E+00 -0.00000000000E+00 -0.45593999997E+02  0.45594000000E+02  0.51100000000E-03 0. -1.
         23    2    1    2    0    0 -0.71054273576E-14 -0.88817841970E-15  0.00000000000E+00  0.91188000000E+02  0.91188000000E+02 0.  0.
    9900012    2    3    3    0    0  0.20839472932E+02  0.36582112037E+01  0.30134923355E+02  0.54367085469E+02  0.40000002943E+02 0.  0.
         12    1    3    3    0    0 -0.20839472932E+02 -0.36582112037E+01 -0.30134923355E+02  0.36820914531E+02  0.00000000000E+00 0. -1.
         11    1    4    4    0    0  0.55732484987E+00 -0.16468726986E+01  0.30797767287E+01  0.35366404444E+01  0.51100000000E-03 0. -1.
        -11    1    4    4    0    0 -0.14220375282E+00 -0.32850694458E+01  0.28440456596E+02  0.28629905253E+02  0.51100000000E-03 0.  1.
         12    1    4    4    0    0  0.20424351835E+02  0.85901533481E+01 -0.13853099688E+01  0.22200539771E+02  0.00000000000E+00 0. -1.
</event>
<event>
 8    1  0.1290800E-006  0.9118800E+02  0.7816164E-02  0.1184000E+00
        -11   -1    0    0    0    0  0.00000000000E+00  0.00000000000E+00  0.45593999997E+02  0.45594000000E+02  0.51100000000E-03 0.  1.
         11   -1    0    0    0    0 -0.00000000000E+00 -0.00000000000E+00 -0.45593999997E+02  0.45594000000E+02  0.51100000000E-03 0. -1.
         23    2    1    2    0    0 -0.36082248300E-15  0.22204460493E-15  0.00000000000E+00  0.91188000000E+02  0.91188000000E+02 0.  0.
    9900012    2    3    3    0    0  0.17825399305E+00  0.15831323703E+01 -0.36786449401E+02  0.54367069239E+02  0.39999965943E+02 0.  0.
        -12    1    3    3    0    0 -0.17825399305E+00 -0.15831323703E+01  0.36786449401E+02  0.36820930761E+02  0.00000000000E+00 0.  1.
         11    1    4    4    0    0  0.10783991312E+02  0.17433555158E+01 -0.28647478387E+02  0.30659611466E+02  0.51100000000E-03 0. -1.
        -11    1    4    4    0    0  0.40673364537E+01 -0.26614805265E+01  0.24473094968E+01  0.54420610484E+01  0.51100000000E-03 0.  1.
         12    1    4    4    0    0 -0.14673073773E+02  0.25012573810E+01 -0.10586280511E+02  0.18265396724E+02  0.00000000000E+00 0. -1.
</event>
<event>
 8    1  0.1290800E-006  0.9118800E+02  0.7816164E-02  0.1184000E+00
        -11   -1    0    0    0    0  0.00000000000E+00  0.00000000000E+00  0.45593999997E+02  0.45594000000E+02  0.51100000000E-03 0.  1.
         11   -1    0    0    0    0 -0.00000000000E+00 -0.00000000000E+00 -0.45593999997E+02  0.45594000000E+02  0.51100000000E-03 0. -1.
         23    2    1    2    0    0  0.00000000000E+00 -0.17763568394E-14  0.71054273576E-14  0.91188000000E+02  0.91188000000E+02 0.  0.
    9900012    2    3    3    0    0  0.22623435282E+02 -0.15062568810E+02 -0.24841076312E+02  0.54367083724E+02  0.39999998965E+02 0.  0.
        -12    1    3    3    0    0 -0.22623435282E+02  0.15062568810E+02  0.24841076312E+02  0.36820916276E+02  0.00000000000E+00 0.  1.
         11    1    4    4    0    0  0.13851322124E+02 -0.62191619798E+01 -0.91594662901E+01  0.17732256577E+02  0.51100000000E-03 0. -1.
        -11    1    4    4    0    0 -0.56900262485E+01  0.84788328458E+01 -0.73449456298E+01  0.12578363634E+02  0.51100000000E-03 0.  1.
        -12    1    4    4    0    0  0.14462139406E+02 -0.17322239676E+02 -0.83366643922E+01  0.24056463513E+02  0.00000000000E+00 0.  1.
</event>
<event>
 8    1  0.1290800E-006  0.9118800E+02  0.7816164E-02  0.1184000E+00
        -11   -1    0    0    0    0  0.00000000000E+00  0.00000000000E+00  0.45593999997E+02  0.45594000000E+02  0.51100000000E-03 0. -1.
         11   -1    0    0    0    0 -0.00000000000E+00 -0.00000000000E+00 -0.45593999997E+02  0.45594000000E+02  0.51100000000E-03 0.  1.
         23    2    1    2    0    0 -0.17763568394E-14  0.17763568394E-14  0.00000000000E+00  0.91188000000E+02  0.91188000000E+02 0.  0.
    9900012    2    3    3    0    0  0.66627343488E+01 -0.12059597804E+02 -0.34146069206E+02  0.54367082434E+02  0.39999996025E+02 0.  0.
         12    1    3    3    0    0 -0.66627343488E+01  0.12059597804E+02  0.34146069206E+02  0.36820917566E+02  0.00000000000E+00 0. -1.
         11    1    4    4    0    0  0.17336840550E+01 -0.11940568398E+02 -0.16902344864E+02  0.20767091666E+02  0.51100000000E-03 0. -1.
        -11    1    4    4    0    0  0.13960750981E+02  0.79377445440E+01 -0.13356764941E+02  0.20888119263E+02  0.51100000000E-03 0.  1.
        -12    1    4    4    0    0 -0.90317006873E+01 -0.80567739497E+01 -0.38869594002E+01  0.12711871505E+02  0.00000000000E+00 0.  1.
</event>
<event>
 8    1  0.1290800E-006  0.9118800E+02  0.7816164E-02  0.1184000E+00
        -11   -1    0    0    0    0  0.00000000000E+00  0.00000000000E+00  0.45593999997E+02  0.45594000000E+02  0.51100000000E-03 0.  1.
         11   -1    0    0    0    0 -0.00000000000E+00 -0.00000000000E+00 -0.45593999997E+02  0.45594000000E+02  0.51100000000E-03 0. -1.
         23    2    1    2    0    0 -0.35527136788E-14  0.44408920985E-15  0.00000000000E+00  0.91188000000E+02  0.91188000000E+02 0.  0.
    9900012    2    3    3    0    0 -0.20329391936E+02  0.23728783098E+01  0.30608255690E+02  0.54367081430E+02  0.39999993736E+02 0.  0.
         12    1    3    3    0    0  0.20329391936E+02 -0.23728783098E+01 -0.30608255690E+02  0.36820918570E+02  0.00000000000E+00 0. -1.
         11    1    4    4    0    0  0.24995984778E+01  0.77353631353E+01  0.16718554243E+02  0.18590155772E+02  0.51100000000E-03 0. -1.
        -11    1    4    4    0    0 -0.15319661155E+02  0.45747128219E+01  0.16581411405E+02  0.23033957970E+02  0.51100000000E-03 0.  1.
         12    1    4    4    0    0 -0.75093292594E+01 -0.99371976474E+01 -0.26917099583E+01  0.12742967689E+02  0.00000000000E+00 0. -1.
</event>
<event>
 8    1  0.1290800E-006  0.9118800E+02  0.7816164E-02  0.1184000E+00
        -11   -1    0    0    0    0  0.00000000000E+00  0.00000000000E+00  0.45593999997E+02  0.45594000000E+02  0.51100000000E-03 0.  1.
         11   -1    0    0    0    0 -0.00000000000E+00 -0.00000000000E+00 -0.45593999997E+02  0.45594000000E+02  0.51100000000E-03 0. -1.
         23    2    1    2    0    0 -0.35527136788E-14  0.00000000000E+00  0.11102230246E-14  0.91188000000E+02  0.91188000000E+02 0.  0.
    9900012    2    3    3    0    0 -0.98542779481E+01  0.35434536879E+02  0.17523256725E+01  0.54367029847E+02  0.39999876143E+02 0.  0.
        -12    1    3    3    0    0  0.98542779481E+01 -0.35434536879E+02 -0.17523256725E+01  0.36820970153E+02  0.00000000000E+00 0.  1.
         11    1    4    4    0    0 -0.12063224817E+02  0.29355417738E+02  0.25904968824E+01  0.31842936704E+02  0.51100000000E-03 0. -1.
        -11    1    4    4    0    0  0.58031632973E+01  0.23160272681E+01  0.92559865923E+01  0.11167541118E+02  0.51100000000E-03 0.  1.
        -12    1    4    4    0    0 -0.35942164283E+01  0.37630918734E+01 -0.10094157802E+02  0.11356552026E+02  0.00000000000E+00 0.  1.
</event>
<event>
 8    1  0.1290800E-006  0.9118800E+02  0.7816164E-02  0.1184000E+00
        -11   -1    0    0    0    0  0.00000000000E+00  0.00000000000E+00  0.45593999997E+02  0.45594000000E+02  0.51100000000E-03 0.  1.
         11   -1    0    0    0    0 -0.00000000000E+00 -0.00000000000E+00 -0.45593999997E+02  0.45594000000E+02  0.51100000000E-03 0. -1.
         23    2    1    2    0    0  0.00000000000E+00  0.00000000000E+00  0.17763568394E-14  0.91188000000E+02  0.91188000000E+02 0.  0.
    9900012    2    3    3    0    0 -0.33650703325E+02  0.66642508707E+01  0.13379102915E+02  0.54367048508E+02  0.39999918684E+02 0.  0.
         12    1    3    3    0    0  0.33650703325E+02 -0.66642508707E+01 -0.13379102915E+02  0.36820951492E+02  0.00000000000E+00 0. -1.
         11    1    4    4    0    0 -0.21530207974E+02  0.87315618906E+01 -0.11541361177E+02  0.25942109523E+02  0.51100000000E-03 0. -1.
        -11    1    4    4    0    0 -0.67697424847E+01 -0.38619832356E+01  0.11793224870E+02  0.14135928725E+02  0.51100000000E-03 0.  1.
         12    1    4    4    0    0 -0.53507528668E+01  0.17946722157E+01  0.13127239222E+02  0.14289010260E+02  0.00000000000E+00 0. -1.
</event>
<event>
 8    1  0.1290800E-006  0.9118800E+02  0.7816164E-02  0.1184000E+00
        -11   -1    0    0    0    0  0.00000000000E+00  0.00000000000E+00  0.45593999997E+02  0.45594000000E+02  0.51100000000E-03 0. -1.
         11   -1    0    0    0    0 -0.00000000000E+00 -0.00000000000E+00 -0.45593999997E+02  0.45594000000E+02  0.51100000000E-03 0.  1.
         23    2    1    2    0    0  0.35527136788E-14  0.00000000000E+00  0.00000000000E+00  0.91188000000E+02  0.91188000000E+02 0.  0.
    9900012    2    3    3    0    0 -0.24746541463E+02 -0.27053005361E+02 -0.33946914901E+01  0.54367077364E+02  0.39999984467E+02 0.  0.
        -12    1    3    3    0    0  0.24746541463E+02  0.27053005361E+02  0.33946914901E+01  0.36820922636E+02  0.00000000000E+00 0.  1.
         11    1    4    4    0    0 -0.67046452524E+01 -0.27209251284E+02  0.53097131622E+01  0.28521722906E+02  0.51100000000E-03 0. -1.
        -11    1    4    4    0    0 -0.62636268462E+01  0.12021606223E+01  0.47358073292E+01  0.79439337076E+01  0.51100000000E-03 0.  1.
        -12    1    4    4    0    0 -0.11778269365E+02 -0.10459146991E+01 -0.13440211982E+02  0.17901420751E+02  0.00000000000E+00 0.  1.
</event>
<event>
 8    1  0.1290800E-006  0.9118800E+02  0.7816164E-02  0.1184000E+00
        -11   -1    0    0    0    0  0.00000000000E+00  0.00000000000E+00  0.45593999997E+02  0.45594000000E+02  0.51100000000E-03 0. -1.
         11   -1    0    0    0    0 -0.00000000000E+00 -0.00000000000E+00 -0.45593999997E+02  0.45594000000E+02  0.51100000000E-03 0.  1.
         23    2    1    2    0    0  0.35527136788E-14  0.35527136788E-14  0.00000000000E+00  0.91188000000E+02  0.91188000000E+02 0.  0.
    9900012    2    3    3    0    0 -0.16035649437E+02  0.28823353339E+02  0.16366153051E+02  0.54367099465E+02  0.40000034850E+02 0.  0.
        -12    1    3    3    0    0  0.16035649437E+02 -0.28823353339E+02 -0.16366153051E+02  0.36820900535E+02  0.00000000000E+00 0.  1.
         11    1    4    4    0    0 -0.16440732651E+02 -0.32238849843E+01  0.47545322563E+01  0.17415415635E+02  0.51100000000E-03 0. -1.
        -11    1    4    4    0    0  0.35063379935E+01  0.29648689321E+02  0.65779834119E+01  0.30571376328E+02  0.51100000000E-03 0.  1.
        -12    1    4    4    0    0 -0.31012547791E+01  0.23985490020E+01  0.50336373826E+01  0.63803075020E+01  0.00000000000E+00 0.  1.
</event>
<event>
 8    1  0.1290800E-006  0.9118800E+02  0.7816164E-02  0.1184000E+00
        -11   -1    0    0    0    0  0.00000000000E+00  0.00000000000E+00  0.45593999997E+02  0.45594000000E+02  0.51100000000E-03 0.  1.
         11   -1    0    0    0    0 -0.00000000000E+00 -0.00000000000E+00 -0.45593999997E+02  0.45594000000E+02  0.51100000000E-03 0. -1.
         23    2    1    2    0    0  0.00000000000E+00  0.00000000000E+00  0.00000000000E+00  0.91188000000E+02  0.91188000000E+02 0.  0.
    9900012    2    3    3    0    0 -0.84894048330E+01 -0.56310302709E+01 -0.35383618881E+02  0.54367095863E+02  0.40000026639E+02 0.  0.
        -12    1    3    3    0    0  0.84894048330E+01  0.56310302709E+01  0.35383618881E+02  0.36820904137E+02  0.00000000000E+00 0.  1.
         11    1    4    4    0    0 -0.13478520606E+02  0.19034049398E+01 -0.78232951186E+01  0.15700236141E+02  0.51100000000E-03 0. -1.
        -11    1    4    4    0    0 -0.53479902766E+01 -0.18825777306E+01  0.26368472530E+01  0.62528443613E+01  0.51100000000E-03 0.  1.
         12    1    4    4    0    0  0.10337106050E+02 -0.56518574802E+01 -0.30197171016E+02  0.32414015361E+02  0.00000000000E+00 0. -1.
</event>
<event>
 8    1  0.1290800E-006  0.9118800E+02  0.7816164E-02  0.1184000E+00
        -11   -1    0    0    0    0  0.00000000000E+00  0.00000000000E+00  0.45593999997E+02  0.45594000000E+02  0.51100000000E-03 0.  1.
         11   -1    0    0    0    0 -0.00000000000E+00 -0.00000000000E+00 -0.45593999997E+02  0.45594000000E+02  0.51100000000E-03 0. -1.
         23    2    1    2    0    0 -0.35527136788E-14 -0.35527136788E-14 -0.35527136788E-14  0.91188000000E+02  0.91188000000E+02 0.  0.
    9900012    2    3    3    0    0 -0.27842353985E+02 -0.16855626909E+02 -0.17218788747E+02  0.54366871285E+02  0.39999514666E+02 0.  0.
        -12    1    3    3    0    0  0.27842353985E+02  0.16855626909E+02  0.17218788747E+02  0.36821128715E+02  0.00000000000E+00 0.  1.
         11    1    4    4    0    0 -0.10616347749E+02  0.44137522807E+01 -0.19102256964E+02  0.22295386745E+02  0.51100000000E-03 0. -1.
        -11    1    4    4    0    0 -0.13425901918E+02 -0.84890851905E+01  0.75457105508E+01  0.17585708904E+02  0.51100000000E-03 0.  1.
        -12    1    4    4    0    0 -0.38001043178E+01 -0.12780293999E+02 -0.56622423333E+01  0.14485775636E+02  0.00000000000E+00 0.  1.
</event>
<event>
 8    1  0.1290800E-006  0.9118800E+02  0.7816164E-02  0.1184000E+00
        -11   -1    0    0    0    0  0.00000000000E+00  0.00000000000E+00  0.45593999997E+02  0.45594000000E+02  0.51100000000E-03 0.  1.
         11   -1    0    0    0    0 -0.00000000000E+00 -0.00000000000E+00 -0.45593999997E+02  0.45594000000E+02  0.51100000000E-03 0. -1.
         23    2    1    2    0    0 -0.35527136788E-14  0.00000000000E+00  0.00000000000E+00  0.91188000000E+02  0.91188000000E+02 0.  0.
    9900012    2    3    3    0    0  0.21506017605E+02 -0.29247318915E+02  0.61535111748E+01  0.54367079904E+02  0.39999990257E+02 0.  0.
         12    1    3    3    0    0 -0.21506017605E+02  0.29247318915E+02 -0.61535111748E+01  0.36820920096E+02  0.00000000000E+00 0. -1.
         11    1    4    4    0    0 -0.88920912489E+00 -0.37448322859E+01 -0.97826429496E+01  0.10512590787E+02  0.51100000000E-03 0. -1.
        -11    1    4    4    0    0  0.75875969644E+01 -0.17953941293E+02  0.18693435794E+02  0.27006669134E+02  0.51100000000E-03 0.  1.
        -12    1    4    4    0    0  0.14807629766E+02 -0.75485453364E+01 -0.27572816698E+01  0.16847819983E+02  0.00000000000E+00 0.  1.
</event>
<event>
 8    1  0.1290800E-006  0.9118800E+02  0.7816164E-02  0.1184000E+00
        -11   -1    0    0    0    0  0.00000000000E+00  0.00000000000E+00  0.45593999997E+02  0.45594000000E+02  0.51100000000E-03 0. -1.
         11   -1    0    0    0    0 -0.00000000000E+00 -0.00000000000E+00 -0.45593999997E+02  0.45594000000E+02  0.51100000000E-03 0.  1.
         23    2    1    2    0    0 -0.35527136788E-14 -0.17763568394E-14  0.00000000000E+00  0.91188000000E+02  0.91188000000E+02 0.  0.
    9900012    2    3    3    0    0 -0.25515731727E+02 -0.13204817966E+02 -0.23029562046E+02  0.54367075091E+02  0.39999979286E+02 0.  0.
         12    1    3    3    0    0  0.25515731727E+02  0.13204817966E+02  0.23029562046E+02  0.36820924909E+02  0.00000000000E+00 0. -1.
         11    1    4    4    0    0 -0.11244990114E+01 -0.10710804094E+02 -0.20540405659E+01  0.10963799764E+02  0.51100000000E-03 0. -1.
        -11    1    4    4    0    0 -0.15938546762E+02 -0.14683692648E+02 -0.18226638444E+02  0.28317105289E+02  0.51100000000E-03 0.  1.
         12    1    4    4    0    0 -0.84526859538E+01  0.12189678776E+02 -0.27488830354E+01  0.15086170039E+02  0.00000000000E+00 0. -1.
</event>
<event>
 8    1  0.1290800E-006  0.9118800E+02  0.7816164E-02  0.1184000E+00
        -11   -1    0    0    0    0  0.00000000000E+00  0.00000000000E+00  0.45593999997E+02  0.45594000000E+02  0.51100000000E-03 0. -1.
         11   -1    0    0    0    0 -0.00000000000E+00 -0.00000000000E+00 -0.45593999997E+02  0.45594000000E+02  0.51100000000E-03 0.  1.
         23    2    1    2    0    0  0.00000000000E+00  0.00000000000E+00  0.00000000000E+00  0.91188000000E+02  0.91188000000E+02 0.  0.
    9900012    2    3    3    0    0  0.27048809278E+02 -0.15746961595E+02  0.19395219764E+02  0.54367089738E+02  0.40000012675E+02 0.  0.
        -12    1    3    3    0    0 -0.27048809278E+02  0.15746961595E+02 -0.19395219764E+02  0.36820910262E+02  0.00000000000E+00 0.  1.
         11    1    4    4    0    0  0.74959255692E+01 -0.18502303374E+02  0.20069039019E+01  0.20063693424E+02  0.51100000000E-03 0. -1.
        -11    1    4    4    0    0  0.12702739637E+02 -0.34885159443E+01 -0.15052269872E+01  0.13258772429E+02  0.51100000000E-03 0.  1.
         12    1    4    4    0    0  0.68501440719E+01  0.62438577227E+01  0.18893542850E+02  0.21044623885E+02  0.00000000000E+00 0. -1.
</event>
<event>
 8    1  0.1290800E-006  0.9118800E+02  0.7816164E-02  0.1184000E+00
        -11   -1    0    0    0    0  0.00000000000E+00  0.00000000000E+00  0.45593999997E+02  0.45594000000E+02  0.51100000000E-03 0.  1.
         11   -1    0    0    0    0 -0.00000000000E+00 -0.00000000000E+00 -0.45593999997E+02  0.45594000000E+02  0.51100000000E-03 0. -1.
         23    2    1    2    0    0 -0.88817841970E-15  0.00000000000E+00  0.00000000000E+00  0.91188000000E+02  0.91188000000E+02 0.  0.
    9900012    2    3    3    0    0  0.56047221991E+01 -0.16017199598E+02  0.32677464170E+02  0.54367078522E+02  0.39999987107E+02 0.  0.
         12    1    3    3    0    0 -0.56047221991E+01  0.16017199598E+02 -0.32677464170E+02  0.36820921478E+02  0.00000000000E+00 0. -1.
         11    1    4    4    0    0 -0.38653290878E+01 -0.99142548859E+01  0.32284285777E+02  0.33992768750E+02  0.51100000000E-03 0. -1.
        -11    1    4    4    0    0 -0.54356320999E-01 -0.45472837173E+01  0.72342656834E+01  0.85449016409E+01  0.51100000000E-03 0.  1.
         12    1    4    4    0    0  0.95244076079E+01 -0.15556609952E+01 -0.68410872904E+01  0.11829408131E+02  0.00000000000E+00 0. -1.
</event>
<event>
 8    1  0.1290800E-006  0.9118800E+02  0.7816164E-02  0.1184000E+00
        -11   -1    0    0    0    0  0.00000000000E+00  0.00000000000E+00  0.45593999997E+02  0.45594000000E+02  0.51100000000E-03 0.  1.
         11   -1    0    0    0    0 -0.00000000000E+00 -0.00000000000E+00 -0.45593999997E+02  0.45594000000E+02  0.51100000000E-03 0. -1.
         23    2    1    2    0    0 -0.17763568394E-14  0.00000000000E+00  0.00000000000E+00  0.91188000000E+02  0.91188000000E+02 0.  0.
    9900012    2    3    3    0    0 -0.14387420622E+02 -0.32557224506E+02 -0.94238656796E+01  0.54367082249E+02  0.39999995603E+02 0.  0.
         12    1    3    3    0    0  0.14387420622E+02  0.32557224506E+02  0.94238656796E+01  0.36820917751E+02  0.00000000000E+00 0. -1.
         11    1    4    4    0    0 -0.12367109395E+02 -0.96117961278E+01 -0.22665598490E+02  0.27551068487E+02  0.51100000000E-03 0. -1.
        -11    1    4    4    0    0 -0.11431227110E+01 -0.92950460796E+01  0.74280505462E+01  0.11953265091E+02  0.51100000000E-03 0.  1.
         12    1    4    4    0    0 -0.87718851634E+00 -0.13650382299E+02  0.58136822645E+01  0.14862748671E+02  0.00000000000E+00 0. -1.
</event>
<event>
 8    1  0.1290800E-006  0.9118800E+02  0.7816164E-02  0.1184000E+00
        -11   -1    0    0    0    0  0.00000000000E+00  0.00000000000E+00  0.45593999997E+02  0.45594000000E+02  0.51100000000E-03 0.  1.
         11   -1    0    0    0    0 -0.00000000000E+00 -0.00000000000E+00 -0.45593999997E+02  0.45594000000E+02  0.51100000000E-03 0. -1.
         23    2    1    2    0    0  0.00000000000E+00  0.00000000000E+00  0.00000000000E+00  0.91188000000E+02  0.91188000000E+02 0.  0.
    9900012    2    3    3    0    0 -0.23262278585E+02 -0.27380536527E+02 -0.80593185649E+01  0.54367082016E+02  0.39999995071E+02 0.  0.
        -12    1    3    3    0    0  0.23262278585E+02  0.27380536527E+02  0.80593185649E+01  0.36820917984E+02  0.00000000000E+00 0.  1.
         11    1    4    4    0    0 -0.38379717930E+01  0.86793830002E+00 -0.23058237095E+01  0.45607200766E+01  0.51100000000E-03 0. -1.
        -11    1    4    4    0    0  0.15696734647E+01 -0.15837824181E+02 -0.16704544426E+02  0.23072545467E+02  0.51100000000E-03 0.  1.
        -12    1    4    4    0    0 -0.20993980257E+02 -0.12410650646E+02  0.10951049571E+02  0.26733816472E+02  0.00000000000E+00 0.  1.
</event>
<event>
 8    1  0.1290800E-006  0.9118800E+02  0.7816164E-02  0.1184000E+00
        -11   -1    0    0    0    0  0.00000000000E+00  0.00000000000E+00  0.45593999997E+02  0.45594000000E+02  0.51100000000E-03 0. -1.
         11   -1    0    0    0    0 -0.00000000000E+00 -0.00000000000E+00 -0.45593999997E+02  0.45594000000E+02  0.51100000000E-03 0.  1.
         23    2    1    2    0    0  0.35527136788E-14  0.00000000000E+00  0.00000000000E+00  0.91188000000E+02  0.91188000000E+02 0.  0.
    9900012    2    3    3    0    0  0.16166802634E+02 -0.18355229344E+02  0.27522706109E+02  0.54367091494E+02  0.40000016679E+02 0.  0.
        -12    1    3    3    0    0 -0.16166802634E+02  0.18355229344E+02 -0.27522706109E+02  0.36820908506E+02  0.00000000000E+00 0.  1.
         11    1    4    4    0    0 -0.61883880102E+01 -0.16008890741E+02  0.76080419390E+01  0.18773998810E+02  0.51100000000E-03 0. -1.
        -11    1    4    4    0    0  0.10379708573E+02 -0.10497822375E+02  0.77332162081E+01  0.16665691041E+02  0.51100000000E-03 0.  1.
         12    1    4    4    0    0  0.11975482071E+02  0.81514837720E+01  0.12181447962E+02  0.18927401643E+02  0.00000000000E+00 0. -1.
</event>
<event>
 8    1  0.1290800E-006  0.9118800E+02  0.7816164E-02  0.1184000E+00
        -11   -1    0    0    0    0  0.00000000000E+00  0.00000000000E+00  0.45593999997E+02  0.45594000000E+02  0.51100000000E-03 0. -1.
         11   -1    0    0    0    0 -0.00000000000E+00 -0.00000000000E+00 -0.45593999997E+02  0.45594000000E+02  0.51100000000E-03 0.  1.
         23    2    1    2    0    0  0.00000000000E+00 -0.17763568394E-14  0.35527136788E-14  0.91188000000E+02  0.91188000000E+02 0.  0.
    9900012    2    3    3    0    0  0.27571342100E+02 -0.13345844143E+02  0.20432566214E+02  0.54367079002E+02  0.39999988201E+02 0.  0.
        -12    1    3    3    0    0 -0.27571342100E+02  0.13345844143E+02 -0.20432566214E+02  0.36820920998E+02  0.00000000000E+00 0.  1.
         11    1    4    4    0    0  0.34868306889E+01  0.24798089636E+01  0.29608950534E+01  0.52033009260E+01  0.51100000000E-03 0. -1.
        -11    1    4    4    0    0  0.32214004212E+02 -0.12499396901E+02  0.65855824097E+01  0.35175941866E+02  0.51100000000E-03 0.  1.
         12    1    4    4    0    0 -0.81294928008E+01 -0.33262562048E+01  0.10886088751E+02  0.13987836210E+02  0.00000000000E+00 0. -1.
</event>
<event>
 8    1  0.1290800E-006  0.9118800E+02  0.7816164E-02  0.1184000E+00
        -11   -1    0    0    0    0  0.00000000000E+00  0.00000000000E+00  0.45593999997E+02  0.45594000000E+02  0.51100000000E-03 0. -1.
         11   -1    0    0    0    0 -0.00000000000E+00 -0.00000000000E+00 -0.45593999997E+02  0.45594000000E+02  0.51100000000E-03 0.  1.
         23    2    1    2    0    0  0.00000000000E+00  0.71054273576E-14  0.35527136788E-14  0.91188000000E+02  0.91188000000E+02 0.  0.
    9900012    2    3    3    0    0 -0.19523033774E+02  0.26146107561E+02  0.17059101817E+02  0.54367071941E+02  0.39999972104E+02 0.  0.
        -12    1    3    3    0    0  0.19523033774E+02 -0.26146107561E+02 -0.17059101817E+02  0.36820928059E+02  0.00000000000E+00 0.  1.
         11    1    4    4    0    0 -0.98210336592E+01  0.15975452003E+02  0.20575631150E+02  0.27839259442E+02  0.51100000000E-03 0. -1.
        -11    1    4    4    0    0 -0.15070232266E+02  0.13043329660E+02 -0.10496332668E+01  0.19958508949E+02  0.51100000000E-03 0.  1.
        -12    1    4    4    0    0  0.53682321518E+01 -0.28726741021E+01 -0.24668960661E+01  0.65693035501E+01  0.00000000000E+00 0.  1.
</event>
<event>
 8    1  0.1290800E-006  0.9118800E+02  0.7816164E-02  0.1184000E+00
        -11   -1    0    0    0    0  0.00000000000E+00  0.00000000000E+00  0.45593999997E+02  0.45594000000E+02  0.51100000000E-03 0.  1.
         11   -1    0    0    0    0 -0.00000000000E+00 -0.00000000000E+00 -0.45593999997E+02  0.45594000000E+02  0.51100000000E-03 0. -1.
         23    2    1    2    0    0  0.00000000000E+00 -0.26645352591E-14  0.00000000000E+00  0.91188000000E+02  0.91188000000E+02 0.  0.
    9900012    2    3    3    0    0 -0.28175543945E+02  0.65088511828E+01 -0.22793714752E+02  0.54367084035E+02  0.39999999674E+02 0.  0.
        -12    1    3    3    0    0  0.28175543945E+02 -0.65088511828E+01  0.22793714752E+02  0.36820915965E+02  0.00000000000E+00 0.  1.
         11    1    4    4    0    0 -0.22768551511E+01 -0.91725407876E+01 -0.10405029894E+02  0.14056465460E+02  0.51100000000E-03 0. -1.
        -11    1    4    4    0    0 -0.86003350205E+01  0.16216970736E+02  0.10688553537E+01  0.18387451002E+02  0.51100000000E-03 0.  1.
         12    1    4    4    0    0 -0.17298353773E+02 -0.53557876530E+00 -0.13457540212E+02  0.21923167573E+02  0.00000000000E+00 0. -1.
</event>
<event>
 8    1  0.1290800E-006  0.9118800E+02  0.7816164E-02  0.1184000E+00
        -11   -1    0    0    0    0  0.00000000000E+00  0.00000000000E+00  0.45593999997E+02  0.45594000000E+02  0.51100000000E-03 0.  1.
         11   -1    0    0    0    0 -0.00000000000E+00 -0.00000000000E+00 -0.45593999997E+02  0.45594000000E+02  0.51100000000E-03 0. -1.
         23    2    1    2    0    0  0.00000000000E+00  0.88817841970E-15  0.71054273576E-14  0.91188000000E+02  0.91188000000E+02 0.  0.
    9900012    2    3    3    0    0  0.60652093487E+01  0.78870245195E+01 -0.35451179559E+02  0.54367108480E+02  0.40000055403E+02 0.  0.
        -12    1    3    3    0    0 -0.60652093487E+01 -0.78870245195E+01  0.35451179559E+02  0.36820891520E+02  0.00000000000E+00 0.  1.
         11    1    4    4    0    0  0.88984440128E+00  0.49390187902E+01 -0.38298212075E+02  0.38625623335E+02  0.51100000000E-03 0. -1.
        -11    1    4    4    0    0  0.27581888183E+01  0.14635015016E+01  0.86967454051E+01  0.92402826312E+01  0.51100000000E-03 0.  1.
        -12    1    4    4    0    0  0.24171761291E+01  0.14845042277E+01 -0.58497128889E+01  0.65012025137E+01  0.00000000000E+00 0.  1.
</event>
<event>
 8    1  0.1290800E-006  0.9118800E+02  0.7816164E-02  0.1184000E+00
        -11   -1    0    0    0    0  0.00000000000E+00  0.00000000000E+00  0.45593999997E+02  0.45594000000E+02  0.51100000000E-03 0.  1.
         11   -1    0    0    0    0 -0.00000000000E+00 -0.00000000000E+00 -0.45593999997E+02  0.45594000000E+02  0.51100000000E-03 0. -1.
         23    2    1    2    0    0 -0.17763568394E-14 -0.35527136788E-14  0.00000000000E+00  0.91188000000E+02  0.91188000000E+02 0.  0.
    9900012    2    3    3    0    0  0.90848432517E+01  0.27514696502E+02 -0.22719667783E+02  0.54367133570E+02  0.40000112599E+02 0.  0.
        -12    1    3    3    0    0 -0.90848432517E+01 -0.27514696502E+02  0.22719667783E+02  0.36820866430E+02  0.00000000000E+00 0.  1.
         11    1    4    4    0    0  0.16758056225E+02  0.10183185229E+02 -0.14085025853E+02  0.24143687858E+02  0.51100000000E-03 0. -1.
        -11    1    4    4    0    0 -0.19871930056E+01 -0.13462150330E+01  0.55791054462E+01  0.60735202970E+01  0.51100000000E-03 0.  1.
        -12    1    4    4    0    0 -0.56860199678E+01  0.18677726307E+02 -0.14213747376E+02  0.24149925415E+02  0.00000000000E+00 0.  1.
</event>
<event>
 8    1  0.1290800E-006  0.9118800E+02  0.7816164E-02  0.1184000E+00
        -11   -1    0    0    0    0  0.00000000000E+00  0.00000000000E+00  0.45593999997E+02  0.45594000000E+02  0.51100000000E-03 0.  1.
         11   -1    0    0    0    0 -0.00000000000E+00 -0.00000000000E+00 -0.45593999997E+02  0.45594000000E+02  0.51100000000E-03 0. -1.
         23    2    1    2    0    0  0.00000000000E+00  0.00000000000E+00  0.00000000000E+00  0.91188000000E+02  0.91188000000E+02 0.  0.
    9900012    2    3    3    0    0 -0.32590658145E+02 -0.13893573587E+02 -0.10029843283E+02  0.54367080109E+02  0.39999990725E+02 0.  0.
        -12    1    3    3    0    0  0.32590658145E+02  0.13893573587E+02  0.10029843283E+02  0.36820919891E+02  0.00000000000E+00 0.  1.
         11    1    4    4    0    0 -0.23677067663E+02 -0.61285275709E+01  0.34265051128E+00  0.24459758644E+02  0.51100000000E-03 0. -1.
        -11    1    4    4    0    0 -0.14168962713E+02  0.18314998178E+01  0.74843525490E+00  0.14306433921E+02  0.51100000000E-03 0.  1.
         12    1    4    4    0    0  0.52553722315E+01 -0.95965458343E+01 -0.11120929049E+02  0.15600887544E+02  0.00000000000E+00 0. -1.
</event>
<event>
 8    1  0.1290800E-006  0.9118800E+02  0.7816164E-02  0.1184000E+00
        -11   -1    0    0    0    0  0.00000000000E+00  0.00000000000E+00  0.45593999997E+02  0.45594000000E+02  0.51100000000E-03 0. -1.
         11   -1    0    0    0    0 -0.00000000000E+00 -0.00000000000E+00 -0.45593999997E+02  0.45594000000E+02  0.51100000000E-03 0.  1.
         23    2    1    2    0    0  0.00000000000E+00  0.44408920985E-15 -0.35527136788E-14  0.91188000000E+02  0.91188000000E+02 0.  0.
    9900012    2    3    3    0    0  0.32589038220E+02  0.24227192024E+01 -0.16966787130E+02  0.54366989069E+02  0.39999783180E+02 0.  0.
         12    1    3    3    0    0 -0.32589038220E+02 -0.24227192024E+01  0.16966787130E+02  0.36821010931E+02  0.00000000000E+00 0. -1.
         11    1    4    4    0    0  0.15924262072E+02  0.59446139387E+01 -0.14799840537E+02  0.22537875623E+02  0.51100000000E-03 0. -1.
        -11    1    4    4    0    0  0.13657830671E+02  0.21954268931E+01  0.10662222377E+02  0.17465372145E+02  0.51100000000E-03 0.  1.
         12    1    4    4    0    0  0.30069454772E+01 -0.57173216294E+01 -0.12829168970E+02  0.14363741301E+02  0.00000000000E+00 0. -1.
</event>
<event>
 8    1  0.1290800E-006  0.9118800E+02  0.7816164E-02  0.1184000E+00
        -11   -1    0    0    0    0  0.00000000000E+00  0.00000000000E+00  0.45593999997E+02  0.45594000000E+02  0.51100000000E-03 0. -1.
         11   -1    0    0    0    0 -0.00000000000E+00 -0.00000000000E+00 -0.45593999997E+02  0.45594000000E+02  0.51100000000E-03 0.  1.
         23    2    1    2    0    0  0.00000000000E+00  0.00000000000E+00  0.00000000000E+00  0.91188000000E+02  0.91188000000E+02 0.  0.
    9900012    2    3    3    0    0  0.26061240341E+02  0.23056695000E+02 -0.12040803876E+02  0.54367076730E+02  0.39999983022E+02 0.  0.
         12    1    3    3    0    0 -0.26061240341E+02 -0.23056695000E+02  0.12040803876E+02  0.36820923270E+02  0.00000000000E+00 0. -1.
         11    1    4    4    0    0  0.15181563039E+02  0.12289839666E+02 -0.64904229225E+01  0.20582653019E+02  0.51100000000E-03 0. -1.
        -11    1    4    4    0    0  0.87678569498E+01  0.16944573016E+02 -0.13592836731E+02  0.23425607374E+02  0.51100000000E-03 0.  1.
         12    1    4    4    0    0  0.21118203526E+01 -0.61777176819E+01  0.80424557783E+01  0.10358816337E+02  0.00000000000E+00 0. -1.
</event>
<event>
 8    1  0.1290800E-006  0.9118800E+02  0.7816164E-02  0.1184000E+00
        -11   -1    0    0    0    0  0.00000000000E+00  0.00000000000E+00  0.45593999997E+02  0.45594000000E+02  0.51100000000E-03 0.  1.
         11   -1    0    0    0    0 -0.00000000000E+00 -0.00000000000E+00 -0.45593999997E+02  0.45594000000E+02  0.51100000000E-03 0. -1.
         23    2    1    2    0    0 -0.88817841970E-15 -0.35527136788E-14 -0.35527136788E-14  0.91188000000E+02  0.91188000000E+02 0.  0.
    9900012    2    3    3    0    0 -0.65584095342E+01  0.29795673391E+02 -0.20615189576E+02  0.54367069408E+02  0.39999966329E+02 0.  0.
        -12    1    3    3    0    0  0.65584095342E+01 -0.29795673391E+02  0.20615189576E+02  0.36820930592E+02  0.00000000000E+00 0.  1.
         11    1    4    4    0    0 -0.24503713880E+01  0.20263017681E+02 -0.36323464076E+01  0.20731332474E+02  0.51100000000E-03 0. -1.
        -11    1    4    4    0    0 -0.11195267554E+02  0.18519931137E+01 -0.19791719938E+02  0.22813944693E+02  0.51100000000E-03 0.  1.
        -12    1    4    4    0    0  0.70872294074E+01  0.76806625962E+01  0.28088767693E+01  0.10821792240E+02  0.00000000000E+00 0.  1.
</event>
<event>
 8    1  0.1290800E-006  0.9118800E+02  0.7816164E-02  0.1184000E+00
        -11   -1    0    0    0    0  0.00000000000E+00  0.00000000000E+00  0.45593999997E+02  0.45594000000E+02  0.51100000000E-03 0. -1.
         11   -1    0    0    0    0 -0.00000000000E+00 -0.00000000000E+00 -0.45593999997E+02  0.45594000000E+02  0.51100000000E-03 0.  1.
         23    2    1    2    0    0  0.00000000000E+00  0.17763568394E-14  0.00000000000E+00  0.91188000000E+02  0.91188000000E+02 0.  0.
    9900012    2    3    3    0    0 -0.10809068169E+02  0.87461898699E+01 -0.34094891935E+02  0.54366899419E+02  0.39999578804E+02 0.  0.
         12    1    3    3    0    0  0.10809068169E+02 -0.87461898699E+01  0.34094891935E+02  0.36821100581E+02  0.00000000000E+00 0. -1.
         11    1    4    4    0    0 -0.55397305639E+01 -0.58501133691E+01 -0.42307379252E+01  0.91000870767E+01  0.51100000000E-03 0. -1.
        -11    1    4    4    0    0 -0.14632400062E+02  0.18034888477E+02 -0.16060813652E+02  0.28236750333E+02  0.51100000000E-03 0.  1.
        -12    1    4    4    0    0  0.93630624572E+01 -0.34385852379E+01 -0.13803340358E+02  0.17030062010E+02  0.00000000000E+00 0.  1.
</event>
<event>
 8    1  0.1290800E-006  0.9118800E+02  0.7816164E-02  0.1184000E+00
        -11   -1    0    0    0    0  0.00000000000E+00  0.00000000000E+00  0.45593999997E+02  0.45594000000E+02  0.51100000000E-03 0. -1.
         11   -1    0    0    0    0 -0.00000000000E+00 -0.00000000000E+00 -0.45593999997E+02  0.45594000000E+02  0.51100000000E-03 0.  1.
         23    2    1    2    0    0  0.71054273576E-14  0.66613381478E-15  0.00000000000E+00  0.91188000000E+02  0.91188000000E+02 0.  0.
    9900012    2    3    3    0    0 -0.20387120084E+02  0.11319415134E+01 -0.30640889854E+02  0.54367080838E+02  0.39999992385E+02 0.  0.
         12    1    3    3    0    0  0.20387120084E+02 -0.11319415134E+01  0.30640889854E+02  0.36820919162E+02  0.00000000000E+00 0. -1.
         11    1    4    4    0    0  0.10130630232E+02 -0.36271156617E+01 -0.11290206694E+02  0.15596615158E+02  0.51100000000E-03 0. -1.
        -11    1    4    4    0    0 -0.24455482744E+02 -0.19517719730E+01 -0.14716775352E+02  0.28608801567E+02  0.51100000000E-03 0.  1.
         12    1    4    4    0    0 -0.60622675726E+01  0.67108291481E+01 -0.46339078079E+01  0.10161664113E+02  0.00000000000E+00 0. -1.
</event>
<event>
 8    1  0.1290800E-006  0.9118800E+02  0.7816164E-02  0.1184000E+00
        -11   -1    0    0    0    0  0.00000000000E+00  0.00000000000E+00  0.45593999997E+02  0.45594000000E+02  0.51100000000E-03 0. -1.
         11   -1    0    0    0    0 -0.00000000000E+00 -0.00000000000E+00 -0.45593999997E+02  0.45594000000E+02  0.51100000000E-03 0.  1.
         23    2    1    2    0    0  0.00000000000E+00  0.00000000000E+00  0.88817841970E-15  0.91188000000E+02  0.91188000000E+02 0.  0.
    9900012    2    3    3    0    0 -0.10462129153E+02 -0.34921860789E+02  0.51757883830E+01  0.54367064478E+02  0.39999955090E+02 0.  0.
        -12    1    3    3    0    0  0.10462129153E+02  0.34921860789E+02 -0.51757883830E+01  0.36820935522E+02  0.00000000000E+00 0.  1.
         11    1    4    4    0    0 -0.95785963423E+01 -0.15839147747E+02  0.49667477443E+01  0.19164986111E+02  0.51100000000E-03 0. -1.
        -11    1    4    4    0    0 -0.11902432198E+02 -0.10591775707E+02 -0.92092114337E+01  0.18402803601E+02  0.51100000000E-03 0.  1.
         12    1    4    4    0    0  0.11018899388E+02 -0.84909373349E+01  0.94182520725E+01  0.16799274766E+02  0.00000000000E+00 0. -1.
</event>
<event>
 8    1  0.1290800E-006  0.9118800E+02  0.7816164E-02  0.1184000E+00
        -11   -1    0    0    0    0  0.00000000000E+00  0.00000000000E+00  0.45593999997E+02  0.45594000000E+02  0.51100000000E-03 0. -1.
         11   -1    0    0    0    0 -0.00000000000E+00 -0.00000000000E+00 -0.45593999997E+02  0.45594000000E+02  0.51100000000E-03 0.  1.
         23    2    1    2    0    0 -0.17763568394E-14  0.71054273576E-14  0.17763568394E-14  0.91188000000E+02  0.91188000000E+02 0.  0.
    9900012    2    3    3    0    0 -0.82584683243E+01  0.34391607398E+02  0.10236978239E+02  0.54367072771E+02  0.39999973997E+02 0.  0.
        -12    1    3    3    0    0  0.82584683243E+01 -0.34391607398E+02 -0.10236978239E+02  0.36820927229E+02  0.00000000000E+00 0.  1.
         11    1    4    4    0    0  0.16892300643E+01  0.64319940694E+01  0.13388513648E+01  0.67835513676E+01  0.51100000000E-03 0. -1.
        -11    1    4    4    0    0  0.13639401403E+02  0.79636315882E+01  0.22346031269E+01  0.15951368283E+02  0.51100000000E-03 0.  1.
         12    1    4    4    0    0 -0.23587099791E+02  0.19995981741E+02  0.66635237471E+01  0.31632153121E+02  0.00000000000E+00 0. -1.
</event>
<event>
 8    1  0.1290800E-006  0.9118800E+02  0.7816164E-02  0.1184000E+00
        -11   -1    0    0    0    0  0.00000000000E+00  0.00000000000E+00  0.45593999997E+02  0.45594000000E+02  0.51100000000E-03 0.  1.
         11   -1    0    0    0    0 -0.00000000000E+00 -0.00000000000E+00 -0.45593999997E+02  0.45594000000E+02  0.51100000000E-03 0. -1.
         23    2    1    2    0    0  0.00000000000E+00  0.22204460493E-15  0.00000000000E+00  0.91188000000E+02  0.91188000000E+02 0.  0.
    9900012    2    3    3    0    0  0.19145857069E+02  0.13837347947E+01  0.31421345239E+02  0.54367088801E+02  0.40000010540E+02 0.  0.
         12    1    3    3    0    0 -0.19145857069E+02 -0.13837347947E+01 -0.31421345239E+02  0.36820911199E+02  0.00000000000E+00 0. -1.
         11    1    4    4    0    0  0.21172157741E+02  0.12129645005E+02  0.17877619722E+02  0.30248931197E+02  0.51100000000E-03 0. -1.
        -11    1    4    4    0    0  0.34066652565E+01 -0.59499935148E+01  0.15208463900E+02  0.16682480795E+02  0.51100000000E-03 0.  1.
         12    1    4    4    0    0 -0.54329659288E+01 -0.47959166955E+01 -0.16647383836E+01  0.74356768098E+01  0.00000000000E+00 0. -1.
</event>
<event>
 8    1  0.1290800E-006  0.9118800E+02  0.7816164E-02  0.1184000E+00
        -11   -1    0    0    0    0  0.00000000000E+00  0.00000000000E+00  0.45593999997E+02  0.45594000000E+02  0.51100000000E-03 0.  1.
         11   -1    0    0    0    0 -0.00000000000E+00 -0.00000000000E+00 -0.45593999997E+02  0.45594000000E+02  0.51100000000E-03 0. -1.
         23    2    1    2    0    0  0.00000000000E+00 -0.17763568394E-14  0.00000000000E+00  0.91188000000E+02  0.91188000000E+02 0.  0.
    9900012    2    3    3    0    0 -0.34124182899E+02  0.11028883931E+02 -0.83476900353E+01  0.54367081106E+02  0.39999992997E+02 0.  0.
        -12    1    3    3    0    0  0.34124182899E+02 -0.11028883931E+02  0.83476900353E+01  0.36820918894E+02  0.00000000000E+00 0.  1.
         11    1    4    4    0    0 -0.15194891428E+02  0.30795022313E+01  0.13773651822E+02  0.20738407467E+02  0.51100000000E-03 0.  1.
        -11    1    4    4    0    0 -0.12825109371E+02  0.12218931611E+02 -0.17267531021E+02  0.24737690836E+02  0.51100000000E-03 0. -1.
         12    1    4    4    0    0 -0.61041821000E+01 -0.42695499109E+01 -0.48538108362E+01  0.88909828020E+01  0.00000000000E+00 0. -1.
</event>
<event>
 8    1  0.1290800E-006  0.9118800E+02  0.7816164E-02  0.1184000E+00
        -11   -1    0    0    0    0  0.00000000000E+00  0.00000000000E+00  0.45593999997E+02  0.45594000000E+02  0.51100000000E-03 0.  1.
         11   -1    0    0    0    0 -0.00000000000E+00 -0.00000000000E+00 -0.45593999997E+02  0.45594000000E+02  0.51100000000E-03 0. -1.
         23    2    1    2    0    0  0.00000000000E+00  0.00000000000E+00  0.00000000000E+00  0.91188000000E+02  0.91188000000E+02 0.  0.
    9900012    2    3    3    0    0  0.89243724857E+01 -0.14938276701E+02  0.32449703492E+02  0.54367084859E+02  0.40000001554E+02 0.  0.
         12    1    3    3    0    0 -0.89243724857E+01  0.14938276701E+02 -0.32449703492E+02  0.36820915141E+02  0.00000000000E+00 0. -1.
         11    1    4    4    0    0  0.44525165558E+01  0.12416818246E+01  0.81896943015E+00  0.46943997084E+01  0.51100000000E-03 0. -1.
        -11    1    4    4    0    0  0.17188273099E+02 -0.24690438383E+01  0.23650939159E+02  0.29341094611E+02  0.51100000000E-03 0.  1.
        -12    1    4    4    0    0 -0.12716417170E+02 -0.13710914687E+02  0.79797949037E+01  0.20331590540E+02  0.00000000000E+00 0.  1.
</event>
<event>
 8    1  0.1290800E-006  0.9118800E+02  0.7816164E-02  0.1184000E+00
        -11   -1    0    0    0    0  0.00000000000E+00  0.00000000000E+00  0.45593999997E+02  0.45594000000E+02  0.51100000000E-03 0. -1.
         11   -1    0    0    0    0 -0.00000000000E+00 -0.00000000000E+00 -0.45593999997E+02  0.45594000000E+02  0.51100000000E-03 0.  1.
         23    2    1    2    0    0 -0.71054273576E-14 -0.88817841970E-15  0.00000000000E+00  0.91188000000E+02  0.91188000000E+02 0.  0.
    9900012    2    3    3    0    0  0.32907391350E+02 -0.13379601695E+01  0.16464951600E+02  0.54367066089E+02  0.39999958763E+02 0.  0.
        -12    1    3    3    0    0 -0.32907391350E+02  0.13379601695E+01 -0.16464951600E+02  0.36820933911E+02  0.00000000000E+00 0.  1.
         11    1    4    4    0    0  0.14789586333E+02 -0.43573168911E+01 -0.74371663359E+00  0.15436035407E+02  0.51100000000E-03 0.  1.
        -11    1    4    4    0    0  0.11133187205E+02  0.93233387114E+01  0.23491445004E+02  0.27617394712E+02  0.51100000000E-03 0. -1.
         12    1    4    4    0    0  0.69846178123E+01 -0.63039819899E+01 -0.62827767701E+01  0.11313635970E+02  0.00000000000E+00 0. -1.
</event>
<event>
 8    1  0.1290800E-006  0.9118800E+02  0.7816164E-02  0.1184000E+00
        -11   -1    0    0    0    0  0.00000000000E+00  0.00000000000E+00  0.45593999997E+02  0.45594000000E+02  0.51100000000E-03 0. -1.
         11   -1    0    0    0    0 -0.00000000000E+00 -0.00000000000E+00 -0.45593999997E+02  0.45594000000E+02  0.51100000000E-03 0.  1.
         23    2    1    2    0    0 -0.88817841970E-15  0.00000000000E+00  0.00000000000E+00  0.91188000000E+02  0.91188000000E+02 0.  0.
    9900012    2    3    3    0    0  0.48314104827E+01  0.40586990105E+01 -0.36276208185E+02  0.54367097713E+02  0.40000030857E+02 0.  0.
         12    1    3    3    0    0 -0.48314104827E+01 -0.40586990105E+01  0.36276208185E+02  0.36820902287E+02  0.00000000000E+00 0. -1.
         11    1    4    4    0    0  0.12305069001E+01  0.85007381961E+01 -0.18107780464E+02  0.20041666864E+02  0.51100000000E-03 0.  1.
        -11    1    4    4    0    0  0.31472887681E+01  0.66849638619E+01 -0.21473450228E+02  0.22709100233E+02  0.51100000000E-03 0. -1.
         12    1    4    4    0    0  0.45361481453E+00 -0.11127003048E+02  0.33050225066E+01  0.11616330616E+02  0.00000000000E+00 0. -1.
</event>
<event>
 8    1  0.1290800E-006  0.9118800E+02  0.7816164E-02  0.1184000E+00
        -11   -1    0    0    0    0  0.00000000000E+00  0.00000000000E+00  0.45593999997E+02  0.45594000000E+02  0.51100000000E-03 0.  1.
         11   -1    0    0    0    0 -0.00000000000E+00 -0.00000000000E+00 -0.45593999997E+02  0.45594000000E+02  0.51100000000E-03 0. -1.
         23    2    1    2    0    0 -0.44408920985E-15 -0.35527136788E-14  0.00000000000E+00  0.91188000000E+02  0.91188000000E+02 0.  0.
    9900012    2    3    3    0    0 -0.27796663623E+01 -0.24850967878E+02 -0.27027446700E+02  0.54367081697E+02  0.39999994344E+02 0.  0.
        -12    1    3    3    0    0  0.27796663623E+01  0.24850967878E+02  0.27027446700E+02  0.36820918303E+02  0.00000000000E+00 0.  1.
         11    1    4    4    0    0  0.11135959291E+02 -0.17136656910E+02 -0.25075330517E+02  0.32348829966E+02  0.51100000000E-03 0. -1.
        -11    1    4    4    0    0 -0.13221847704E+02 -0.92811011054E+01 -0.63044416400E+01  0.17340763509E+02  0.51100000000E-03 0.  1.
         12    1    4    4    0    0 -0.69377795008E+00  0.15667901368E+01  0.43523254569E+01  0.46774882212E+01  0.00000000000E+00 0. -1.
</event>
<event>
 8    1  0.1290800E-006  0.9118800E+02  0.7816164E-02  0.1184000E+00
        -11   -1    0    0    0    0  0.00000000000E+00  0.00000000000E+00  0.45593999997E+02  0.45594000000E+02  0.51100000000E-03 0.  1.
         11   -1    0    0    0    0 -0.00000000000E+00 -0.00000000000E+00 -0.45593999997E+02  0.45594000000E+02  0.51100000000E-03 0. -1.
         23    2    1    2    0    0  0.71054273576E-14  0.00000000000E+00  0.17763568394E-14  0.91188000000E+02  0.91188000000E+02 0.  0.
    9900012    2    3    3    0    0  0.33629601884E+02  0.14784324776E+01  0.14921261727E+02  0.54367082888E+02  0.39999997060E+02 0.  0.
         12    1    3    3    0    0 -0.33629601884E+02 -0.14784324776E+01 -0.14921261727E+02  0.36820917112E+02  0.00000000000E+00 0. -1.
         11    1    4    4    0    0 -0.21192642154E+01 -0.18189936819E+01 -0.86753301104E+01  0.91138011617E+01  0.51100000000E-03 0. -1.
        -11    1    4    4    0    0  0.52193985943E+01 -0.24429975586E+01  0.95648423235E+01  0.11166761737E+02  0.51100000000E-03 0.  1.
         12    1    4    4    0    0  0.30529467505E+02  0.57404237181E+01  0.14031749514E+02  0.34086519989E+02  0.00000000000E+00 0. -1.
</event>
<event>
 8    1  0.1290800E-006  0.9118800E+02  0.7816164E-02  0.1184000E+00
        -11   -1    0    0    0    0  0.00000000000E+00  0.00000000000E+00  0.45593999997E+02  0.45594000000E+02  0.51100000000E-03 0.  1.
         11   -1    0    0    0    0 -0.00000000000E+00 -0.00000000000E+00 -0.45593999997E+02  0.45594000000E+02  0.51100000000E-03 0. -1.
         23    2    1    2    0    0  0.00000000000E+00  0.00000000000E+00  0.00000000000E+00  0.91188000000E+02  0.91188000000E+02 0.  0.
    9900012    2    3    3    0    0  0.15055286633E+02  0.26544893992E+02  0.20603071573E+02  0.54367087316E+02  0.40000007154E+02 0.  0.
         12    1    3    3    0    0 -0.15055286633E+02 -0.26544893992E+02 -0.20603071573E+02  0.36820912684E+02  0.00000000000E+00 0. -1.
         11    1    4    4    0    0 -0.42681772145E+01 -0.35540083563E+01 -0.26192125734E+01  0.61407317883E+01  0.51100000000E-03 0. -1.
        -11    1    4    4    0    0  0.15391236184E+02  0.19093062056E+02  0.26481696162E+02  0.36093148959E+02  0.51100000000E-03 0.  1.
        -12    1    4    4    0    0  0.39322276638E+01  0.11005840293E+02 -0.32594120150E+01  0.12133206568E+02  0.00000000000E+00 0.  1.
</event>
<event>
 8    1  0.1290800E-006  0.9118800E+02  0.7816164E-02  0.1184000E+00
        -11   -1    0    0    0    0  0.00000000000E+00  0.00000000000E+00  0.45593999997E+02  0.45594000000E+02  0.51100000000E-03 0.  1.
         11   -1    0    0    0    0 -0.00000000000E+00 -0.00000000000E+00 -0.45593999997E+02  0.45594000000E+02  0.51100000000E-03 0. -1.
         23    2    1    2    0    0 -0.88817841970E-15  0.00000000000E+00  0.00000000000E+00  0.91188000000E+02  0.91188000000E+02 0.  0.
    9900012    2    3    3    0    0  0.39473104544E+01  0.26597788420E+02 -0.25154647348E+02  0.54367083500E+02  0.39999998456E+02 0.  0.
        -12    1    3    3    0    0 -0.39473104544E+01 -0.26597788420E+02  0.25154647348E+02  0.36820916500E+02  0.00000000000E+00 0.  1.
         11    1    4    4    0    0  0.99741418301E+01  0.20342393948E+02 -0.31443604563E+01  0.22873204842E+02  0.51100000000E-03 0. -1.
        -11    1    4    4    0    0 -0.43070980011E+01  0.12910567840E+02 -0.20249296904E+02  0.24398112232E+02  0.51100000000E-03 0.  1.
        -12    1    4    4    0    0 -0.17197333746E+01 -0.66551733681E+01 -0.17609899876E+01  0.70957664262E+01  0.00000000000E+00 0.  1.
</event>
<event>
 8    1  0.1290800E-006  0.9118800E+02  0.7816164E-02  0.1184000E+00
        -11   -1    0    0    0    0  0.00000000000E+00  0.00000000000E+00  0.45593999997E+02  0.45594000000E+02  0.51100000000E-03 0. -1.
         11   -1    0    0    0    0 -0.00000000000E+00 -0.00000000000E+00 -0.45593999997E+02  0.45594000000E+02  0.51100000000E-03 0.  1.
         23    2    1    2    0    0  0.35527136788E-14 -0.35527136788E-14  0.35527136788E-14  0.91188000000E+02  0.91188000000E+02 0.  0.
    9900012    2    3    3    0    0  0.23387710461E+02 -0.20071093657E+02 -0.20148033818E+02  0.54367121848E+02  0.40000085876E+02 0.  0.
         12    1    3    3    0    0 -0.23387710461E+02  0.20071093657E+02  0.20148033818E+02  0.36820878152E+02  0.00000000000E+00 0. -1.
         11    1    4    4    0    0 -0.93827052455E-01 -0.51817626274E+01 -0.58565152157E+01  0.78203732760E+01  0.51100000000E-03 0. -1.
        -11    1    4    4    0    0 -0.31403190265E+01  0.65148795401E+01  0.34968426804E+01  0.80332538863E+01  0.51100000000E-03 0.  1.
        -12    1    4    4    0    0  0.26621856540E+02 -0.21404210570E+02 -0.17788361282E+02  0.38513494685E+02  0.00000000000E+00 0.  1.
</event>
<event>
 8    1  0.1290800E-006  0.9118800E+02  0.7816164E-02  0.1184000E+00
        -11   -1    0    0    0    0  0.00000000000E+00  0.00000000000E+00  0.45593999997E+02  0.45594000000E+02  0.51100000000E-03 0.  1.
         11   -1    0    0    0    0 -0.00000000000E+00 -0.00000000000E+00 -0.45593999997E+02  0.45594000000E+02  0.51100000000E-03 0. -1.
         23    2    1    2    0    0  0.17763568394E-14  0.00000000000E+00  0.00000000000E+00  0.91188000000E+02  0.91188000000E+02 0.  0.
    9900012    2    3    3    0    0 -0.68457795672E+01  0.28618607348E+02  0.22133450134E+02  0.54367095622E+02  0.40000026089E+02 0.  0.
         12    1    3    3    0    0  0.68457795672E+01 -0.28618607348E+02 -0.22133450134E+02  0.36820904378E+02  0.00000000000E+00 0. -1.
         11    1    4    4    0    0  0.37680240344E+01  0.27893106309E+02  0.94429881260E+01  0.29688270574E+02  0.51100000000E-03 0. -1.
        -11    1    4    4    0    0 -0.10366998626E+02  0.59659551927E+01  0.11676624009E+01  0.12017933167E+02  0.51100000000E-03 0.  1.
         12    1    4    4    0    0 -0.24680497571E+00 -0.52404541532E+01  0.11522799607E+02  0.12660891880E+02  0.00000000000E+00 0. -1.
</event>
<event>
 8    1  0.1290800E-006  0.9118800E+02  0.7816164E-02  0.1184000E+00
        -11   -1    0    0    0    0  0.00000000000E+00  0.00000000000E+00  0.45593999997E+02  0.45594000000E+02  0.51100000000E-03 0. -1.
         11   -1    0    0    0    0 -0.00000000000E+00 -0.00000000000E+00 -0.45593999997E+02  0.45594000000E+02  0.51100000000E-03 0.  1.
         23    2    1    2    0    0  0.00000000000E+00  0.00000000000E+00  0.00000000000E+00  0.91188000000E+02  0.91188000000E+02 0.  0.
    9900012    2    3    3    0    0 -0.18399196621E+02  0.68181995810E+01 -0.31157038520E+02  0.54367091115E+02  0.40000015814E+02 0.  0.
         12    1    3    3    0    0  0.18399196621E+02 -0.68181995810E+01  0.31157038520E+02  0.36820908885E+02  0.00000000000E+00 0. -1.
         11    1    4    4    0    0 -0.15394997663E+01 -0.10226412965E+02 -0.11983975547E+02  0.15829253041E+02  0.51100000000E-03 0. -1.
        -11    1    4    4    0    0  0.19384929320E+01  0.14181268051E+02 -0.67549964754E+01  0.15827068460E+02  0.51100000000E-03 0.  1.
        -12    1    4    4    0    0 -0.18798189787E+02  0.28633444947E+01 -0.12418066497E+02  0.22710769615E+02  0.00000000000E+00 0.  1.
</event>
<event>
 8    1  0.1290800E-006  0.9118800E+02  0.7816164E-02  0.1184000E+00
        -11   -1    0    0    0    0  0.00000000000E+00  0.00000000000E+00  0.45593999997E+02  0.45594000000E+02  0.51100000000E-03 0.  1.
         11   -1    0    0    0    0 -0.00000000000E+00 -0.00000000000E+00 -0.45593999997E+02  0.45594000000E+02  0.51100000000E-03 0. -1.
         23    2    1    2    0    0  0.00000000000E+00 -0.35527136788E-14  0.35527136788E-14  0.91188000000E+02  0.91188000000E+02 0.  0.
    9900012    2    3    3    0    0 -0.11698865495E+02 -0.28675287581E+02  0.19915928515E+02  0.54367085015E+02  0.40000001908E+02 0.  0.
         12    1    3    3    0    0  0.11698865495E+02  0.28675287581E+02 -0.19915928515E+02  0.36820914985E+02  0.00000000000E+00 0. -1.
         11    1    4    4    0    0 -0.36407637308E+01 -0.44651614113E+01 -0.71388543623E+00  0.58053819556E+01  0.51100000000E-03 0. -1.
        -11    1    4    4    0    0  0.40938954997E+01 -0.10507148744E+02 -0.85216001518E+01  0.14134278351E+02  0.51100000000E-03 0.  1.
        -12    1    4    4    0    0 -0.12151997264E+02 -0.13702977426E+02  0.29151414103E+02  0.34427424708E+02  0.00000000000E+00 0.  1.
</event>
<event>
 8    1  0.1290800E-006  0.9118800E+02  0.7816164E-02  0.1184000E+00
        -11   -1    0    0    0    0  0.00000000000E+00  0.00000000000E+00  0.45593999997E+02  0.45594000000E+02  0.51100000000E-03 0. -1.
         11   -1    0    0    0    0 -0.00000000000E+00 -0.00000000000E+00 -0.45593999997E+02  0.45594000000E+02  0.51100000000E-03 0.  1.
         23    2    1    2    0    0 -0.17763568394E-14  0.00000000000E+00  0.17763568394E-14  0.91188000000E+02  0.91188000000E+02 0.  0.
    9900012    2    3    3    0    0 -0.11643142640E+02  0.32649740515E+02 -0.12418170545E+02  0.54367091729E+02  0.40000017214E+02 0.  0.
         12    1    3    3    0    0  0.11643142640E+02 -0.32649740515E+02  0.12418170545E+02  0.36820908271E+02  0.00000000000E+00 0. -1.
         11    1    4    4    0    0 -0.18505359776E+02  0.18561958711E+02 -0.12218880505E+02  0.28918777510E+02  0.51100000000E-03 0. -1.
        -11    1    4    4    0    0  0.53902176642E+01  0.17229212688E+02  0.54161423608E+01  0.18847673985E+02  0.51100000000E-03 0.  1.
         12    1    4    4    0    0  0.14719994715E+01 -0.31414308842E+01 -0.56154324008E+01  0.66006402335E+01  0.00000000000E+00 0. -1.
</event>
<event>
 8    1  0.1290800E-006  0.9118800E+02  0.7816164E-02  0.1184000E+00
        -11   -1    0    0    0    0  0.00000000000E+00  0.00000000000E+00  0.45593999997E+02  0.45594000000E+02  0.51100000000E-03 0. -1.
         11   -1    0    0    0    0 -0.00000000000E+00 -0.00000000000E+00 -0.45593999997E+02  0.45594000000E+02  0.51100000000E-03 0.  1.
         23    2    1    2    0    0  0.00000000000E+00  0.35527136788E-14  0.35527136788E-14  0.91188000000E+02  0.91188000000E+02 0.  0.
    9900012    2    3    3    0    0  0.91847244708E+01 -0.27408077903E+02 -0.22808276631E+02  0.54367090440E+02  0.40000014276E+02 0.  0.
         12    1    3    3    0    0 -0.91847244708E+01  0.27408077903E+02  0.22808276631E+02  0.36820909560E+02  0.00000000000E+00 0. -1.
         11    1    4    4    0    0 -0.24828536734E+01 -0.30659413112E+02 -0.16552183426E+02  0.34930487416E+02  0.51100000000E-03 0. -1.
        -11    1    4    4    0    0  0.29302342379E+01 -0.52901727485E+01 -0.31977379770E+01  0.68408865529E+01  0.51100000000E-03 0.  1.
        -12    1    4    4    0    0  0.87373439063E+01  0.85415079571E+01 -0.30583552286E+01  0.12595716471E+02  0.00000000000E+00 0.  1.
</event>
<event>
 8    1  0.1290800E-006  0.9118800E+02  0.7816164E-02  0.1184000E+00
        -11   -1    0    0    0    0  0.00000000000E+00  0.00000000000E+00  0.45593999997E+02  0.45594000000E+02  0.51100000000E-03 0.  1.
         11   -1    0    0    0    0 -0.00000000000E+00 -0.00000000000E+00 -0.45593999997E+02  0.45594000000E+02  0.51100000000E-03 0. -1.
         23    2    1    2    0    0  0.17763568394E-14 -0.35527136788E-14  0.35527136788E-14  0.91188000000E+02  0.91188000000E+02 0.  0.
    9900012    2    3    3    0    0 -0.94501779940E+01  0.23596081397E+02 -0.26640196563E+02  0.54367068529E+02  0.39999964326E+02 0.  0.
        -12    1    3    3    0    0  0.94501779940E+01 -0.23596081397E+02  0.26640196563E+02  0.36820931471E+02  0.00000000000E+00 0.  1.
         11    1    4    4    0    0  0.26628975092E+01  0.37362697597E+01 -0.29136969538E+02  0.29495995135E+02  0.51100000000E-03 0. -1.
        -11    1    4    4    0    0 -0.12735624774E+01  0.10007194809E+02  0.68252287355E+00  0.10110971618E+02  0.51100000000E-03 0.  1.
         12    1    4    4    0    0 -0.10839513026E+02  0.98526168285E+01  0.18142501015E+01  0.14760101776E+02  0.00000000000E+00 0. -1.
</event>
<event>
 8    1  0.1290800E-006  0.9118800E+02  0.7816164E-02  0.1184000E+00
        -11   -1    0    0    0    0  0.00000000000E+00  0.00000000000E+00  0.45593999997E+02  0.45594000000E+02  0.51100000000E-03 0.  1.
         11   -1    0    0    0    0 -0.00000000000E+00 -0.00000000000E+00 -0.45593999997E+02  0.45594000000E+02  0.51100000000E-03 0. -1.
         23    2    1    2    0    0 -0.66613381478E-15  0.35527136788E-14  0.00000000000E+00  0.91188000000E+02  0.91188000000E+02 0.  0.
    9900012    2    3    3    0    0 -0.11034193728E+01  0.24325773562E+02  0.27619025198E+02  0.54367199539E+02  0.40000262988E+02 0.  0.
         12    1    3    3    0    0  0.11034193728E+01 -0.24325773562E+02 -0.27619025198E+02  0.36820800461E+02  0.00000000000E+00 0. -1.
         11    1    4    4    0    0 -0.32745836355E+01  0.18143827336E+01  0.44325075036E+01  0.58018967347E+01  0.51100000000E-03 0. -1.
        -11    1    4    4    0    0  0.77311905278E+01 -0.36900443341E+01 -0.48057804412E+01  0.98225892755E+01  0.51100000000E-03 0.  1.
        -12    1    4    4    0    0 -0.55600262651E+01  0.26201435162E+02  0.27992298136E+02  0.38742713529E+02  0.00000000000E+00 0.  1.
</event>
<event>
 8    1  0.1290800E-006  0.9118800E+02  0.7816164E-02  0.1184000E+00
        -11   -1    0    0    0    0  0.00000000000E+00  0.00000000000E+00  0.45593999997E+02  0.45594000000E+02  0.51100000000E-03 0. -1.
         11   -1    0    0    0    0 -0.00000000000E+00 -0.00000000000E+00 -0.45593999997E+02  0.45594000000E+02  0.51100000000E-03 0.  1.
         23    2    1    2    0    0  0.00000000000E+00  0.00000000000E+00  0.35527136788E-14  0.91188000000E+02  0.91188000000E+02 0.  0.
    9900012    2    3    3    0    0 -0.12349994471E+02  0.30629933903E+02  0.16280862978E+02  0.54367058762E+02  0.39999942059E+02 0.  0.
        -12    1    3    3    0    0  0.12349994471E+02 -0.30629933903E+02 -0.16280862978E+02  0.36820941238E+02  0.00000000000E+00 0.  1.
         11    1    4    4    0    0 -0.19633334156E+02  0.17395858820E+02  0.14719877197E+02  0.30079203765E+02  0.51100000000E-03 0. -1.
        -11    1    4    4    0    0 -0.48457205399E+01 -0.50340670423E+00  0.32931915849E+01  0.58804367981E+01  0.51100000000E-03 0.  1.
         12    1    4    4    0    0  0.12129060225E+02  0.13737481787E+02 -0.17322058034E+01  0.18407418199E+02  0.00000000000E+00 0. -1.
</event>
<event>
 8    1  0.1290800E-006  0.9118800E+02  0.7816164E-02  0.1184000E+00
        -11   -1    0    0    0    0  0.00000000000E+00  0.00000000000E+00  0.45593999997E+02  0.45594000000E+02  0.51100000000E-03 0.  1.
         11   -1    0    0    0    0 -0.00000000000E+00 -0.00000000000E+00 -0.45593999997E+02  0.45594000000E+02  0.51100000000E-03 0. -1.
         23    2    1    2    0    0  0.88817841970E-15  0.00000000000E+00  0.00000000000E+00  0.91188000000E+02  0.91188000000E+02 0.  0.
    9900012    2    3    3    0    0  0.69631784049E+01  0.34016709298E+02  0.12253685125E+02  0.54367147700E+02  0.40000144812E+02 0.  0.
         12    1    3    3    0    0 -0.69631784049E+01 -0.34016709298E+02 -0.12253685125E+02  0.36820852300E+02  0.00000000000E+00 0. -1.
         11    1    4    4    0    0  0.50792293631E+01 -0.15284218086E+01  0.69951158614E+00  0.53501365280E+01  0.51100000000E-03 0. -1.
        -11    1    4    4    0    0  0.38693494802E+01  0.40778319299E+01 -0.95460253024E+01  0.11078229912E+02  0.51100000000E-03 0.  1.
        -12    1    4    4    0    0 -0.19854004384E+01  0.31467299176E+02  0.21100198841E+02  0.37938781260E+02  0.00000000000E+00 0.  1.
</event>
<event>
 8    1  0.1290800E-006  0.9118800E+02  0.7816164E-02  0.1184000E+00
        -11   -1    0    0    0    0  0.00000000000E+00  0.00000000000E+00  0.45593999997E+02  0.45594000000E+02  0.51100000000E-03 0. -1.
         11   -1    0    0    0    0 -0.00000000000E+00 -0.00000000000E+00 -0.45593999997E+02  0.45594000000E+02  0.51100000000E-03 0.  1.
         23    2    1    2    0    0  0.44408920985E-15  0.88817841970E-15  0.00000000000E+00  0.91188000000E+02  0.91188000000E+02 0.  0.
    9900012    2    3    3    0    0  0.21418056165E+01 -0.31820272636E+01 -0.36620564286E+02  0.54367104337E+02  0.40000045956E+02 0.  0.
         12    1    3    3    0    0 -0.21418056165E+01  0.31820272636E+01  0.36620564286E+02  0.36820895663E+02  0.00000000000E+00 0. -1.
         11    1    4    4    0    0  0.86876293728E+01 -0.95059903457E+01 -0.11677588178E+02  0.17384039303E+02  0.51100000000E-03 0. -1.
        -11    1    4    4    0    0  0.76106251446E+01  0.38059569602E+01 -0.37589215136E+00  0.85175242087E+01  0.51100000000E-03 0.  1.
         12    1    4    4    0    0 -0.14156448901E+02  0.25180061219E+01 -0.24567083957E+02  0.28465540825E+02  0.00000000000E+00 0. -1.
</event>
<event>
 8    1  0.1290800E-006  0.9118800E+02  0.7816164E-02  0.1184000E+00
        -11   -1    0    0    0    0  0.00000000000E+00  0.00000000000E+00  0.45593999997E+02  0.45594000000E+02  0.51100000000E-03 0.  1.
         11   -1    0    0    0    0 -0.00000000000E+00 -0.00000000000E+00 -0.45593999997E+02  0.45594000000E+02  0.51100000000E-03 0. -1.
         23    2    1    2    0    0  0.00000000000E+00  0.88817841970E-15  0.00000000000E+00  0.91188000000E+02  0.91188000000E+02 0.  0.
    9900012    2    3    3    0    0 -0.20430887143E+02 -0.71273147653E+01  0.29791939462E+02  0.54367089880E+02  0.40000012998E+02 0.  0.
         12    1    3    3    0    0  0.20430887143E+02  0.71273147653E+01 -0.29791939462E+02  0.36820910120E+02  0.00000000000E+00 0. -1.
         11    1    4    4    0    0 -0.14861251160E+02 -0.86184584500E+00  0.29766255744E+02  0.33281068876E+02  0.51100000000E-03 0. -1.
        -11    1    4    4    0    0 -0.95332882773E+01  0.34812207001E+01 -0.20689212252E+01  0.10357746774E+02  0.51100000000E-03 0.  1.
         12    1    4    4    0    0  0.39636522942E+01 -0.97466896204E+01  0.20946049433E+01  0.10728274229E+02  0.00000000000E+00 0. -1.
</event>
<event>
 8    1  0.1290800E-006  0.9118800E+02  0.7816164E-02  0.1184000E+00
        -11   -1    0    0    0    0  0.00000000000E+00  0.00000000000E+00  0.45593999997E+02  0.45594000000E+02  0.51100000000E-03 0.  1.
         11   -1    0    0    0    0 -0.00000000000E+00 -0.00000000000E+00 -0.45593999997E+02  0.45594000000E+02  0.51100000000E-03 0. -1.
         23    2    1    2    0    0  0.00000000000E+00  0.71054273576E-14  0.88817841970E-15  0.91188000000E+02  0.91188000000E+02 0.  0.
    9900012    2    3    3    0    0  0.10541902210E+02  0.34987856611E+02  0.45274458994E+01  0.54367087752E+02  0.40000008148E+02 0.  0.
         12    1    3    3    0    0 -0.10541902210E+02 -0.34987856611E+02 -0.45274458994E+01  0.36820912248E+02  0.00000000000E+00 0. -1.
         11    1    4    4    0    0  0.17405687379E+01  0.13143207776E+02 -0.12527149629E+02  0.18240147156E+02  0.51100000000E-03 0. -1.
        -11    1    4    4    0    0 -0.50607975852E+00  0.20922810881E+02  0.16686478917E+02  0.26766746362E+02  0.51100000000E-03 0.  1.
         12    1    4    4    0    0  0.93074132310E+01  0.92183795370E+00  0.36811661214E+00  0.93601942344E+01  0.00000000000E+00 0. -1.
</event>
<event>
 8    1  0.1290800E-006  0.9118800E+02  0.7816164E-02  0.1184000E+00
        -11   -1    0    0    0    0  0.00000000000E+00  0.00000000000E+00  0.45593999997E+02  0.45594000000E+02  0.51100000000E-03 0.  1.
         11   -1    0    0    0    0 -0.00000000000E+00 -0.00000000000E+00 -0.45593999997E+02  0.45594000000E+02  0.51100000000E-03 0. -1.
         23    2    1    2    0    0  0.35527136788E-14  0.00000000000E+00  0.00000000000E+00  0.91188000000E+02  0.91188000000E+02 0.  0.
    9900012    2    3    3    0    0 -0.28211725795E+02  0.21591263414E+02 -0.96795413508E+01  0.54367113959E+02  0.40000067891E+02 0.  0.
        -12    1    3    3    0    0  0.28211725795E+02 -0.21591263414E+02  0.96795413508E+01  0.36820886041E+02  0.00000000000E+00 0.  1.
         11    1    4    4    0    0 -0.43151602283E+01  0.10951873612E+02 -0.43434685088E+00  0.11779337878E+02  0.51100000000E-03 0. -1.
        -11    1    4    4    0    0  0.13917992418E+01 -0.87347379605E+01  0.14925238679E+01  0.89699710214E+01  0.51100000000E-03 0.  1.
        -12    1    4    4    0    0 -0.25288364808E+02  0.19374127762E+02 -0.10737718368E+02  0.33617805059E+02  0.00000000000E+00 0.  1.
</event>
<event>
 8    1  0.1290800E-006  0.9118800E+02  0.7816164E-02  0.1184000E+00
        -11   -1    0    0    0    0  0.00000000000E+00  0.00000000000E+00  0.45593999997E+02  0.45594000000E+02  0.51100000000E-03 0. -1.
         11   -1    0    0    0    0 -0.00000000000E+00 -0.00000000000E+00 -0.45593999997E+02  0.45594000000E+02  0.51100000000E-03 0.  1.
         23    2    1    2    0    0 -0.17763568394E-14 -0.17763568394E-14  0.00000000000E+00  0.91188000000E+02  0.91188000000E+02 0.  0.
    9900012    2    3    3    0    0  0.11194606989E+02 -0.77585392828E+01 -0.34209145988E+02  0.54367084386E+02  0.40000000474E+02 0.  0.
         12    1    3    3    0    0 -0.11194606989E+02  0.77585392828E+01  0.34209145988E+02  0.36820915614E+02  0.00000000000E+00 0. -1.
         11    1    4    4    0    0  0.18282990175E+02 -0.11764651136E+02 -0.34866521865E+01  0.22018889387E+02  0.51100000000E-03 0. -1.
        -11    1    4    4    0    0 -0.49991481204E+01  0.43745307721E+01 -0.14049776512E+02  0.15541049569E+02  0.51100000000E-03 0.  1.
         12    1    4    4    0    0 -0.20892350664E+01 -0.36841891865E+00 -0.16672717290E+02  0.16807145429E+02  0.00000000000E+00 0. -1.
</event>
<event>
 8    1  0.1290800E-006  0.9118800E+02  0.7816164E-02  0.1184000E+00
        -11   -1    0    0    0    0  0.00000000000E+00  0.00000000000E+00  0.45593999997E+02  0.45594000000E+02  0.51100000000E-03 0.  1.
         11   -1    0    0    0    0 -0.00000000000E+00 -0.00000000000E+00 -0.45593999997E+02  0.45594000000E+02  0.51100000000E-03 0. -1.
         23    2    1    2    0    0 -0.71054273576E-14  0.00000000000E+00 -0.17763568394E-14  0.91188000000E+02  0.91188000000E+02 0.  0.
    9900012    2    3    3    0    0 -0.33820962801E+02  0.49103584123E+01  0.13704380312E+02  0.54367093110E+02  0.40000020362E+02 0.  0.
        -12    1    3    3    0    0  0.33820962801E+02 -0.49103584123E+01 -0.13704380312E+02  0.36820906890E+02  0.00000000000E+00 0.  1.
         11    1    4    4    0    0 -0.10256184236E+02  0.68567056048E+01 -0.11258710051E+02  0.16702163905E+02  0.51100000000E-03 0. -1.
        -11    1    4    4    0    0 -0.68184320869E+01  0.14642400396E+01  0.17831092750E+02  0.19146354325E+02  0.51100000000E-03 0.  1.
         12    1    4    4    0    0 -0.16746346478E+02 -0.34105872320E+01  0.71319976126E+01  0.18518574880E+02  0.00000000000E+00 0. -1.
</event>
<event>
 8    1  0.1290800E-006  0.9118800E+02  0.7816164E-02  0.1184000E+00
        -11   -1    0    0    0    0  0.00000000000E+00  0.00000000000E+00  0.45593999997E+02  0.45594000000E+02  0.51100000000E-03 0.  1.
         11   -1    0    0    0    0 -0.00000000000E+00 -0.00000000000E+00 -0.45593999997E+02  0.45594000000E+02  0.51100000000E-03 0. -1.
         23    2    1    2    0    0  0.00000000000E+00  0.35527136788E-14  0.44408920985E-15  0.91188000000E+02  0.91188000000E+02 0.  0.
    9900012    2    3    3    0    0  0.19943379797E+02  0.30710811564E+02  0.38584665914E+01  0.54367080550E+02  0.39999991731E+02 0.  0.
        -12    1    3    3    0    0 -0.19943379797E+02 -0.30710811564E+02 -0.38584665914E+01  0.36820919450E+02  0.00000000000E+00 0.  1.
         11    1    4    4    0    0  0.22920591505E+02  0.26737650110E+02  0.72266901875E+00  0.35224674578E+02  0.51100000000E-03 0. -1.
        -11    1    4    4    0    0 -0.39737755961E+01  0.34210038442E+01  0.10475645266E+02  0.11714661916E+02  0.51100000000E-03 0.  1.
         12    1    4    4    0    0  0.99656388844E+00  0.55215760995E+00 -0.73398476936E+01  0.74277440569E+01  0.00000000000E+00 0. -1.
</event>
<event>
 8    1  0.1290800E-006  0.9118800E+02  0.7816164E-02  0.1184000E+00
        -11   -1    0    0    0    0  0.00000000000E+00  0.00000000000E+00  0.45593999997E+02  0.45594000000E+02  0.51100000000E-03 0. -1.
         11   -1    0    0    0    0 -0.00000000000E+00 -0.00000000000E+00 -0.45593999997E+02  0.45594000000E+02  0.51100000000E-03 0.  1.
         23    2    1    2    0    0  0.88817841970E-15  0.35527136788E-14  0.00000000000E+00  0.91188000000E+02  0.91188000000E+02 0.  0.
    9900012    2    3    3    0    0  0.63356520356E+01 -0.30255495877E+02 -0.20006111389E+02  0.54367081891E+02  0.39999994788E+02 0.  0.
         12    1    3    3    0    0 -0.63356520356E+01  0.30255495877E+02  0.20006111389E+02  0.36820918109E+02  0.00000000000E+00 0. -1.
         11    1    4    4    0    0  0.77045931122E+01 -0.28403355051E+01 -0.13630722192E+02  0.15913040204E+02  0.51100000000E-03 0. -1.
        -11    1    4    4    0    0 -0.26262529039E+01 -0.30118819807E+02 -0.11645887643E+02  0.32398568026E+02  0.51100000000E-03 0.  1.
        -12    1    4    4    0    0  0.12573118273E+01  0.27036594356E+01  0.52704984467E+01  0.60554736604E+01  0.00000000000E+00 0.  1.
</event>
<event>
 8    1  0.1290800E-006  0.9118800E+02  0.7816164E-02  0.1184000E+00
        -11   -1    0    0    0    0  0.00000000000E+00  0.00000000000E+00  0.45593999997E+02  0.45594000000E+02  0.51100000000E-03 0.  1.
         11   -1    0    0    0    0 -0.00000000000E+00 -0.00000000000E+00 -0.45593999997E+02  0.45594000000E+02  0.51100000000E-03 0. -1.
         23    2    1    2    0    0  0.35527136788E-14  0.00000000000E+00  0.00000000000E+00  0.91188000000E+02  0.91188000000E+02 0.  0.
    9900012    2    3    3    0    0 -0.16428401683E+02 -0.50035435557E+01 -0.32570721654E+02  0.54367085576E+02  0.40000003187E+02 0.  0.
        -12    1    3    3    0    0  0.16428401683E+02  0.50035435557E+01  0.32570721654E+02  0.36820914424E+02  0.00000000000E+00 0.  1.
         11    1    4    4    0    0  0.55206644396E+01 -0.69977795550E+01 -0.11023642510E+02  0.14176295320E+02  0.51100000000E-03 0. -1.
        -11    1    4    4    0    0 -0.21522360056E+02 -0.50988484675E+01 -0.24033714631E+02  0.32662358722E+02  0.51100000000E-03 0.  1.
        -12    1    4    4    0    0 -0.42670606681E+00  0.70930844668E+01  0.24866354865E+01  0.75284315340E+01  0.00000000000E+00 0.  1.
</event>
<event>
 8    1  0.1290800E-006  0.9118800E+02  0.7816164E-02  0.1184000E+00
        -11   -1    0    0    0    0  0.00000000000E+00  0.00000000000E+00  0.45593999997E+02  0.45594000000E+02  0.51100000000E-03 0.  1.
         11   -1    0    0    0    0 -0.00000000000E+00 -0.00000000000E+00 -0.45593999997E+02  0.45594000000E+02  0.51100000000E-03 0. -1.
         23    2    1    2    0    0  0.35527136788E-14  0.35527136788E-14  0.19984014443E-14  0.91188000000E+02  0.91188000000E+02 0.  0.
    9900012    2    3    3    0    0 -0.25874131093E+02 -0.26169606114E+02 -0.12063386823E+01  0.54367160833E+02  0.40000174751E+02 0.  0.
        -12    1    3    3    0    0  0.25874131093E+02  0.26169606114E+02  0.12063386823E+01  0.36820839167E+02  0.00000000000E+00 0.  1.
         11    1    4    4    0    0 -0.56057622977E+01 -0.75821985872E+01  0.11141078164E+02  0.14595818897E+02  0.51100000000E-03 0. -1.
        -11    1    4    4    0    0 -0.14356585749E+02 -0.90879686079E+01  0.62194564055E+01  0.18093765944E+02  0.51100000000E-03 0.  1.
         12    1    4    4    0    0 -0.59117830455E+01 -0.94994389185E+01 -0.18566873252E+02  0.21677575992E+02  0.00000000000E+00 0. -1.
</event>
<event>
 8    1  0.1290800E-006  0.9118800E+02  0.7816164E-02  0.1184000E+00
        -11   -1    0    0    0    0  0.00000000000E+00  0.00000000000E+00  0.45593999997E+02  0.45594000000E+02  0.51100000000E-03 0.  1.
         11   -1    0    0    0    0 -0.00000000000E+00 -0.00000000000E+00 -0.45593999997E+02  0.45594000000E+02  0.51100000000E-03 0. -1.
         23    2    1    2    0    0 -0.44408920985E-15 -0.88817841970E-15  0.00000000000E+00  0.91188000000E+02  0.91188000000E+02 0.  0.
    9900012    2    3    3    0    0 -0.26892710357E+01  0.62852318291E+01  0.36180703360E+02  0.54367087281E+02  0.40000007073E+02 0.  0.
         12    1    3    3    0    0  0.26892710357E+01 -0.62852318291E+01 -0.36180703360E+02  0.36820912719E+02  0.00000000000E+00 0. -1.
         11    1    4    4    0    0  0.25709032573E+01  0.90016609865E+01  0.14384405846E+01  0.94714600591E+01  0.51100000000E-03 0. -1.
        -11    1    4    4    0    0  0.84928543728E+01 -0.22965070032E+01  0.28424808945E+02  0.29755205992E+02  0.51100000000E-03 0.  1.
        -12    1    4    4    0    0 -0.13753028666E+02 -0.41992215417E+00  0.63174538308E+01  0.15140421229E+02  0.00000000000E+00 0.  1.
</event>
<event>
 8    1  0.1290800E-006  0.9118800E+02  0.7816164E-02  0.1184000E+00
        -11   -1    0    0    0    0  0.00000000000E+00  0.00000000000E+00  0.45593999997E+02  0.45594000000E+02  0.51100000000E-03 0. -1.
         11   -1    0    0    0    0 -0.00000000000E+00 -0.00000000000E+00 -0.45593999997E+02  0.45594000000E+02  0.51100000000E-03 0.  1.
         23    2    1    2    0    0  0.00000000000E+00 -0.35527136788E-14  0.00000000000E+00  0.91188000000E+02  0.91188000000E+02 0.  0.
    9900012    2    3    3    0    0 -0.18310344691E+02  0.26015804513E+02  0.18538846686E+02  0.54367086871E+02  0.40000006140E+02 0.  0.
        -12    1    3    3    0    0  0.18310344691E+02 -0.26015804513E+02 -0.18538846686E+02  0.36820913129E+02  0.00000000000E+00 0.  1.
         11    1    4    4    0    0 -0.47377775629E+01  0.79139833167E+01  0.18838378601E+02  0.20975275368E+02  0.51100000000E-03 0. -1.
        -11    1    4    4    0    0  0.14460322616E+01 -0.33495160588E+01 -0.55912613657E+01  0.66762617572E+01  0.51100000000E-03 0.  1.
         12    1    4    4    0    0 -0.15018599390E+02  0.21451337255E+02  0.52917294509E+01  0.26715549746E+02  0.00000000000E+00 0. -1.
</event>
<event>
 8    1  0.1290800E-006  0.9118800E+02  0.7816164E-02  0.1184000E+00
        -11   -1    0    0    0    0  0.00000000000E+00  0.00000000000E+00  0.45593999997E+02  0.45594000000E+02  0.51100000000E-03 0.  1.
         11   -1    0    0    0    0 -0.00000000000E+00 -0.00000000000E+00 -0.45593999997E+02  0.45594000000E+02  0.51100000000E-03 0. -1.
         23    2    1    2    0    0  0.88817841970E-15  0.00000000000E+00  0.00000000000E+00  0.91188000000E+02  0.91188000000E+02 0.  0.
    9900012    2    3    3    0    0 -0.55843560177E+01 -0.35093080213E+02 -0.96474469016E+01  0.54367047504E+02  0.39999916396E+02 0.  0.
        -12    1    3    3    0    0  0.55843560177E+01  0.35093080213E+02  0.96474469016E+01  0.36820952496E+02  0.00000000000E+00 0.  1.
         11    1    4    4    0    0  0.78516363909E+01 -0.45234517954E+01  0.13335082990E+01  0.91590422428E+01  0.51100000000E-03 0. -1.
        -11    1    4    4    0    0 -0.29691488882E+01 -0.10403127754E+02  0.96656509475E+01  0.14507436737E+02  0.51100000000E-03 0.  1.
        -12    1    4    4    0    0 -0.10466843520E+02 -0.20166500664E+02 -0.20646606148E+02  0.30700568525E+02  0.00000000000E+00 0.  1.
</event>
<event>
 8    1  0.1290800E-006  0.9118800E+02  0.7816164E-02  0.1184000E+00
        -11   -1    0    0    0    0  0.00000000000E+00  0.00000000000E+00  0.45593999997E+02  0.45594000000E+02  0.51100000000E-03 0.  1.
         11   -1    0    0    0    0 -0.00000000000E+00 -0.00000000000E+00 -0.45593999997E+02  0.45594000000E+02  0.51100000000E-03 0. -1.
         23    2    1    2    0    0  0.35527136788E-14  0.44408920985E-15  0.35527136788E-14  0.91188000000E+02  0.91188000000E+02 0.  0.
    9900012    2    3    3    0    0  0.31171696917E+02  0.25592358175E+01  0.19430896582E+02  0.54367026104E+02  0.39999867609E+02 0.  0.
         12    1    3    3    0    0 -0.31171696917E+02 -0.25592358175E+01 -0.19430896582E+02  0.36820973896E+02  0.00000000000E+00 0. -1.
         11    1    4    4    0    0  0.11421183370E+02  0.35196943301E+01  0.17254569713E+02  0.20989327145E+02  0.51100000000E-03 0. -1.
        -11    1    4    4    0    0  0.18975338886E+02  0.11978463881E+01  0.12531645701E+02  0.22771483615E+02  0.51100000000E-03 0.  1.
         12    1    4    4    0    0  0.77517466172E+00 -0.21583049008E+01 -0.10355318832E+02  0.10606215344E+02  0.00000000000E+00 0. -1.
</event>
<event>
 8    1  0.1290800E-006  0.9118800E+02  0.7816164E-02  0.1184000E+00
        -11   -1    0    0    0    0  0.00000000000E+00  0.00000000000E+00  0.45593999997E+02  0.45594000000E+02  0.51100000000E-03 0.  1.
         11   -1    0    0    0    0 -0.00000000000E+00 -0.00000000000E+00 -0.45593999997E+02  0.45594000000E+02  0.51100000000E-03 0. -1.
         23    2    1    2    0    0  0.00000000000E+00 -0.13322676296E-14  0.00000000000E+00  0.91188000000E+02  0.91188000000E+02 0.  0.
    9900012    2    3    3    0    0 -0.36648310119E+02  0.23400016152E+01  0.26837144030E+01  0.54367128675E+02  0.40000101440E+02 0.  0.
        -12    1    3    3    0    0  0.36648310119E+02 -0.23400016152E+01 -0.26837144030E+01  0.36820871325E+02  0.00000000000E+00 0.  1.
         11    1    4    4    0    0 -0.57282273728E+01  0.11837885209E+02 -0.43344600105E+01  0.13846864588E+02  0.51100000000E-03 0. -1.
        -11    1    4    4    0    0  0.22967013210E+01  0.33462282665E+01  0.20969493852E+01  0.45682904411E+01  0.51100000000E-03 0.  1.
         12    1    4    4    0    0 -0.33216784067E+02 -0.12844111860E+02  0.49212250283E+01  0.35951973646E+02  0.00000000000E+00 0. -1.
</event>
<event>
 8    1  0.1290800E-006  0.9118800E+02  0.7816164E-02  0.1184000E+00
        -11   -1    0    0    0    0  0.00000000000E+00  0.00000000000E+00  0.45593999997E+02  0.45594000000E+02  0.51100000000E-03 0.  1.
         11   -1    0    0    0    0 -0.00000000000E+00 -0.00000000000E+00 -0.45593999997E+02  0.45594000000E+02  0.51100000000E-03 0. -1.
         23    2    1    2    0    0  0.00000000000E+00  0.00000000000E+00 -0.88817841970E-15  0.91188000000E+02  0.91188000000E+02 0.  0.
    9900012    2    3    3    0    0  0.18613908464E+02 -0.31659495486E+02 -0.26441190773E+01  0.54366910819E+02  0.39999604793E+02 0.  0.
         12    1    3    3    0    0 -0.18613908464E+02  0.31659495486E+02  0.26441190773E+01  0.36821089181E+02  0.00000000000E+00 0. -1.
         11    1    4    4    0    0  0.74635963954E+01 -0.25241517451E+02 -0.12392108770E+02  0.29093020373E+02  0.51100000000E-03 0. -1.
        -11    1    4    4    0    0  0.10283543533E+02  0.21438988058E+01 -0.20179400513E+01  0.10696712205E+02  0.51100000000E-03 0.  1.
         12    1    4    4    0    0  0.86676853568E+00 -0.85618768411E+01  0.11765929744E+02  0.14577178241E+02  0.00000000000E+00 0. -1.
</event>
<event>
 8    1  0.1290800E-006  0.9118800E+02  0.7816164E-02  0.1184000E+00
        -11   -1    0    0    0    0  0.00000000000E+00  0.00000000000E+00  0.45593999997E+02  0.45594000000E+02  0.51100000000E-03 0.  1.
         11   -1    0    0    0    0 -0.00000000000E+00 -0.00000000000E+00 -0.45593999997E+02  0.45594000000E+02  0.51100000000E-03 0. -1.
         23    2    1    2    0    0  0.35527136788E-14  0.00000000000E+00  0.00000000000E+00  0.91188000000E+02  0.91188000000E+02 0.  0.
    9900012    2    3    3    0    0 -0.20617832299E+02  0.16132707716E+02  0.25892459587E+02  0.54367099273E+02  0.40000034412E+02 0.  0.
         12    1    3    3    0    0  0.20617832299E+02 -0.16132707716E+02 -0.25892459587E+02  0.36820900727E+02  0.00000000000E+00 0. -1.
         11    1    4    4    0    0 -0.14865161426E+02  0.89037341283E+01 -0.26238150850E+01  0.17525236418E+02  0.51100000000E-03 0. -1.
        -11    1    4    4    0    0 -0.10290619841E+02  0.10593533807E+02  0.10938271018E+02  0.18378400049E+02  0.51100000000E-03 0.  1.
        -12    1    4    4    0    0  0.45379489688E+01 -0.33645602201E+01  0.17578003653E+02  0.18463462805E+02  0.00000000000E+00 0.  1.
</event>
<event>
 8    1  0.1290800E-006  0.9118800E+02  0.7816164E-02  0.1184000E+00
        -11   -1    0    0    0    0  0.00000000000E+00  0.00000000000E+00  0.45593999997E+02  0.45594000000E+02  0.51100000000E-03 0.  1.
         11   -1    0    0    0    0 -0.00000000000E+00 -0.00000000000E+00 -0.45593999997E+02  0.45594000000E+02  0.51100000000E-03 0. -1.
         23    2    1    2    0    0  0.00000000000E+00  0.00000000000E+00 -0.35527136788E-14  0.91188000000E+02  0.91188000000E+02 0.  0.
    9900012    2    3    3    0    0  0.26850911593E+01  0.22724957297E+02 -0.28846954857E+02  0.54367079272E+02  0.39999988817E+02 0.  0.
        -12    1    3    3    0    0 -0.26850911593E+01 -0.22724957297E+02  0.28846954857E+02  0.36820920728E+02  0.00000000000E+00 0.  1.
         11    1    4    4    0    0 -0.51659809181E+01  0.10016113388E+02 -0.83780160456E+01  0.14042828752E+02  0.51100000000E-03 0. -1.
        -11    1    4    4    0    0  0.41396907949E+01  0.55935021108E+00  0.80691645965E+01  0.90863265450E+01  0.51100000000E-03 0.  1.
        -12    1    4    4    0    0  0.37113812826E+01  0.12149493698E+02 -0.28538103408E+02  0.31237923975E+02  0.00000000000E+00 0.  1.
</event>
<event>
 8    1  0.1290800E-006  0.9118800E+02  0.7816164E-02  0.1184000E+00
        -11   -1    0    0    0    0  0.00000000000E+00  0.00000000000E+00  0.45593999997E+02  0.45594000000E+02  0.51100000000E-03 0.  1.
         11   -1    0    0    0    0 -0.00000000000E+00 -0.00000000000E+00 -0.45593999997E+02  0.45594000000E+02  0.51100000000E-03 0. -1.
         23    2    1    2    0    0 -0.35527136788E-14  0.00000000000E+00  0.00000000000E+00  0.91188000000E+02  0.91188000000E+02 0.  0.
    9900012    2    3    3    0    0 -0.18431780976E+02  0.21156440390E+02  0.23842354824E+02  0.54367035816E+02  0.39999889749E+02 0.  0.
         12    1    3    3    0    0  0.18431780976E+02 -0.21156440390E+02 -0.23842354824E+02  0.36820964184E+02  0.00000000000E+00 0. -1.
         11    1    4    4    0    0  0.11229657394E+02  0.23761643218E+01  0.24653039417E+01  0.11740063281E+02  0.51100000000E-03 0. -1.
        -11    1    4    4    0    0 -0.74318814334E+01  0.11104082860E+02  0.77725994377E+01  0.15457904776E+02  0.51100000000E-03 0.  1.
         12    1    4    4    0    0 -0.22229556936E+02  0.76761932084E+01  0.13604451444E+02  0.27169067758E+02  0.00000000000E+00 0. -1.
</event>
<event>
 8    1  0.1290800E-006  0.9118800E+02  0.7816164E-02  0.1184000E+00
        -11   -1    0    0    0    0  0.00000000000E+00  0.00000000000E+00  0.45593999997E+02  0.45594000000E+02  0.51100000000E-03 0.  1.
         11   -1    0    0    0    0 -0.00000000000E+00 -0.00000000000E+00 -0.45593999997E+02  0.45594000000E+02  0.51100000000E-03 0. -1.
         23    2    1    2    0    0 -0.13322676296E-14  0.00000000000E+00  0.15543122345E-14  0.91188000000E+02  0.91188000000E+02 0.  0.
    9900012    2    3    3    0    0 -0.22683631351E+01 -0.36709709011E+02 -0.17415378112E+01  0.54367066267E+02  0.39999959170E+02 0.  0.
         12    1    3    3    0    0  0.22683631351E+01  0.36709709011E+02  0.17415378112E+01  0.36820933733E+02  0.00000000000E+00 0. -1.
         11    1    4    4    0    0  0.12469472322E+02 -0.22817409113E+02 -0.14014546802E+01  0.26040083988E+02  0.51100000000E-03 0. -1.
        -11    1    4    4    0    0 -0.46677205888E+01 -0.12555104267E+02 -0.80020767588E+01  0.15602932140E+02  0.51100000000E-03 0.  1.
        -12    1    4    4    0    0 -0.10070114868E+02 -0.13371956312E+01  0.76619936278E+01  0.12724050140E+02  0.00000000000E+00 0.  1.
</event>
<event>
 8    1  0.1290800E-006  0.9118800E+02  0.7816164E-02  0.1184000E+00
        -11   -1    0    0    0    0  0.00000000000E+00  0.00000000000E+00  0.45593999997E+02  0.45594000000E+02  0.51100000000E-03 0.  1.
         11   -1    0    0    0    0 -0.00000000000E+00 -0.00000000000E+00 -0.45593999997E+02  0.45594000000E+02  0.51100000000E-03 0. -1.
         23    2    1    2    0    0 -0.17763568394E-14  0.00000000000E+00  0.00000000000E+00  0.91188000000E+02  0.91188000000E+02 0.  0.
    9900012    2    3    3    0    0  0.15881550288E+02 -0.13938712910E+02 -0.30154083262E+02  0.54367080749E+02  0.39999992184E+02 0.  0.
        -12    1    3    3    0    0 -0.15881550288E+02  0.13938712910E+02  0.30154083262E+02  0.36820919251E+02  0.00000000000E+00 0.  1.
         11    1    4    4    0    0 -0.48517372075E+00  0.10030196729E+02 -0.50430576806E+01  0.11237111328E+02  0.51100000000E-03 0. -1.
        -11    1    4    4    0    0  0.64855664882E+01 -0.94166307660E+01  0.11828221954E+01  0.11494980481E+02  0.51100000000E-03 0.  1.
         12    1    4    4    0    0  0.98811575202E+01 -0.14552278873E+02 -0.26293847777E+02  0.31634988940E+02  0.00000000000E+00 0. -1.
</event>
<event>
 8    1  0.1290800E-006  0.9118800E+02  0.7816164E-02  0.1184000E+00
        -11   -1    0    0    0    0  0.00000000000E+00  0.00000000000E+00  0.45593999997E+02  0.45594000000E+02  0.51100000000E-03 0. -1.
         11   -1    0    0    0    0 -0.00000000000E+00 -0.00000000000E+00 -0.45593999997E+02  0.45594000000E+02  0.51100000000E-03 0.  1.
         23    2    1    2    0    0  0.17763568394E-14  0.13322676296E-14  0.00000000000E+00  0.91188000000E+02  0.91188000000E+02 0.  0.
    9900012    2    3    3    0    0  0.10946671359E+02  0.23899067204E+01 -0.35074751799E+02  0.54367089070E+02  0.40000011153E+02 0.  0.
         12    1    3    3    0    0 -0.10946671359E+02 -0.23899067204E+01  0.35074751799E+02  0.36820910930E+02  0.00000000000E+00 0. -1.
         11    1    4    4    0    0  0.12137114643E+02 -0.14167191954E+02 -0.58879963649E+01  0.19562397122E+02  0.51100000000E-03 0. -1.
        -11    1    4    4    0    0  0.22684923353E+01  0.14784552189E+02 -0.21500121550E+02  0.26191301377E+02  0.51100000000E-03 0.  1.
         12    1    4    4    0    0 -0.34589356192E+01  0.17725464847E+01 -0.76866338840E+01  0.86133905707E+01  0.00000000000E+00 0. -1.
</event>
<event>
 8    1  0.1290800E-006  0.9118800E+02  0.7816164E-02  0.1184000E+00
        -11   -1    0    0    0    0  0.00000000000E+00  0.00000000000E+00  0.45593999997E+02  0.45594000000E+02  0.51100000000E-03 0.  1.
         11   -1    0    0    0    0 -0.00000000000E+00 -0.00000000000E+00 -0.45593999997E+02  0.45594000000E+02  0.51100000000E-03 0. -1.
         23    2    1    2    0    0  0.00000000000E+00 -0.88817841970E-15  0.00000000000E+00  0.91188000000E+02  0.91188000000E+02 0.  0.
    9900012    2    3    3    0    0  0.12954334242E+02  0.32123323431E+01 -0.34316859328E+02  0.54367072678E+02  0.39999973783E+02 0.  0.
        -12    1    3    3    0    0 -0.12954334242E+02 -0.32123323431E+01  0.34316859328E+02  0.36820927322E+02  0.00000000000E+00 0.  1.
         11    1    4    4    0    0  0.12304844168E+02 -0.14982302795E+01 -0.26983272222E+02  0.29694290091E+02  0.51100000000E-03 0. -1.
        -11    1    4    4    0    0 -0.61951389388E+00 -0.91864362310E+01 -0.73521627925E+00  0.92366092982E+01  0.51100000000E-03 0.  1.
         12    1    4    4    0    0  0.12690039682E+01  0.13896998854E+02 -0.65983708269E+01  0.15436173288E+02  0.00000000000E+00 0. -1.
</event>
<event>
 8    1  0.1290800E-006  0.9118800E+02  0.7816164E-02  0.1184000E+00
        -11   -1    0    0    0    0  0.00000000000E+00  0.00000000000E+00  0.45593999997E+02  0.45594000000E+02  0.51100000000E-03 0. -1.
         11   -1    0    0    0    0 -0.00000000000E+00 -0.00000000000E+00 -0.45593999997E+02  0.45594000000E+02  0.51100000000E-03 0.  1.
         23    2    1    2    0    0  0.00000000000E+00  0.00000000000E+00 -0.35527136788E-14  0.91188000000E+02  0.91188000000E+02 0.  0.
    9900012    2    3    3    0    0  0.43695958713E+01  0.31980957180E+02 -0.17716936565E+02  0.54367288010E+02  0.40000464673E+02 0.  0.
         12    1    3    3    0    0 -0.43695958713E+01 -0.31980957180E+02  0.17716936565E+02  0.36820711990E+02  0.00000000000E+00 0. -1.
         11    1    4    4    0    0 -0.96607437544E+00 -0.54989760687E+01 -0.93924547294E+00  0.56616446217E+01  0.51100000000E-03 0. -1.
        -11    1    4    4    0    0  0.78368279236E+00  0.13449192839E+02 -0.19918584472E+02  0.24046724401E+02  0.51100000000E-03 0.  1.
        -12    1    4    4    0    0  0.45519874544E+01  0.24030740409E+02  0.31408933807E+01  0.24658918987E+02  0.00000000000E+00 0.  1.
</event>
<event>
 8    1  0.1290800E-006  0.9118800E+02  0.7816164E-02  0.1184000E+00
        -11   -1    0    0    0    0  0.00000000000E+00  0.00000000000E+00  0.45593999997E+02  0.45594000000E+02  0.51100000000E-03 0. -1.
         11   -1    0    0    0    0 -0.00000000000E+00 -0.00000000000E+00 -0.45593999997E+02  0.45594000000E+02  0.51100000000E-03 0.  1.
         23    2    1    2    0    0  0.35527136788E-14 -0.44408920985E-15  0.35527136788E-14  0.91188000000E+02  0.91188000000E+02 0.  0.
    9900012    2    3    3    0    0  0.27095900484E+02 -0.32923026389E+01  0.24713394347E+02  0.54367096428E+02  0.40000027927E+02 0.  0.
        -12    1    3    3    0    0 -0.27095900484E+02  0.32923026389E+01 -0.24713394347E+02  0.36820903572E+02  0.00000000000E+00 0.  1.
         11    1    4    4    0    0  0.27056080585E+02  0.99623494223E+01  0.12459460090E+02  0.31408884867E+02  0.51100000000E-03 0. -1.
        -11    1    4    4    0    0 -0.34812286955E+01  0.31868161462E+00  0.72866504031E+01  0.80818182088E+01  0.51100000000E-03 0.  1.
        -12    1    4    4    0    0  0.35210485946E+01 -0.13573333676E+02  0.49672838540E+01  0.14876393352E+02  0.00000000000E+00 0.  1.
</event>
<event>
 8    1  0.1290800E-006  0.9118800E+02  0.7816164E-02  0.1184000E+00
        -11   -1    0    0    0    0  0.00000000000E+00  0.00000000000E+00  0.45593999997E+02  0.45594000000E+02  0.51100000000E-03 0.  1.
         11   -1    0    0    0    0 -0.00000000000E+00 -0.00000000000E+00 -0.45593999997E+02  0.45594000000E+02  0.51100000000E-03 0. -1.
         23    2    1    2    0    0 -0.35527136788E-14  0.35527136788E-14  0.35527136788E-14  0.91188000000E+02  0.91188000000E+02 0.  0.
    9900012    2    3    3    0    0  0.23155391572E+02 -0.21665011499E+02 -0.18714541238E+02  0.54367096482E+02  0.40000028050E+02 0.  0.
        -12    1    3    3    0    0 -0.23155391572E+02  0.21665011499E+02  0.18714541238E+02  0.36820903518E+02  0.00000000000E+00 0.  1.
         11    1    4    4    0    0  0.16412516154E+02 -0.15667671883E+02  0.47532216132E+01  0.23182746703E+02  0.51100000000E-03 0. -1.
        -11    1    4    4    0    0  0.85662637316E+01 -0.38245381898E+01 -0.20796958106E+01  0.96090114793E+01  0.51100000000E-03 0.  1.
        -12    1    4    4    0    0 -0.18233883138E+01 -0.21728014265E+01 -0.21388067041E+02  0.21575338299E+02  0.00000000000E+00 0.  1.
</event>
<event>
 8    1  0.1290800E-006  0.9118800E+02  0.7816164E-02  0.1184000E+00
        -11   -1    0    0    0    0  0.00000000000E+00  0.00000000000E+00  0.45593999997E+02  0.45594000000E+02  0.51100000000E-03 0. -1.
         11   -1    0    0    0    0 -0.00000000000E+00 -0.00000000000E+00 -0.45593999997E+02  0.45594000000E+02  0.51100000000E-03 0.  1.
         23    2    1    2    0    0 -0.88817841970E-15 -0.17763568394E-14  0.00000000000E+00  0.91188000000E+02  0.91188000000E+02 0.  0.
    9900012    2    3    3    0    0  0.24160726422E+01 -0.58724623504E+01  0.36269215798E+02  0.54367092411E+02  0.40000018769E+02 0.  0.
        -12    1    3    3    0    0 -0.24160726422E+01  0.58724623504E+01 -0.36269215798E+02  0.36820907589E+02  0.00000000000E+00 0.  1.
         11    1    4    4    0    0  0.12604186733E+02 -0.11527728961E+01  0.23776288373E+02  0.26935224105E+02  0.51100000000E-03 0. -1.
        -11    1    4    4    0    0 -0.15696619819E+02  0.17460248164E+01  0.94749987568E+01  0.18417602399E+02  0.51100000000E-03 0.  1.
        -12    1    4    4    0    0  0.55085057286E+01 -0.64657142707E+01  0.30179286684E+01  0.90142659069E+01  0.00000000000E+00 0.  1.
</event>
<event>
 8    1  0.1290800E-006  0.9118800E+02  0.7816164E-02  0.1184000E+00
        -11   -1    0    0    0    0  0.00000000000E+00  0.00000000000E+00  0.45593999997E+02  0.45594000000E+02  0.51100000000E-03 0.  1.
         11   -1    0    0    0    0 -0.00000000000E+00 -0.00000000000E+00 -0.45593999997E+02  0.45594000000E+02  0.51100000000E-03 0. -1.
         23    2    1    2    0    0  0.00000000000E+00  0.00000000000E+00  0.00000000000E+00  0.91188000000E+02  0.91188000000E+02 0.  0.
    9900012    2    3    3    0    0 -0.13498489085E+02  0.21470579567E+01 -0.34190028357E+02  0.54367121351E+02  0.40000084744E+02 0.  0.
        -12    1    3    3    0    0  0.13498489085E+02 -0.21470579567E+01  0.34190028357E+02  0.36820878649E+02  0.00000000000E+00 0.  1.
         11    1    4    4    0    0 -0.20077787225E+02  0.71745319593E+01 -0.86494630279E+01  0.23008795267E+02  0.51100000000E-03 0. -1.
        -11    1    4    4    0    0  0.78746493816E+01 -0.87582403898E+01 -0.10403726542E+02  0.15714782971E+02  0.51100000000E-03 0.  1.
         12    1    4    4    0    0 -0.12953512411E+01  0.37307663872E+01 -0.15136838787E+02  0.15643543113E+02  0.00000000000E+00 0. -1.
</event>
<event>
 8    1  0.1290800E-006  0.9118800E+02  0.7816164E-02  0.1184000E+00
        -11   -1    0    0    0    0  0.00000000000E+00  0.00000000000E+00  0.45593999997E+02  0.45594000000E+02  0.51100000000E-03 0.  1.
         11   -1    0    0    0    0 -0.00000000000E+00 -0.00000000000E+00 -0.45593999997E+02  0.45594000000E+02  0.51100000000E-03 0. -1.
         23    2    1    2    0    0  0.00000000000E+00 -0.35527136788E-14 -0.35527136788E-14  0.91188000000E+02  0.91188000000E+02 0.  0.
    9900012    2    3    3    0    0  0.23395065124E+02  0.21249063572E+02 -0.18892519294E+02  0.54367094795E+02  0.40000024204E+02 0.  0.
        -12    1    3    3    0    0 -0.23395065124E+02 -0.21249063572E+02  0.18892519294E+02  0.36820905205E+02  0.00000000000E+00 0.  1.
         11    1    4    4    0    0  0.11625724781E+02  0.23408871998E+02  0.53235214899E+01  0.26673444589E+02  0.51100000000E-03 0. -1.
        -11    1    4    4    0    0  0.13585885797E+01 -0.72927539632E+00 -0.94211611812E+01  0.95465116035E+01  0.51100000000E-03 0.  1.
         12    1    4    4    0    0  0.10410751763E+02 -0.14305330295E+01 -0.14794879602E+02  0.18147138603E+02  0.00000000000E+00 0. -1.
</event>
<event>
 8    1  0.1290800E-006  0.9118800E+02  0.7816164E-02  0.1184000E+00
        -11   -1    0    0    0    0  0.00000000000E+00  0.00000000000E+00  0.45593999997E+02  0.45594000000E+02  0.51100000000E-03 0. -1.
         11   -1    0    0    0    0 -0.00000000000E+00 -0.00000000000E+00 -0.45593999997E+02  0.45594000000E+02  0.51100000000E-03 0.  1.
         23    2    1    2    0    0  0.00000000000E+00  0.55511151231E-15  0.00000000000E+00  0.91188000000E+02  0.91188000000E+02 0.  0.
    9900012    2    3    3    0    0 -0.36203611577E+02 -0.56140217358E+00 -0.66903561921E+01  0.54367115578E+02  0.40000071584E+02 0.  0.
         12    1    3    3    0    0  0.36203611577E+02  0.56140217358E+00  0.66903561921E+01  0.36820884422E+02  0.00000000000E+00 0. -1.
         11    1    4    4    0    0 -0.19157590537E+02  0.42493077744E+01  0.38343097058E+01  0.19994294759E+02  0.51100000000E-03 0. -1.
        -11    1    4    4    0    0 -0.13130388575E+02 -0.72619587313E+01  0.67775912130E+01  0.16464473622E+02  0.51100000000E-03 0.  1.
        -12    1    4    4    0    0 -0.39156324651E+01  0.24512487833E+01 -0.17302257111E+02  0.17908347197E+02  0.00000000000E+00 0.  1.
</event>
<event>
 8    1  0.1290800E-006  0.9118800E+02  0.7816164E-02  0.1184000E+00
        -11   -1    0    0    0    0  0.00000000000E+00  0.00000000000E+00  0.45593999997E+02  0.45594000000E+02  0.51100000000E-03 0. -1.
         11   -1    0    0    0    0 -0.00000000000E+00 -0.00000000000E+00 -0.45593999997E+02  0.45594000000E+02  0.51100000000E-03 0.  1.
         23    2    1    2    0    0  0.35527136788E-14  0.00000000000E+00  0.00000000000E+00  0.91188000000E+02  0.91188000000E+02 0.  0.
    9900012    2    3    3    0    0 -0.24237186843E+02 -0.22507497789E+02  0.16178708307E+02  0.54367091737E+02  0.40000017234E+02 0.  0.
        -12    1    3    3    0    0  0.24237186843E+02  0.22507497789E+02 -0.16178708307E+02  0.36820908263E+02  0.00000000000E+00 0.  1.
         11    1    4    4    0    0 -0.15842565245E+01 -0.11170910808E+01  0.14340453305E+02  0.14470879810E+02  0.51100000000E-03 0. -1.
        -11    1    4    4    0    0 -0.12242845933E+02 -0.20585427411E+02  0.10670598755E+02  0.26220388562E+02  0.51100000000E-03 0.  1.
        -12    1    4    4    0    0 -0.10410084385E+02 -0.80497929710E+00 -0.88323437530E+01  0.13675823366E+02  0.00000000000E+00 0.  1.
</event>
<event>
 8    1  0.1290800E-006  0.9118800E+02  0.7816164E-02  0.1184000E+00
        -11   -1    0    0    0    0  0.00000000000E+00  0.00000000000E+00  0.45593999997E+02  0.45594000000E+02  0.51100000000E-03 0.  1.
         11   -1    0    0    0    0 -0.00000000000E+00 -0.00000000000E+00 -0.45593999997E+02  0.45594000000E+02  0.51100000000E-03 0. -1.
         23    2    1    2    0    0  0.00000000000E+00 -0.88817841970E-15 -0.35527136788E-14  0.91188000000E+02  0.91188000000E+02 0.  0.
    9900012    2    3    3    0    0 -0.32202498732E+02  0.64071121997E+01  0.16665188007E+02  0.54367075207E+02  0.39999979550E+02 0.  0.
         12    1    3    3    0    0  0.32202498732E+02 -0.64071121997E+01 -0.16665188007E+02  0.36820924793E+02  0.00000000000E+00 0. -1.
         11    1    4    4    0    0 -0.14982572918E+02  0.11107446954E+02  0.23621759715E+02  0.30097182615E+02  0.51100000000E-03 0. -1.
        -11    1    4    4    0    0 -0.12570453410E+02  0.19574574577E+00  0.23321365279E+01  0.12786456756E+02  0.51100000000E-03 0.  1.
        -12    1    4    4    0    0 -0.46494724040E+01 -0.48960804999E+01 -0.92887082365E+01  0.11483435836E+02  0.00000000000E+00 0.  1.
</event>
<event>
 8    1  0.1290800E-006  0.9118800E+02  0.7816164E-02  0.1184000E+00
        -11   -1    0    0    0    0  0.00000000000E+00  0.00000000000E+00  0.45593999997E+02  0.45594000000E+02  0.51100000000E-03 0.  1.
         11   -1    0    0    0    0 -0.00000000000E+00 -0.00000000000E+00 -0.45593999997E+02  0.45594000000E+02  0.51100000000E-03 0. -1.
         23    2    1    2    0    0  0.00000000000E+00  0.00000000000E+00 -0.35527136788E-14  0.91188000000E+02  0.91188000000E+02 0.  0.
    9900012    2    3    3    0    0 -0.19250195259E+02  0.25112959500E+02 -0.18829480055E+02  0.54367081061E+02  0.39999992895E+02 0.  0.
        -12    1    3    3    0    0  0.19250195259E+02 -0.25112959500E+02  0.18829480055E+02  0.36820918939E+02  0.00000000000E+00 0.  1.
         11    1    4    4    0    0 -0.14929272840E+02  0.35147097144E+01 -0.14682881568E+02  0.21232601897E+02  0.51100000000E-03 0. -1.
        -11    1    4    4    0    0 -0.24739607938E+01  0.27026439927E+02 -0.35084126503E+01  0.27365268073E+02  0.51100000000E-03 0.  1.
        -12    1    4    4    0    0 -0.18469616258E+01 -0.54281901409E+01 -0.63818583666E+00  0.57692110913E+01  0.00000000000E+00 0.  1.
</event>
<event>
 8    1  0.1290800E-006  0.9118800E+02  0.7816164E-02  0.1184000E+00
        -11   -1    0    0    0    0  0.00000000000E+00  0.00000000000E+00  0.45593999997E+02  0.45594000000E+02  0.51100000000E-03 0. -1.
         11   -1    0    0    0    0 -0.00000000000E+00 -0.00000000000E+00 -0.45593999997E+02  0.45594000000E+02  0.51100000000E-03 0.  1.
         23    2    1    2    0    0  0.00000000000E+00  0.00000000000E+00  0.35527136788E-14  0.91188000000E+02  0.91188000000E+02 0.  0.
    9900012    2    3    3    0    0  0.19621485868E+02 -0.19105044698E+02 -0.24612488997E+02  0.54367081282E+02  0.39999993399E+02 0.  0.
         12    1    3    3    0    0 -0.19621485868E+02  0.19105044698E+02  0.24612488997E+02  0.36820918718E+02  0.00000000000E+00 0. -1.
         11    1    4    4    0    0  0.13473925179E+02 -0.14524654423E+02 -0.67778001987E+01  0.20939217312E+02  0.51100000000E-03 0. -1.
        -11    1    4    4    0    0  0.16457211870E+02 -0.41552307655E+01 -0.15184771653E+02  0.22774614281E+02  0.51100000000E-03 0.  1.
         12    1    4    4    0    0 -0.10309651180E+02 -0.42515950943E+00 -0.26499171453E+01  0.10653249690E+02  0.00000000000E+00 0. -1.
</event>
<event>
 8    1  0.1290800E-006  0.9118800E+02  0.7816164E-02  0.1184000E+00
        -11   -1    0    0    0    0  0.00000000000E+00  0.00000000000E+00  0.45593999997E+02  0.45594000000E+02  0.51100000000E-03 0.  1.
         11   -1    0    0    0    0 -0.00000000000E+00 -0.00000000000E+00 -0.45593999997E+02  0.45594000000E+02  0.51100000000E-03 0. -1.
         23    2    1    2    0    0  0.00000000000E+00 -0.44408920985E-15  0.00000000000E+00  0.91188000000E+02  0.91188000000E+02 0.  0.
    9900012    2    3    3    0    0  0.41298001138E+01  0.24634781220E+01  0.36505541268E+02  0.54367102174E+02  0.40000041027E+02 0.  0.
         12    1    3    3    0    0 -0.41298001138E+01 -0.24634781220E+01 -0.36505541268E+02  0.36820897826E+02  0.00000000000E+00 0. -1.
         11    1    4    4    0    0 -0.14821738152E+02 -0.20701629834E+01  0.12907042783E+02  0.19762622556E+02  0.51100000000E-03 0. -1.
        -11    1    4    4    0    0  0.20081068348E+02 -0.27231695587E+00  0.16687369446E+02  0.26111142484E+02  0.51100000000E-03 0.  1.
        -12    1    4    4    0    0 -0.11295300821E+01  0.48059580613E+01  0.69111290391E+01  0.84933371349E+01  0.00000000000E+00 0.  1.
</event>
<event>
 8    1  0.1290800E-006  0.9118800E+02  0.7816164E-02  0.1184000E+00
        -11   -1    0    0    0    0  0.00000000000E+00  0.00000000000E+00  0.45593999997E+02  0.45594000000E+02  0.51100000000E-03 0. -1.
         11   -1    0    0    0    0 -0.00000000000E+00 -0.00000000000E+00 -0.45593999997E+02  0.45594000000E+02  0.51100000000E-03 0.  1.
         23    2    1    2    0    0 -0.35527136788E-14 -0.17763568394E-14  0.35527136788E-14  0.91188000000E+02  0.91188000000E+02 0.  0.
    9900012    2    3    3    0    0 -0.22308778577E+02 -0.51967127157E+01  0.28828675569E+02  0.54367082579E+02  0.39999996355E+02 0.  0.
        -12    1    3    3    0    0  0.22308778577E+02  0.51967127157E+01 -0.28828675569E+02  0.36820917421E+02  0.00000000000E+00 0.  1.
         11    1    4    4    0    0 -0.42039856504E+01 -0.79770298391E+01  0.53863403490E+01  0.10503292961E+02  0.51100000000E-03 0. -1.
        -11    1    4    4    0    0 -0.11672033611E+02 -0.82923063954E+01  0.27010234300E+02  0.30570434592E+02  0.51100000000E-03 0.  1.
        -12    1    4    4    0    0 -0.64327593156E+01  0.11072623519E+02 -0.35678990795E+01  0.13293355026E+02  0.00000000000E+00 0.  1.
</event>
<event>
 8    1  0.1290800E-006  0.9118800E+02  0.7816164E-02  0.1184000E+00
        -11   -1    0    0    0    0  0.00000000000E+00  0.00000000000E+00  0.45593999997E+02  0.45594000000E+02  0.51100000000E-03 0. -1.
         11   -1    0    0    0    0 -0.00000000000E+00 -0.00000000000E+00 -0.45593999997E+02  0.45594000000E+02  0.51100000000E-03 0.  1.
         23    2    1    2    0    0  0.00000000000E+00  0.00000000000E+00  0.17763568394E-14  0.91188000000E+02  0.91188000000E+02 0.  0.
    9900012    2    3    3    0    0  0.49963705291E+01  0.33462237561E+02  0.14529124375E+02  0.54367075023E+02  0.39999979130E+02 0.  0.
        -12    1    3    3    0    0 -0.49963705291E+01 -0.33462237561E+02 -0.14529124375E+02  0.36820924977E+02  0.00000000000E+00 0.  1.
         11    1    4    4    0    0  0.51423470892E+01 -0.50130533713E+01 -0.34312808936E+01  0.79591536310E+01  0.51100000000E-03 0. -1.
        -11    1    4    4    0    0  0.30025001469E+01 -0.52336901231E+00 -0.59508831390E+00  0.31053264914E+01  0.51100000000E-03 0.  1.
         12    1    4    4    0    0 -0.31484767071E+01  0.38998659945E+02  0.18555493582E+02  0.43302594901E+02  0.00000000000E+00 0. -1.
</event>
<event>
 8    1  0.1290800E-006  0.9118800E+02  0.7816164E-02  0.1184000E+00
        -11   -1    0    0    0    0  0.00000000000E+00  0.00000000000E+00  0.45593999997E+02  0.45594000000E+02  0.51100000000E-03 0.  1.
         11   -1    0    0    0    0 -0.00000000000E+00 -0.00000000000E+00 -0.45593999997E+02  0.45594000000E+02  0.51100000000E-03 0. -1.
         23    2    1    2    0    0  0.00000000000E+00  0.55511151231E-15  0.00000000000E+00  0.91188000000E+02  0.91188000000E+02 0.  0.
    9900012    2    3    3    0    0 -0.67802821873E+01 -0.51049300389E+00  0.36187683522E+02  0.54367064809E+02  0.39999955846E+02 0.  0.
         12    1    3    3    0    0  0.67802821873E+01  0.51049300389E+00 -0.36187683522E+02  0.36820935191E+02  0.00000000000E+00 0. -1.
         11    1    4    4    0    0 -0.10973684446E+02 -0.79343324883E+01  0.16486435463E+02  0.21334899505E+02  0.51100000000E-03 0.  1.
        -11    1    4    4    0    0  0.97073721339E+01  0.53103524847E+01  0.23524894402E+02  0.25997183965E+02  0.51100000000E-03 0. -1.
         12    1    4    4    0    0 -0.55139698751E+01  0.21134869997E+01 -0.38236463430E+01  0.70349813388E+01  0.00000000000E+00 0. -1.
</event>
<event>
 8    1  0.1290800E-006  0.9118800E+02  0.7816164E-02  0.1184000E+00
        -11   -1    0    0    0    0  0.00000000000E+00  0.00000000000E+00  0.45593999997E+02  0.45594000000E+02  0.51100000000E-03 0. -1.
         11   -1    0    0    0    0 -0.00000000000E+00 -0.00000000000E+00 -0.45593999997E+02  0.45594000000E+02  0.51100000000E-03 0.  1.
         23    2    1    2    0    0  0.00000000000E+00  0.13322676296E-14  0.00000000000E+00  0.91188000000E+02  0.91188000000E+02 0.  0.
    9900012    2    3    3    0    0  0.69519354114E+01 -0.27649071317E+01 -0.36052847369E+02  0.54367055949E+02  0.39999935647E+02 0.  0.
         12    1    3    3    0    0 -0.69519354114E+01  0.27649071317E+01  0.36052847369E+02  0.36820944051E+02  0.00000000000E+00 0. -1.
         11    1    4    4    0    0  0.48417841360E+00 -0.10659126005E+02 -0.19187492522E+02  0.21954754963E+02  0.51100000000E-03 0. -1.
        -11    1    4    4    0    0  0.13247808184E+02 -0.40363746254E+01 -0.98960563225E+01  0.17021418061E+02  0.51100000000E-03 0.  1.
         12    1    4    4    0    0 -0.67800511862E+01  0.11930593498E+02 -0.69692985239E+01  0.15390882925E+02  0.00000000000E+00 0. -1.
</event>
<event>
 8    1  0.1290800E-006  0.9118800E+02  0.7816164E-02  0.1184000E+00
        -11   -1    0    0    0    0  0.00000000000E+00  0.00000000000E+00  0.45593999997E+02  0.45594000000E+02  0.51100000000E-03 0. -1.
         11   -1    0    0    0    0 -0.00000000000E+00 -0.00000000000E+00 -0.45593999997E+02  0.45594000000E+02  0.51100000000E-03 0.  1.
         23    2    1    2    0    0 -0.88817841970E-15  0.00000000000E+00 -0.35527136788E-14  0.91188000000E+02  0.91188000000E+02 0.  0.
    9900012    2    3    3    0    0  0.75868984251E+01 -0.25885293893E+02  0.25063338651E+02  0.54367076438E+02  0.39999982355E+02 0.  0.
        -12    1    3    3    0    0 -0.75868984251E+01  0.25885293893E+02 -0.25063338651E+02  0.36820923562E+02  0.00000000000E+00 0.  1.
         11    1    4    4    0    0  0.33951777805E+01 -0.49918809400E+00  0.14874690763E+02  0.15265413407E+02  0.51100000000E-03 0. -1.
        -11    1    4    4    0    0 -0.11581471384E+02 -0.75883163840E+01  0.52822129782E+01  0.14819406168E+02  0.51100000000E-03 0.  1.
         12    1    4    4    0    0  0.15773192029E+02 -0.17797789415E+02  0.49064349099E+01  0.24282256863E+02  0.00000000000E+00 0. -1.
</event>
<event>
 8    1  0.1290800E-006  0.9118800E+02  0.7816164E-02  0.1184000E+00
        -11   -1    0    0    0    0  0.00000000000E+00  0.00000000000E+00  0.45593999997E+02  0.45594000000E+02  0.51100000000E-03 0.  1.
         11   -1    0    0    0    0 -0.00000000000E+00 -0.00000000000E+00 -0.45593999997E+02  0.45594000000E+02  0.51100000000E-03 0. -1.
         23    2    1    2    0    0  0.00000000000E+00  0.00000000000E+00  0.00000000000E+00  0.91188000000E+02  0.91188000000E+02 0.  0.
    9900012    2    3    3    0    0 -0.16449938787E+02  0.32842809667E+02 -0.25573018215E+01  0.54366940461E+02  0.39999672369E+02 0.  0.
        -12    1    3    3    0    0  0.16449938787E+02 -0.32842809667E+02  0.25573018215E+01  0.36821059539E+02  0.00000000000E+00 0.  1.
         11    1    4    4    0    0 -0.59670924279E+01  0.18770509342E+02 -0.17897692328E+00  0.19696960324E+02  0.51100000000E-03 0. -1.
        -11    1    4    4    0    0  0.78815178091E+01  0.62583556880E-01 -0.76435819462E+01  0.10979370879E+02  0.51100000000E-03 0.  1.
         12    1    4    4    0    0 -0.18364364169E+02  0.14009716768E+02  0.52652570480E+01  0.23690609258E+02  0.00000000000E+00 0. -1.
</event>
<event>
 8    1  0.1290800E-006  0.9118800E+02  0.7816164E-02  0.1184000E+00
        -11   -1    0    0    0    0  0.00000000000E+00  0.00000000000E+00  0.45593999997E+02  0.45594000000E+02  0.51100000000E-03 0. -1.
         11   -1    0    0    0    0 -0.00000000000E+00 -0.00000000000E+00 -0.45593999997E+02  0.45594000000E+02  0.51100000000E-03 0.  1.
         23    2    1    2    0    0  0.00000000000E+00  0.00000000000E+00  0.00000000000E+00  0.91188000000E+02  0.91188000000E+02 0.  0.
    9900012    2    3    3    0    0  0.33947884664E+02 -0.12361359376E+02 -0.71075725858E+01  0.54367086556E+02  0.40000005422E+02 0.  0.
        -12    1    3    3    0    0 -0.33947884664E+02  0.12361359376E+02  0.71075725858E+01  0.36820913444E+02  0.00000000000E+00 0.  1.
         11    1    4    4    0    0  0.16295612642E+02 -0.96321518207E+01  0.68903600810E+01  0.20144537781E+02  0.51100000000E-03 0. -1.
        -11    1    4    4    0    0  0.18858837985E+02  0.76496794916E+00 -0.19792478016E+02  0.27349280290E+02  0.51100000000E-03 0.  1.
        -12    1    4    4    0    0 -0.12065659629E+01 -0.34941755044E+01  0.57945453489E+01  0.68732684858E+01  0.00000000000E+00 0.  1.
</event>
<event>
 8    1  0.1290800E-006  0.9118800E+02  0.7816164E-02  0.1184000E+00
        -11   -1    0    0    0    0  0.00000000000E+00  0.00000000000E+00  0.45593999997E+02  0.45594000000E+02  0.51100000000E-03 0.  1.
         11   -1    0    0    0    0 -0.00000000000E+00 -0.00000000000E+00 -0.45593999997E+02  0.45594000000E+02  0.51100000000E-03 0. -1.
         23    2    1    2    0    0  0.00000000000E+00  0.00000000000E+00 -0.22204460493E-14  0.91188000000E+02  0.91188000000E+02 0.  0.
    9900012    2    3    3    0    0  0.32475397930E+02  0.16977588007E+02 -0.35901947590E+01  0.54367089315E+02  0.40000011712E+02 0.  0.
        -12    1    3    3    0    0 -0.32475397930E+02 -0.16977588007E+02  0.35901947590E+01  0.36820910685E+02  0.00000000000E+00 0.  1.
         11    1    4    4    0    0  0.16222347152E+02  0.42885602268E+01 -0.56892121691E+00  0.16789281329E+02  0.51100000000E-03 0. -1.
        -11    1    4    4    0    0  0.60059685810E+01  0.17831607852E+02 -0.12594036482E+02  0.22641723705E+02  0.51100000000E-03 0.  1.
        -12    1    4    4    0    0  0.10247082197E+02 -0.51425800720E+01  0.95727629395E+01  0.14936084281E+02  0.00000000000E+00 0.  1.
</event>
<event>
 8    1  0.1290800E-006  0.9118800E+02  0.7816164E-02  0.1184000E+00
        -11   -1    0    0    0    0  0.00000000000E+00  0.00000000000E+00  0.45593999997E+02  0.45594000000E+02  0.51100000000E-03 0.  1.
         11   -1    0    0    0    0 -0.00000000000E+00 -0.00000000000E+00 -0.45593999997E+02  0.45594000000E+02  0.51100000000E-03 0. -1.
         23    2    1    2    0    0  0.00000000000E+00  0.00000000000E+00  0.00000000000E+00  0.91188000000E+02  0.91188000000E+02 0.  0.
    9900012    2    3    3    0    0  0.65708514907E+01 -0.13038008236E+02 -0.33802566138E+02  0.54367092548E+02  0.40000019082E+02 0.  0.
        -12    1    3    3    0    0 -0.65708514907E+01  0.13038008236E+02  0.33802566138E+02  0.36820907452E+02  0.00000000000E+00 0.  1.
         11    1    4    4    0    0 -0.86241007011E+01 -0.10518284679E+02 -0.92543548419E+01  0.16451519969E+02  0.51100000000E-03 0.  1.
        -11    1    4    4    0    0 -0.53081244932E+01 -0.37739561466E+01 -0.12517132671E+02  0.14110192813E+02  0.51100000000E-03 0. -1.
        -12    1    4    4    0    0  0.20503076685E+02  0.12542325896E+01 -0.12031078625E+02  0.23805379766E+02  0.00000000000E+00 0.  1.
</event>
<event>
 8    1  0.1290800E-006  0.9118800E+02  0.7816164E-02  0.1184000E+00
        -11   -1    0    0    0    0  0.00000000000E+00  0.00000000000E+00  0.45593999997E+02  0.45594000000E+02  0.51100000000E-03 0.  1.
         11   -1    0    0    0    0 -0.00000000000E+00 -0.00000000000E+00 -0.45593999997E+02  0.45594000000E+02  0.51100000000E-03 0. -1.
         23    2    1    2    0    0  0.00000000000E+00  0.35527136788E-14  0.00000000000E+00  0.91188000000E+02  0.91188000000E+02 0.  0.
    9900012    2    3    3    0    0 -0.18027274140E+02 -0.23004276919E+02  0.22396441501E+02  0.54367082556E+02  0.39999996303E+02 0.  0.
         12    1    3    3    0    0  0.18027274140E+02  0.23004276919E+02 -0.22396441501E+02  0.36820917444E+02  0.00000000000E+00 0. -1.
         11    1    4    4    0    0 -0.11631000829E+02 -0.10556692006E+01  0.20836153880E+01  0.11863223470E+02  0.51100000000E-03 0. -1.
        -11    1    4    4    0    0 -0.98826724605E+01 -0.26724543387E+02  0.92451885860E+01  0.29955666349E+02  0.51100000000E-03 0.  1.
        -12    1    4    4    0    0  0.34863991492E+01  0.47759356681E+01  0.11067637527E+02  0.12548192737E+02  0.00000000000E+00 0.  1.
</event>
<event>
 8    1  0.1290800E-006  0.9118800E+02  0.7816164E-02  0.1184000E+00
        -11   -1    0    0    0    0  0.00000000000E+00  0.00000000000E+00  0.45593999997E+02  0.45594000000E+02  0.51100000000E-03 0.  1.
         11   -1    0    0    0    0 -0.00000000000E+00 -0.00000000000E+00 -0.45593999997E+02  0.45594000000E+02  0.51100000000E-03 0. -1.
         23    2    1    2    0    0  0.00000000000E+00  0.35527136788E-14  0.13322676296E-14  0.91188000000E+02  0.91188000000E+02 0.  0.
    9900012    2    3    3    0    0  0.19761540746E+02 -0.30978966910E+02 -0.23589822598E+01  0.54367086367E+02  0.40000004991E+02 0.  0.
        -12    1    3    3    0    0 -0.19761540746E+02  0.30978966910E+02  0.23589822598E+01  0.36820913633E+02  0.00000000000E+00 0.  1.
         11    1    4    4    0    0  0.68044060510E+01  0.68421659627E+00 -0.10685832206E+02  0.12686808277E+02  0.51100000000E-03 0. -1.
        -11    1    4    4    0    0  0.10692810456E+01 -0.18627516408E+02 -0.52907009229E+01  0.19393794008E+02  0.51100000000E-03 0.  1.
         12    1    4    4    0    0  0.11887853650E+02 -0.13035667098E+02  0.13617550869E+02  0.22286484082E+02  0.00000000000E+00 0. -1.
</event>
<event>
 8    1  0.1290800E-006  0.9118800E+02  0.7816164E-02  0.1184000E+00
        -11   -1    0    0    0    0  0.00000000000E+00  0.00000000000E+00  0.45593999997E+02  0.45594000000E+02  0.51100000000E-03 0.  1.
         11   -1    0    0    0    0 -0.00000000000E+00 -0.00000000000E+00 -0.45593999997E+02  0.45594000000E+02  0.51100000000E-03 0. -1.
         23    2    1    2    0    0  0.00000000000E+00  0.00000000000E+00  0.00000000000E+00  0.91188000000E+02  0.91188000000E+02 0.  0.
    9900012    2    3    3    0    0  0.35635440627E+01  0.10964264404E+02 -0.34969501245E+02  0.54367082609E+02  0.39999996424E+02 0.  0.
        -12    1    3    3    0    0 -0.35635440627E+01 -0.10964264404E+02  0.34969501245E+02  0.36820917391E+02  0.00000000000E+00 0.  1.
         11    1    4    4    0    0 -0.10585520731E+00  0.14938733492E+02  0.21014804127E+01  0.15086191827E+02  0.51100000000E-03 0. -1.
        -11    1    4    4    0    0  0.34749812213E+01 -0.79901770369E+01 -0.28718460805E+02  0.30011138179E+02  0.51100000000E-03 0.  1.
        -12    1    4    4    0    0  0.19441804876E+00  0.40157079487E+01 -0.83525208528E+01  0.92697526021E+01  0.00000000000E+00 0.  1.
</event>
<event>
 8    1  0.1290800E-006  0.9118800E+02  0.7816164E-02  0.1184000E+00
        -11   -1    0    0    0    0  0.00000000000E+00  0.00000000000E+00  0.45593999997E+02  0.45594000000E+02  0.51100000000E-03 0.  1.
         11   -1    0    0    0    0 -0.00000000000E+00 -0.00000000000E+00 -0.45593999997E+02  0.45594000000E+02  0.51100000000E-03 0. -1.
         23    2    1    2    0    0  0.35527136788E-14  0.00000000000E+00  0.00000000000E+00  0.91188000000E+02  0.91188000000E+02 0.  0.
    9900012    2    3    3    0    0 -0.20348904046E+02 -0.18345733603E+02 -0.24599448635E+02  0.54367126702E+02  0.40000096942E+02 0.  0.
        -12    1    3    3    0    0  0.20348904046E+02  0.18345733603E+02  0.24599448635E+02  0.36820873298E+02  0.00000000000E+00 0.  1.
         11    1    4    4    0    0  0.57653843923E+01 -0.16607571413E+02 -0.67826641131E+01  0.18842919577E+02  0.51100000000E-03 0. -1.
        -11    1    4    4    0    0 -0.21532878772E+02 -0.79828636287E+01 -0.12717296351E+02  0.26251106770E+02  0.51100000000E-03 0.  1.
         12    1    4    4    0    0 -0.45814096661E+01  0.62447014393E+01 -0.50994881713E+01  0.92731003555E+01  0.00000000000E+00 0. -1.
</event>
<event>
 8    1  0.1290800E-006  0.9118800E+02  0.7816164E-02  0.1184000E+00
        -11   -1    0    0    0    0  0.00000000000E+00  0.00000000000E+00  0.45593999997E+02  0.45594000000E+02  0.51100000000E-03 0.  1.
         11   -1    0    0    0    0 -0.00000000000E+00 -0.00000000000E+00 -0.45593999997E+02  0.45594000000E+02  0.51100000000E-03 0. -1.
         23    2    1    2    0    0 -0.88817841970E-15  0.53290705182E-14  0.00000000000E+00  0.91188000000E+02  0.91188000000E+02 0.  0.
    9900012    2    3    3    0    0 -0.45604382671E+01 -0.88277370105E+01  0.35454946478E+02  0.54367085187E+02  0.40000002301E+02 0.  0.
         12    1    3    3    0    0  0.45604382671E+01  0.88277370105E+01 -0.35454946478E+02  0.36820914813E+02  0.00000000000E+00 0. -1.
         11    1    4    4    0    0 -0.96696003188E+01 -0.55906129786E+01 -0.76173410337E+00  0.11195372388E+02  0.51100000000E-03 0. -1.
        -11    1    4    4    0    0  0.82699935137E+01  0.75590886277E+01  0.11711379534E+02  0.16207684117E+02  0.51100000000E-03 0.  1.
        -12    1    4    4    0    0 -0.31608314620E+01 -0.10796212660E+02  0.24505301047E+02  0.26964028682E+02  0.00000000000E+00 0.  1.
</event>
<event>
 8    1  0.1290800E-006  0.9118800E+02  0.7816164E-02  0.1184000E+00
        -11   -1    0    0    0    0  0.00000000000E+00  0.00000000000E+00  0.45593999997E+02  0.45594000000E+02  0.51100000000E-03 0. -1.
         11   -1    0    0    0    0 -0.00000000000E+00 -0.00000000000E+00 -0.45593999997E+02  0.45594000000E+02  0.51100000000E-03 0.  1.
         23    2    1    2    0    0  0.17763568394E-14  0.35527136788E-14  0.35527136788E-14  0.91188000000E+02  0.91188000000E+02 0.  0.
    9900012    2    3    3    0    0  0.57962563990E+01  0.23503150682E+02 -0.27745081607E+02  0.54367024543E+02  0.39999864051E+02 0.  0.
        -12    1    3    3    0    0 -0.57962563990E+01 -0.23503150682E+02  0.27745081607E+02  0.36820975457E+02  0.00000000000E+00 0.  1.
         11    1    4    4    0    0  0.45005588970E+01  0.14708178743E+02  0.11242364772E+01  0.15422368827E+02  0.51100000000E-03 0. -1.
        -11    1    4    4    0    0 -0.85269968166E+01 -0.32016367218E+01 -0.17464611460E+02  0.19697025311E+02  0.51100000000E-03 0.  1.
         12    1    4    4    0    0  0.98226943186E+01  0.11996608661E+02 -0.11404706624E+02  0.19247630405E+02  0.00000000000E+00 0. -1.
</event>
<event>
 8    1  0.1290800E-006  0.9118800E+02  0.7816164E-02  0.1184000E+00
        -11   -1    0    0    0    0  0.00000000000E+00  0.00000000000E+00  0.45593999997E+02  0.45594000000E+02  0.51100000000E-03 0. -1.
         11   -1    0    0    0    0 -0.00000000000E+00 -0.00000000000E+00 -0.45593999997E+02  0.45594000000E+02  0.51100000000E-03 0.  1.
         23    2    1    2    0    0  0.00000000000E+00  0.00000000000E+00  0.00000000000E+00  0.91188000000E+02  0.91188000000E+02 0.  0.
    9900012    2    3    3    0    0  0.10291804445E+02 -0.99428000162E+01  0.33926378041E+02  0.54367086949E+02  0.40000006318E+02 0.  0.
        -12    1    3    3    0    0 -0.10291804445E+02  0.99428000162E+01 -0.33926378041E+02  0.36820913051E+02  0.00000000000E+00 0.  1.
         11    1    4    4    0    0  0.37081074309E+01 -0.22105277568E+02  0.16658326298E+02  0.27926567859E+02  0.51100000000E-03 0.  1.
        -11    1    4    4    0    0  0.30674429145E+01 -0.19691484462E+01  0.89639181300E+01  0.96767029581E+01  0.51100000000E-03 0. -1.
        -12    1    4    4    0    0  0.35162540996E+01  0.14131625998E+02  0.83041336135E+01  0.16763816132E+02  0.00000000000E+00 0.  1.
</event>
<event>
 8    1  0.1290800E-006  0.9118800E+02  0.7816164E-02  0.1184000E+00
        -11   -1    0    0    0    0  0.00000000000E+00  0.00000000000E+00  0.45593999997E+02  0.45594000000E+02  0.51100000000E-03 0.  1.
         11   -1    0    0    0    0 -0.00000000000E+00 -0.00000000000E+00 -0.45593999997E+02  0.45594000000E+02  0.51100000000E-03 0. -1.
         23    2    1    2    0    0  0.00000000000E+00  0.17763568394E-14  0.35527136788E-14  0.91188000000E+02  0.91188000000E+02 0.  0.
    9900012    2    3    3    0    0  0.27328495418E+02  0.11816888151E+02  0.21663199548E+02  0.54367085806E+02  0.40000003713E+02 0.  0.
         12    1    3    3    0    0 -0.27328495418E+02 -0.11816888151E+02 -0.21663199548E+02  0.36820914194E+02  0.00000000000E+00 0. -1.
         11    1    4    4    0    0 -0.79412410380E+01  0.17241760358E+01 -0.41555380950E+01  0.91271347830E+01  0.51100000000E-03 0. -1.
        -11    1    4    4    0    0  0.21431719794E+02  0.68725685005E+01  0.19122009691E+02  0.29533067332E+02  0.51100000000E-03 0.  1.
        -12    1    4    4    0    0  0.13838016662E+02  0.32201436150E+01  0.66967279513E+01  0.15706883691E+02  0.00000000000E+00 0.  1.
</event>
<event>
 8    1  0.1290800E-006  0.9118800E+02  0.7816164E-02  0.1184000E+00
        -11   -1    0    0    0    0  0.00000000000E+00  0.00000000000E+00  0.45593999997E+02  0.45594000000E+02  0.51100000000E-03 0. -1.
         11   -1    0    0    0    0 -0.00000000000E+00 -0.00000000000E+00 -0.45593999997E+02  0.45594000000E+02  0.51100000000E-03 0.  1.
         23    2    1    2    0    0  0.00000000000E+00 -0.35527136788E-14  0.00000000000E+00  0.91188000000E+02  0.91188000000E+02 0.  0.
    9900012    2    3    3    0    0  0.19954222173E+02  0.29367863182E+02 -0.97536345532E+01  0.54367139643E+02  0.40000126445E+02 0.  0.
         12    1    3    3    0    0 -0.19954222173E+02 -0.29367863182E+02  0.97536345532E+01  0.36820860357E+02  0.00000000000E+00 0. -1.
         11    1    4    4    0    0  0.43759885465E+01  0.18722123513E+02  0.14673102364E+01  0.19282639450E+02  0.51100000000E-03 0. -1.
        -11    1    4    4    0    0 -0.74036664367E+01  0.63255185397E+01 -0.19609570677E+01  0.99333687329E+01  0.51100000000E-03 0.  1.
        -12    1    4    4    0    0  0.22981900063E+02  0.43202211296E+01 -0.92599877220E+01  0.25151131460E+02  0.00000000000E+00 0.  1.
</event>
<event>
 8    1  0.1290800E-006  0.9118800E+02  0.7816164E-02  0.1184000E+00
        -11   -1    0    0    0    0  0.00000000000E+00  0.00000000000E+00  0.45593999997E+02  0.45594000000E+02  0.51100000000E-03 0. -1.
         11   -1    0    0    0    0 -0.00000000000E+00 -0.00000000000E+00 -0.45593999997E+02  0.45594000000E+02  0.51100000000E-03 0.  1.
         23    2    1    2    0    0  0.88817841970E-15 -0.71054273576E-14 -0.44408920985E-15  0.91188000000E+02  0.91188000000E+02 0.  0.
    9900012    2    3    3    0    0  0.70221157506E+01 -0.36080895017E+02  0.21537703743E+01  0.54367084454E+02  0.40000000630E+02 0.  0.
         12    1    3    3    0    0 -0.70221157506E+01  0.36080895017E+02 -0.21537703743E+01  0.36820915546E+02  0.00000000000E+00 0. -1.
         11    1    4    4    0    0  0.27659229930E+01 -0.24406437806E+01  0.47399434158E+01  0.60061748154E+01  0.51100000000E-03 0. -1.
        -11    1    4    4    0    0 -0.12219133266E+02 -0.11442922487E+02 -0.10307492151E+02  0.19659402014E+02  0.51100000000E-03 0.  1.
         12    1    4    4    0    0  0.16475326024E+02 -0.22197328749E+02  0.77213191096E+01  0.28701507625E+02  0.00000000000E+00 0. -1.
</event>
<event>
 8    1  0.1290800E-006  0.9118800E+02  0.7816164E-02  0.1184000E+00
        -11   -1    0    0    0    0  0.00000000000E+00  0.00000000000E+00  0.45593999997E+02  0.45594000000E+02  0.51100000000E-03 0.  1.
         11   -1    0    0    0    0 -0.00000000000E+00 -0.00000000000E+00 -0.45593999997E+02  0.45594000000E+02  0.51100000000E-03 0. -1.
         23    2    1    2    0    0 -0.17763568394E-14 -0.11102230246E-14  0.00000000000E+00  0.91188000000E+02  0.91188000000E+02 0.  0.
    9900012    2    3    3    0    0 -0.15283607032E+02 -0.17517862419E+01  0.33453291732E+02  0.54367080312E+02  0.39999991188E+02 0.  0.
         12    1    3    3    0    0  0.15283607032E+02  0.17517862419E+01 -0.33453291732E+02  0.36820919688E+02  0.00000000000E+00 0. -1.
         11    1    4    4    0    0 -0.12980347143E+02 -0.10844780296E+02  0.20325611678E+02  0.26442941628E+02  0.51100000000E-03 0. -1.
        -11    1    4    4    0    0  0.95077145895E+01  0.14425653247E+01  0.92129746187E+01  0.13317527286E+02  0.51100000000E-03 0.  1.
         12    1    4    4    0    0 -0.11810974479E+02  0.76504287290E+01  0.39147054351E+01  0.14606611398E+02  0.00000000000E+00 0. -1.
</event>
<event>
 8    1  0.1290800E-006  0.9118800E+02  0.7816164E-02  0.1184000E+00
        -11   -1    0    0    0    0  0.00000000000E+00  0.00000000000E+00  0.45593999997E+02  0.45594000000E+02  0.51100000000E-03 0.  1.
         11   -1    0    0    0    0 -0.00000000000E+00 -0.00000000000E+00 -0.45593999997E+02  0.45594000000E+02  0.51100000000E-03 0. -1.
         23    2    1    2    0    0  0.35527136788E-14  0.00000000000E+00 -0.35527136788E-14  0.91188000000E+02  0.91188000000E+02 0.  0.
    9900012    2    3    3    0    0 -0.31723847713E+02 -0.83702193399E+01  0.16712753263E+02  0.54367092799E+02  0.40000019653E+02 0.  0.
         12    1    3    3    0    0  0.31723847713E+02  0.83702193399E+01 -0.16712753263E+02  0.36820907201E+02  0.00000000000E+00 0. -1.
         11    1    4    4    0    0 -0.54756881058E+00 -0.20327289876E+01  0.51632493991E+01  0.55759271299E+01  0.51100000000E-03 0. -1.
        -11    1    4    4    0    0 -0.33676820667E+02 -0.13176946437E+02  0.12593450404E+01  0.36184887976E+02  0.51100000000E-03 0.  1.
        -12    1    4    4    0    0  0.25005417646E+01  0.68394560852E+01  0.10290158824E+02  0.12606277693E+02  0.00000000000E+00 0.  1.
</event>
<event>
 8    1  0.1290800E-006  0.9118800E+02  0.7816164E-02  0.1184000E+00
        -11   -1    0    0    0    0  0.00000000000E+00  0.00000000000E+00  0.45593999997E+02  0.45594000000E+02  0.51100000000E-03 0. -1.
         11   -1    0    0    0    0 -0.00000000000E+00 -0.00000000000E+00 -0.45593999997E+02  0.45594000000E+02  0.51100000000E-03 0.  1.
         23    2    1    2    0    0  0.71054273576E-14  0.35527136788E-14  0.88817841970E-15  0.91188000000E+02  0.91188000000E+02 0.  0.
    9900012    2    3    3    0    0  0.32446620113E+02  0.17143880991E+02 -0.30129990904E+01  0.54367163837E+02  0.40000181600E+02 0.  0.
         12    1    3    3    0    0 -0.32446620113E+02 -0.17143880991E+02  0.30129990904E+01  0.36820836163E+02  0.00000000000E+00 0. -1.
         11    1    4    4    0    0  0.10845184661E+02 -0.38611546945E+01 -0.93445734912E+01  0.14827258678E+02  0.51100000000E-03 0. -1.
        -11    1    4    4    0    0  0.62351365428E+01 -0.54596955038E+01 -0.85996263830E-02  0.82876581081E+01  0.51100000000E-03 0.  1.
         12    1    4    4    0    0  0.15366298909E+02  0.26464731189E+02  0.63401740272E+01  0.31252247051E+02  0.00000000000E+00 0. -1.
</event>
<event>
 8    1  0.1290800E-006  0.9118800E+02  0.7816164E-02  0.1184000E+00
        -11   -1    0    0    0    0  0.00000000000E+00  0.00000000000E+00  0.45593999997E+02  0.45594000000E+02  0.51100000000E-03 0. -1.
         11   -1    0    0    0    0 -0.00000000000E+00 -0.00000000000E+00 -0.45593999997E+02  0.45594000000E+02  0.51100000000E-03 0.  1.
         23    2    1    2    0    0  0.35527136788E-14 -0.24980018054E-15 -0.35527136788E-14  0.91188000000E+02  0.91188000000E+02 0.  0.
    9900012    2    3    3    0    0  0.19240733818E+02 -0.16531660190E+00 -0.31393471804E+02  0.54367038044E+02  0.39999894829E+02 0.  0.
         12    1    3    3    0    0 -0.19240733818E+02  0.16531660190E+00  0.31393471804E+02  0.36820961956E+02  0.00000000000E+00 0. -1.
         11    1    4    4    0    0  0.17015826948E+02  0.13894239346E+02 -0.92741814549E+01  0.23845307623E+02  0.51100000000E-03 0. -1.
        -11    1    4    4    0    0 -0.50598956440E+01 -0.37663756904E+00 -0.84400317957E+01  0.98477681106E+01  0.51100000000E-03 0.  1.
         12    1    4    4    0    0  0.72848025137E+01 -0.13682918379E+02 -0.13679258554E+02  0.20673962310E+02  0.00000000000E+00 0. -1.
</event>
<event>
 8    1  0.1290800E-006  0.9118800E+02  0.7816164E-02  0.1184000E+00
        -11   -1    0    0    0    0  0.00000000000E+00  0.00000000000E+00  0.45593999997E+02  0.45594000000E+02  0.51100000000E-03 0. -1.
         11   -1    0    0    0    0 -0.00000000000E+00 -0.00000000000E+00 -0.45593999997E+02  0.45594000000E+02  0.51100000000E-03 0.  1.
         23    2    1    2    0    0  0.17763568394E-14  0.00000000000E+00 -0.17763568394E-14  0.91188000000E+02  0.91188000000E+02 0.  0.
    9900012    2    3    3    0    0 -0.11584738864E+02 -0.33251648440E+02  0.10765334132E+02  0.54367208081E+02  0.40000282462E+02 0.  0.
         12    1    3    3    0    0  0.11584738864E+02  0.33251648440E+02 -0.10765334132E+02  0.36820791919E+02  0.00000000000E+00 0. -1.
         11    1    4    4    0    0 -0.93671974727E+01 -0.28530646091E+01 -0.18402194154E+01  0.99634719809E+01  0.51100000000E-03 0. -1.
        -11    1    4    4    0    0 -0.95643776668E+01 -0.29671035423E+02  0.16826634153E+01  0.31219849770E+02  0.51100000000E-03 0.  1.
        -12    1    4    4    0    0  0.73468362756E+01 -0.72754840852E+00  0.10922890132E+02  0.13183886331E+02  0.00000000000E+00 0.  1.
</event>
<event>
 8    1  0.1290800E-006  0.9118800E+02  0.7816164E-02  0.1184000E+00
        -11   -1    0    0    0    0  0.00000000000E+00  0.00000000000E+00  0.45593999997E+02  0.45594000000E+02  0.51100000000E-03 0. -1.
         11   -1    0    0    0    0 -0.00000000000E+00 -0.00000000000E+00 -0.45593999997E+02  0.45594000000E+02  0.51100000000E-03 0.  1.
         23    2    1    2    0    0  0.00000000000E+00 -0.17763568394E-14  0.00000000000E+00  0.91188000000E+02  0.91188000000E+02 0.  0.
    9900012    2    3    3    0    0  0.21488958266E+02 -0.12901080061E+02 -0.26973306727E+02  0.54367184285E+02  0.40000228214E+02 0.  0.
         12    1    3    3    0    0 -0.21488958266E+02  0.12901080061E+02  0.26973306727E+02  0.36820815715E+02  0.00000000000E+00 0. -1.
         11    1    4    4    0    0  0.44223476209E+01 -0.26725657994E+01 -0.41752929695E+01  0.66432550812E+01  0.51100000000E-03 0. -1.
        -11    1    4    4    0    0  0.44289400698E+01 -0.23101141232E+02 -0.15992610751E+02  0.28443660722E+02  0.51100000000E-03 0.  1.
         12    1    4    4    0    0  0.12637670575E+02  0.12872626970E+02 -0.68054030065E+01  0.19280268482E+02  0.00000000000E+00 0. -1.
</event>
<event>
 8    1  0.1290800E-006  0.9118800E+02  0.7816164E-02  0.1184000E+00
        -11   -1    0    0    0    0  0.00000000000E+00  0.00000000000E+00  0.45593999997E+02  0.45594000000E+02  0.51100000000E-03 0.  1.
         11   -1    0    0    0    0 -0.00000000000E+00 -0.00000000000E+00 -0.45593999997E+02  0.45594000000E+02  0.51100000000E-03 0. -1.
         23    2    1    2    0    0  0.48572257327E-15 -0.35527136788E-14  0.00000000000E+00  0.91188000000E+02  0.91188000000E+02 0.  0.
    9900012    2    3    3    0    0  0.44364904426E-01  0.31250636673E+02  0.19472413983E+02  0.54367093343E+02  0.40000020894E+02 0.  0.
         12    1    3    3    0    0 -0.44364904426E-01 -0.31250636673E+02 -0.19472413983E+02  0.36820906657E+02  0.00000000000E+00 0. -1.
         11    1    4    4    0    0 -0.38581140070E+01 -0.45645110365E+01  0.15194999705E+02  0.16328129746E+02  0.51100000000E-03 0. -1.
        -11    1    4    4    0    0  0.53675829584E+01  0.14487088926E+02  0.60397932253E+01  0.16588122101E+02  0.51100000000E-03 0.  1.
         12    1    4    4    0    0 -0.14651040470E+01  0.21328058784E+02 -0.17623789475E+01  0.21450841497E+02  0.00000000000E+00 0. -1.
</event>
<event>
 8    1  0.1290800E-006  0.9118800E+02  0.7816164E-02  0.1184000E+00
        -11   -1    0    0    0    0  0.00000000000E+00  0.00000000000E+00  0.45593999997E+02  0.45594000000E+02  0.51100000000E-03 0.  1.
         11   -1    0    0    0    0 -0.00000000000E+00 -0.00000000000E+00 -0.45593999997E+02  0.45594000000E+02  0.51100000000E-03 0. -1.
         23    2    1    2    0    0 -0.35527136788E-14 -0.17763568394E-14  0.71054273576E-14  0.91188000000E+02  0.91188000000E+02 0.  0.
    9900012    2    3    3    0    0 -0.29209407900E+02 -0.98029750329E+01  0.20161730522E+02  0.54367038483E+02  0.39999895830E+02 0.  0.
         12    1    3    3    0    0  0.29209407900E+02  0.98029750329E+01 -0.20161730522E+02  0.36820961517E+02  0.00000000000E+00 0. -1.
         11    1    4    4    0    0 -0.11888493776E+02  0.46584012205E+01 -0.34849921461E+01  0.13235639642E+02  0.51100000000E-03 0. -1.
        -11    1    4    4    0    0 -0.23676008392E+02 -0.13239700506E+02  0.18126246617E+02  0.32625202828E+02  0.51100000000E-03 0.  1.
         12    1    4    4    0    0  0.63550942684E+01 -0.12216757473E+01  0.55204760507E+01  0.85061960134E+01  0.00000000000E+00 0. -1.
</event>
<event>
 8    1  0.1290800E-006  0.9118800E+02  0.7816164E-02  0.1184000E+00
        -11   -1    0    0    0    0  0.00000000000E+00  0.00000000000E+00  0.45593999997E+02  0.45594000000E+02  0.51100000000E-03 0. -1.
         11   -1    0    0    0    0 -0.00000000000E+00 -0.00000000000E+00 -0.45593999997E+02  0.45594000000E+02  0.51100000000E-03 0.  1.
         23    2    1    2    0    0  0.71054273576E-14 -0.13322676296E-14  0.00000000000E+00  0.91188000000E+02  0.91188000000E+02 0.  0.
    9900012    2    3    3    0    0 -0.36677337812E+02  0.23947931495E+01  0.21953890984E+01  0.54367056551E+02  0.39999937020E+02 0.  0.
         12    1    3    3    0    0  0.36677337812E+02 -0.23947931495E+01 -0.21953890984E+01  0.36820943449E+02  0.00000000000E+00 0. -1.
         11    1    4    4    0    0  0.16844933111E+01  0.80289062192E+01 -0.22685498708E+01  0.85115904254E+01  0.51100000000E-03 0. -1.
        -11    1    4    4    0    0 -0.32170503206E+02  0.56456937024E+01  0.17756074112E+01  0.32710364043E+02  0.51100000000E-03 0.  1.
        -12    1    4    4    0    0 -0.61913279165E+01 -0.11279806772E+02  0.26883315580E+01  0.13145102082E+02  0.00000000000E+00 0.  1.
</event>
<event>
 8    1  0.1290800E-006  0.9118800E+02  0.7816164E-02  0.1184000E+00
        -11   -1    0    0    0    0  0.00000000000E+00  0.00000000000E+00  0.45593999997E+02  0.45594000000E+02  0.51100000000E-03 0.  1.
         11   -1    0    0    0    0 -0.00000000000E+00 -0.00000000000E+00 -0.45593999997E+02  0.45594000000E+02  0.51100000000E-03 0. -1.
         23    2    1    2    0    0  0.12212453271E-14  0.00000000000E+00  0.00000000000E+00  0.91188000000E+02  0.91188000000E+02 0.  0.
    9900012    2    3    3    0    0 -0.88412205314E+00  0.36279103262E+02  0.62309738290E+01  0.54367081487E+02  0.39999993866E+02 0.  0.
         12    1    3    3    0    0  0.88412205314E+00 -0.36279103262E+02 -0.62309738290E+01  0.36820918513E+02  0.00000000000E+00 0. -1.
         11    1    4    4    0    0  0.15143513157E+02  0.22399403012E+02 -0.22234634839E+01  0.27129375889E+02  0.51100000000E-03 0. -1.
        -11    1    4    4    0    0 -0.13270580647E+02  0.15115062714E+02  0.21271937300E+01  0.20226180682E+02  0.51100000000E-03 0.  1.
        -12    1    4    4    0    0 -0.27570545627E+01 -0.12353624644E+01  0.63272435829E+01  0.70115249153E+01  0.00000000000E+00 0.  1.
</event>
<event>
 8    1  0.1290800E-006  0.9118800E+02  0.7816164E-02  0.1184000E+00
        -11   -1    0    0    0    0  0.00000000000E+00  0.00000000000E+00  0.45593999997E+02  0.45594000000E+02  0.51100000000E-03 0.  1.
         11   -1    0    0    0    0 -0.00000000000E+00 -0.00000000000E+00 -0.45593999997E+02  0.45594000000E+02  0.51100000000E-03 0. -1.
         23    2    1    2    0    0  0.17763568394E-14  0.00000000000E+00  0.44408920985E-15  0.91188000000E+02  0.91188000000E+02 0.  0.
    9900012    2    3    3    0    0 -0.12054270740E+02  0.34701838048E+02  0.25013932111E+01  0.54367082372E+02  0.39999995884E+02 0.  0.
        -12    1    3    3    0    0  0.12054270740E+02 -0.34701838048E+02 -0.25013932111E+01  0.36820917628E+02  0.00000000000E+00 0.  1.
         11    1    4    4    0    0 -0.91596762518E+01  0.25200588495E+02  0.45663292222E+01  0.27199645078E+02  0.51100000000E-03 0. -1.
        -11    1    4    4    0    0  0.71241787263E+00  0.13831683446E+01  0.11142423420E+02  0.11250524158E+02  0.51100000000E-03 0.  1.
         12    1    4    4    0    0 -0.36070123607E+01  0.81180812082E+01 -0.13207359431E+02  0.15916913137E+02  0.00000000000E+00 0. -1.
</event>
<event>
 8    1  0.1290800E-006  0.9118800E+02  0.7816164E-02  0.1184000E+00
        -11   -1    0    0    0    0  0.00000000000E+00  0.00000000000E+00  0.45593999997E+02  0.45594000000E+02  0.51100000000E-03 0. -1.
         11   -1    0    0    0    0 -0.00000000000E+00 -0.00000000000E+00 -0.45593999997E+02  0.45594000000E+02  0.51100000000E-03 0.  1.
         23    2    1    2    0    0 -0.88817841970E-15  0.00000000000E+00 -0.88817841970E-15  0.91188000000E+02  0.91188000000E+02 0.  0.
    9900012    2    3    3    0    0 -0.54943150601E+01 -0.36134785172E+02  0.44576374378E+01  0.54367072133E+02  0.39999972542E+02 0.  0.
        -12    1    3    3    0    0  0.54943150601E+01  0.36134785172E+02 -0.44576374378E+01  0.36820927867E+02  0.00000000000E+00 0.  1.
         11    1    4    4    0    0 -0.55269754878E+01 -0.12423888772E+01 -0.10690196371E+02  0.12098400179E+02  0.51100000000E-03 0.  1.
        -11    1    4    4    0    0  0.11637751366E+01 -0.19089665482E+02  0.17892053898E+02  0.26189602780E+02  0.51100000000E-03 0. -1.
        -12    1    4    4    0    0 -0.11311147089E+01 -0.15802730813E+02 -0.27442200892E+01  0.16079069175E+02  0.00000000000E+00 0.  1.
</event>
<event>
 8    1  0.1290800E-006  0.9118800E+02  0.7816164E-02  0.1184000E+00
        -11   -1    0    0    0    0  0.00000000000E+00  0.00000000000E+00  0.45593999997E+02  0.45594000000E+02  0.51100000000E-03 0.  1.
         11   -1    0    0    0    0 -0.00000000000E+00 -0.00000000000E+00 -0.45593999997E+02  0.45594000000E+02  0.51100000000E-03 0. -1.
         23    2    1    2    0    0  0.44408920985E-15  0.00000000000E+00  0.16653345369E-15  0.91188000000E+02  0.91188000000E+02 0.  0.
    9900012    2    3    3    0    0  0.29555368397E+01  0.36700632404E+02 -0.32975583711E+00  0.54367077201E+02  0.39999984095E+02 0.  0.
        -12    1    3    3    0    0 -0.29555368397E+01 -0.36700632404E+02  0.32975583711E+00  0.36820922799E+02  0.00000000000E+00 0.  1.
         11    1    4    4    0    0 -0.70661802622E+01  0.63197701239E+01  0.83281551645E+01  0.12618580214E+02  0.51100000000E-03 0. -1.
        -11    1    4    4    0    0  0.85774036030E+01  0.26596295636E+02  0.42077310099E+01  0.28260215757E+02  0.51100000000E-03 0.  1.
        -12    1    4    4    0    0  0.14443134990E+01  0.37845666446E+01 -0.12865642011E+02  0.13488281230E+02  0.00000000000E+00 0.  1.
</event>
<event>
 8    1  0.1290800E-006  0.9118800E+02  0.7816164E-02  0.1184000E+00
        -11   -1    0    0    0    0  0.00000000000E+00  0.00000000000E+00  0.45593999997E+02  0.45594000000E+02  0.51100000000E-03 0.  1.
         11   -1    0    0    0    0 -0.00000000000E+00 -0.00000000000E+00 -0.45593999997E+02  0.45594000000E+02  0.51100000000E-03 0. -1.
         23    2    1    2    0    0 -0.35527136788E-14 -0.17763568394E-14  0.00000000000E+00  0.91188000000E+02  0.91188000000E+02 0.  0.
    9900012    2    3    3    0    0  0.27173636289E+02  0.98513071328E+01 -0.22810610188E+02  0.54367099704E+02  0.40000035396E+02 0.  0.
         12    1    3    3    0    0 -0.27173636289E+02 -0.98513071328E+01  0.22810610188E+02  0.36820900296E+02  0.00000000000E+00 0. -1.
         11    1    4    4    0    0  0.16794450880E+02  0.66063137692E+01 -0.12293985028E+02  0.21836644204E+02  0.51100000000E-03 0. -1.
        -11    1    4    4    0    0  0.15010614807E+02  0.13069987827E+02 -0.73390489465E+01  0.21213316063E+02  0.51100000000E-03 0.  1.
        -12    1    4    4    0    0 -0.46314293971E+01 -0.98249944631E+01 -0.31775762133E+01  0.11317139438E+02  0.00000000000E+00 0.  1.
</event>
<event>
 8    1  0.1290800E-006  0.9118800E+02  0.7816164E-02  0.1184000E+00
        -11   -1    0    0    0    0  0.00000000000E+00  0.00000000000E+00  0.45593999997E+02  0.45594000000E+02  0.51100000000E-03 0.  1.
         11   -1    0    0    0    0 -0.00000000000E+00 -0.00000000000E+00 -0.45593999997E+02  0.45594000000E+02  0.51100000000E-03 0. -1.
         23    2    1    2    0    0 -0.88817841970E-15 -0.71054273576E-14  0.00000000000E+00  0.91188000000E+02  0.91188000000E+02 0.  0.
    9900012    2    3    3    0    0 -0.50616138666E+01  0.30618737944E+02 -0.19815556996E+02  0.54367036579E+02  0.39999891489E+02 0.  0.
        -12    1    3    3    0    0  0.50616138666E+01 -0.30618737944E+02  0.19815556996E+02  0.36820963421E+02  0.00000000000E+00 0.  1.
         11    1    4    4    0    0  0.85533393673E+01  0.20828812228E+01 -0.79852823937E+01  0.11885400443E+02  0.51100000000E-03 0. -1.
        -11    1    4    4    0    0 -0.64606225575E+01  0.31781012419E+02 -0.67496216212E+01  0.33125968461E+02  0.51100000000E-03 0.  1.
         12    1    4    4    0    0 -0.71543306765E+01 -0.32451556978E+01 -0.50806529809E+01  0.93556676749E+01  0.00000000000E+00 0. -1.
</event>
<event>
 8    1  0.1290800E-006  0.9118800E+02  0.7816164E-02  0.1184000E+00
        -11   -1    0    0    0    0  0.00000000000E+00  0.00000000000E+00  0.45593999997E+02  0.45594000000E+02  0.51100000000E-03 0.  1.
         11   -1    0    0    0    0 -0.00000000000E+00 -0.00000000000E+00 -0.45593999997E+02  0.45594000000E+02  0.51100000000E-03 0. -1.
         23    2    1    2    0    0  0.17763568394E-14  0.00000000000E+00  0.35527136788E-14  0.91188000000E+02  0.91188000000E+02 0.  0.
    9900012    2    3    3    0    0  0.12739014621E+02 -0.23101493278E+02  0.25686938106E+02  0.54367078306E+02  0.39999986614E+02 0.  0.
         12    1    3    3    0    0 -0.12739014621E+02  0.23101493278E+02 -0.25686938106E+02  0.36820921694E+02  0.00000000000E+00 0. -1.
         11    1    4    4    0    0  0.11261867316E+02 -0.28891029550E+02  0.29364863639E+02  0.42706164200E+02  0.51100000000E-03 0. -1.
        -11    1    4    4    0    0 -0.28684059632E+01  0.57936575319E+01 -0.96089078853E+00  0.65358650335E+01  0.51100000000E-03 0.  1.
         12    1    4    4    0    0  0.43455532683E+01 -0.41212599557E-02 -0.27170347446E+01  0.51250490726E+01  0.00000000000E+00 0. -1.
</event>
<event>
 8    1  0.1290800E-006  0.9118800E+02  0.7816164E-02  0.1184000E+00
        -11   -1    0    0    0    0  0.00000000000E+00  0.00000000000E+00  0.45593999997E+02  0.45594000000E+02  0.51100000000E-03 0. -1.
         11   -1    0    0    0    0 -0.00000000000E+00 -0.00000000000E+00 -0.45593999997E+02  0.45594000000E+02  0.51100000000E-03 0.  1.
         23    2    1    2    0    0  0.00000000000E+00  0.00000000000E+00 -0.17763568394E-14  0.91188000000E+02  0.91188000000E+02 0.  0.
    9900012    2    3    3    0    0 -0.33173105590E+02 -0.10901508797E+02  0.11682554156E+02  0.54367083388E+02  0.39999998200E+02 0.  0.
        -12    1    3    3    0    0  0.33173105590E+02  0.10901508797E+02 -0.11682554156E+02  0.36820916612E+02  0.00000000000E+00 0.  1.
         11    1    4    4    0    0 -0.15190815761E+02  0.42650695138E+00 -0.86319923377E+01  0.17477244739E+02  0.51100000000E-03 0. -1.
        -11    1    4    4    0    0 -0.80695386788E+01 -0.40452475237E+01 -0.38198274308E+01  0.98016612816E+01  0.51100000000E-03 0.  1.
         12    1    4    4    0    0 -0.99127511498E+01 -0.72827682244E+01  0.24134373925E+02  0.27088177368E+02  0.00000000000E+00 0. -1.
</event>
<event>
 8    1  0.1290800E-006  0.9118800E+02  0.7816164E-02  0.1184000E+00
        -11   -1    0    0    0    0  0.00000000000E+00  0.00000000000E+00  0.45593999997E+02  0.45594000000E+02  0.51100000000E-03 0. -1.
         11   -1    0    0    0    0 -0.00000000000E+00 -0.00000000000E+00 -0.45593999997E+02  0.45594000000E+02  0.51100000000E-03 0.  1.
         23    2    1    2    0    0  0.71054273576E-14  0.00000000000E+00  0.00000000000E+00  0.91188000000E+02  0.91188000000E+02 0.  0.
    9900012    2    3    3    0    0  0.32969650457E+02  0.10573395694E+02 -0.12529390853E+02  0.54367079548E+02  0.39999989446E+02 0.  0.
         12    1    3    3    0    0 -0.32969650457E+02 -0.10573395694E+02  0.12529390853E+02  0.36820920452E+02  0.00000000000E+00 0. -1.
         11    1    4    4    0    0 -0.43243451883E+01  0.33378971635E+01  0.29216586648E+00  0.54705465848E+01  0.51100000000E-03 0. -1.
        -11    1    4    4    0    0  0.28402731555E+02  0.89207272393E+01  0.37590566556E+01  0.30007083188E+02  0.51100000000E-03 0.  1.
         12    1    4    4    0    0  0.88912640904E+01 -0.16852287085E+01 -0.16580613375E+02  0.18889449775E+02  0.00000000000E+00 0. -1.
</event>
<event>
 8    1  0.1290800E-006  0.9118800E+02  0.7816164E-02  0.1184000E+00
        -11   -1    0    0    0    0  0.00000000000E+00  0.00000000000E+00  0.45593999997E+02  0.45594000000E+02  0.51100000000E-03 0. -1.
         11   -1    0    0    0    0 -0.00000000000E+00 -0.00000000000E+00 -0.45593999997E+02  0.45594000000E+02  0.51100000000E-03 0.  1.
         23    2    1    2    0    0  0.00000000000E+00  0.00000000000E+00  0.00000000000E+00  0.91188000000E+02  0.91188000000E+02 0.  0.
    9900012    2    3    3    0    0 -0.22262206115E+02  0.23122677716E+02 -0.18042296413E+02  0.54366966531E+02  0.39999731801E+02 0.  0.
         12    1    3    3    0    0  0.22262206115E+02 -0.23122677716E+02  0.18042296413E+02  0.36821033469E+02  0.00000000000E+00 0. -1.
         11    1    4    4    0    0 -0.11857324280E+02 -0.35349102893E+01  0.39245311963E+01  0.12980511361E+02  0.51100000000E-03 0. -1.
        -11    1    4    4    0    0 -0.14510726411E+02  0.24200679276E+02 -0.23102627315E+02  0.36468691333E+02  0.51100000000E-03 0.  1.
         12    1    4    4    0    0  0.41058445764E+01  0.24569087294E+01  0.11357997056E+01  0.49177638375E+01  0.00000000000E+00 0. -1.
</event>
<event>
 8    1  0.1290800E-006  0.9118800E+02  0.7816164E-02  0.1184000E+00
        -11   -1    0    0    0    0  0.00000000000E+00  0.00000000000E+00  0.45593999997E+02  0.45594000000E+02  0.51100000000E-03 0.  1.
         11   -1    0    0    0    0 -0.00000000000E+00 -0.00000000000E+00 -0.45593999997E+02  0.45594000000E+02  0.51100000000E-03 0. -1.
         23    2    1    2    0    0 -0.35527136788E-14  0.00000000000E+00  0.00000000000E+00  0.91188000000E+02  0.91188000000E+02 0.  0.
    9900012    2    3    3    0    0 -0.22149313602E+02 -0.27362740382E+02  0.10792047183E+02  0.54367082892E+02  0.39999997068E+02 0.  0.
        -12    1    3    3    0    0  0.22149313602E+02  0.27362740382E+02 -0.10792047183E+02  0.36820917108E+02  0.00000000000E+00 0.  1.
         11    1    4    4    0    0 -0.12439926885E+02  0.37602547420E+01 -0.35910252989E+01  0.13482832031E+02  0.51100000000E-03 0. -1.
        -11    1    4    4    0    0 -0.97136777508E+01 -0.41754801709E+01  0.78151550589E+01  0.13147882680E+02  0.51100000000E-03 0.  1.
        -12    1    4    4    0    0  0.42910333096E-02 -0.26947514954E+02  0.65679174228E+01  0.27736368181E+02  0.00000000000E+00 0.  1.
</event>
<event>
 8    1  0.1290800E-006  0.9118800E+02  0.7816164E-02  0.1184000E+00
        -11   -1    0    0    0    0  0.00000000000E+00  0.00000000000E+00  0.45593999997E+02  0.45594000000E+02  0.51100000000E-03 0. -1.
         11   -1    0    0    0    0 -0.00000000000E+00 -0.00000000000E+00 -0.45593999997E+02  0.45594000000E+02  0.51100000000E-03 0.  1.
         23    2    1    2    0    0  0.17763568394E-14  0.35527136788E-14  0.00000000000E+00  0.91188000000E+02  0.91188000000E+02 0.  0.
    9900012    2    3    3    0    0 -0.86940247769E+01  0.21302627559E+02  0.28747038755E+02  0.54367078707E+02  0.39999987528E+02 0.  0.
         12    1    3    3    0    0  0.86940247769E+01 -0.21302627559E+02 -0.28747038755E+02  0.36820921293E+02  0.00000000000E+00 0. -1.
         11    1    4    4    0    0 -0.44434371066E+01 -0.35623136423E+01  0.20053728006E+01  0.60378582408E+01  0.51100000000E-03 0. -1.
        -11    1    4    4    0    0  0.11645481100E+02  0.29213381511E+01  0.31768078904E+01  0.12419482891E+02  0.51100000000E-03 0.  1.
        -12    1    4    4    0    0 -0.15896068770E+02  0.21943603050E+02  0.23564858064E+02  0.35909737575E+02  0.00000000000E+00 0.  1.
</event>
<event>
 8    1  0.1290800E-006  0.9118800E+02  0.7816164E-02  0.1184000E+00
        -11   -1    0    0    0    0  0.00000000000E+00  0.00000000000E+00  0.45593999997E+02  0.45594000000E+02  0.51100000000E-03 0.  1.
         11   -1    0    0    0    0 -0.00000000000E+00 -0.00000000000E+00 -0.45593999997E+02  0.45594000000E+02  0.51100000000E-03 0. -1.
         23    2    1    2    0    0  0.35527136788E-14  0.17763568394E-14  0.35527136788E-14  0.91188000000E+02  0.91188000000E+02 0.  0.
    9900012    2    3    3    0    0 -0.18697830015E+02 -0.71107345295E+01 -0.30912961312E+02  0.54367047135E+02  0.39999915554E+02 0.  0.
        -12    1    3    3    0    0  0.18697830015E+02  0.71107345295E+01  0.30912961312E+02  0.36820952865E+02  0.00000000000E+00 0.  1.
         11    1    4    4    0    0  0.52904516868E+01  0.29661330575E+01 -0.60794410581E+01  0.85875740582E+01  0.51100000000E-03 0. -1.
        -11    1    4    4    0    0 -0.47369238373E+01  0.70249562928E+01  0.18764754901E+01  0.86781114813E+01  0.51100000000E-03 0.  1.
         12    1    4    4    0    0 -0.19251357864E+02 -0.17101823880E+02 -0.26709995744E+02  0.37101361596E+02  0.00000000000E+00 0. -1.
</event>
<event>
 8    1  0.1290800E-006  0.9118800E+02  0.7816164E-02  0.1184000E+00
        -11   -1    0    0    0    0  0.00000000000E+00  0.00000000000E+00  0.45593999997E+02  0.45594000000E+02  0.51100000000E-03 0.  1.
         11   -1    0    0    0    0 -0.00000000000E+00 -0.00000000000E+00 -0.45593999997E+02  0.45594000000E+02  0.51100000000E-03 0. -1.
         23    2    1    2    0    0  0.00000000000E+00  0.00000000000E+00  0.17763568394E-14  0.91188000000E+02  0.91188000000E+02 0.  0.
    9900012    2    3    3    0    0 -0.24061949427E+02  0.25319429560E+02  0.11650252505E+02  0.54367091444E+02  0.40000016564E+02 0.  0.
         12    1    3    3    0    0  0.24061949427E+02 -0.25319429560E+02 -0.11650252505E+02  0.36820908556E+02  0.00000000000E+00 0. -1.
         11    1    4    4    0    0 -0.88657018878E+01  0.11427461757E+02  0.67833185718E+01  0.15975010588E+02  0.51100000000E-03 0. -1.
        -11    1    4    4    0    0 -0.51390528779E+01  0.17211255544E+02  0.15248457546E+02  0.23561677352E+02  0.51100000000E-03 0.  1.
         12    1    4    4    0    0 -0.10057194661E+02 -0.33192877404E+01 -0.10381523613E+02  0.14830403504E+02  0.00000000000E+00 0. -1.
</event>
<event>
 8    1  0.1290800E-006  0.9118800E+02  0.7816164E-02  0.1184000E+00
        -11   -1    0    0    0    0  0.00000000000E+00  0.00000000000E+00  0.45593999997E+02  0.45594000000E+02  0.51100000000E-03 0.  1.
         11   -1    0    0    0    0 -0.00000000000E+00 -0.00000000000E+00 -0.45593999997E+02  0.45594000000E+02  0.51100000000E-03 0. -1.
         23    2    1    2    0    0  0.00000000000E+00 -0.17763568394E-14 -0.35527136788E-14  0.91188000000E+02  0.91188000000E+02 0.  0.
    9900012    2    3    3    0    0  0.23277013311E+02 -0.47881601443E+01 -0.28125330974E+02  0.54367081100E+02  0.39999992983E+02 0.  0.
        -12    1    3    3    0    0 -0.23277013311E+02  0.47881601443E+01  0.28125330974E+02  0.36820918900E+02  0.00000000000E+00 0.  1.
         11    1    4    4    0    0  0.89891544953E+01  0.10440745944E+02 -0.69487360247E+01  0.15430457123E+02  0.51100000000E-03 0. -1.
        -11    1    4    4    0    0  0.24441508911E+01  0.56949191395E+01  0.94011474493E+00  0.62681571119E+01  0.51100000000E-03 0.  1.
         12    1    4    4    0    0  0.11843707924E+02 -0.20923825228E+02 -0.22116709695E+02  0.32668466865E+02  0.00000000000E+00 0. -1.
</event>
<event>
 8    1  0.1290800E-006  0.9118800E+02  0.7816164E-02  0.1184000E+00
        -11   -1    0    0    0    0  0.00000000000E+00  0.00000000000E+00  0.45593999997E+02  0.45594000000E+02  0.51100000000E-03 0. -1.
         11   -1    0    0    0    0 -0.00000000000E+00 -0.00000000000E+00 -0.45593999997E+02  0.45594000000E+02  0.51100000000E-03 0.  1.
         23    2    1    2    0    0  0.00000000000E+00 -0.35527136788E-14 -0.35527136788E-14  0.91188000000E+02  0.91188000000E+02 0.  0.
    9900012    2    3    3    0    0  0.19833459544E+02 -0.24864731256E+02  0.18551491331E+02  0.54367098211E+02  0.40000031992E+02 0.  0.
        -12    1    3    3    0    0 -0.19833459544E+02  0.24864731256E+02 -0.18551491331E+02  0.36820901789E+02  0.00000000000E+00 0.  1.
         11    1    4    4    0    0 -0.13103141327E+01  0.25790424740E+01 -0.95249494422E+00  0.30455919111E+01  0.51100000000E-03 0. -1.
        -11    1    4    4    0    0  0.15487055480E+02  0.32027671475E+01  0.10118260130E+02  0.18774605007E+02  0.51100000000E-03 0.  1.
         12    1    4    4    0    0  0.56567181964E+01 -0.30646540878E+02  0.93857261457E+01  0.32546901294E+02  0.00000000000E+00 0. -1.
</event>
<event>
 8    1  0.1290800E-006  0.9118800E+02  0.7816164E-02  0.1184000E+00
        -11   -1    0    0    0    0  0.00000000000E+00  0.00000000000E+00  0.45593999997E+02  0.45594000000E+02  0.51100000000E-03 0. -1.
         11   -1    0    0    0    0 -0.00000000000E+00 -0.00000000000E+00 -0.45593999997E+02  0.45594000000E+02  0.51100000000E-03 0.  1.
         23    2    1    2    0    0  0.17763568394E-14  0.00000000000E+00  0.00000000000E+00  0.91188000000E+02  0.91188000000E+02 0.  0.
    9900012    2    3    3    0    0 -0.82132173471E+01  0.29815554631E+02  0.19983891593E+02  0.54367079855E+02  0.39999990145E+02 0.  0.
        -12    1    3    3    0    0  0.82132173471E+01 -0.29815554631E+02 -0.19983891593E+02  0.36820920145E+02  0.00000000000E+00 0.  1.
         11    1    4    4    0    0  0.47314678544E+01  0.11918331426E+02  0.27838848607E+02  0.30650202349E+02  0.51100000000E-03 0. -1.
        -11    1    4    4    0    0 -0.41469003422E+01  0.87590827890E+01 -0.32339150839E+01  0.10216482799E+02  0.51100000000E-03 0.  1.
         12    1    4    4    0    0 -0.87977848593E+01  0.91381404165E+01 -0.46210419303E+01  0.13500394706E+02  0.00000000000E+00 0. -1.
</event>
<event>
 8    1  0.1290800E-006  0.9118800E+02  0.7816164E-02  0.1184000E+00
        -11   -1    0    0    0    0  0.00000000000E+00  0.00000000000E+00  0.45593999997E+02  0.45594000000E+02  0.51100000000E-03 0.  1.
         11   -1    0    0    0    0 -0.00000000000E+00 -0.00000000000E+00 -0.45593999997E+02  0.45594000000E+02  0.51100000000E-03 0. -1.
         23    2    1    2    0    0  0.00000000000E+00 -0.53290705182E-14  0.00000000000E+00  0.91188000000E+02  0.91188000000E+02 0.  0.
    9900012    2    3    3    0    0  0.31622810011E+02  0.15749079074E+02 -0.10380121720E+02  0.54367047655E+02  0.39999916739E+02 0.  0.
        -12    1    3    3    0    0 -0.31622810011E+02 -0.15749079074E+02  0.10380121720E+02  0.36820952345E+02  0.00000000000E+00 0.  1.
         11    1    4    4    0    0  0.87039190995E-01  0.12329284954E+01 -0.40923308908E+01  0.42749106279E+01  0.51100000000E-03 0. -1.
        -11    1    4    4    0    0  0.12507695326E+02 -0.10879416713E+02 -0.78047094054E+01  0.18322599148E+02  0.51100000000E-03 0.  1.
        -12    1    4    4    0    0  0.19028075494E+02  0.25395567291E+02  0.15169185762E+01  0.31769537879E+02  0.00000000000E+00 0.  1.
</event>
<event>
 8    1  0.1290800E-006  0.9118800E+02  0.7816164E-02  0.1184000E+00
        -11   -1    0    0    0    0  0.00000000000E+00  0.00000000000E+00  0.45593999997E+02  0.45594000000E+02  0.51100000000E-03 0. -1.
         11   -1    0    0    0    0 -0.00000000000E+00 -0.00000000000E+00 -0.45593999997E+02  0.45594000000E+02  0.51100000000E-03 0.  1.
         23    2    1    2    0    0 -0.71054273576E-14  0.35527136788E-14 -0.71054273576E-14  0.91188000000E+02  0.91188000000E+02 0.  0.
    9900012    2    3    3    0    0 -0.20343035990E+02  0.11293412017E+02 -0.28537676588E+02  0.54367092171E+02  0.40000018223E+02 0.  0.
         12    1    3    3    0    0  0.20343035990E+02 -0.11293412017E+02  0.28537676588E+02  0.36820907829E+02  0.00000000000E+00 0. -1.
         11    1    4    4    0    0  0.54098744883E+01  0.88910628948E+00  0.23584323740E+01  0.59682037078E+01  0.51100000000E-03 0. -1.
        -11    1    4    4    0    0 -0.22696197025E+02  0.16689225717E+02 -0.30317778165E+02  0.41386172662E+02  0.51100000000E-03 0.  1.
         12    1    4    4    0    0 -0.30567134529E+01 -0.62849199895E+01 -0.57833079688E+00  0.70127158018E+01  0.00000000000E+00 0. -1.
</event>
<event>
 8    1  0.1290800E-006  0.9118800E+02  0.7816164E-02  0.1184000E+00
        -11   -1    0    0    0    0  0.00000000000E+00  0.00000000000E+00  0.45593999997E+02  0.45594000000E+02  0.51100000000E-03 0. -1.
         11   -1    0    0    0    0 -0.00000000000E+00 -0.00000000000E+00 -0.45593999997E+02  0.45594000000E+02  0.51100000000E-03 0.  1.
         23    2    1    2    0    0  0.71054273576E-14  0.00000000000E+00  0.88817841970E-15  0.91188000000E+02  0.91188000000E+02 0.  0.
    9900012    2    3    3    0    0  0.35022084955E+02 -0.88006897905E+01  0.71959361044E+01  0.54367081057E+02  0.39999992885E+02 0.  0.
         12    1    3    3    0    0 -0.35022084955E+02  0.88006897905E+01 -0.71959361044E+01  0.36820918943E+02  0.00000000000E+00 0. -1.
         11    1    4    4    0    0  0.65254828596E+01 -0.18245343372E+02  0.69812094161E+01  0.20596401785E+02  0.51100000000E-03 0. -1.
        -11    1    4    4    0    0  0.10635820048E+02  0.10928323139E+02  0.32530447479E+01  0.15592665427E+02  0.51100000000E-03 0.  1.
         12    1    4    4    0    0  0.17860782048E+02 -0.14836695572E+01 -0.30383180596E+01  0.18178013845E+02  0.00000000000E+00 0. -1.
</event>
<event>
 8    1  0.1290800E-006  0.9118800E+02  0.7816164E-02  0.1184000E+00
        -11   -1    0    0    0    0  0.00000000000E+00  0.00000000000E+00  0.45593999997E+02  0.45594000000E+02  0.51100000000E-03 0.  1.
         11   -1    0    0    0    0 -0.00000000000E+00 -0.00000000000E+00 -0.45593999997E+02  0.45594000000E+02  0.51100000000E-03 0. -1.
         23    2    1    2    0    0 -0.35527136788E-14  0.17763568394E-14  0.00000000000E+00  0.91188000000E+02  0.91188000000E+02 0.  0.
    9900012    2    3    3    0    0  0.23983458570E+02 -0.12974651884E+02  0.24743311100E+02  0.54367091257E+02  0.40000016138E+02 0.  0.
         12    1    3    3    0    0 -0.23983458570E+02  0.12974651884E+02 -0.24743311100E+02  0.36820908743E+02  0.00000000000E+00 0. -1.
         11    1    4    4    0    0  0.12555367191E+01 -0.61634219997E+01  0.11077384168E+02  0.12738625650E+02  0.51100000000E-03 0. -1.
        -11    1    4    4    0    0  0.19185772273E+02 -0.10044529341E+02  0.22716870289E+02  0.31385388693E+02  0.51100000000E-03 0.  1.
         12    1    4    4    0    0  0.35421495771E+01  0.32332994573E+01 -0.90509433569E+01  0.10243076914E+02  0.00000000000E+00 0. -1.
</event>
<event>
 8    1  0.1290800E-006  0.9118800E+02  0.7816164E-02  0.1184000E+00
        -11   -1    0    0    0    0  0.00000000000E+00  0.00000000000E+00  0.45593999997E+02  0.45594000000E+02  0.51100000000E-03 0.  1.
         11   -1    0    0    0    0 -0.00000000000E+00 -0.00000000000E+00 -0.45593999997E+02  0.45594000000E+02  0.51100000000E-03 0. -1.
         23    2    1    2    0    0 -0.11102230246E-15  0.00000000000E+00 -0.35527136788E-14  0.91188000000E+02  0.91188000000E+02 0.  0.
    9900012    2    3    3    0    0  0.50629853433E+00  0.19591059669E+02  0.31172323938E+02  0.54367085605E+02  0.40000003254E+02 0.  0.
         12    1    3    3    0    0 -0.50629853433E+00 -0.19591059669E+02 -0.31172323938E+02  0.36820914395E+02  0.00000000000E+00 0. -1.
         11    1    4    4    0    0 -0.23677525230E+01 -0.41972792500E+01  0.17364210085E+01  0.51223591530E+01  0.51100000000E-03 0. -1.
        -11    1    4    4    0    0  0.12590975249E+02  0.25846865751E+01  0.20644291039E+02  0.24318717384E+02  0.51100000000E-03 0.  1.
         12    1    4    4    0    0 -0.97169241913E+01  0.21203652344E+02  0.87916118902E+01  0.24926009069E+02  0.00000000000E+00 0. -1.
</event>
<event>
 8    1  0.1290800E-006  0.9118800E+02  0.7816164E-02  0.1184000E+00
        -11   -1    0    0    0    0  0.00000000000E+00  0.00000000000E+00  0.45593999997E+02  0.45594000000E+02  0.51100000000E-03 0. -1.
         11   -1    0    0    0    0 -0.00000000000E+00 -0.00000000000E+00 -0.45593999997E+02  0.45594000000E+02  0.51100000000E-03 0.  1.
         23    2    1    2    0    0  0.00000000000E+00  0.00000000000E+00 -0.35527136788E-14  0.91188000000E+02  0.91188000000E+02 0.  0.
    9900012    2    3    3    0    0  0.12388976825E+01 -0.29416603308E+02  0.22111272909E+02  0.54367084649E+02  0.40000001073E+02 0.  0.
        -12    1    3    3    0    0 -0.12388976825E+01  0.29416603308E+02 -0.22111272909E+02  0.36820915351E+02  0.00000000000E+00 0.  1.
         11    1    4    4    0    0 -0.71382979259E+01 -0.13224501862E+02  0.15041800824E+02  0.21262608473E+02  0.51100000000E-03 0. -1.
        -11    1    4    4    0    0  0.22595471989E+01  0.62224200554E+01  0.73190358452E+01  0.98687562972E+01  0.51100000000E-03 0.  1.
         12    1    4    4    0    0  0.61176484095E+01 -0.22414521501E+02 -0.24956376035E+00  0.23235719878E+02  0.00000000000E+00 0. -1.
</event>
<event>
 8    1  0.1290800E-006  0.9118800E+02  0.7816164E-02  0.1184000E+00
        -11   -1    0    0    0    0  0.00000000000E+00  0.00000000000E+00  0.45593999997E+02  0.45594000000E+02  0.51100000000E-03 0.  1.
         11   -1    0    0    0    0 -0.00000000000E+00 -0.00000000000E+00 -0.45593999997E+02  0.45594000000E+02  0.51100000000E-03 0. -1.
         23    2    1    2    0    0 -0.17763568394E-14  0.17763568394E-14  0.00000000000E+00  0.91188000000E+02  0.91188000000E+02 0.  0.
    9900012    2    3    3    0    0  0.11596109674E+02  0.10111399243E+02 -0.33452453604E+02  0.54367125400E+02  0.40000093973E+02 0.  0.
        -12    1    3    3    0    0 -0.11596109674E+02 -0.10111399243E+02  0.33452453604E+02  0.36820874600E+02  0.00000000000E+00 0.  1.
         11    1    4    4    0    0 -0.81278604966E+01  0.31429779734E+01 -0.59899137734E+01  0.10574473702E+02  0.51100000000E-03 0. -1.
        -11    1    4    4    0    0  0.11407346939E+02  0.17111927744E+02 -0.13313839409E+02  0.24499060296E+02  0.51100000000E-03 0.  1.
         12    1    4    4    0    0  0.83166232314E+01 -0.10143506475E+02 -0.14148700421E+02  0.19293591402E+02  0.00000000000E+00 0. -1.
</event>
<event>
 8    1  0.1290800E-006  0.9118800E+02  0.7816164E-02  0.1184000E+00
        -11   -1    0    0    0    0  0.00000000000E+00  0.00000000000E+00  0.45593999997E+02  0.45594000000E+02  0.51100000000E-03 0. -1.
         11   -1    0    0    0    0 -0.00000000000E+00 -0.00000000000E+00 -0.45593999997E+02  0.45594000000E+02  0.51100000000E-03 0.  1.
         23    2    1    2    0    0  0.00000000000E+00  0.00000000000E+00  0.00000000000E+00  0.91188000000E+02  0.91188000000E+02 0.  0.
    9900012    2    3    3    0    0 -0.22217092450E+02 -0.17193914228E+02 -0.23802253523E+02  0.54367120649E+02  0.40000083143E+02 0.  0.
         12    1    3    3    0    0  0.22217092450E+02  0.17193914228E+02  0.23802253523E+02  0.36820879351E+02  0.00000000000E+00 0. -1.
         11    1    4    4    0    0  0.18659000294E+00  0.98465767875E+01 -0.41090819807E+01  0.10671196992E+02  0.51100000000E-03 0. -1.
        -11    1    4    4    0    0 -0.12751670898E+02 -0.22161807810E+02 -0.20611854777E+02  0.32842036991E+02  0.51100000000E-03 0.  1.
         12    1    4    4    0    0 -0.96520115547E+01 -0.48786832060E+01  0.91868323465E+00  0.10853886666E+02  0.00000000000E+00 0. -1.
</event>
<event>
 8    1  0.1290800E-006  0.9118800E+02  0.7816164E-02  0.1184000E+00
        -11   -1    0    0    0    0  0.00000000000E+00  0.00000000000E+00  0.45593999997E+02  0.45594000000E+02  0.51100000000E-03 0.  1.
         11   -1    0    0    0    0 -0.00000000000E+00 -0.00000000000E+00 -0.45593999997E+02  0.45594000000E+02  0.51100000000E-03 0. -1.
         23    2    1    2    0    0  0.00000000000E+00  0.00000000000E+00  0.00000000000E+00  0.91188000000E+02  0.91188000000E+02 0.  0.
    9900012    2    3    3    0    0  0.11717288731E+02  0.34211015892E+02  0.69348947572E+01  0.54367065345E+02  0.39999957068E+02 0.  0.
        -12    1    3    3    0    0 -0.11717288731E+02 -0.34211015892E+02 -0.69348947572E+01  0.36820934655E+02  0.00000000000E+00 0.  1.
         11    1    4    4    0    0  0.14844555185E+02  0.82923353768E+01 -0.91457725305E+00  0.17028214717E+02  0.51100000000E-03 0. -1.
        -11    1    4    4    0    0  0.85317524081E+01  0.14663660337E+02  0.11792319398E+02  0.20660893753E+02  0.51100000000E-03 0.  1.
         12    1    4    4    0    0 -0.11659018862E+02  0.11255020178E+02 -0.39428473878E+01  0.16677956875E+02  0.00000000000E+00 0. -1.
</event>
<event>
 8    1  0.1290800E-006  0.9118800E+02  0.7816164E-02  0.1184000E+00
        -11   -1    0    0    0    0  0.00000000000E+00  0.00000000000E+00  0.45593999997E+02  0.45594000000E+02  0.51100000000E-03 0.  1.
         11   -1    0    0    0    0 -0.00000000000E+00 -0.00000000000E+00 -0.45593999997E+02  0.45594000000E+02  0.51100000000E-03 0. -1.
         23    2    1    2    0    0  0.00000000000E+00  0.71054273576E-14 -0.55511151231E-14  0.91188000000E+02  0.91188000000E+02 0.  0.
    9900012    2    3    3    0    0  0.14930848772E+02 -0.33636799096E+02 -0.11898290203E+01  0.54367079431E+02  0.39999989178E+02 0.  0.
        -12    1    3    3    0    0 -0.14930848772E+02  0.33636799096E+02  0.11898290203E+01  0.36820920569E+02  0.00000000000E+00 0.  1.
         11    1    4    4    0    0  0.12328552768E+01 -0.10213045632E+02 -0.18714677396E+02  0.21355687381E+02  0.51100000000E-03 0. -1.
        -11    1    4    4    0    0  0.79990430365E+00 -0.49412943865E+01  0.56072027409E+01  0.75164459652E+01  0.51100000000E-03 0.  1.
         12    1    4    4    0    0  0.12898089191E+02 -0.18482459078E+02  0.11917645635E+02  0.25494946084E+02  0.00000000000E+00 0. -1.
</event>
<event>
 8    1  0.1290800E-006  0.9118800E+02  0.7816164E-02  0.1184000E+00
        -11   -1    0    0    0    0  0.00000000000E+00  0.00000000000E+00  0.45593999997E+02  0.45594000000E+02  0.51100000000E-03 0.  1.
         11   -1    0    0    0    0 -0.00000000000E+00 -0.00000000000E+00 -0.45593999997E+02  0.45594000000E+02  0.51100000000E-03 0. -1.
         23    2    1    2    0    0  0.00000000000E+00  0.00000000000E+00  0.00000000000E+00  0.91188000000E+02  0.91188000000E+02 0.  0.
    9900012    2    3    3    0    0 -0.29244330453E+02 -0.16074392637E+02  0.15561589509E+02  0.54367081620E+02  0.39999994169E+02 0.  0.
         12    1    3    3    0    0  0.29244330453E+02  0.16074392637E+02 -0.15561589509E+02  0.36820918380E+02  0.00000000000E+00 0. -1.
         11    1    4    4    0    0 -0.10752872175E+02  0.38141857623E+01  0.20618468420E+02  0.23564666628E+02  0.51100000000E-03 0. -1.
        -11    1    4    4    0    0 -0.72740910171E+01 -0.15169489050E+02 -0.74510184688E+01  0.18399550936E+02  0.51100000000E-03 0.  1.
         12    1    4    4    0    0 -0.11217367262E+02 -0.47190893484E+01  0.23941395569E+01  0.12402864055E+02  0.00000000000E+00 0. -1.
</event>
<event>
 8    1  0.1290800E-006  0.9118800E+02  0.7816164E-02  0.1184000E+00
        -11   -1    0    0    0    0  0.00000000000E+00  0.00000000000E+00  0.45593999997E+02  0.45594000000E+02  0.51100000000E-03 0.  1.
         11   -1    0    0    0    0 -0.00000000000E+00 -0.00000000000E+00 -0.45593999997E+02  0.45594000000E+02  0.51100000000E-03 0. -1.
         23    2    1    2    0    0  0.71054273576E-14  0.88817841970E-15 -0.17763568394E-14  0.91188000000E+02  0.91188000000E+02 0.  0.
    9900012    2    3    3    0    0 -0.34429751319E+02 -0.74017326479E+01  0.10751051716E+02  0.54367101924E+02  0.40000040457E+02 0.  0.
         12    1    3    3    0    0  0.34429751319E+02  0.74017326479E+01 -0.10751051716E+02  0.36820898076E+02  0.00000000000E+00 0. -1.
         11    1    4    4    0    0  0.25883986353E+00  0.48163411445E+00 -0.40935129042E+01  0.41298689632E+01  0.51100000000E-03 0. -1.
        -11    1    4    4    0    0 -0.15755926555E+01  0.82264256912E+01  0.10080911569E+02  0.13106538452E+02  0.51100000000E-03 0.  1.
         12    1    4    4    0    0 -0.33112998527E+02 -0.16109792454E+02  0.47636530517E+01  0.37130694509E+02  0.00000000000E+00 0. -1.
</event>
<event>
 8    1  0.1290800E-006  0.9118800E+02  0.7816164E-02  0.1184000E+00
        -11   -1    0    0    0    0  0.00000000000E+00  0.00000000000E+00  0.45593999997E+02  0.45594000000E+02  0.51100000000E-03 0.  1.
         11   -1    0    0    0    0 -0.00000000000E+00 -0.00000000000E+00 -0.45593999997E+02  0.45594000000E+02  0.51100000000E-03 0. -1.
         23    2    1    2    0    0 -0.17763568394E-14  0.00000000000E+00  0.71054273576E-14  0.91188000000E+02  0.91188000000E+02 0.  0.
    9900012    2    3    3    0    0  0.83715165096E+01  0.12703230784E+02 -0.33530943450E+02  0.54367101998E+02  0.40000040626E+02 0.  0.
        -12    1    3    3    0    0 -0.83715165096E+01 -0.12703230784E+02  0.33530943450E+02  0.36820898002E+02  0.00000000000E+00 0.  1.
         11    1    4    4    0    0 -0.27099630132E+01  0.74737332323E+01 -0.76640170971E+00  0.79867364927E+01  0.51100000000E-03 0.  1.
        -11    1    4    4    0    0 -0.17636050069E+01  0.49943925086E+01  0.45083282162E+01  0.69555217429E+01  0.51100000000E-03 0. -1.
         12    1    4    4    0    0  0.12845084530E+02  0.23510504296E+00 -0.37272869956E+02  0.39424843763E+02  0.00000000000E+00 0. -1.
</event>
<event>
 8    1  0.1290800E-006  0.9118800E+02  0.7816164E-02  0.1184000E+00
        -11   -1    0    0    0    0  0.00000000000E+00  0.00000000000E+00  0.45593999997E+02  0.45594000000E+02  0.51100000000E-03 0.  1.
         11   -1    0    0    0    0 -0.00000000000E+00 -0.00000000000E+00 -0.45593999997E+02  0.45594000000E+02  0.51100000000E-03 0. -1.
         23    2    1    2    0    0  0.00000000000E+00 -0.71054273576E-14  0.88817841970E-15  0.91188000000E+02  0.91188000000E+02 0.  0.
    9900012    2    3    3    0    0  0.18856768923E+02 -0.31612675983E+02 -0.91472894809E+00  0.54367139798E+02  0.40000126796E+02 0.  0.
         12    1    3    3    0    0 -0.18856768923E+02  0.31612675983E+02  0.91472894809E+00  0.36820860202E+02  0.00000000000E+00 0. -1.
         11    1    4    4    0    0 -0.48827427840E+01 -0.97913056703E+01 -0.10666511381E+02  0.15280226082E+02  0.51100000000E-03 0. -1.
        -11    1    4    4    0    0  0.16670752726E+02 -0.23303330322E+01  0.67573828831E+01  0.18138541071E+02  0.51100000000E-03 0.  1.
        -12    1    4    4    0    0  0.70687589806E+01 -0.19491037280E+02  0.29943995494E+01  0.20948372645E+02  0.00000000000E+00 0.  1.
</event>
<event>
 8    1  0.1290800E-006  0.9118800E+02  0.7816164E-02  0.1184000E+00
        -11   -1    0    0    0    0  0.00000000000E+00  0.00000000000E+00  0.45593999997E+02  0.45594000000E+02  0.51100000000E-03 0. -1.
         11   -1    0    0    0    0 -0.00000000000E+00 -0.00000000000E+00 -0.45593999997E+02  0.45594000000E+02  0.51100000000E-03 0.  1.
         23    2    1    2    0    0  0.00000000000E+00  0.00000000000E+00  0.35527136788E-14  0.91188000000E+02  0.91188000000E+02 0.  0.
    9900012    2    3    3    0    0  0.53677349345E+01 -0.20294520390E+02  0.30250617259E+02  0.54367082293E+02  0.39999995704E+02 0.  0.
        -12    1    3    3    0    0 -0.53677349345E+01  0.20294520390E+02 -0.30250617259E+02  0.36820917707E+02  0.00000000000E+00 0.  1.
         11    1    4    4    0    0 -0.28178936950E+00 -0.97060346874E+01  0.15551904928E+02  0.18334346505E+02  0.51100000000E-03 0. -1.
        -11    1    4    4    0    0 -0.89544995946E+00  0.74312312527E+01 -0.46360605723E+01  0.88044356124E+01  0.51100000000E-03 0.  1.
        -12    1    4    4    0    0  0.65449742635E+01 -0.18019716956E+02  0.19334772903E+02  0.27228300176E+02  0.00000000000E+00 0.  1.
</event>
<event>
 8    1  0.1290800E-006  0.9118800E+02  0.7816164E-02  0.1184000E+00
        -11   -1    0    0    0    0  0.00000000000E+00  0.00000000000E+00  0.45593999997E+02  0.45594000000E+02  0.51100000000E-03 0.  1.
         11   -1    0    0    0    0 -0.00000000000E+00 -0.00000000000E+00 -0.45593999997E+02  0.45594000000E+02  0.51100000000E-03 0. -1.
         23    2    1    2    0    0 -0.88817841970E-15  0.00000000000E+00  0.00000000000E+00  0.91188000000E+02  0.91188000000E+02 0.  0.
    9900012    2    3    3    0    0 -0.58704017921E+01 -0.26960001343E+02  0.24381912680E+02  0.54367069056E+02  0.39999965528E+02 0.  0.
         12    1    3    3    0    0  0.58704017921E+01  0.26960001343E+02 -0.24381912680E+02  0.36820930944E+02  0.00000000000E+00 0. -1.
         11    1    4    4    0    0 -0.11877061219E+02 -0.24944326615E+02 -0.10258129375E+01  0.27646632813E+02  0.51100000000E-03 0. -1.
        -11    1    4    4    0    0  0.57940053552E+01 -0.32304252095E+01  0.17462473127E+02  0.18680045853E+02  0.51100000000E-03 0.  1.
         12    1    4    4    0    0  0.21265407212E+00  0.12147504813E+01  0.79452524904E+01  0.80403903899E+01  0.00000000000E+00 0. -1.
</event>
<event>
 8    1  0.1290800E-006  0.9118800E+02  0.7816164E-02  0.1184000E+00
        -11   -1    0    0    0    0  0.00000000000E+00  0.00000000000E+00  0.45593999997E+02  0.45594000000E+02  0.51100000000E-03 0. -1.
         11   -1    0    0    0    0 -0.00000000000E+00 -0.00000000000E+00 -0.45593999997E+02  0.45594000000E+02  0.51100000000E-03 0.  1.
         23    2    1    2    0    0  0.00000000000E+00 -0.17763568394E-14 -0.35527136788E-14  0.91188000000E+02  0.91188000000E+02 0.  0.
    9900012    2    3    3    0    0  0.27173455570E+02  0.13341712134E+02  0.20961432453E+02  0.54367087182E+02  0.40000006849E+02 0.  0.
        -12    1    3    3    0    0 -0.27173455570E+02 -0.13341712134E+02 -0.20961432453E+02  0.36820912818E+02  0.00000000000E+00 0.  1.
         11    1    4    4    0    0  0.73505821680E+01 -0.63006831385E+01  0.25690963205E+01  0.10016482536E+02  0.51100000000E-03 0. -1.
        -11    1    4    4    0    0  0.22641891690E+02  0.17073633152E+02  0.30268423785E+01  0.28518870653E+02  0.51100000000E-03 0.  1.
         12    1    4    4    0    0 -0.28190182878E+01  0.25687621203E+01  0.15365493754E+02  0.15831733993E+02  0.00000000000E+00 0. -1.
</event>
<event>
 8    1  0.1290800E-006  0.9118800E+02  0.7816164E-02  0.1184000E+00
        -11   -1    0    0    0    0  0.00000000000E+00  0.00000000000E+00  0.45593999997E+02  0.45594000000E+02  0.51100000000E-03 0. -1.
         11   -1    0    0    0    0 -0.00000000000E+00 -0.00000000000E+00 -0.45593999997E+02  0.45594000000E+02  0.51100000000E-03 0.  1.
         23    2    1    2    0    0  0.00000000000E+00  0.71054273576E-14  0.17763568394E-14  0.91188000000E+02  0.91188000000E+02 0.  0.
    9900012    2    3    3    0    0 -0.41849128262E+01  0.33897161385E+02  0.13756767359E+02  0.54367086195E+02  0.40000004598E+02 0.  0.
        -12    1    3    3    0    0  0.41849128262E+01 -0.33897161385E+02 -0.13756767359E+02  0.36820913805E+02  0.00000000000E+00 0.  1.
         11    1    4    4    0    0  0.64548798384E+01 -0.17352992023E+01 -0.30691763736E+01  0.73550377921E+01  0.51100000000E-03 0. -1.
        -11    1    4    4    0    0  0.41471482252E+01 -0.92107382944E+00  0.31045851950E+01  0.52617169152E+01  0.51100000000E-03 0.  1.
         12    1    4    4    0    0 -0.14786940890E+02  0.36553534416E+02  0.13721358537E+02  0.41750331487E+02  0.00000000000E+00 0. -1.
</event>
<event>
 8    1  0.1290800E-006  0.9118800E+02  0.7816164E-02  0.1184000E+00
        -11   -1    0    0    0    0  0.00000000000E+00  0.00000000000E+00  0.45593999997E+02  0.45594000000E+02  0.51100000000E-03 0. -1.
         11   -1    0    0    0    0 -0.00000000000E+00 -0.00000000000E+00 -0.45593999997E+02  0.45594000000E+02  0.51100000000E-03 0.  1.
         23    2    1    2    0    0  0.35527136788E-14  0.35527136788E-14 -0.35527136788E-14  0.91188000000E+02  0.91188000000E+02 0.  0.
    9900012    2    3    3    0    0  0.19500832579E+02  0.29743669545E+02 -0.95294880969E+01  0.54367088921E+02  0.40000010813E+02 0.  0.
         12    1    3    3    0    0 -0.19500832579E+02 -0.29743669545E+02  0.95294880969E+01  0.36820911079E+02  0.00000000000E+00 0. -1.
         11    1    4    4    0    0  0.15574400701E+02  0.16956245346E+02  0.13346271581E+01  0.23062034674E+02  0.51100000000E-03 0.  1.
        -11    1    4    4    0    0 -0.86182652745E+01  0.85376873686E+01 -0.13120369902E+02  0.17869267153E+02  0.51100000000E-03 0. -1.
         12    1    4    4    0    0  0.12544697153E+02  0.42497368305E+01  0.22562546474E+01  0.13435787094E+02  0.00000000000E+00 0. -1.
</event>
<event>
 8    1  0.1290800E-006  0.9118800E+02  0.7816164E-02  0.1184000E+00
        -11   -1    0    0    0    0  0.00000000000E+00  0.00000000000E+00  0.45593999997E+02  0.45594000000E+02  0.51100000000E-03 0.  1.
         11   -1    0    0    0    0 -0.00000000000E+00 -0.00000000000E+00 -0.45593999997E+02  0.45594000000E+02  0.51100000000E-03 0. -1.
         23    2    1    2    0    0 -0.88817841970E-15  0.00000000000E+00 -0.88817841970E-15  0.91188000000E+02  0.91188000000E+02 0.  0.
    9900012    2    3    3    0    0  0.43308952061E+01 -0.36540988875E+02  0.13360301957E+01  0.54367007374E+02  0.39999824910E+02 0.  0.
         12    1    3    3    0    0 -0.43308952061E+01  0.36540988875E+02 -0.13360301957E+01  0.36820992626E+02  0.00000000000E+00 0. -1.
         11    1    4    4    0    0  0.19986534491E+01 -0.12556898292E+02 -0.19081265633E+01  0.12857342555E+02  0.51100000000E-03 0. -1.
        -11    1    4    4    0    0  0.69923246468E+01 -0.27726263974E+02 -0.71904962486E+01  0.29484598598E+02  0.51100000000E-03 0.  1.
         12    1    4    4    0    0 -0.46600828898E+01  0.37421733913E+01  0.10434653008E+02  0.12025066221E+02  0.00000000000E+00 0. -1.
</event>
<event>
 8    1  0.1290800E-006  0.9118800E+02  0.7816164E-02  0.1184000E+00
        -11   -1    0    0    0    0  0.00000000000E+00  0.00000000000E+00  0.45593999997E+02  0.45594000000E+02  0.51100000000E-03 0.  1.
         11   -1    0    0    0    0 -0.00000000000E+00 -0.00000000000E+00 -0.45593999997E+02  0.45594000000E+02  0.51100000000E-03 0. -1.
         23    2    1    2    0    0  0.00000000000E+00  0.00000000000E+00 -0.35527136788E-14  0.91188000000E+02  0.91188000000E+02 0.  0.
    9900012    2    3    3    0    0  0.20772494359E+02  0.13146712723E+02  0.27412541862E+02  0.54367081644E+02  0.39999994223E+02 0.  0.
         12    1    3    3    0    0 -0.20772494359E+02 -0.13146712723E+02 -0.27412541862E+02  0.36820918356E+02  0.00000000000E+00 0. -1.
         11    1    4    4    0    0  0.12741198299E+02  0.69017614369E+01 -0.82153020355E+01  0.16657239652E+02  0.51100000000E-03 0. -1.
        -11    1    4    4    0    0  0.20784915667E+01  0.59192224002E+01  0.20895629187E+02  0.21817072224E+02  0.51100000000E-03 0.  1.
        -12    1    4    4    0    0  0.59528044930E+01  0.32572888543E+00  0.14732214710E+02  0.15892769768E+02  0.00000000000E+00 0.  1.
</event>
<event>
 8    1  0.1290800E-006  0.9118800E+02  0.7816164E-02  0.1184000E+00
        -11   -1    0    0    0    0  0.00000000000E+00  0.00000000000E+00  0.45593999997E+02  0.45594000000E+02  0.51100000000E-03 0.  1.
         11   -1    0    0    0    0 -0.00000000000E+00 -0.00000000000E+00 -0.45593999997E+02  0.45594000000E+02  0.51100000000E-03 0. -1.
         23    2    1    2    0    0 -0.88817841970E-15  0.00000000000E+00  0.71054273576E-14  0.91188000000E+02  0.91188000000E+02 0.  0.
    9900012    2    3    3    0    0  0.33865764684E+01  0.15912553716E+02 -0.33031858685E+02  0.54367055496E+02  0.39999934615E+02 0.  0.
        -12    1    3    3    0    0 -0.33865764684E+01 -0.15912553716E+02  0.33031858685E+02  0.36820944504E+02  0.00000000000E+00 0.  1.
         11    1    4    4    0    0 -0.10986214762E+02  0.12676077115E+02 -0.98080138445E+01  0.19431340192E+02  0.51100000000E-03 0. -1.
        -11    1    4    4    0    0 -0.56895338881E+01 -0.26335800516E+00 -0.58745419675E+01  0.81823222188E+01  0.51100000000E-03 0.  1.
        -12    1    4    4    0    0  0.20062325118E+02  0.34998346057E+01 -0.17349302873E+02  0.26753393086E+02  0.00000000000E+00 0.  1.
</event>
<event>
 8    1  0.1290800E-006  0.9118800E+02  0.7816164E-02  0.1184000E+00
        -11   -1    0    0    0    0  0.00000000000E+00  0.00000000000E+00  0.45593999997E+02  0.45594000000E+02  0.51100000000E-03 0.  1.
         11   -1    0    0    0    0 -0.00000000000E+00 -0.00000000000E+00 -0.45593999997E+02  0.45594000000E+02  0.51100000000E-03 0. -1.
         23    2    1    2    0    0  0.00000000000E+00  0.00000000000E+00  0.00000000000E+00  0.91188000000E+02  0.91188000000E+02 0.  0.
    9900012    2    3    3    0    0  0.89242228008E+01 -0.34440400983E+02 -0.94866811025E+01  0.54367080799E+02  0.39999992298E+02 0.  0.
        -12    1    3    3    0    0 -0.89242228008E+01  0.34440400983E+02  0.94866811025E+01  0.36820919201E+02  0.00000000000E+00 0.  1.
         11    1    4    4    0    0  0.11998346182E+02 -0.13167019505E+02  0.35360818320E+01  0.18161348759E+02  0.51100000000E-03 0. -1.
        -11    1    4    4    0    0  0.71309376371E+00 -0.11976103423E+02  0.69406124587E+01  0.13860290670E+02  0.51100000000E-03 0.  1.
        -12    1    4    4    0    0 -0.37872171452E+01 -0.92972780551E+01 -0.19963375393E+02  0.22345441370E+02  0.00000000000E+00 0.  1.
</event>
<event>
 8    1  0.1290800E-006  0.9118800E+02  0.7816164E-02  0.1184000E+00
        -11   -1    0    0    0    0  0.00000000000E+00  0.00000000000E+00  0.45593999997E+02  0.45594000000E+02  0.51100000000E-03 0. -1.
         11   -1    0    0    0    0 -0.00000000000E+00 -0.00000000000E+00 -0.45593999997E+02  0.45594000000E+02  0.51100000000E-03 0.  1.
         23    2    1    2    0    0  0.22204460493E-15  0.35527136788E-14  0.35527136788E-14  0.91188000000E+02  0.91188000000E+02 0.  0.
    9900012    2    3    3    0    0 -0.15207756035E+01  0.19475773773E+02 -0.31211563417E+02  0.54367079133E+02  0.39999988500E+02 0.  0.
         12    1    3    3    0    0  0.15207756035E+01 -0.19475773773E+02  0.31211563417E+02  0.36820920867E+02  0.00000000000E+00 0. -1.
         11    1    4    4    0    0  0.32151284462E+01 -0.78686624841E+01  0.12599145077E+01  0.85930370093E+01  0.51100000000E-03 0. -1.
        -11    1    4    4    0    0  0.17785179239E+01  0.19577836558E+02 -0.12274231338E+02  0.23175667531E+02  0.51100000000E-03 0.  1.
         12    1    4    4    0    0 -0.65144219735E+01  0.77665996992E+01 -0.20197246588E+02  0.22598374593E+02  0.00000000000E+00 0. -1.
</event>
<event>
 8    1  0.1290800E-006  0.9118800E+02  0.7816164E-02  0.1184000E+00
        -11   -1    0    0    0    0  0.00000000000E+00  0.00000000000E+00  0.45593999997E+02  0.45594000000E+02  0.51100000000E-03 0.  1.
         11   -1    0    0    0    0 -0.00000000000E+00 -0.00000000000E+00 -0.45593999997E+02  0.45594000000E+02  0.51100000000E-03 0. -1.
         23    2    1    2    0    0 -0.88817841970E-15 -0.88817841970E-15  0.00000000000E+00  0.91188000000E+02  0.91188000000E+02 0.  0.
    9900012    2    3    3    0    0  0.46922775056E+01 -0.79847055777E+01  0.35637156189E+02  0.54367083490E+02  0.39999998433E+02 0.  0.
         12    1    3    3    0    0 -0.46922775056E+01  0.79847055777E+01 -0.35637156189E+02  0.36820916510E+02  0.00000000000E+00 0. -1.
         11    1    4    4    0    0  0.12881582604E+02  0.30151344376E+01  0.38905507471E+01  0.13789945302E+02  0.51100000000E-03 0. -1.
        -11    1    4    4    0    0  0.71403122506E+01 -0.50227531604E+01  0.94276487604E+01  0.12848839238E+02  0.51100000000E-03 0.  1.
        -12    1    4    4    0    0 -0.15329617349E+02 -0.59770868548E+01  0.22318956682E+02  0.27728298951E+02  0.00000000000E+00 0.  1.
</event>
<event>
 8    1  0.1290800E-006  0.9118800E+02  0.7816164E-02  0.1184000E+00
        -11   -1    0    0    0    0  0.00000000000E+00  0.00000000000E+00  0.45593999997E+02  0.45594000000E+02  0.51100000000E-03 0.  1.
         11   -1    0    0    0    0 -0.00000000000E+00 -0.00000000000E+00 -0.45593999997E+02  0.45594000000E+02  0.51100000000E-03 0. -1.
         23    2    1    2    0    0  0.88817841970E-15  0.00000000000E+00 -0.35527136788E-14  0.91188000000E+02  0.91188000000E+02 0.  0.
    9900012    2    3    3    0    0 -0.52690752801E+01  0.22895631015E+02 -0.28351390518E+02  0.54367157830E+02  0.40000167904E+02 0.  0.
        -12    1    3    3    0    0  0.52690752801E+01 -0.22895631015E+02  0.28351390518E+02  0.36820842170E+02  0.00000000000E+00 0.  1.
         11    1    4    4    0    0 -0.15904797479E+01  0.29926544035E+01 -0.16757297702E+02  0.17096567865E+02  0.51100000000E-03 0. -1.
        -11    1    4    4    0    0  0.21466119781E+01  0.17391822991E+02  0.60358529974E+01  0.18534156889E+02  0.51100000000E-03 0.  1.
        -12    1    4    4    0    0 -0.58252075103E+01  0.25111536205E+01 -0.17629945813E+02  0.18736433076E+02  0.00000000000E+00 0.  1.
</event>
<event>
 8    1  0.1290800E-006  0.9118800E+02  0.7816164E-02  0.1184000E+00
        -11   -1    0    0    0    0  0.00000000000E+00  0.00000000000E+00  0.45593999997E+02  0.45594000000E+02  0.51100000000E-03 0.  1.
         11   -1    0    0    0    0 -0.00000000000E+00 -0.00000000000E+00 -0.45593999997E+02  0.45594000000E+02  0.51100000000E-03 0. -1.
         23    2    1    2    0    0  0.17763568394E-14  0.88817841970E-15  0.00000000000E+00  0.91188000000E+02  0.91188000000E+02 0.  0.
    9900012    2    3    3    0    0 -0.14781301845E+01  0.15494052272E+01  0.36758604702E+02  0.54367074631E+02  0.39999978235E+02 0.  0.
         12    1    3    3    0    0  0.14781301845E+01 -0.15494052272E+01 -0.36758604702E+02  0.36820925369E+02  0.00000000000E+00 0. -1.
         11    1    4    4    0    0  0.13361289014E+02  0.85169965834E+01  0.16342571244E+02  0.22762752690E+02  0.51100000000E-03 0. -1.
        -11    1    4    4    0    0 -0.69087946699E+01  0.58479870201E+01  0.74382504557E+01  0.11715714493E+02  0.51100000000E-03 0.  1.
         12    1    4    4    0    0 -0.79306245283E+01 -0.12815578376E+02  0.12977783003E+02  0.19888607447E+02  0.00000000000E+00 0. -1.
</event>
<event>
 8    1  0.1290800E-006  0.9118800E+02  0.7816164E-02  0.1184000E+00
        -11   -1    0    0    0    0  0.00000000000E+00  0.00000000000E+00  0.45593999997E+02  0.45594000000E+02  0.51100000000E-03 0. -1.
         11   -1    0    0    0    0 -0.00000000000E+00 -0.00000000000E+00 -0.45593999997E+02  0.45594000000E+02  0.51100000000E-03 0.  1.
         23    2    1    2    0    0  0.00000000000E+00 -0.35527136788E-14  0.00000000000E+00  0.91188000000E+02  0.91188000000E+02 0.  0.
    9900012    2    3    3    0    0 -0.29414849914E+02 -0.21580498838E+02 -0.49828195452E+01  0.54367084528E+02  0.40000000798E+02 0.  0.
         12    1    3    3    0    0  0.29414849914E+02  0.21580498838E+02  0.49828195452E+01  0.36820915472E+02  0.00000000000E+00 0. -1.
         11    1    4    4    0    0 -0.23322604179E+02 -0.13734674656E+02 -0.35362965966E+01  0.27296346779E+02  0.51100000000E-03 0. -1.
        -11    1    4    4    0    0 -0.13461342235E+02  0.83742488945E+00  0.45061162159E+01  0.14220200379E+02  0.51100000000E-03 0.  1.
         12    1    4    4    0    0  0.73690965000E+01 -0.86832490712E+01 -0.59526391644E+01  0.12850537369E+02  0.00000000000E+00 0. -1.
</event>
<event>
 8    1  0.1290800E-006  0.9118800E+02  0.7816164E-02  0.1184000E+00
        -11   -1    0    0    0    0  0.00000000000E+00  0.00000000000E+00  0.45593999997E+02  0.45594000000E+02  0.51100000000E-03 0.  1.
         11   -1    0    0    0    0 -0.00000000000E+00 -0.00000000000E+00 -0.45593999997E+02  0.45594000000E+02  0.51100000000E-03 0. -1.
         23    2    1    2    0    0  0.44408920985E-15  0.00000000000E+00  0.00000000000E+00  0.91188000000E+02  0.91188000000E+02 0.  0.
    9900012    2    3    3    0    0  0.31298791743E+01  0.24110325398E+02 -0.27652778309E+02  0.54367080909E+02  0.39999992549E+02 0.  0.
        -12    1    3    3    0    0 -0.31298791743E+01 -0.24110325398E+02  0.27652778309E+02  0.36820919091E+02  0.00000000000E+00 0.  1.
         11    1    4    4    0    0 -0.12140744248E+02 -0.68213873895E+00 -0.26969887385E+01  0.12455389703E+02  0.51100000000E-03 0. -1.
        -11    1    4    4    0    0 -0.12553511031E+01  0.10372585186E+01  0.18509224003E+01  0.24653043665E+01  0.51100000000E-03 0.  1.
         12    1    4    4    0    0  0.16525974525E+02  0.23755205618E+02 -0.26806711971E+02  0.39446386839E+02  0.00000000000E+00 0. -1.
</event>
<event>
 8    1  0.1290800E-006  0.9118800E+02  0.7816164E-02  0.1184000E+00
        -11   -1    0    0    0    0  0.00000000000E+00  0.00000000000E+00  0.45593999997E+02  0.45594000000E+02  0.51100000000E-03 0.  1.
         11   -1    0    0    0    0 -0.00000000000E+00 -0.00000000000E+00 -0.45593999997E+02  0.45594000000E+02  0.51100000000E-03 0. -1.
         23    2    1    2    0    0  0.17763568394E-14 -0.35527136788E-14 -0.35527136788E-14  0.91188000000E+02  0.91188000000E+02 0.  0.
    9900012    2    3    3    0    0 -0.48125527570E+01  0.22712648669E+02  0.28578921134E+02  0.54367084656E+02  0.40000001090E+02 0.  0.
         12    1    3    3    0    0  0.48125527570E+01 -0.22712648669E+02 -0.28578921134E+02  0.36820915344E+02  0.00000000000E+00 0. -1.
         11    1    4    4    0    0  0.85184214963E+01  0.51578032775E+01  0.72290869289E+01  0.12305532801E+02  0.51100000000E-03 0. -1.
        -11    1    4    4    0    0 -0.32746942512E+01 -0.50684721957E+01  0.15484244254E+02  0.16618509356E+02  0.51100000000E-03 0.  1.
         12    1    4    4    0    0 -0.10056280002E+02  0.22623317587E+02  0.58655899513E+01  0.25443042499E+02  0.00000000000E+00 0. -1.
</event>
<event>
 8    1  0.1290800E-006  0.9118800E+02  0.7816164E-02  0.1184000E+00
        -11   -1    0    0    0    0  0.00000000000E+00  0.00000000000E+00  0.45593999997E+02  0.45594000000E+02  0.51100000000E-03 0. -1.
         11   -1    0    0    0    0 -0.00000000000E+00 -0.00000000000E+00 -0.45593999997E+02  0.45594000000E+02  0.51100000000E-03 0.  1.
         23    2    1    2    0    0  0.00000000000E+00  0.00000000000E+00 -0.17763568394E-14  0.91188000000E+02  0.91188000000E+02 0.  0.
    9900012    2    3    3    0    0  0.33597611396E+02  0.12648111665E+02  0.81855773654E+01  0.54367110589E+02  0.40000060210E+02 0.  0.
        -12    1    3    3    0    0 -0.33597611396E+02 -0.12648111665E+02 -0.81855773654E+01  0.36820889411E+02  0.00000000000E+00 0.  1.
         11    1    4    4    0    0  0.27383847119E+02 -0.33893934726E+01 -0.32346278520E+01  0.27781754602E+02  0.51100000000E-03 0. -1.
        -11    1    4    4    0    0 -0.36129322290E+01  0.12830632536E+02  0.41962622459E+01  0.13974513504E+02  0.51100000000E-03 0.  1.
         12    1    4    4    0    0  0.98266965060E+01  0.32068726012E+01  0.72239429715E+01  0.12610842484E+02  0.00000000000E+00 0. -1.
</event>
<event>
 8    1  0.1290800E-006  0.9118800E+02  0.7816164E-02  0.1184000E+00
        -11   -1    0    0    0    0  0.00000000000E+00  0.00000000000E+00  0.45593999997E+02  0.45594000000E+02  0.51100000000E-03 0.  1.
         11   -1    0    0    0    0 -0.00000000000E+00 -0.00000000000E+00 -0.45593999997E+02  0.45594000000E+02  0.51100000000E-03 0. -1.
         23    2    1    2    0    0  0.00000000000E+00  0.00000000000E+00  0.00000000000E+00  0.91188000000E+02  0.91188000000E+02 0.  0.
    9900012    2    3    3    0    0 -0.18534220818E+02  0.26421511157E+02  0.17724731579E+02  0.54367086069E+02  0.40000004312E+02 0.  0.
         12    1    3    3    0    0  0.18534220818E+02 -0.26421511157E+02 -0.17724731579E+02  0.36820913931E+02  0.00000000000E+00 0. -1.
         11    1    4    4    0    0 -0.83681018036E+01  0.66726393618E+01 -0.12062597005E+01  0.10770529540E+02  0.51100000000E-03 0. -1.
        -11    1    4    4    0    0 -0.12563101594E+02  0.16333004479E+02  0.27324352071E+02  0.34223073698E+02  0.51100000000E-03 0.  1.
        -12    1    4    4    0    0  0.23969825798E+01  0.34158673162E+01 -0.83933607915E+01  0.93734828311E+01  0.00000000000E+00 0.  1.
</event>
<event>
 8    1  0.1290800E-006  0.9118800E+02  0.7816164E-02  0.1184000E+00
        -11   -1    0    0    0    0  0.00000000000E+00  0.00000000000E+00  0.45593999997E+02  0.45594000000E+02  0.51100000000E-03 0.  1.
         11   -1    0    0    0    0 -0.00000000000E+00 -0.00000000000E+00 -0.45593999997E+02  0.45594000000E+02  0.51100000000E-03 0. -1.
         23    2    1    2    0    0  0.00000000000E+00  0.00000000000E+00  0.35527136788E-14  0.91188000000E+02  0.91188000000E+02 0.  0.
    9900012    2    3    3    0    0 -0.97260005769E+01  0.15724382846E+02  0.31842246121E+02  0.54367082831E+02  0.39999996930E+02 0.  0.
         12    1    3    3    0    0  0.97260005769E+01 -0.15724382846E+02 -0.31842246121E+02  0.36820917169E+02  0.00000000000E+00 0. -1.
         11    1    4    4    0    0 -0.12032017692E+01  0.22059876341E+01 -0.32891590796E+01  0.41391597759E+01  0.51100000000E-03 0. -1.
        -11    1    4    4    0    0  0.76553612497E+01 -0.15784203265E+01 -0.97843783077E+00  0.78773921726E+01  0.51100000000E-03 0.  1.
         12    1    4    4    0    0 -0.16178160057E+02  0.15096815538E+02  0.36109843032E+02  0.42350530882E+02  0.00000000000E+00 0. -1.
</event>
<event>
 8    1  0.1290800E-006  0.9118800E+02  0.7816164E-02  0.1184000E+00
        -11   -1    0    0    0    0  0.00000000000E+00  0.00000000000E+00  0.45593999997E+02  0.45594000000E+02  0.51100000000E-03 0.  1.
         11   -1    0    0    0    0 -0.00000000000E+00 -0.00000000000E+00 -0.45593999997E+02  0.45594000000E+02  0.51100000000E-03 0. -1.
         23    2    1    2    0    0  0.00000000000E+00  0.00000000000E+00  0.88817841970E-15  0.91188000000E+02  0.91188000000E+02 0.  0.
    9900012    2    3    3    0    0  0.27370820837E+02 -0.23559344231E+02  0.71816611988E+01  0.54367071285E+02  0.39999970608E+02 0.  0.
         12    1    3    3    0    0 -0.27370820837E+02  0.23559344231E+02 -0.71816611988E+01  0.36820928715E+02  0.00000000000E+00 0. -1.
         11    1    4    4    0    0  0.15657700513E+02  0.14300237142E+01 -0.53569033845E+01  0.16610387332E+02  0.51100000000E-03 0. -1.
        -11    1    4    4    0    0  0.81523636018E+01 -0.29607986018E+01 -0.44150059309E+01  0.97324014655E+01  0.51100000000E-03 0.  1.
        -12    1    4    4    0    0  0.35607567218E+01 -0.22028569343E+02  0.16953570514E+02  0.28024282487E+02  0.00000000000E+00 0.  1.
</event>
<event>
 8    1  0.1290800E-006  0.9118800E+02  0.7816164E-02  0.1184000E+00
        -11   -1    0    0    0    0  0.00000000000E+00  0.00000000000E+00  0.45593999997E+02  0.45594000000E+02  0.51100000000E-03 0. -1.
         11   -1    0    0    0    0 -0.00000000000E+00 -0.00000000000E+00 -0.45593999997E+02  0.45594000000E+02  0.51100000000E-03 0.  1.
         23    2    1    2    0    0  0.00000000000E+00 -0.35527136788E-14 -0.35527136788E-14  0.91188000000E+02  0.91188000000E+02 0.  0.
    9900012    2    3    3    0    0  0.25571626426E+02 -0.16246354151E+02 -0.20926725908E+02  0.54367082596E+02  0.39999996394E+02 0.  0.
         12    1    3    3    0    0 -0.25571626426E+02  0.16246354151E+02  0.20926725908E+02  0.36820917404E+02  0.00000000000E+00 0. -1.
         11    1    4    4    0    0  0.38045655883E+01  0.71752961622E+00 -0.92711885756E+01  0.10047114309E+02  0.51100000000E-03 0. -1.
        -11    1    4    4    0    0  0.49689763457E+01 -0.11928664789E+02 -0.20842070263E+02  0.24522961947E+02  0.51100000000E-03 0.  1.
         12    1    4    4    0    0  0.16798084492E+02 -0.50352189781E+01  0.91865329300E+01  0.19797006340E+02  0.00000000000E+00 0. -1.
</event>
<event>
 8    1  0.1290800E-006  0.9118800E+02  0.7816164E-02  0.1184000E+00
        -11   -1    0    0    0    0  0.00000000000E+00  0.00000000000E+00  0.45593999997E+02  0.45594000000E+02  0.51100000000E-03 0.  1.
         11   -1    0    0    0    0 -0.00000000000E+00 -0.00000000000E+00 -0.45593999997E+02  0.45594000000E+02  0.51100000000E-03 0. -1.
         23    2    1    2    0    0  0.00000000000E+00 -0.17763568394E-14  0.35527136788E-14  0.91188000000E+02  0.91188000000E+02 0.  0.
    9900012    2    3    3    0    0 -0.15629247049E+02  0.13252079302E+02 -0.30592232745E+02  0.54367140783E+02  0.40000129042E+02 0.  0.
        -12    1    3    3    0    0  0.15629247049E+02 -0.13252079302E+02  0.30592232745E+02  0.36820859217E+02  0.00000000000E+00 0.  1.
         11    1    4    4    0    0 -0.11856424955E+02  0.11128928615E+02 -0.30165753608E+02  0.34269528094E+02  0.51100000000E-03 0. -1.
        -11    1    4    4    0    0 -0.26641287103E+01 -0.31089572829E+01  0.86457808760E+01  0.95662283262E+01  0.51100000000E-03 0.  1.
         12    1    4    4    0    0 -0.11086933835E+01  0.52321079705E+01 -0.90722600137E+01  0.10531384362E+02  0.00000000000E+00 0. -1.
</event>
<event>
 8    1  0.1290800E-006  0.9118800E+02  0.7816164E-02  0.1184000E+00
        -11   -1    0    0    0    0  0.00000000000E+00  0.00000000000E+00  0.45593999997E+02  0.45594000000E+02  0.51100000000E-03 0.  1.
         11   -1    0    0    0    0 -0.00000000000E+00 -0.00000000000E+00 -0.45593999997E+02  0.45594000000E+02  0.51100000000E-03 0. -1.
         23    2    1    2    0    0 -0.22204460493E-14  0.00000000000E+00  0.00000000000E+00  0.91188000000E+02  0.91188000000E+02 0.  0.
    9900012    2    3    3    0    0 -0.30665990274E+01  0.12904688125E+02  0.34348867500E+02  0.54367086055E+02  0.40000004279E+02 0.  0.
         12    1    3    3    0    0  0.30665990274E+01 -0.12904688125E+02 -0.34348867500E+02  0.36820913945E+02  0.00000000000E+00 0. -1.
         11    1    4    4    0    0 -0.15050226366E+02  0.67090777481E+01  0.13872790730E+02  0.21540087298E+02  0.51100000000E-03 0. -1.
        -11    1    4    4    0    0 -0.21595052018E+01  0.42196129555E+01  0.17642378888E+02  0.18268063096E+02  0.51100000000E-03 0.  1.
         12    1    4    4    0    0  0.14143132541E+02  0.19759974217E+01  0.28336978820E+01  0.14558935660E+02  0.00000000000E+00 0. -1.
</event>
<event>
 8    1  0.1290800E-006  0.9118800E+02  0.7816164E-02  0.1184000E+00
        -11   -1    0    0    0    0  0.00000000000E+00  0.00000000000E+00  0.45593999997E+02  0.45594000000E+02  0.51100000000E-03 0. -1.
         11   -1    0    0    0    0 -0.00000000000E+00 -0.00000000000E+00 -0.45593999997E+02  0.45594000000E+02  0.51100000000E-03 0.  1.
         23    2    1    2    0    0 -0.13322676296E-14 -0.71054273576E-14  0.00000000000E+00  0.91188000000E+02  0.91188000000E+02 0.  0.
    9900012    2    3    3    0    0 -0.26968227412E+01 -0.32317555949E+02  0.17437975040E+02  0.54367078652E+02  0.39999987402E+02 0.  0.
        -12    1    3    3    0    0  0.26968227412E+01  0.32317555949E+02 -0.17437975040E+02  0.36820921348E+02  0.00000000000E+00 0.  1.
         11    1    4    4    0    0 -0.86448569707E+01 -0.28026374881E+02 -0.25979550814E+01  0.29444194876E+02  0.51100000000E-03 0. -1.
        -11    1    4    4    0    0 -0.38674537319E+01 -0.28791092001E+01  0.78431334140E+01  0.92065851522E+01  0.51100000000E-03 0.  1.
        -12    1    4    4    0    0  0.98154879614E+01 -0.14120718681E+01  0.12192796707E+02  0.15716298624E+02  0.00000000000E+00 0.  1.
</event>
<event>
 8    1  0.1290800E-006  0.9118800E+02  0.7816164E-02  0.1184000E+00
        -11   -1    0    0    0    0  0.00000000000E+00  0.00000000000E+00  0.45593999997E+02  0.45594000000E+02  0.51100000000E-03 0. -1.
         11   -1    0    0    0    0 -0.00000000000E+00 -0.00000000000E+00 -0.45593999997E+02  0.45594000000E+02  0.51100000000E-03 0.  1.
         23    2    1    2    0    0  0.00000000000E+00  0.88817841970E-15  0.00000000000E+00  0.91188000000E+02  0.91188000000E+02 0.  0.
    9900012    2    3    3    0    0 -0.34957411660E+02  0.65976451769E+01  0.94988511066E+01  0.54367112936E+02  0.40000065560E+02 0.  0.
        -12    1    3    3    0    0  0.34957411660E+02 -0.65976451769E+01 -0.94988511066E+01  0.36820887064E+02  0.00000000000E+00 0.  1.
         11    1    4    4    0    0 -0.15302096460E+02  0.84071668608E+01  0.10548541760E+02  0.20398684865E+02  0.51100000000E-03 0. -1.
        -11    1    4    4    0    0 -0.39027936632E+01 -0.11036386950E+01  0.12522860131E+02  0.13163276297E+02  0.51100000000E-03 0.  1.
        -12    1    4    4    0    0 -0.15752521537E+02 -0.70588298884E+00 -0.13572550784E+02  0.20805151774E+02  0.00000000000E+00 0.  1.
</event>
<event>
 8    1  0.1290800E-006  0.9118800E+02  0.7816164E-02  0.1184000E+00
        -11   -1    0    0    0    0  0.00000000000E+00  0.00000000000E+00  0.45593999997E+02  0.45594000000E+02  0.51100000000E-03 0.  1.
         11   -1    0    0    0    0 -0.00000000000E+00 -0.00000000000E+00 -0.45593999997E+02  0.45594000000E+02  0.51100000000E-03 0. -1.
         23    2    1    2    0    0  0.00000000000E+00  0.00000000000E+00  0.00000000000E+00  0.91188000000E+02  0.91188000000E+02 0.  0.
    9900012    2    3    3    0    0 -0.14922037684E+02  0.31106327329E+02 -0.12865052980E+02  0.54367076645E+02  0.39999982827E+02 0.  0.
        -12    1    3    3    0    0  0.14922037684E+02 -0.31106327329E+02  0.12865052980E+02  0.36820923355E+02  0.00000000000E+00 0.  1.
         11    1    4    4    0    0 -0.50006926075E+01  0.17994058928E+02 -0.18748415364E+02  0.26463109458E+02  0.51100000000E-03 0. -1.
        -11    1    4    4    0    0  0.67387181313E+01  0.32020508543E+01  0.38981707943E+01  0.84177899433E+01  0.51100000000E-03 0.  1.
         12    1    4    4    0    0 -0.16660063208E+02  0.99102175469E+01  0.19851915897E+01  0.19486177243E+02  0.00000000000E+00 0. -1.
</event>
<event>
 8    1  0.1290800E-006  0.9118800E+02  0.7816164E-02  0.1184000E+00
        -11   -1    0    0    0    0  0.00000000000E+00  0.00000000000E+00  0.45593999997E+02  0.45594000000E+02  0.51100000000E-03 0.  1.
         11   -1    0    0    0    0 -0.00000000000E+00 -0.00000000000E+00 -0.45593999997E+02  0.45594000000E+02  0.51100000000E-03 0. -1.
         23    2    1    2    0    0 -0.17763568394E-14  0.00000000000E+00  0.00000000000E+00  0.91188000000E+02  0.91188000000E+02 0.  0.
    9900012    2    3    3    0    0  0.10718706016E+02 -0.84259553976E+01 -0.34203686226E+02  0.54367088354E+02  0.40000009520E+02 0.  0.
        -12    1    3    3    0    0 -0.10718706016E+02  0.84259553976E+01  0.34203686226E+02  0.36820911646E+02  0.00000000000E+00 0.  1.
         11    1    4    4    0    0  0.99097584974E+01  0.26770959742E+01 -0.14771006806E+02  0.17987573451E+02  0.51100000000E-03 0. -1.
        -11    1    4    4    0    0  0.19890925463E+00  0.88666689759E+01 -0.12302996740E+02  0.15166446936E+02  0.51100000000E-03 0.  1.
        -12    1    4    4    0    0  0.61003826386E+00 -0.19969720348E+02 -0.71296826800E+01  0.21213067967E+02  0.00000000000E+00 0.  1.
</event>
<event>
 8    1  0.1290800E-006  0.9118800E+02  0.7816164E-02  0.1184000E+00
        -11   -1    0    0    0    0  0.00000000000E+00  0.00000000000E+00  0.45593999997E+02  0.45594000000E+02  0.51100000000E-03 0.  1.
         11   -1    0    0    0    0 -0.00000000000E+00 -0.00000000000E+00 -0.45593999997E+02  0.45594000000E+02  0.51100000000E-03 0. -1.
         23    2    1    2    0    0 -0.88817841970E-15 -0.71054273576E-14  0.00000000000E+00  0.91188000000E+02  0.91188000000E+02 0.  0.
    9900012    2    3    3    0    0 -0.45244016781E+01  0.35521030914E+02  0.85770662024E+01  0.54367083222E+02  0.39999997821E+02 0.  0.
        -12    1    3    3    0    0  0.45244016781E+01 -0.35521030914E+02 -0.85770662024E+01  0.36820916778E+02  0.00000000000E+00 0.  1.
         11    1    4    4    0    0 -0.63839459041E+01  0.12795814785E+02 -0.10427816197E+02  0.17698220029E+02  0.51100000000E-03 0. -1.
        -11    1    4    4    0    0  0.11003318208E+02  0.15743948803E+02  0.81960022946E+01  0.20883471679E+02  0.51100000000E-03 0.  1.
        -12    1    4    4    0    0 -0.91437739819E+01  0.69812673267E+01  0.10808880105E+02  0.15785391514E+02  0.00000000000E+00 0.  1.
</event>
<event>
 8    1  0.1290800E-006  0.9118800E+02  0.7816164E-02  0.1184000E+00
        -11   -1    0    0    0    0  0.00000000000E+00  0.00000000000E+00  0.45593999997E+02  0.45594000000E+02  0.51100000000E-03 0. -1.
         11   -1    0    0    0    0 -0.00000000000E+00 -0.00000000000E+00 -0.45593999997E+02  0.45594000000E+02  0.51100000000E-03 0.  1.
         23    2    1    2    0    0  0.00000000000E+00  0.35527136788E-14  0.00000000000E+00  0.91188000000E+02  0.91188000000E+02 0.  0.
    9900012    2    3    3    0    0 -0.17760140609E+02  0.23840045018E+02  0.21725800451E+02  0.54367071900E+02  0.39999972009E+02 0.  0.
        -12    1    3    3    0    0  0.17760140609E+02 -0.23840045018E+02 -0.21725800451E+02  0.36820928100E+02  0.00000000000E+00 0.  1.
         11    1    4    4    0    0 -0.22007376958E+02  0.41051485091E+01  0.14995122891E+02  0.26944954920E+02  0.51100000000E-03 0. -1.
        -11    1    4    4    0    0  0.41888386697E+01 -0.19674580985E+01  0.26706342934E+01  0.53431777587E+01  0.51100000000E-03 0.  1.
         12    1    4    4    0    0  0.58397678789E-01  0.21702354608E+02  0.40600432667E+01  0.22078939221E+02  0.00000000000E+00 0. -1.
</event>
<event>
 8    1  0.1290800E-006  0.9118800E+02  0.7816164E-02  0.1184000E+00
        -11   -1    0    0    0    0  0.00000000000E+00  0.00000000000E+00  0.45593999997E+02  0.45594000000E+02  0.51100000000E-03 0.  1.
         11   -1    0    0    0    0 -0.00000000000E+00 -0.00000000000E+00 -0.45593999997E+02  0.45594000000E+02  0.51100000000E-03 0. -1.
         23    2    1    2    0    0  0.00000000000E+00  0.22204460493E-15  0.00000000000E+00  0.91188000000E+02  0.91188000000E+02 0.  0.
    9900012    2    3    3    0    0 -0.34800293480E+02  0.19231512556E+01 -0.11875089909E+02  0.54367126879E+02  0.40000097345E+02 0.  0.
        -12    1    3    3    0    0  0.34800293480E+02 -0.19231512556E+01  0.11875089909E+02  0.36820873121E+02  0.00000000000E+00 0.  1.
         11    1    4    4    0    0  0.16570356847E+01 -0.22106084595E+01 -0.24113562347E+01  0.36670418833E+01  0.51100000000E-03 0. -1.
        -11    1    4    4    0    0 -0.42298118293E+02  0.95027909932E+00 -0.11314177567E+02  0.43795484422E+02  0.51100000000E-03 0.  1.
        -12    1    4    4    0    0  0.58407891283E+01  0.31834806158E+01  0.18504438928E+01  0.69046005730E+01  0.00000000000E+00 0.  1.
</event>
<event>
 8    1  0.1290800E-006  0.9118800E+02  0.7816164E-02  0.1184000E+00
        -11   -1    0    0    0    0  0.00000000000E+00  0.00000000000E+00  0.45593999997E+02  0.45594000000E+02  0.51100000000E-03 0.  1.
         11   -1    0    0    0    0 -0.00000000000E+00 -0.00000000000E+00 -0.45593999997E+02  0.45594000000E+02  0.51100000000E-03 0. -1.
         23    2    1    2    0    0  0.17763568394E-14 -0.88817841970E-15  0.00000000000E+00  0.91188000000E+02  0.91188000000E+02 0.  0.
    9900012    2    3    3    0    0  0.15803702893E+02 -0.20793137627E+01  0.33191815922E+02  0.54367119850E+02  0.40000081321E+02 0.  0.
         12    1    3    3    0    0 -0.15803702893E+02  0.20793137627E+01 -0.33191815922E+02  0.36820880150E+02  0.00000000000E+00 0. -1.
         11    1    4    4    0    0  0.22621836370E+02 -0.64530218899E+01  0.24252827000E+02  0.33787402830E+02  0.51100000000E-03 0. -1.
        -11    1    4    4    0    0 -0.38394210976E-01  0.73109804660E+01  0.10723456795E+02  0.12978614541E+02  0.51100000000E-03 0.  1.
         12    1    4    4    0    0 -0.67797392658E+01 -0.29372723388E+01 -0.17844678732E+01  0.76011024789E+01  0.00000000000E+00 0. -1.
</event>
<event>
 8    1  0.1290800E-006  0.9118800E+02  0.7816164E-02  0.1184000E+00
        -11   -1    0    0    0    0  0.00000000000E+00  0.00000000000E+00  0.45593999997E+02  0.45594000000E+02  0.51100000000E-03 0.  1.
         11   -1    0    0    0    0 -0.00000000000E+00 -0.00000000000E+00 -0.45593999997E+02  0.45594000000E+02  0.51100000000E-03 0. -1.
         23    2    1    2    0    0  0.00000000000E+00 -0.44408920985E-15  0.35527136788E-14  0.91188000000E+02  0.91188000000E+02 0.  0.
    9900012    2    3    3    0    0  0.21825495415E+02  0.38719403641E+01  0.29401288549E+02  0.54367082838E+02  0.39999996946E+02 0.  0.
         12    1    3    3    0    0 -0.21825495415E+02 -0.38719403641E+01 -0.29401288549E+02  0.36820917162E+02  0.00000000000E+00 0. -1.
         11    1    4    4    0    0  0.33877631225E+01  0.38738374960E+01  0.26418293130E+01  0.57847055500E+01  0.51100000000E-03 0. -1.
        -11    1    4    4    0    0 -0.13142398038E+01  0.15111126712E+02  0.13946601241E+02  0.20605364914E+02  0.51100000000E-03 0.  1.
         12    1    4    4    0    0  0.19751972097E+02 -0.15113023844E+02  0.12812857994E+02  0.27977012375E+02  0.00000000000E+00 0. -1.
</event>
<event>
 8    1  0.1290800E-006  0.9118800E+02  0.7816164E-02  0.1184000E+00
        -11   -1    0    0    0    0  0.00000000000E+00  0.00000000000E+00  0.45593999997E+02  0.45594000000E+02  0.51100000000E-03 0.  1.
         11   -1    0    0    0    0 -0.00000000000E+00 -0.00000000000E+00 -0.45593999997E+02  0.45594000000E+02  0.51100000000E-03 0. -1.
         23    2    1    2    0    0  0.88817841970E-15  0.17763568394E-14  0.71054273576E-14  0.91188000000E+02  0.91188000000E+02 0.  0.
    9900012    2    3    3    0    0  0.21303081174E+01 -0.14155910860E+02  0.33924210297E+02  0.54367081092E+02  0.39999992965E+02 0.  0.
         12    1    3    3    0    0 -0.21303081174E+01  0.14155910860E+02 -0.33924210297E+02  0.36820918908E+02  0.00000000000E+00 0. -1.
         11    1    4    4    0    0 -0.22553641055E+01 -0.24079518020E+02  0.11100124518E+02  0.26610573460E+02  0.51100000000E-03 0. -1.
        -11    1    4    4    0    0  0.72149074357E+01  0.10391199155E+02  0.20388156518E+02  0.23993933309E+02  0.51100000000E-03 0.  1.
         12    1    4    4    0    0 -0.28292352129E+01 -0.46759199530E+00  0.24359292615E+01  0.37625743223E+01  0.00000000000E+00 0. -1.
</event>
<event>
 8    1  0.1290800E-006  0.9118800E+02  0.7816164E-02  0.1184000E+00
        -11   -1    0    0    0    0  0.00000000000E+00  0.00000000000E+00  0.45593999997E+02  0.45594000000E+02  0.51100000000E-03 0. -1.
         11   -1    0    0    0    0 -0.00000000000E+00 -0.00000000000E+00 -0.45593999997E+02  0.45594000000E+02  0.51100000000E-03 0.  1.
         23    2    1    2    0    0  0.00000000000E+00  0.17763568394E-14  0.71054273576E-14  0.91188000000E+02  0.91188000000E+02 0.  0.
    9900012    2    3    3    0    0 -0.33458451606E+01 -0.11398892796E+02 -0.34851805715E+02  0.54367111928E+02  0.40000063261E+02 0.  0.
         12    1    3    3    0    0  0.33458451606E+01  0.11398892796E+02  0.34851805715E+02  0.36820888072E+02  0.00000000000E+00 0. -1.
         11    1    4    4    0    0 -0.99866085332E+01 -0.64778210104E+01 -0.37410143035E+01  0.12477568005E+02  0.51100000000E-03 0.  1.
        -11    1    4    4    0    0  0.62679377695E+01 -0.97990361912E+01 -0.13281586184E+01  0.11707782016E+02  0.51100000000E-03 0. -1.
        -12    1    4    4    0    0  0.37282560307E+00  0.48779644058E+01 -0.29782632794E+02  0.30181761907E+02  0.00000000000E+00 0.  1.
</event>
<event>
 8    1  0.1290800E-006  0.9118800E+02  0.7816164E-02  0.1184000E+00
        -11   -1    0    0    0    0  0.00000000000E+00  0.00000000000E+00  0.45593999997E+02  0.45594000000E+02  0.51100000000E-03 0.  1.
         11   -1    0    0    0    0 -0.00000000000E+00 -0.00000000000E+00 -0.45593999997E+02  0.45594000000E+02  0.51100000000E-03 0. -1.
         23    2    1    2    0    0  0.88817841970E-15  0.00000000000E+00  0.00000000000E+00  0.91188000000E+02  0.91188000000E+02 0.  0.
    9900012    2    3    3    0    0 -0.76968194643E+01  0.32245709117E+02 -0.16023414623E+02  0.54367128168E+02  0.40000100284E+02 0.  0.
        -12    1    3    3    0    0  0.76968194643E+01 -0.32245709117E+02  0.16023414623E+02  0.36820871832E+02  0.00000000000E+00 0.  1.
         11    1    4    4    0    0  0.70699711200E+01  0.10664137716E+02 -0.73553157724E+01  0.14758353405E+02  0.51100000000E-03 0.  1.
        -11    1    4    4    0    0  0.34017629238E+00  0.14469476346E+02 -0.15822051161E+02  0.21443385201E+02  0.51100000000E-03 0. -1.
        -12    1    4    4    0    0 -0.15106966877E+02  0.71120950549E+01  0.71539523108E+01  0.18165389562E+02  0.00000000000E+00 0.  1.
</event>
<event>
 8    1  0.1290800E-006  0.9118800E+02  0.7816164E-02  0.1184000E+00
        -11   -1    0    0    0    0  0.00000000000E+00  0.00000000000E+00  0.45593999997E+02  0.45594000000E+02  0.51100000000E-03 0. -1.
         11   -1    0    0    0    0 -0.00000000000E+00 -0.00000000000E+00 -0.45593999997E+02  0.45594000000E+02  0.51100000000E-03 0.  1.
         23    2    1    2    0    0  0.00000000000E+00  0.00000000000E+00  0.00000000000E+00  0.91188000000E+02  0.91188000000E+02 0.  0.
    9900012    2    3    3    0    0 -0.91319656471E+01 -0.96468137835E+01 -0.34341317150E+02  0.54367083711E+02  0.39999998935E+02 0.  0.
         12    1    3    3    0    0  0.91319656471E+01  0.96468137835E+01  0.34341317150E+02  0.36820916289E+02  0.00000000000E+00 0. -1.
         11    1    4    4    0    0 -0.72530304759E+01 -0.13417588495E+02 -0.84553784807E+00  0.15275898226E+02  0.51100000000E-03 0. -1.
        -11    1    4    4    0    0 -0.10541847006E+01  0.11158634665E+02 -0.12354918065E+02  0.16681439794E+02  0.51100000000E-03 0.  1.
        -12    1    4    4    0    0 -0.82475047059E+00 -0.73878599530E+01 -0.21140861238E+02  0.22409745690E+02  0.00000000000E+00 0.  1.
</event>
<event>
 8    1  0.1290800E-006  0.9118800E+02  0.7816164E-02  0.1184000E+00
        -11   -1    0    0    0    0  0.00000000000E+00  0.00000000000E+00  0.45593999997E+02  0.45594000000E+02  0.51100000000E-03 0.  1.
         11   -1    0    0    0    0 -0.00000000000E+00 -0.00000000000E+00 -0.45593999997E+02  0.45594000000E+02  0.51100000000E-03 0. -1.
         23    2    1    2    0    0  0.00000000000E+00  0.00000000000E+00  0.44408920985E-15  0.91188000000E+02  0.91188000000E+02 0.  0.
    9900012    2    3    3    0    0  0.17213198320E+02 -0.32451494437E+02 -0.25271149418E+01  0.54367082066E+02  0.39999995186E+02 0.  0.
        -12    1    3    3    0    0 -0.17213198320E+02  0.32451494437E+02  0.25271149418E+01  0.36820917934E+02  0.00000000000E+00 0.  1.
         11    1    4    4    0    0  0.13234469692E+02 -0.11265085473E+02  0.12521669736E+02  0.21420680474E+02  0.51100000000E-03 0. -1.
        -11    1    4    4    0    0  0.11513718618E+02 -0.84357678442E+01 -0.53517917817E+01  0.15243673149E+02  0.51100000000E-03 0.  1.
         12    1    4    4    0    0 -0.75349899897E+01 -0.12750641119E+02 -0.96969928964E+01  0.17702728443E+02  0.00000000000E+00 0. -1.
</event>
<event>
 8    1  0.1290800E-006  0.9118800E+02  0.7816164E-02  0.1184000E+00
        -11   -1    0    0    0    0  0.00000000000E+00  0.00000000000E+00  0.45593999997E+02  0.45594000000E+02  0.51100000000E-03 0.  1.
         11   -1    0    0    0    0 -0.00000000000E+00 -0.00000000000E+00 -0.45593999997E+02  0.45594000000E+02  0.51100000000E-03 0. -1.
         23    2    1    2    0    0  0.00000000000E+00  0.00000000000E+00  0.00000000000E+00  0.91188000000E+02  0.91188000000E+02 0.  0.
    9900012    2    3    3    0    0  0.17129461484E+02 -0.28655891913E+02 -0.15530640360E+02  0.54367090423E+02  0.40000014238E+02 0.  0.
        -12    1    3    3    0    0 -0.17129461484E+02  0.28655891913E+02  0.15530640360E+02  0.36820909577E+02  0.00000000000E+00 0.  1.
         11    1    4    4    0    0 -0.10915297965E+01  0.83957661150E+00 -0.49271099417E+01  0.51159299079E+01  0.51100000000E-03 0. -1.
        -11    1    4    4    0    0  0.53989886746E+01 -0.98013072297E+01  0.12165872727E+02  0.16529463439E+02  0.51100000000E-03 0.  1.
        -12    1    4    4    0    0  0.12822002606E+02 -0.19694161295E+02 -0.22769403145E+02  0.32721697076E+02  0.00000000000E+00 0.  1.
</event>
<event>
 8    1  0.1290800E-006  0.9118800E+02  0.7816164E-02  0.1184000E+00
        -11   -1    0    0    0    0  0.00000000000E+00  0.00000000000E+00  0.45593999997E+02  0.45594000000E+02  0.51100000000E-03 0. -1.
         11   -1    0    0    0    0 -0.00000000000E+00 -0.00000000000E+00 -0.45593999997E+02  0.45594000000E+02  0.51100000000E-03 0.  1.
         23    2    1    2    0    0  0.17763568394E-14  0.00000000000E+00  0.35527136788E-14  0.91188000000E+02  0.91188000000E+02 0.  0.
    9900012    2    3    3    0    0 -0.15346784912E+02  0.17638745906E+02 -0.28445221973E+02  0.54367084512E+02  0.40000000762E+02 0.  0.
         12    1    3    3    0    0  0.15346784912E+02 -0.17638745906E+02  0.28445221973E+02  0.36820915488E+02  0.00000000000E+00 0. -1.
         11    1    4    4    0    0 -0.28214101385E+01  0.49333449245E+01  0.28000387572E+01  0.63354924526E+01  0.51100000000E-03 0. -1.
        -11    1    4    4    0    0 -0.10406231433E+02  0.21491204537E+02 -0.30814913480E+02  0.38983591652E+02  0.51100000000E-03 0.  1.
         12    1    4    4    0    0 -0.21191433407E+01 -0.87858035554E+01 -0.43034725086E+00  0.90480004072E+01  0.00000000000E+00 0. -1.
</event>
<event>
 8    1  0.1290800E-006  0.9118800E+02  0.7816164E-02  0.1184000E+00
        -11   -1    0    0    0    0  0.00000000000E+00  0.00000000000E+00  0.45593999997E+02  0.45594000000E+02  0.51100000000E-03 0.  1.
         11   -1    0    0    0    0 -0.00000000000E+00 -0.00000000000E+00 -0.45593999997E+02  0.45594000000E+02  0.51100000000E-03 0. -1.
         23    2    1    2    0    0  0.00000000000E+00  0.71054273576E-14  0.00000000000E+00  0.91188000000E+02  0.91188000000E+02 0.  0.
    9900012    2    3    3    0    0  0.95971304186E+01 -0.33014942606E+02  0.13179142263E+02  0.54367066575E+02  0.39999959870E+02 0.  0.
        -12    1    3    3    0    0 -0.95971304186E+01  0.33014942606E+02 -0.13179142263E+02  0.36820933425E+02  0.00000000000E+00 0.  1.
         11    1    4    4    0    0  0.76059336959E+01 -0.13558521912E+02 -0.11334583208E+02  0.19239452190E+02  0.51100000000E-03 0. -1.
        -11    1    4    4    0    0  0.71301300763E+01 -0.16797725350E+02  0.13543498851E+02  0.22725067508E+02  0.51100000000E-03 0.  1.
         12    1    4    4    0    0 -0.51389333536E+01 -0.26586953446E+01  0.10970226619E+02  0.12402546877E+02  0.00000000000E+00 0. -1.
</event>
<event>
 8    1  0.1290800E-006  0.9118800E+02  0.7816164E-02  0.1184000E+00
        -11   -1    0    0    0    0  0.00000000000E+00  0.00000000000E+00  0.45593999997E+02  0.45594000000E+02  0.51100000000E-03 0.  1.
         11   -1    0    0    0    0 -0.00000000000E+00 -0.00000000000E+00 -0.45593999997E+02  0.45594000000E+02  0.51100000000E-03 0. -1.
         23    2    1    2    0    0 -0.35527136788E-14  0.88817841970E-15 -0.35527136788E-14  0.91188000000E+02  0.91188000000E+02 0.  0.
    9900012    2    3    3    0    0 -0.21868576567E+02 -0.60086013063E+01 -0.29007618108E+02  0.54367084218E+02  0.40000000091E+02 0.  0.
        -12    1    3    3    0    0  0.21868576567E+02  0.60086013063E+01  0.29007618108E+02  0.36820915782E+02  0.00000000000E+00 0.  1.
         11    1    4    4    0    0 -0.18527750458E+02 -0.36122876926E+01  0.86978625260E+00  0.18896631652E+02  0.51100000000E-03 0. -1.
        -11    1    4    4    0    0  0.33793160915E+01 -0.80952428005E+01 -0.79491968464E+01  0.11838178239E+02  0.51100000000E-03 0.  1.
         12    1    4    4    0    0 -0.67201422006E+01  0.56989291869E+01 -0.21928207514E+02  0.23632274327E+02  0.00000000000E+00 0. -1.
</event>
<event>
 8    1  0.1290800E-006  0.9118800E+02  0.7816164E-02  0.1184000E+00
        -11   -1    0    0    0    0  0.00000000000E+00  0.00000000000E+00  0.45593999997E+02  0.45594000000E+02  0.51100000000E-03 0. -1.
         11   -1    0    0    0    0 -0.00000000000E+00 -0.00000000000E+00 -0.45593999997E+02  0.45594000000E+02  0.51100000000E-03 0.  1.
         23    2    1    2    0    0 -0.44408920985E-15  0.71054273576E-14  0.00000000000E+00  0.91188000000E+02  0.91188000000E+02 0.  0.
    9900012    2    3    3    0    0 -0.35393099133E+01  0.27183721371E+02  0.24582488976E+02  0.54367079500E+02  0.39999989335E+02 0.  0.
         12    1    3    3    0    0  0.35393099133E+01 -0.27183721371E+02 -0.24582488976E+02  0.36820920500E+02  0.00000000000E+00 0. -1.
         11    1    4    4    0    0  0.13634222941E+00 -0.47892583242E+01  0.17455470259E+01  0.50992665335E+01  0.51100000000E-03 0. -1.
        -11    1    4    4    0    0 -0.67458717860E+01  0.35286399297E+02  0.12587008082E+02  0.38066645955E+02  0.51100000000E-03 0.  1.
        -12    1    4    4    0    0  0.30702196433E+01 -0.33134196022E+01  0.10249933868E+02  0.11201167011E+02  0.00000000000E+00 0.  1.
</event>
<event>
 8    1  0.1290800E-006  0.9118800E+02  0.7816164E-02  0.1184000E+00
        -11   -1    0    0    0    0  0.00000000000E+00  0.00000000000E+00  0.45593999997E+02  0.45594000000E+02  0.51100000000E-03 0. -1.
         11   -1    0    0    0    0 -0.00000000000E+00 -0.00000000000E+00 -0.45593999997E+02  0.45594000000E+02  0.51100000000E-03 0.  1.
         23    2    1    2    0    0  0.00000000000E+00  0.00000000000E+00  0.00000000000E+00  0.91188000000E+02  0.91188000000E+02 0.  0.
    9900012    2    3    3    0    0  0.21588212446E+02  0.18198731049E+02  0.23633343823E+02  0.54367086532E+02  0.40000005367E+02 0.  0.
        -12    1    3    3    0    0 -0.21588212446E+02 -0.18198731049E+02 -0.23633343823E+02  0.36820913468E+02  0.00000000000E+00 0.  1.
         11    1    4    4    0    0  0.22145853360E+02 -0.34581790441E+01  0.18333550361E+02  0.28957156152E+02  0.51100000000E-03 0. -1.
        -11    1    4    4    0    0 -0.38872493480E+01  0.12488310744E+01  0.16920511340E+01  0.44196520052E+01  0.51100000000E-03 0.  1.
         12    1    4    4    0    0  0.33296084335E+01  0.20408079018E+02  0.36077423281E+01  0.20990278375E+02  0.00000000000E+00 0. -1.
</event>
<event>
 8    1  0.1290800E-006  0.9118800E+02  0.7816164E-02  0.1184000E+00
        -11   -1    0    0    0    0  0.00000000000E+00  0.00000000000E+00  0.45593999997E+02  0.45594000000E+02  0.51100000000E-03 0. -1.
         11   -1    0    0    0    0 -0.00000000000E+00 -0.00000000000E+00 -0.45593999997E+02  0.45594000000E+02  0.51100000000E-03 0.  1.
         23    2    1    2    0    0  0.00000000000E+00  0.00000000000E+00  0.17763568394E-14  0.91188000000E+02  0.91188000000E+02 0.  0.
    9900012    2    3    3    0    0 -0.33513428033E+02 -0.50357277708E+01 -0.14396900369E+02  0.54367093535E+02  0.40000021331E+02 0.  0.
         12    1    3    3    0    0  0.33513428033E+02  0.50357277708E+01  0.14396900369E+02  0.36820906465E+02  0.00000000000E+00 0. -1.
         11    1    4    4    0    0 -0.56080387161E+01 -0.12889648358E+02  0.26956272996E+01  0.14312915141E+02  0.51100000000E-03 0. -1.
        -11    1    4    4    0    0 -0.19634022892E+02  0.12946277834E+02 -0.18903471267E+02  0.30173534610E+02  0.51100000000E-03 0.  1.
        -12    1    4    4    0    0 -0.82713664246E+01 -0.50923572462E+01  0.18109435980E+01  0.98806437831E+01  0.00000000000E+00 0.  1.
</event>
<event>
 8    1  0.1290800E-006  0.9118800E+02  0.7816164E-02  0.1184000E+00
        -11   -1    0    0    0    0  0.00000000000E+00  0.00000000000E+00  0.45593999997E+02  0.45594000000E+02  0.51100000000E-03 0.  1.
         11   -1    0    0    0    0 -0.00000000000E+00 -0.00000000000E+00 -0.45593999997E+02  0.45594000000E+02  0.51100000000E-03 0. -1.
         23    2    1    2    0    0 -0.88817841970E-15  0.00000000000E+00  0.35527136788E-14  0.91188000000E+02  0.91188000000E+02 0.  0.
    9900012    2    3    3    0    0 -0.65657335537E+01  0.28630418133E+02 -0.22202926796E+02  0.54367086678E+02  0.40000005700E+02 0.  0.
        -12    1    3    3    0    0  0.65657335537E+01 -0.28630418133E+02  0.22202926796E+02  0.36820913322E+02  0.00000000000E+00 0.  1.
         11    1    4    4    0    0  0.63293197606E+01  0.20390714782E+02 -0.24618261303E+02  0.32586812176E+02  0.51100000000E-03 0. -1.
        -11    1    4    4    0    0 -0.84027547914E+01  0.12744186314E+02  0.21223083742E+01  0.15411838501E+02  0.51100000000E-03 0.  1.
         12    1    4    4    0    0 -0.44922985228E+01 -0.45044829634E+01  0.29302613197E+00  0.63684360011E+01  0.00000000000E+00 0. -1.
</event>
<event>
 8    1  0.1290800E-006  0.9118800E+02  0.7816164E-02  0.1184000E+00
        -11   -1    0    0    0    0  0.00000000000E+00  0.00000000000E+00  0.45593999997E+02  0.45594000000E+02  0.51100000000E-03 0. -1.
         11   -1    0    0    0    0 -0.00000000000E+00 -0.00000000000E+00 -0.45593999997E+02  0.45594000000E+02  0.51100000000E-03 0.  1.
         23    2    1    2    0    0  0.00000000000E+00  0.35527136788E-14  0.00000000000E+00  0.91188000000E+02  0.91188000000E+02 0.  0.
    9900012    2    3    3    0    0 -0.25772094745E+02 -0.24516487079E+02  0.95143409843E+01  0.54367059075E+02  0.39999942773E+02 0.  0.
        -12    1    3    3    0    0  0.25772094745E+02  0.24516487079E+02 -0.95143409843E+01  0.36820940925E+02  0.00000000000E+00 0.  1.
         11    1    4    4    0    0 -0.60451125770E+01 -0.97318038650E+01  0.52773190052E+01  0.12613543859E+02  0.51100000000E-03 0. -1.
        -11    1    4    4    0    0 -0.26837276824E+02 -0.18297640091E+02  0.72307374395E+01  0.33276517612E+02  0.51100000000E-03 0.  1.
        -12    1    4    4    0    0  0.71102946562E+01  0.35129568768E+01 -0.29937154604E+01  0.84769976037E+01  0.00000000000E+00 0.  1.
</event>
<event>
 8    1  0.1290800E-006  0.9118800E+02  0.7816164E-02  0.1184000E+00
        -11   -1    0    0    0    0  0.00000000000E+00  0.00000000000E+00  0.45593999997E+02  0.45594000000E+02  0.51100000000E-03 0. -1.
         11   -1    0    0    0    0 -0.00000000000E+00 -0.00000000000E+00 -0.45593999997E+02  0.45594000000E+02  0.51100000000E-03 0.  1.
         23    2    1    2    0    0  0.00000000000E+00  0.88817841970E-15  0.17763568394E-14  0.91188000000E+02  0.91188000000E+02 0.  0.
    9900012    2    3    3    0    0 -0.33327126980E+02 -0.53165307144E+01 -0.14724705375E+02  0.54367084206E+02  0.40000000064E+02 0.  0.
         12    1    3    3    0    0  0.33327126980E+02  0.53165307144E+01  0.14724705375E+02  0.36820915794E+02  0.00000000000E+00 0. -1.
         11    1    4    4    0    0  0.27842668044E+01 -0.10910560933E+01 -0.46518862111E+01  0.55301528568E+01  0.51100000000E-03 0. -1.
        -11    1    4    4    0    0  0.39616941571E+01 -0.64883156326E+01 -0.81157443064E+00  0.76453851217E+01  0.51100000000E-03 0.  1.
        -12    1    4    4    0    0 -0.40073087941E+02  0.22628410115E+01 -0.92612447331E+01  0.41191546227E+02  0.00000000000E+00 0.  1.
</event>
<event>
 8    1  0.1290800E-006  0.9118800E+02  0.7816164E-02  0.1184000E+00
        -11   -1    0    0    0    0  0.00000000000E+00  0.00000000000E+00  0.45593999997E+02  0.45594000000E+02  0.51100000000E-03 0.  1.
         11   -1    0    0    0    0 -0.00000000000E+00 -0.00000000000E+00 -0.45593999997E+02  0.45594000000E+02  0.51100000000E-03 0. -1.
         23    2    1    2    0    0  0.35527136788E-14 -0.33306690739E-15  0.35527136788E-14  0.91188000000E+02  0.91188000000E+02 0.  0.
    9900012    2    3    3    0    0  0.25820162682E+02  0.73937828348E+00  0.26240301038E+02  0.54367070086E+02  0.39999967875E+02 0.  0.
         12    1    3    3    0    0 -0.25820162682E+02 -0.73937828348E+00 -0.26240301038E+02  0.36820929914E+02  0.00000000000E+00 0. -1.
         11    1    4    4    0    0 -0.19682164358E+01  0.10240313744E+02  0.79065551214E+00  0.10457678419E+02  0.51100000000E-03 0. -1.
        -11    1    4    4    0    0  0.12695902631E+02 -0.14197539064E+02  0.88959401385E+01  0.21021270426E+02  0.51100000000E-03 0.  1.
         12    1    4    4    0    0  0.15092476487E+02  0.46966036039E+01  0.16553705387E+02  0.22888121241E+02  0.00000000000E+00 0. -1.
</event>
<event>
 8    1  0.1290800E-006  0.9118800E+02  0.7816164E-02  0.1184000E+00
        -11   -1    0    0    0    0  0.00000000000E+00  0.00000000000E+00  0.45593999997E+02  0.45594000000E+02  0.51100000000E-03 0. -1.
         11   -1    0    0    0    0 -0.00000000000E+00 -0.00000000000E+00 -0.45593999997E+02  0.45594000000E+02  0.51100000000E-03 0.  1.
         23    2    1    2    0    0  0.00000000000E+00  0.00000000000E+00  0.00000000000E+00  0.91188000000E+02  0.91188000000E+02 0.  0.
    9900012    2    3    3    0    0 -0.53564832440E+01 -0.21729148935E+02 -0.29239211002E+02  0.54367091725E+02  0.40000017205E+02 0.  0.
         12    1    3    3    0    0  0.53564832440E+01  0.21729148935E+02  0.29239211002E+02  0.36820908275E+02  0.00000000000E+00 0. -1.
         11    1    4    4    0    0 -0.30855516962E+01  0.55788127984E+01  0.50436535333E+01  0.81290972890E+01  0.51100000000E-03 0. -1.
        -11    1    4    4    0    0 -0.56488222789E+01 -0.14123965203E+02 -0.26511695915E+02  0.30565758730E+02  0.51100000000E-03 0.  1.
        -12    1    4    4    0    0  0.33778907311E+01 -0.13183996530E+02 -0.77711686207E+01  0.15672235706E+02  0.00000000000E+00 0.  1.
</event>
<event>
 8    1  0.1290800E-006  0.9118800E+02  0.7816164E-02  0.1184000E+00
        -11   -1    0    0    0    0  0.00000000000E+00  0.00000000000E+00  0.45593999997E+02  0.45594000000E+02  0.51100000000E-03 0.  1.
         11   -1    0    0    0    0 -0.00000000000E+00 -0.00000000000E+00 -0.45593999997E+02  0.45594000000E+02  0.51100000000E-03 0. -1.
         23    2    1    2    0    0 -0.35527136788E-14  0.35527136788E-14 -0.17763568394E-14  0.91188000000E+02  0.91188000000E+02 0.  0.
    9900012    2    3    3    0    0 -0.24963719403E+02 -0.24804587520E+02  0.10831611646E+02  0.54367100237E+02  0.40000036611E+02 0.  0.
        -12    1    3    3    0    0  0.24963719403E+02  0.24804587520E+02 -0.10831611646E+02  0.36820899763E+02  0.00000000000E+00 0.  1.
         11    1    4    4    0    0  0.56269215519E+01 -0.29036382699E+01 -0.16794430070E+01  0.65508694407E+01  0.51100000000E-03 0. -1.
        -11    1    4    4    0    0 -0.27638614138E+02 -0.54385771275E+01  0.23957935343E+01  0.28270319057E+02  0.51100000000E-03 0.  1.
        -12    1    4    4    0    0 -0.29520268169E+01 -0.16462372123E+02  0.10115261119E+02  0.19545911740E+02  0.00000000000E+00 0.  1.
</event>
<event>
 8    1  0.1290800E-006  0.9118800E+02  0.7816164E-02  0.1184000E+00
        -11   -1    0    0    0    0  0.00000000000E+00  0.00000000000E+00  0.45593999997E+02  0.45594000000E+02  0.51100000000E-03 0.  1.
         11   -1    0    0    0    0 -0.00000000000E+00 -0.00000000000E+00 -0.45593999997E+02  0.45594000000E+02  0.51100000000E-03 0. -1.
         23    2    1    2    0    0  0.00000000000E+00 -0.71054273576E-14  0.88817841970E-15  0.91188000000E+02  0.91188000000E+02 0.  0.
    9900012    2    3    3    0    0 -0.19155725802E+02  0.31129490202E+02 -0.44490163487E+01  0.54367072014E+02  0.39999972271E+02 0.  0.
        -12    1    3    3    0    0  0.19155725802E+02 -0.31129490202E+02  0.44490163487E+01  0.36820927986E+02  0.00000000000E+00 0.  1.
         11    1    4    4    0    0 -0.25895384702E+02  0.33003671901E+02 -0.59554650726E+01  0.42370754918E+02  0.51100000000E-03 0. -1.
        -11    1    4    4    0    0 -0.23588481722E+01  0.66158071547E+00  0.46768036592E+00  0.24941088445E+01  0.51100000000E-03 0.  1.
        -12    1    4    4    0    0  0.90985070716E+01 -0.25357624147E+01  0.10387683580E+01  0.95022082516E+01  0.00000000000E+00 0.  1.
</event>
<event>
 8    1  0.1290800E-006  0.9118800E+02  0.7816164E-02  0.1184000E+00
        -11   -1    0    0    0    0  0.00000000000E+00  0.00000000000E+00  0.45593999997E+02  0.45594000000E+02  0.51100000000E-03 0. -1.
         11   -1    0    0    0    0 -0.00000000000E+00 -0.00000000000E+00 -0.45593999997E+02  0.45594000000E+02  0.51100000000E-03 0.  1.
         23    2    1    2    0    0  0.00000000000E+00  0.17763568394E-14 -0.35527136788E-14  0.91188000000E+02  0.91188000000E+02 0.  0.
    9900012    2    3    3    0    0 -0.18028870007E+02  0.15848843819E+02 -0.27920496979E+02  0.54367079918E+02  0.39999990290E+02 0.  0.
         12    1    3    3    0    0  0.18028870007E+02 -0.15848843819E+02  0.27920496979E+02  0.36820920082E+02  0.00000000000E+00 0. -1.
         11    1    4    4    0    0 -0.11468618044E+02  0.24336713586E+01 -0.28064129733E+02  0.30414590808E+02  0.51100000000E-03 0. -1.
        -11    1    4    4    0    0 -0.65143083058E+01  0.24545979214E+01 -0.77708887273E+01  0.10433023317E+02  0.51100000000E-03 0.  1.
         12    1    4    4    0    0 -0.45943658044E-01  0.10960574539E+02  0.79145214816E+01  0.13519465793E+02  0.00000000000E+00 0. -1.
</event>
<event>
 8    1  0.1290800E-006  0.9118800E+02  0.7816164E-02  0.1184000E+00
        -11   -1    0    0    0    0  0.00000000000E+00  0.00000000000E+00  0.45593999997E+02  0.45594000000E+02  0.51100000000E-03 0.  1.
         11   -1    0    0    0    0 -0.00000000000E+00 -0.00000000000E+00 -0.45593999997E+02  0.45594000000E+02  0.51100000000E-03 0. -1.
         23    2    1    2    0    0  0.00000000000E+00  0.88817841970E-15 -0.71054273576E-14  0.91188000000E+02  0.91188000000E+02 0.  0.
    9900012    2    3    3    0    0 -0.21685148286E+02  0.49801149279E+01  0.29338240362E+02  0.54367088164E+02  0.40000009088E+02 0.  0.
         12    1    3    3    0    0  0.21685148286E+02 -0.49801149279E+01 -0.29338240362E+02  0.36820911836E+02  0.00000000000E+00 0. -1.
         11    1    4    4    0    0  0.93248037505E+00  0.82437280540E+01  0.72168151229E+00  0.83276284946E+01  0.51100000000E-03 0. -1.
        -11    1    4    4    0    0 -0.13830807610E+02  0.11963100048E+02  0.16999250820E+02  0.24967609629E+02  0.51100000000E-03 0.  1.
         12    1    4    4    0    0 -0.87868210519E+01 -0.15226713174E+02  0.11617308029E+02  0.21071850041E+02  0.00000000000E+00 0. -1.
</event>
<event>
 8    1  0.1290800E-006  0.9118800E+02  0.7816164E-02  0.1184000E+00
        -11   -1    0    0    0    0  0.00000000000E+00  0.00000000000E+00  0.45593999997E+02  0.45594000000E+02  0.51100000000E-03 0.  1.
         11   -1    0    0    0    0 -0.00000000000E+00 -0.00000000000E+00 -0.45593999997E+02  0.45594000000E+02  0.51100000000E-03 0. -1.
         23    2    1    2    0    0 -0.17763568394E-14  0.35527136788E-14 -0.35527136788E-14  0.91188000000E+02  0.91188000000E+02 0.  0.
    9900012    2    3    3    0    0  0.12396149962E+02 -0.17407607648E+02 -0.29984883590E+02  0.54367046973E+02  0.39999915184E+02 0.  0.
        -12    1    3    3    0    0 -0.12396149962E+02  0.17407607648E+02  0.29984883590E+02  0.36820953027E+02  0.00000000000E+00 0.  1.
         11    1    4    4    0    0  0.13613164670E+02 -0.22098735317E+02 -0.13939912202E+02  0.29461729539E+02  0.51100000000E-03 0. -1.
        -11    1    4    4    0    0  0.65603789602E+00  0.11542391271E+01  0.41295089791E+01  0.43376835238E+01  0.51100000000E-03 0.  1.
        -12    1    4    4    0    0 -0.18730526034E+01  0.35368885416E+01 -0.20174480367E+02  0.20567633911E+02  0.00000000000E+00 0.  1.
</event>
<event>
 8    1  0.1290800E-006  0.9118800E+02  0.7816164E-02  0.1184000E+00
        -11   -1    0    0    0    0  0.00000000000E+00  0.00000000000E+00  0.45593999997E+02  0.45594000000E+02  0.51100000000E-03 0. -1.
         11   -1    0    0    0    0 -0.00000000000E+00 -0.00000000000E+00 -0.45593999997E+02  0.45594000000E+02  0.51100000000E-03 0.  1.
         23    2    1    2    0    0  0.71054273576E-14 -0.88817841970E-15  0.35527136788E-14  0.91188000000E+02  0.91188000000E+02 0.  0.
    9900012    2    3    3    0    0  0.22495490613E+02 -0.44025550426E+01  0.28815799785E+02  0.54367083307E+02  0.39999998015E+02 0.  0.
        -12    1    3    3    0    0 -0.22495490613E+02  0.44025550426E+01 -0.28815799785E+02  0.36820916693E+02  0.00000000000E+00 0.  1.
         11    1    4    4    0    0  0.90303208885E+00  0.27646206199E+01 -0.24322713155E+01  0.37913768131E+01  0.51100000000E-03 0. -1.
        -11    1    4    4    0    0 -0.23528113962E+01  0.84652068048E+01  0.15787346105E+02  0.18067532898E+02  0.51100000000E-03 0.  1.
         12    1    4    4    0    0  0.23945269920E+02 -0.15632382467E+02  0.15460724996E+02  0.32508173596E+02  0.00000000000E+00 0. -1.
</event>
<event>
 8    1  0.1290800E-006  0.9118800E+02  0.7816164E-02  0.1184000E+00
        -11   -1    0    0    0    0  0.00000000000E+00  0.00000000000E+00  0.45593999997E+02  0.45594000000E+02  0.51100000000E-03 0.  1.
         11   -1    0    0    0    0 -0.00000000000E+00 -0.00000000000E+00 -0.45593999997E+02  0.45594000000E+02  0.51100000000E-03 0. -1.
         23    2    1    2    0    0  0.11657341759E-14  0.00000000000E+00  0.71054273576E-14  0.91188000000E+02  0.91188000000E+02 0.  0.
    9900012    2    3    3    0    0 -0.29143279907E+00 -0.61854911294E+01  0.36296466365E+02  0.54367099628E+02  0.40000035223E+02 0.  0.
         12    1    3    3    0    0  0.29143279907E+00  0.61854911294E+01 -0.36296466365E+02  0.36820900372E+02  0.00000000000E+00 0. -1.
         11    1    4    4    0    0  0.53521273546E+01 -0.12407623364E+01  0.98248826298E+01  0.11256690337E+02  0.51100000000E-03 0. -1.
        -11    1    4    4    0    0 -0.85443893118E+01 -0.10267426982E+02  0.32143696484E+02  0.34808675204E+02  0.51100000000E-03 0.  1.
         12    1    4    4    0    0  0.29008291581E+01  0.53226981895E+01 -0.56721127485E+01  0.83017340871E+01  0.00000000000E+00 0. -1.
</event>
<event>
 8    1  0.1290800E-006  0.9118800E+02  0.7816164E-02  0.1184000E+00
        -11   -1    0    0    0    0  0.00000000000E+00  0.00000000000E+00  0.45593999997E+02  0.45594000000E+02  0.51100000000E-03 0.  1.
         11   -1    0    0    0    0 -0.00000000000E+00 -0.00000000000E+00 -0.45593999997E+02  0.45594000000E+02  0.51100000000E-03 0. -1.
         23    2    1    2    0    0  0.00000000000E+00 -0.88817841970E-15 -0.35527136788E-14  0.91188000000E+02  0.91188000000E+02 0.  0.
    9900012    2    3    3    0    0 -0.17134843147E+02  0.67670360227E+01  0.31880785478E+02  0.54367080553E+02  0.39999991738E+02 0.  0.
         12    1    3    3    0    0  0.17134843147E+02 -0.67670360227E+01 -0.31880785478E+02  0.36820919447E+02  0.00000000000E+00 0. -1.
         11    1    4    4    0    0  0.36287055512E+01 -0.57557279060E+00 -0.79831716586E+00  0.37598003368E+01  0.51100000000E-03 0. -1.
        -11    1    4    4    0    0 -0.10671574274E+02  0.16015482052E+02  0.49821457108E+01  0.19879636289E+02  0.51100000000E-03 0.  1.
        -12    1    4    4    0    0 -0.10091974424E+02 -0.86728732385E+01  0.27696956933E+02  0.30727643927E+02  0.00000000000E+00 0.  1.
</event>
<event>
 8    1  0.1290800E-006  0.9118800E+02  0.7816164E-02  0.1184000E+00
        -11   -1    0    0    0    0  0.00000000000E+00  0.00000000000E+00  0.45593999997E+02  0.45594000000E+02  0.51100000000E-03 0.  1.
         11   -1    0    0    0    0 -0.00000000000E+00 -0.00000000000E+00 -0.45593999997E+02  0.45594000000E+02  0.51100000000E-03 0. -1.
         23    2    1    2    0    0  0.00000000000E+00  0.00000000000E+00  0.88817841970E-15  0.91188000000E+02  0.91188000000E+02 0.  0.
    9900012    2    3    3    0    0  0.15562704169E+02 -0.32996942067E+02 -0.49784237987E+01  0.54367073201E+02  0.39999974975E+02 0.  0.
         12    1    3    3    0    0 -0.15562704169E+02  0.32996942067E+02  0.49784237987E+01  0.36820926799E+02  0.00000000000E+00 0. -1.
         11    1    4    4    0    0  0.93207372738E+01 -0.27747030517E+02  0.47931679726E+01  0.29660551332E+02  0.51100000000E-03 0. -1.
        -11    1    4    4    0    0  0.94853596427E+01 -0.72599232012E-01  0.34884547399E+01  0.10106761842E+02  0.51100000000E-03 0.  1.
         12    1    4    4    0    0 -0.32433927474E+01 -0.51773123182E+01 -0.13260046511E+02  0.14599760027E+02  0.00000000000E+00 0. -1.
</event>
<event>
 8    1  0.1290800E-006  0.9118800E+02  0.7816164E-02  0.1184000E+00
        -11   -1    0    0    0    0  0.00000000000E+00  0.00000000000E+00  0.45593999997E+02  0.45594000000E+02  0.51100000000E-03 0.  1.
         11   -1    0    0    0    0 -0.00000000000E+00 -0.00000000000E+00 -0.45593999997E+02  0.45594000000E+02  0.51100000000E-03 0. -1.
         23    2    1    2    0    0 -0.27755575616E-16 -0.35527136788E-14  0.35527136788E-14  0.91188000000E+02  0.91188000000E+02 0.  0.
    9900012    2    3    3    0    0  0.23473136914E+00  0.25067373006E+02  0.26969434817E+02  0.54367099650E+02  0.40000035272E+02 0.  0.
         12    1    3    3    0    0 -0.23473136914E+00 -0.25067373006E+02 -0.26969434817E+02  0.36820900350E+02  0.00000000000E+00 0. -1.
         11    1    4    4    0    0 -0.68459520807E+01 -0.30547259233E+01  0.17962500976E+02  0.19464065658E+02  0.51100000000E-03 0. -1.
        -11    1    4    4    0    0  0.12796887747E+01 -0.14055221319E+00 -0.32953122294E+01  0.35378582836E+01  0.51100000000E-03 0.  1.
        -12    1    4    4    0    0  0.58009946751E+01  0.28262651143E+02  0.12302246070E+02  0.31365175708E+02  0.00000000000E+00 0.  1.
</event>
<event>
 8    1  0.1290800E-006  0.9118800E+02  0.7816164E-02  0.1184000E+00
        -11   -1    0    0    0    0  0.00000000000E+00  0.00000000000E+00  0.45593999997E+02  0.45594000000E+02  0.51100000000E-03 0. -1.
         11   -1    0    0    0    0 -0.00000000000E+00 -0.00000000000E+00 -0.45593999997E+02  0.45594000000E+02  0.51100000000E-03 0.  1.
         23    2    1    2    0    0  0.00000000000E+00  0.00000000000E+00  0.17763568394E-14  0.91188000000E+02  0.91188000000E+02 0.  0.
    9900012    2    3    3    0    0 -0.20627006776E+02  0.25974504778E+02  0.15988476356E+02  0.54367086334E+02  0.40000004915E+02 0.  0.
        -12    1    3    3    0    0  0.20627006776E+02 -0.25974504778E+02 -0.15988476356E+02  0.36820913666E+02  0.00000000000E+00 0.  1.
         11    1    4    4    0    0 -0.76506185012E+01  0.17211424492E+02  0.72227865212E+01  0.20172598789E+02  0.51100000000E-03 0. -1.
        -11    1    4    4    0    0 -0.94206340256E+01  0.18712005452E+02  0.10587979274E+02  0.23473235798E+02  0.51100000000E-03 0.  1.
        -12    1    4    4    0    0 -0.35557542494E+01 -0.99489251653E+01 -0.18222894391E+01  0.10721251747E+02  0.00000000000E+00 0.  1.
</event>
<event>
 8    1  0.1290800E-006  0.9118800E+02  0.7816164E-02  0.1184000E+00
        -11   -1    0    0    0    0  0.00000000000E+00  0.00000000000E+00  0.45593999997E+02  0.45594000000E+02  0.51100000000E-03 0.  1.
         11   -1    0    0    0    0 -0.00000000000E+00 -0.00000000000E+00 -0.45593999997E+02  0.45594000000E+02  0.51100000000E-03 0. -1.
         23    2    1    2    0    0  0.00000000000E+00 -0.88817841970E-15  0.00000000000E+00  0.91188000000E+02  0.91188000000E+02 0.  0.
    9900012    2    3    3    0    0 -0.33281775975E+02 -0.76077446808E+01 -0.13792199584E+02  0.54367093432E+02  0.40000021097E+02 0.  0.
        -12    1    3    3    0    0  0.33281775975E+02  0.76077446808E+01  0.13792199584E+02  0.36820906568E+02  0.00000000000E+00 0.  1.
         11    1    4    4    0    0 -0.35508987886E+01 -0.60746815911E+01 -0.28944873507E+01  0.76084621261E+01  0.51100000000E-03 0. -1.
        -11    1    4    4    0    0 -0.14098913629E+02 -0.44434693403E+01  0.11890599499E+02  0.18971297847E+02  0.51100000000E-03 0.  1.
         12    1    4    4    0    0 -0.15631963557E+02  0.29104062506E+01 -0.22788311731E+02  0.27787333459E+02  0.00000000000E+00 0. -1.
</event>
<event>
 8    1  0.1290800E-006  0.9118800E+02  0.7816164E-02  0.1184000E+00
        -11   -1    0    0    0    0  0.00000000000E+00  0.00000000000E+00  0.45593999997E+02  0.45594000000E+02  0.51100000000E-03 0.  1.
         11   -1    0    0    0    0 -0.00000000000E+00 -0.00000000000E+00 -0.45593999997E+02  0.45594000000E+02  0.51100000000E-03 0. -1.
         23    2    1    2    0    0 -0.22204460493E-15  0.00000000000E+00 -0.71054273576E-14  0.91188000000E+02  0.91188000000E+02 0.  0.
    9900012    2    3    3    0    0 -0.95473209218E+00  0.15971691408E+02 -0.33162818405E+02  0.54367096095E+02  0.40000027167E+02 0.  0.
        -12    1    3    3    0    0  0.95473209218E+00 -0.15971691408E+02  0.33162818405E+02  0.36820903905E+02  0.00000000000E+00 0.  1.
         11    1    4    4    0    0  0.98519134733E+01  0.11874116883E+02 -0.72385744169E+01  0.17042646822E+02  0.51100000000E-03 0. -1.
        -11    1    4    4    0    0 -0.39867945117E+01 -0.10132494155E+02 -0.84737133291E+01  0.13797310830E+02  0.51100000000E-03 0.  1.
         12    1    4    4    0    0 -0.68198510538E+01  0.14230068680E+02 -0.17450530659E+02  0.23527138443E+02  0.00000000000E+00 0. -1.
</event>
<event>
 8    1  0.1290800E-006  0.9118800E+02  0.7816164E-02  0.1184000E+00
        -11   -1    0    0    0    0  0.00000000000E+00  0.00000000000E+00  0.45593999997E+02  0.45594000000E+02  0.51100000000E-03 0.  1.
         11   -1    0    0    0    0 -0.00000000000E+00 -0.00000000000E+00 -0.45593999997E+02  0.45594000000E+02  0.51100000000E-03 0. -1.
         23    2    1    2    0    0  0.00000000000E+00  0.00000000000E+00  0.00000000000E+00  0.91188000000E+02  0.91188000000E+02 0.  0.
    9900012    2    3    3    0    0 -0.10488779240E+02  0.22098818302E+02 -0.27521038577E+02  0.54367084414E+02  0.40000000538E+02 0.  0.
        -12    1    3    3    0    0  0.10488779240E+02 -0.22098818302E+02  0.27521038577E+02  0.36820915586E+02  0.00000000000E+00 0.  1.
         11    1    4    4    0    0 -0.88497573121E+01  0.26521909462E+02 -0.16769744185E+02  0.32602978488E+02  0.51100000000E-03 0. -1.
        -11    1    4    4    0    0 -0.13220138712E+01  0.58853310171E+01  0.10160054335E+01  0.61169526039E+01  0.51100000000E-03 0.  1.
         12    1    4    4    0    0 -0.31700805634E+00 -0.10308422178E+02 -0.11767299825E+02  0.15647153322E+02  0.00000000000E+00 0. -1.
</event>
<event>
 8    1  0.1290800E-006  0.9118800E+02  0.7816164E-02  0.1184000E+00
        -11   -1    0    0    0    0  0.00000000000E+00  0.00000000000E+00  0.45593999997E+02  0.45594000000E+02  0.51100000000E-03 0. -1.
         11   -1    0    0    0    0 -0.00000000000E+00 -0.00000000000E+00 -0.45593999997E+02  0.45594000000E+02  0.51100000000E-03 0.  1.
         23    2    1    2    0    0  0.00000000000E+00  0.13322676296E-14  0.35527136788E-14  0.91188000000E+02  0.91188000000E+02 0.  0.
    9900012    2    3    3    0    0  0.20242579661E+02  0.21016402226E+01  0.30685570045E+02  0.54367039502E+02  0.39999898153E+02 0.  0.
        -12    1    3    3    0    0 -0.20242579661E+02 -0.21016402226E+01 -0.30685570045E+02  0.36820960498E+02  0.00000000000E+00 0.  1.
         11    1    4    4    0    0 -0.31433418971E+01 -0.38205566958E+01  0.76227198606E+01  0.90875249701E+01  0.51100000000E-03 0. -1.
        -11    1    4    4    0    0  0.71708084089E+01 -0.12498109023E+02  0.91649072132E+01  0.17076848271E+02  0.51100000000E-03 0.  1.
         12    1    4    4    0    0  0.16215113149E+02  0.18420305941E+02  0.13897942972E+02  0.28202666261E+02  0.00000000000E+00 0. -1.
</event>
<event>
 8    1  0.1290800E-006  0.9118800E+02  0.7816164E-02  0.1184000E+00
        -11   -1    0    0    0    0  0.00000000000E+00  0.00000000000E+00  0.45593999997E+02  0.45594000000E+02  0.51100000000E-03 0.  1.
         11   -1    0    0    0    0 -0.00000000000E+00 -0.00000000000E+00 -0.45593999997E+02  0.45594000000E+02  0.51100000000E-03 0. -1.
         23    2    1    2    0    0  0.00000000000E+00  0.00000000000E+00  0.00000000000E+00  0.91188000000E+02  0.91188000000E+02 0.  0.
    9900012    2    3    3    0    0 -0.26082302858E+02 -0.81144501718E+01  0.24691115964E+02  0.54367054446E+02  0.39999932220E+02 0.  0.
         12    1    3    3    0    0  0.26082302858E+02  0.81144501718E+01 -0.24691115964E+02  0.36820945554E+02  0.00000000000E+00 0. -1.
         11    1    4    4    0    0 -0.11183791963E+02 -0.16131595368E+02  0.23844141576E+02  0.30884440411E+02  0.51100000000E-03 0. -1.
        -11    1    4    4    0    0 -0.36323866432E+01  0.84948122472E+01  0.60710552320E+01  0.11055034135E+02  0.51100000000E-03 0.  1.
         12    1    4    4    0    0 -0.11266124252E+02 -0.47766705095E+00 -0.52240808442E+01  0.12427579899E+02  0.00000000000E+00 0. -1.
</event>
<event>
 8    1  0.1290800E-006  0.9118800E+02  0.7816164E-02  0.1184000E+00
        -11   -1    0    0    0    0  0.00000000000E+00  0.00000000000E+00  0.45593999997E+02  0.45594000000E+02  0.51100000000E-03 0. -1.
         11   -1    0    0    0    0 -0.00000000000E+00 -0.00000000000E+00 -0.45593999997E+02  0.45594000000E+02  0.51100000000E-03 0.  1.
         23    2    1    2    0    0  0.17763568394E-14  0.00000000000E+00 -0.88817841970E-15  0.91188000000E+02  0.91188000000E+02 0.  0.
    9900012    2    3    3    0    0  0.11264394982E+02 -0.34416991878E+02 -0.66607567642E+01  0.54367060238E+02  0.39999945425E+02 0.  0.
         12    1    3    3    0    0 -0.11264394982E+02  0.34416991878E+02  0.66607567642E+01  0.36820939762E+02  0.00000000000E+00 0. -1.
         11    1    4    4    0    0  0.13112512887E+02  0.13864212897E+01  0.70749391220E+00  0.13204571409E+02  0.51100000000E-03 0. -1.
        -11    1    4    4    0    0  0.44916425170E+01 -0.23311629431E+02  0.27254470230E+01  0.23896338234E+02  0.51100000000E-03 0.  1.
        -12    1    4    4    0    0 -0.63397604220E+01 -0.12491783737E+02 -0.10093697699E+02  0.17266150595E+02  0.00000000000E+00 0.  1.
</event>
<event>
 8    1  0.1290800E-006  0.9118800E+02  0.7816164E-02  0.1184000E+00
        -11   -1    0    0    0    0  0.00000000000E+00  0.00000000000E+00  0.45593999997E+02  0.45594000000E+02  0.51100000000E-03 0.  1.
         11   -1    0    0    0    0 -0.00000000000E+00 -0.00000000000E+00 -0.45593999997E+02  0.45594000000E+02  0.51100000000E-03 0. -1.
         23    2    1    2    0    0  0.00000000000E+00  0.35527136788E-14 -0.88817841970E-15  0.91188000000E+02  0.91188000000E+02 0.  0.
    9900012    2    3    3    0    0 -0.21103968430E+02  0.29828981886E+02  0.45425789251E+01  0.54367072973E+02  0.39999974456E+02 0.  0.
         12    1    3    3    0    0  0.21103968430E+02 -0.29828981886E+02 -0.45425789251E+01  0.36820927027E+02  0.00000000000E+00 0. -1.
         11    1    4    4    0    0 -0.14577933598E+02  0.37213714555E+01  0.46115222087E+01  0.15736292157E+02  0.51100000000E-03 0.  1.
        -11    1    4    4    0    0  0.42120852501E+01 -0.13838842412E+01 -0.70257848116E+01  0.83077343619E+01  0.51100000000E-03 0. -1.
        -12    1    4    4    0    0 -0.10738120082E+02  0.27491494672E+02  0.69568415280E+01  0.30323046454E+02  0.00000000000E+00 0.  1.
</event>
<event>
 8    1  0.1290800E-006  0.9118800E+02  0.7816164E-02  0.1184000E+00
        -11   -1    0    0    0    0  0.00000000000E+00  0.00000000000E+00  0.45593999997E+02  0.45594000000E+02  0.51100000000E-03 0. -1.
         11   -1    0    0    0    0 -0.00000000000E+00 -0.00000000000E+00 -0.45593999997E+02  0.45594000000E+02  0.51100000000E-03 0.  1.
         23    2    1    2    0    0  0.00000000000E+00  0.17763568394E-14  0.35527136788E-14  0.91188000000E+02  0.91188000000E+02 0.  0.
    9900012    2    3    3    0    0 -0.26848002626E+02  0.57659496061E+01  0.24529889436E+02  0.54367124187E+02  0.40000091210E+02 0.  0.
        -12    1    3    3    0    0  0.26848002626E+02 -0.57659496061E+01 -0.24529889436E+02  0.36820875813E+02  0.00000000000E+00 0.  1.
         11    1    4    4    0    0 -0.22506056095E+02  0.13925261156E+02  0.13254976850E+02  0.29599491056E+02  0.51100000000E-03 0. -1.
        -11    1    4    4    0    0  0.41673654255E+01 -0.10568222773E+02  0.11157608137E+02  0.15923143118E+02  0.51100000000E-03 0.  1.
        -12    1    4    4    0    0 -0.85093119563E+01  0.24089112230E+01  0.11730444878E+00  0.88444900127E+01  0.00000000000E+00 0.  1.
</event>
<event>
 8    1  0.1290800E-006  0.9118800E+02  0.7816164E-02  0.1184000E+00
        -11   -1    0    0    0    0  0.00000000000E+00  0.00000000000E+00  0.45593999997E+02  0.45594000000E+02  0.51100000000E-03 0.  1.
         11   -1    0    0    0    0 -0.00000000000E+00 -0.00000000000E+00 -0.45593999997E+02  0.45594000000E+02  0.51100000000E-03 0. -1.
         23    2    1    2    0    0  0.00000000000E+00  0.00000000000E+00  0.00000000000E+00  0.91188000000E+02  0.91188000000E+02 0.  0.
    9900012    2    3    3    0    0  0.67760206697E+01 -0.27873690452E+02 -0.23085181682E+02  0.54367045520E+02  0.39999911873E+02 0.  0.
        -12    1    3    3    0    0 -0.67760206697E+01  0.27873690452E+02  0.23085181682E+02  0.36820954480E+02  0.00000000000E+00 0.  1.
         11    1    4    4    0    0  0.79880613116E+01 -0.16183918536E+02 -0.11841398897E+02  0.21585807161E+02  0.51100000000E-03 0. -1.
        -11    1    4    4    0    0  0.59308015715E+01 -0.73017963529E+01  0.76411475091E+01  0.12119314039E+02  0.51100000000E-03 0.  1.
         12    1    4    4    0    0 -0.71428422134E+01 -0.43879755627E+01 -0.18884930293E+02  0.20661924320E+02  0.00000000000E+00 0. -1.
</event>
<event>
 8    1  0.1290800E-006  0.9118800E+02  0.7816164E-02  0.1184000E+00
        -11   -1    0    0    0    0  0.00000000000E+00  0.00000000000E+00  0.45593999997E+02  0.45594000000E+02  0.51100000000E-03 0.  1.
         11   -1    0    0    0    0 -0.00000000000E+00 -0.00000000000E+00 -0.45593999997E+02  0.45594000000E+02  0.51100000000E-03 0. -1.
         23    2    1    2    0    0  0.35527136788E-14  0.00000000000E+00 -0.22204460493E-15  0.91188000000E+02  0.91188000000E+02 0.  0.
    9900012    2    3    3    0    0 -0.29570375465E+02  0.21905502529E+02  0.12333567238E+01  0.54367091334E+02  0.40000016314E+02 0.  0.
         12    1    3    3    0    0  0.29570375465E+02 -0.21905502529E+02 -0.12333567238E+01  0.36820908666E+02  0.00000000000E+00 0. -1.
         11    1    4    4    0    0 -0.19505930290E+02 -0.35812291905E+01  0.22187175620E+01  0.19955681569E+02  0.51100000000E-03 0. -1.
        -11    1    4    4    0    0  0.35011783335E+01 -0.11042830009E+01 -0.26279071592E+01  0.45148185974E+01  0.51100000000E-03 0.  1.
        -12    1    4    4    0    0 -0.13565623508E+02  0.26591014720E+02  0.16425463210E+01  0.29896591167E+02  0.00000000000E+00 0.  1.
</event>
<event>
 8    1  0.1290800E-006  0.9118800E+02  0.7816164E-02  0.1184000E+00
        -11   -1    0    0    0    0  0.00000000000E+00  0.00000000000E+00  0.45593999997E+02  0.45594000000E+02  0.51100000000E-03 0.  1.
         11   -1    0    0    0    0 -0.00000000000E+00 -0.00000000000E+00 -0.45593999997E+02  0.45594000000E+02  0.51100000000E-03 0. -1.
         23    2    1    2    0    0  0.00000000000E+00 -0.17763568394E-14  0.00000000000E+00  0.91188000000E+02  0.91188000000E+02 0.  0.
    9900012    2    3    3    0    0 -0.29317879655E+02 -0.12733225878E+02 -0.18278585902E+02  0.54367084595E+02  0.40000000950E+02 0.  0.
        -12    1    3    3    0    0  0.29317879655E+02  0.12733225878E+02  0.18278585902E+02  0.36820915405E+02  0.00000000000E+00 0.  1.
         11    1    4    4    0    0 -0.10636716000E+02 -0.10049810784E+02 -0.19854729687E+02  0.24664726134E+02  0.51100000000E-03 0. -1.
        -11    1    4    4    0    0  0.17979102596E+01  0.66863415883E+01 -0.11446910129E+01  0.70178317814E+01  0.51100000000E-03 0.  1.
         12    1    4    4    0    0 -0.20479073914E+02 -0.93697566818E+01  0.27208347979E+01  0.22684526679E+02  0.00000000000E+00 0. -1.
</event>
<event>
 8    1  0.1290800E-006  0.9118800E+02  0.7816164E-02  0.1184000E+00
        -11   -1    0    0    0    0  0.00000000000E+00  0.00000000000E+00  0.45593999997E+02  0.45594000000E+02  0.51100000000E-03 0.  1.
         11   -1    0    0    0    0 -0.00000000000E+00 -0.00000000000E+00 -0.45593999997E+02  0.45594000000E+02  0.51100000000E-03 0. -1.
         23    2    1    2    0    0 -0.17763568394E-14  0.00000000000E+00  0.00000000000E+00  0.91188000000E+02  0.91188000000E+02 0.  0.
    9900012    2    3    3    0    0 -0.80900406078E+01 -0.11028340832E+02 -0.34186349197E+02  0.54367088415E+02  0.40000009659E+02 0.  0.
        -12    1    3    3    0    0  0.80900406078E+01  0.11028340832E+02  0.34186349197E+02  0.36820911585E+02  0.00000000000E+00 0.  1.
         11    1    4    4    0    0  0.26756474947E+01 -0.29707118232E+01 -0.29366975630E+02  0.29637872329E+02  0.51100000000E-03 0. -1.
        -11    1    4    4    0    0  0.59255355530E+01 -0.21656040832E+01  0.25991668795E+00  0.63142196336E+01  0.51100000000E-03 0.  1.
         12    1    4    4    0    0 -0.16691223656E+02 -0.58920249257E+01 -0.50792902550E+01  0.18414996452E+02  0.00000000000E+00 0. -1.
</event>
<event>
 8    1  0.1290800E-006  0.9118800E+02  0.7816164E-02  0.1184000E+00
        -11   -1    0    0    0    0  0.00000000000E+00  0.00000000000E+00  0.45593999997E+02  0.45594000000E+02  0.51100000000E-03 0. -1.
         11   -1    0    0    0    0 -0.00000000000E+00 -0.00000000000E+00 -0.45593999997E+02  0.45594000000E+02  0.51100000000E-03 0.  1.
         23    2    1    2    0    0  0.35527136788E-14  0.35527136788E-14  0.00000000000E+00  0.91188000000E+02  0.91188000000E+02 0.  0.
    9900012    2    3    3    0    0  0.16726186860E+02 -0.28829903658E+02  0.15647649976E+02  0.54367114329E+02  0.40000068736E+02 0.  0.
         12    1    3    3    0    0 -0.16726186860E+02  0.28829903658E+02 -0.15647649976E+02  0.36820885671E+02  0.00000000000E+00 0. -1.
         11    1    4    4    0    0  0.97278632398E+00 -0.45520838745E+01  0.47848427831E+00  0.46793940097E+01  0.51100000000E-03 0. -1.
        -11    1    4    4    0    0  0.18362203377E+02 -0.28826941428E+02  0.57852487847E+00  0.34183296451E+02  0.51100000000E-03 0.  1.
         12    1    4    4    0    0 -0.26088028407E+01  0.45491216439E+01  0.14590640819E+02  0.15504423869E+02  0.00000000000E+00 0. -1.
</event>
<event>
 8    1  0.1290800E-006  0.9118800E+02  0.7816164E-02  0.1184000E+00
        -11   -1    0    0    0    0  0.00000000000E+00  0.00000000000E+00  0.45593999997E+02  0.45594000000E+02  0.51100000000E-03 0. -1.
         11   -1    0    0    0    0 -0.00000000000E+00 -0.00000000000E+00 -0.45593999997E+02  0.45594000000E+02  0.51100000000E-03 0.  1.
         23    2    1    2    0    0  0.00000000000E+00  0.17763568394E-14  0.00000000000E+00  0.91188000000E+02  0.91188000000E+02 0.  0.
    9900012    2    3    3    0    0 -0.85511497458E+01  0.13937695440E+02  0.32990924909E+02  0.54367046149E+02  0.39999913305E+02 0.  0.
        -12    1    3    3    0    0  0.85511497458E+01 -0.13937695440E+02 -0.32990924909E+02  0.36820953851E+02  0.00000000000E+00 0.  1.
         11    1    4    4    0    0 -0.61710906752E+01 -0.11530149782E+02  0.22498948613E+01  0.13269843303E+02  0.51100000000E-03 0.  1.
        -11    1    4    4    0    0 -0.37909287564E+01  0.17356926983E+02  0.14669348760E+02  0.23039614763E+02  0.51100000000E-03 0. -1.
        -12    1    4    4    0    0  0.14108696857E+01  0.81109182393E+01  0.16071681288E+02  0.18057588083E+02  0.00000000000E+00 0.  1.
</event>
<event>
 8    1  0.1290800E-006  0.9118800E+02  0.7816164E-02  0.1184000E+00
        -11   -1    0    0    0    0  0.00000000000E+00  0.00000000000E+00  0.45593999997E+02  0.45594000000E+02  0.51100000000E-03 0.  1.
         11   -1    0    0    0    0 -0.00000000000E+00 -0.00000000000E+00 -0.45593999997E+02  0.45594000000E+02  0.51100000000E-03 0. -1.
         23    2    1    2    0    0  0.00000000000E+00  0.00000000000E+00  0.00000000000E+00  0.91188000000E+02  0.91188000000E+02 0.  0.
    9900012    2    3    3    0    0  0.98927058104E+01  0.78963808063E+01  0.34576895835E+02  0.54367079538E+02  0.39999989423E+02 0.  0.
         12    1    3    3    0    0 -0.98927058104E+01 -0.78963808063E+01 -0.34576895835E+02  0.36820920462E+02  0.00000000000E+00 0. -1.
         11    1    4    4    0    0 -0.86395680932E+01  0.70071207750E+01  0.27390309692E+02  0.29562999572E+02  0.51100000000E-03 0.  1.
        -11    1    4    4    0    0  0.58948907100E+01 -0.55620644790E+01  0.68492342815E+01  0.10611235001E+02  0.51100000000E-03 0. -1.
        -12    1    4    4    0    0  0.12637383194E+02  0.64513245103E+01  0.33735186159E+00  0.14192844965E+02  0.00000000000E+00 0.  1.
</event>
<event>
 8    1  0.1290800E-006  0.9118800E+02  0.7816164E-02  0.1184000E+00
        -11   -1    0    0    0    0  0.00000000000E+00  0.00000000000E+00  0.45593999997E+02  0.45594000000E+02  0.51100000000E-03 0. -1.
         11   -1    0    0    0    0 -0.00000000000E+00 -0.00000000000E+00 -0.45593999997E+02  0.45594000000E+02  0.51100000000E-03 0.  1.
         23    2    1    2    0    0  0.00000000000E+00  0.00000000000E+00  0.00000000000E+00  0.91188000000E+02  0.91188000000E+02 0.  0.
    9900012    2    3    3    0    0  0.93635458458E+01  0.30581883654E+02  0.18244248399E+02  0.54367079340E+02  0.39999988972E+02 0.  0.
        -12    1    3    3    0    0 -0.93635458458E+01 -0.30581883654E+02 -0.18244248399E+02  0.36820920660E+02  0.00000000000E+00 0.  1.
         11    1    4    4    0    0  0.88051552876E+01  0.21358429825E+02  0.10477763664E+02  0.25367239028E+02  0.51100000000E-03 0. -1.
        -11    1    4    4    0    0 -0.70944319678E+01 -0.16118935344E+01  0.12872127355E+02  0.14785832023E+02  0.51100000000E-03 0.  1.
        -12    1    4    4    0    0  0.76528225260E+01  0.10835347363E+02 -0.51056426198E+01  0.14214008289E+02  0.00000000000E+00 0.  1.
</event>
<event>
 8    1  0.1290800E-006  0.9118800E+02  0.7816164E-02  0.1184000E+00
        -11   -1    0    0    0    0  0.00000000000E+00  0.00000000000E+00  0.45593999997E+02  0.45594000000E+02  0.51100000000E-03 0. -1.
         11   -1    0    0    0    0 -0.00000000000E+00 -0.00000000000E+00 -0.45593999997E+02  0.45594000000E+02  0.51100000000E-03 0.  1.
         23    2    1    2    0    0  0.35527136788E-14  0.00000000000E+00  0.35527136788E-14  0.91188000000E+02  0.91188000000E+02 0.  0.
    9900012    2    3    3    0    0 -0.20562252378E+02 -0.10245886063E+02  0.28774918893E+02  0.54367077125E+02  0.39999983923E+02 0.  0.
        -12    1    3    3    0    0  0.20562252378E+02  0.10245886063E+02 -0.28774918893E+02  0.36820922875E+02  0.00000000000E+00 0.  1.
         11    1    4    4    0    0  0.12410794878E+01  0.95336078691E+01  0.15532941201E+02  0.18267518165E+02  0.51100000000E-03 0. -1.
        -11    1    4    4    0    0 -0.19333488789E+02 -0.15606153912E+02  0.33346040603E+01  0.25069013007E+02  0.51100000000E-03 0.  1.
        -12    1    4    4    0    0 -0.24698430765E+01 -0.41733400198E+01  0.99073736317E+01  0.11030545953E+02  0.00000000000E+00 0.  1.
</event>
<event>
 8    1  0.1290800E-006  0.9118800E+02  0.7816164E-02  0.1184000E+00
        -11   -1    0    0    0    0  0.00000000000E+00  0.00000000000E+00  0.45593999997E+02  0.45594000000E+02  0.51100000000E-03 0.  1.
         11   -1    0    0    0    0 -0.00000000000E+00 -0.00000000000E+00 -0.45593999997E+02  0.45594000000E+02  0.51100000000E-03 0. -1.
         23    2    1    2    0    0 -0.35527136788E-14  0.00000000000E+00  0.00000000000E+00  0.91188000000E+02  0.91188000000E+02 0.  0.
    9900012    2    3    3    0    0 -0.30995970233E+02 -0.19792408028E+02  0.18139621498E+01  0.54367081422E+02  0.39999993718E+02 0.  0.
         12    1    3    3    0    0  0.30995970233E+02  0.19792408028E+02 -0.18139621498E+01  0.36820918578E+02  0.00000000000E+00 0. -1.
         11    1    4    4    0    0 -0.16635051220E+02  0.63741378595E+01  0.30691857312E+01  0.18076904156E+02  0.51100000000E-03 0. -1.
        -11    1    4    4    0    0  0.21840987244E+01 -0.15134978839E+02  0.38313582791E+01  0.15764427621E+02  0.51100000000E-03 0.  1.
        -12    1    4    4    0    0 -0.16545017738E+02 -0.11031567049E+02 -0.50865818606E+01  0.20525749646E+02  0.00000000000E+00 0.  1.
</event>
<event>
 8    1  0.1290800E-006  0.9118800E+02  0.7816164E-02  0.1184000E+00
        -11   -1    0    0    0    0  0.00000000000E+00  0.00000000000E+00  0.45593999997E+02  0.45594000000E+02  0.51100000000E-03 0.  1.
         11   -1    0    0    0    0 -0.00000000000E+00 -0.00000000000E+00 -0.45593999997E+02  0.45594000000E+02  0.51100000000E-03 0. -1.
         23    2    1    2    0    0  0.00000000000E+00 -0.35527136788E-14  0.88817841970E-15  0.91188000000E+02  0.91188000000E+02 0.  0.
    9900012    2    3    3    0    0  0.26245715908E+02 -0.24830415309E+02 -0.70988930806E+01  0.54367062873E+02  0.39999951431E+02 0.  0.
        -12    1    3    3    0    0 -0.26245715908E+02  0.24830415309E+02  0.70988930806E+01  0.36820937127E+02  0.00000000000E+00 0.  1.
         11    1    4    4    0    0  0.57683243008E+01 -0.21875294324E+02 -0.47705138399E+01  0.23120550806E+02  0.51100000000E-03 0.  1.
        -11    1    4    4    0    0  0.33235763273E+01 -0.24979878042E+01 -0.11187218794E+02  0.11934821627E+02  0.51100000000E-03 0. -1.
        -12    1    4    4    0    0  0.17153815280E+02 -0.45713318057E+00  0.88588395531E+01  0.19311690439E+02  0.00000000000E+00 0.  1.
</event>
<event>
 8    1  0.1290800E-006  0.9118800E+02  0.7816164E-02  0.1184000E+00
        -11   -1    0    0    0    0  0.00000000000E+00  0.00000000000E+00  0.45593999997E+02  0.45594000000E+02  0.51100000000E-03 0. -1.
         11   -1    0    0    0    0 -0.00000000000E+00 -0.00000000000E+00 -0.45593999997E+02  0.45594000000E+02  0.51100000000E-03 0.  1.
         23    2    1    2    0    0  0.00000000000E+00  0.10547118734E-14  0.00000000000E+00  0.91188000000E+02  0.91188000000E+02 0.  0.
    9900012    2    3    3    0    0 -0.15883250762E+02  0.49611830927E+00 -0.33215312598E+02  0.54367071453E+02  0.39999970990E+02 0.  0.
         12    1    3    3    0    0  0.15883250762E+02 -0.49611830927E+00  0.33215312598E+02  0.36820928547E+02  0.00000000000E+00 0. -1.
         11    1    4    4    0    0 -0.89314853039E+00 -0.88488623291E-01 -0.11766307504E+02  0.11800488849E+02  0.51100000000E-03 0. -1.
        -11    1    4    4    0    0 -0.23145428986E+02  0.72041632028E+01 -0.20969391966E+02  0.32051930520E+02  0.51100000000E-03 0.  1.
        -12    1    4    4    0    0  0.81553267545E+01 -0.66195562703E+01 -0.47961312809E+00  0.10514652084E+02  0.00000000000E+00 0.  1.
</event>
<event>
 8    1  0.1290800E-006  0.9118800E+02  0.7816164E-02  0.1184000E+00
        -11   -1    0    0    0    0  0.00000000000E+00  0.00000000000E+00  0.45593999997E+02  0.45594000000E+02  0.51100000000E-03 0. -1.
         11   -1    0    0    0    0 -0.00000000000E+00 -0.00000000000E+00 -0.45593999997E+02  0.45594000000E+02  0.51100000000E-03 0.  1.
         23    2    1    2    0    0  0.00000000000E+00  0.88817841970E-15 -0.11102230246E-15  0.91188000000E+02  0.91188000000E+02 0.  0.
    9900012    2    3    3    0    0 -0.36049450980E+02 -0.74966347451E+01  0.12506844656E+00  0.54367107961E+02  0.40000054218E+02 0.  0.
        -12    1    3    3    0    0  0.36049450980E+02  0.74966347451E+01 -0.12506844656E+00  0.36820892039E+02  0.00000000000E+00 0.  1.
         11    1    4    4    0    0 -0.37688632056E+02 -0.13385386481E+02 -0.28158853043E+01  0.40094024091E+02  0.51100000000E-03 0. -1.
        -11    1    4    4    0    0 -0.53103776121E+01  0.11677699006E+01  0.21882543516E+00  0.54416616723E+01  0.51100000000E-03 0.  1.
         12    1    4    4    0    0  0.69495586886E+01  0.47209818356E+01  0.27221283157E+01  0.88314221972E+01  0.00000000000E+00 0. -1.
</event>
<event>
 8    1  0.1290800E-006  0.9118800E+02  0.7816164E-02  0.1184000E+00
        -11   -1    0    0    0    0  0.00000000000E+00  0.00000000000E+00  0.45593999997E+02  0.45594000000E+02  0.51100000000E-03 0.  1.
         11   -1    0    0    0    0 -0.00000000000E+00 -0.00000000000E+00 -0.45593999997E+02  0.45594000000E+02  0.51100000000E-03 0. -1.
         23    2    1    2    0    0  0.00000000000E+00 -0.17763568394E-14 -0.88817841970E-15  0.91188000000E+02  0.91188000000E+02 0.  0.
    9900012    2    3    3    0    0  0.34659913550E+02 -0.11712300980E+02 -0.41584104075E+01  0.54367082322E+02  0.39999995770E+02 0.  0.
        -12    1    3    3    0    0 -0.34659913550E+02  0.11712300980E+02  0.41584104075E+01  0.36820917678E+02  0.00000000000E+00 0.  1.
         11    1    4    4    0    0  0.24505572923E+02 -0.51790005297E+01 -0.15439708655E+02  0.29423285921E+02  0.51100000000E-03 0. -1.
        -11    1    4    4    0    0  0.11959408941E+02  0.24854125020E+01  0.97294066215E+01  0.15616212440E+02  0.51100000000E-03 0.  1.
         12    1    4    4    0    0 -0.18050683138E+01 -0.90187129524E+01  0.15518916259E+01  0.93275839612E+01  0.00000000000E+00 0. -1.
</event>
<event>
 8    1  0.1290800E-006  0.9118800E+02  0.7816164E-02  0.1184000E+00
        -11   -1    0    0    0    0  0.00000000000E+00  0.00000000000E+00  0.45593999997E+02  0.45594000000E+02  0.51100000000E-03 0.  1.
         11   -1    0    0    0    0 -0.00000000000E+00 -0.00000000000E+00 -0.45593999997E+02  0.45594000000E+02  0.51100000000E-03 0. -1.
         23    2    1    2    0    0  0.35527136788E-14  0.71054273576E-14 -0.17763568394E-14  0.91188000000E+02  0.91188000000E+02 0.  0.
    9900012    2    3    3    0    0 -0.12657921302E+02 -0.32318487226E+02 -0.12291201225E+02  0.54367065522E+02  0.39999957471E+02 0.  0.
        -12    1    3    3    0    0  0.12657921302E+02  0.32318487226E+02  0.12291201225E+02  0.36820934478E+02  0.00000000000E+00 0.  1.
         11    1    4    4    0    0  0.70000075130E+01 -0.54104266144E+01 -0.13570004534E+02  0.16199316178E+02  0.51100000000E-03 0. -1.
        -11    1    4    4    0    0 -0.64606206594E+01 -0.11356525935E+01 -0.53488536121E+01  0.84640156747E+01  0.51100000000E-03 0.  1.
         12    1    4    4    0    0 -0.13197308156E+02 -0.25772408018E+02  0.66276569212E+01  0.29703733669E+02  0.00000000000E+00 0. -1.
</event>
<event>
 8    1  0.1290800E-006  0.9118800E+02  0.7816164E-02  0.1184000E+00
        -11   -1    0    0    0    0  0.00000000000E+00  0.00000000000E+00  0.45593999997E+02  0.45594000000E+02  0.51100000000E-03 0.  1.
         11   -1    0    0    0    0 -0.00000000000E+00 -0.00000000000E+00 -0.45593999997E+02  0.45594000000E+02  0.51100000000E-03 0. -1.
         23    2    1    2    0    0  0.71054273576E-14 -0.17763568394E-14  0.35527136788E-14  0.91188000000E+02  0.91188000000E+02 0.  0.
    9900012    2    3    3    0    0  0.32432984649E+02  0.61918661001E+01  0.16295380969E+02  0.54367120870E+02  0.40000083646E+02 0.  0.
         12    1    3    3    0    0 -0.32432984649E+02 -0.61918661001E+01 -0.16295380969E+02  0.36820879130E+02  0.00000000000E+00 0. -1.
         11    1    4    4    0    0  0.78633967618E+01 -0.61118943319E+01 -0.32361898706E+01  0.10471923706E+02  0.51100000000E-03 0.  1.
        -11    1    4    4    0    0  0.27933260329E+02  0.23342960341E+01  0.17872229510E+02  0.33243534086E+02  0.51100000000E-03 0. -1.
         12    1    4    4    0    0 -0.33636724424E+01  0.99694643979E+01  0.16593413289E+01  0.10651663078E+02  0.00000000000E+00 0. -1.
</event>
<event>
 8    1  0.1290800E-006  0.9118800E+02  0.7816164E-02  0.1184000E+00
        -11   -1    0    0    0    0  0.00000000000E+00  0.00000000000E+00  0.45593999997E+02  0.45594000000E+02  0.51100000000E-03 0. -1.
         11   -1    0    0    0    0 -0.00000000000E+00 -0.00000000000E+00 -0.45593999997E+02  0.45594000000E+02  0.51100000000E-03 0.  1.
         23    2    1    2    0    0 -0.35527136788E-14  0.35527136788E-14  0.17763568394E-14  0.91188000000E+02  0.91188000000E+02 0.  0.
    9900012    2    3    3    0    0  0.20971428126E+02 -0.26680050919E+02 -0.14288255151E+02  0.54367079996E+02  0.39999990467E+02 0.  0.
         12    1    3    3    0    0 -0.20971428126E+02  0.26680050919E+02  0.14288255151E+02  0.36820920004E+02  0.00000000000E+00 0. -1.
         11    1    4    4    0    0  0.19067156416E+02 -0.17022680404E+02  0.89220979416E+01  0.27072715672E+02  0.51100000000E-03 0. -1.
        -11    1    4    4    0    0  0.89332762522E+00 -0.97120697851E+01 -0.97319688292E+01  0.13778009701E+02  0.51100000000E-03 0.  1.
         12    1    4    4    0    0  0.10109440843E+01  0.54699270269E-01 -0.13478384263E+02  0.13516354623E+02  0.00000000000E+00 0. -1.
</event>
<event>
 8    1  0.1290800E-006  0.9118800E+02  0.7816164E-02  0.1184000E+00
        -11   -1    0    0    0    0  0.00000000000E+00  0.00000000000E+00  0.45593999997E+02  0.45594000000E+02  0.51100000000E-03 0. -1.
         11   -1    0    0    0    0 -0.00000000000E+00 -0.00000000000E+00 -0.45593999997E+02  0.45594000000E+02  0.51100000000E-03 0.  1.
         23    2    1    2    0    0  0.00000000000E+00  0.22204460493E-14  0.00000000000E+00  0.91188000000E+02  0.91188000000E+02 0.  0.
    9900012    2    3    3    0    0 -0.14708502990E+02 -0.32988372771E+01  0.33594011088E+02  0.54367082459E+02  0.39999996082E+02 0.  0.
        -12    1    3    3    0    0  0.14708502990E+02  0.32988372771E+01 -0.33594011088E+02  0.36820917541E+02  0.00000000000E+00 0.  1.
         11    1    4    4    0    0  0.30183481824E+01  0.13446950933E+02  0.60422721777E+01  0.15047922398E+02  0.51100000000E-03 0. -1.
        -11    1    4    4    0    0 -0.18572810413E+01  0.14015610981E+01 -0.44974039725E+00  0.23698381936E+01  0.51100000000E-03 0.  1.
        -12    1    4    4    0    0 -0.15869570131E+02 -0.18147349309E+02  0.28001479307E+02  0.36949321868E+02  0.00000000000E+00 0.  1.
</event>
<event>
 8    1  0.1290800E-006  0.9118800E+02  0.7816164E-02  0.1184000E+00
        -11   -1    0    0    0    0  0.00000000000E+00  0.00000000000E+00  0.45593999997E+02  0.45594000000E+02  0.51100000000E-03 0.  1.
         11   -1    0    0    0    0 -0.00000000000E+00 -0.00000000000E+00 -0.45593999997E+02  0.45594000000E+02  0.51100000000E-03 0. -1.
         23    2    1    2    0    0 -0.17763568394E-14 -0.71054273576E-14  0.44408920985E-15  0.91188000000E+02  0.91188000000E+02 0.  0.
    9900012    2    3    3    0    0 -0.12972504047E+02  0.34357305951E+02  0.26589371396E+01  0.54367078227E+02  0.39999986435E+02 0.  0.
        -12    1    3    3    0    0  0.12972504047E+02 -0.34357305951E+02 -0.26589371396E+01  0.36820921773E+02  0.00000000000E+00 0.  1.
         11    1    4    4    0    0 -0.25288798084E+01  0.12042402433E+02 -0.88351362208E+01  0.15148409875E+02  0.51100000000E-03 0. -1.
        -11    1    4    4    0    0 -0.18533634923E+02  0.13858249406E+02  0.47859767580E+00  0.23146830368E+02  0.51100000000E-03 0.  1.
        -12    1    4    4    0    0  0.80900106843E+01  0.84566541122E+01  0.11015475685E+02  0.16071837985E+02  0.00000000000E+00 0.  1.
</event>
<event>
 8    1  0.1290800E-006  0.9118800E+02  0.7816164E-02  0.1184000E+00
        -11   -1    0    0    0    0  0.00000000000E+00  0.00000000000E+00  0.45593999997E+02  0.45594000000E+02  0.51100000000E-03 0. -1.
         11   -1    0    0    0    0 -0.00000000000E+00 -0.00000000000E+00 -0.45593999997E+02  0.45594000000E+02  0.51100000000E-03 0.  1.
         23    2    1    2    0    0  0.71054273576E-14  0.00000000000E+00  0.00000000000E+00  0.91188000000E+02  0.91188000000E+02 0.  0.
    9900012    2    3    3    0    0  0.20668097615E+02 -0.81261821261E+01  0.29369641093E+02  0.54367069636E+02  0.39999966848E+02 0.  0.
        -12    1    3    3    0    0 -0.20668097615E+02  0.81261821261E+01 -0.29369641093E+02  0.36820930364E+02  0.00000000000E+00 0.  1.
         11    1    4    4    0    0  0.28431782871E+01 -0.32583396955E+01 -0.36240707716E+01  0.56421919111E+01  0.51100000000E-03 0. -1.
        -11    1    4    4    0    0  0.37719903609E+01 -0.12183441415E+02  0.72249186560E+00  0.12774433481E+02  0.51100000000E-03 0.  1.
         12    1    4    4    0    0  0.14052928967E+02  0.73155989848E+01  0.32271219999E+02  0.35950444243E+02  0.00000000000E+00 0. -1.
</event>
<event>
 8    1  0.1290800E-006  0.9118800E+02  0.7816164E-02  0.1184000E+00
        -11   -1    0    0    0    0  0.00000000000E+00  0.00000000000E+00  0.45593999997E+02  0.45594000000E+02  0.51100000000E-03 0.  1.
         11   -1    0    0    0    0 -0.00000000000E+00 -0.00000000000E+00 -0.45593999997E+02  0.45594000000E+02  0.51100000000E-03 0. -1.
         23    2    1    2    0    0  0.00000000000E+00  0.00000000000E+00  0.00000000000E+00  0.91188000000E+02  0.91188000000E+02 0.  0.
    9900012    2    3    3    0    0  0.16834543256E+02 -0.12912535147E+02 -0.30093897207E+02  0.54367108380E+02  0.40000055174E+02 0.  0.
        -12    1    3    3    0    0 -0.16834543256E+02  0.12912535147E+02  0.30093897207E+02  0.36820891620E+02  0.00000000000E+00 0.  1.
         11    1    4    4    0    0  0.15240529682E+02 -0.15005060342E+02 -0.20451416721E+02  0.29591992617E+02  0.51100000000E-03 0. -1.
        -11    1    4    4    0    0 -0.21924733856E+01 -0.98109382313E+01 -0.23973528677E+01  0.10334831859E+02  0.51100000000E-03 0.  1.
         12    1    4    4    0    0  0.37864869596E+01  0.11903463426E+02 -0.72451276180E+01  0.14440283904E+02  0.00000000000E+00 0. -1.
</event>
<event>
 8    1  0.1290800E-006  0.9118800E+02  0.7816164E-02  0.1184000E+00
        -11   -1    0    0    0    0  0.00000000000E+00  0.00000000000E+00  0.45593999997E+02  0.45594000000E+02  0.51100000000E-03 0.  1.
         11   -1    0    0    0    0 -0.00000000000E+00 -0.00000000000E+00 -0.45593999997E+02  0.45594000000E+02  0.51100000000E-03 0. -1.
         23    2    1    2    0    0 -0.17763568394E-14  0.00000000000E+00  0.00000000000E+00  0.91188000000E+02  0.91188000000E+02 0.  0.
    9900012    2    3    3    0    0  0.11899560688E+02 -0.15872738126E+01 -0.34808909071E+02  0.54367093799E+02  0.40000021933E+02 0.  0.
        -12    1    3    3    0    0 -0.11899560688E+02  0.15872738126E+01  0.34808909071E+02  0.36820906201E+02  0.00000000000E+00 0.  1.
         11    1    4    4    0    0  0.14059885140E+02 -0.27351803256E+01 -0.39012828164E+02  0.41559142715E+02  0.51100000000E-03 0. -1.
        -11    1    4    4    0    0  0.38435701824E+01 -0.28854301932E+01  0.10615790927E+01  0.49219599326E+01  0.51100000000E-03 0.  1.
         12    1    4    4    0    0 -0.60038946338E+01  0.40333367062E+01  0.31423400003E+01  0.78859911513E+01  0.00000000000E+00 0. -1.
</event>
<event>
 8    1  0.1290800E-006  0.9118800E+02  0.7816164E-02  0.1184000E+00
        -11   -1    0    0    0    0  0.00000000000E+00  0.00000000000E+00  0.45593999997E+02  0.45594000000E+02  0.51100000000E-03 0.  1.
         11   -1    0    0    0    0 -0.00000000000E+00 -0.00000000000E+00 -0.45593999997E+02  0.45594000000E+02  0.51100000000E-03 0. -1.
         23    2    1    2    0    0  0.00000000000E+00  0.71054273576E-14  0.17763568394E-14  0.91188000000E+02  0.91188000000E+02 0.  0.
    9900012    2    3    3    0    0 -0.21702467887E+02  0.28345723385E+02  0.90166341538E+01  0.54367124969E+02  0.40000092991E+02 0.  0.
        -12    1    3    3    0    0  0.21702467887E+02 -0.28345723385E+02 -0.90166341538E+01  0.36820875031E+02  0.00000000000E+00 0.  1.
         11    1    4    4    0    0 -0.70052094923E+01  0.12874914497E+02 -0.10899194380E+02  0.18265509074E+02  0.51100000000E-03 0. -1.
        -11    1    4    4    0    0 -0.11171445843E+02 -0.25181857920E+01  0.10295271884E+02  0.15399191061E+02  0.51100000000E-03 0.  1.
         12    1    4    4    0    0 -0.35258125520E+01  0.17988994679E+02  0.96205566505E+01  0.20702424834E+02  0.00000000000E+00 0. -1.
</event>
