<event>
 4    1  0.7368504E-001  0.1899791E+03  0.7546771E-02  0.1158480E+00
         -2   -1    0    0    0  501 -0.00000000000E+00  0.00000000000E+00  0.48912120048E+02  0.48912120048E+02  0.00000000000E+00 0. -1.
          2   -1    0    0  502    0  0.00000000000E+00 -0.00000000000E+00 -0.80010773295E+03  0.80010773295E+03  0.00000000000E+00 0.  1.
          6    1    1    2  502    0  0.43477650834E+02  0.65366358276E+02 -0.25722577240E+03  0.31977674228E+03  0.17300000000E+03 0. -1.
         -6    1    1    2    0  501 -0.43477650834E+02 -0.65366358276E+02 -0.49396984051E+03  0.52924311072E+03  0.17300000000E+03 0.  1.
<mgrwt>
<rscale>  2 0.18997912E+03</rscale>
<asrwt>0</asrwt>
<pdfrwt beam="1">  1        2 0.12309349E+00 0.18997912E+03</pdfrwt>
<pdfrwt beam="2">  1       -2 0.75249423E-02 0.18997912E+03</pdfrwt>
<totfact> 0.36475916E+03</totfact>
</mgrwt>
</event>
<event>
 4    1  0.7368504E-001  0.1923777E+03  0.7546771E-02  0.1156334E+00
          1   -1    0    0  502    0  0.00000000000E+00  0.00000000000E+00  0.11978643096E+04  0.11978643096E+04  0.00000000000E+00 0.  1.
         -1   -1    0    0    0  501 -0.00000000000E+00 -0.00000000000E+00 -0.32969773157E+02  0.32969773157E+02  0.00000000000E+00 0. -1.
          6    1    1    2  502    0 -0.45522070508E+02  0.70766627338E+02  0.42810112933E+03  0.46933969721E+03  0.17300000000E+03 0. -1.
         -6    1    1    2    0  501  0.45522070508E+02 -0.70766627338E+02  0.73679340716E+03  0.76149438559E+03  0.17300000000E+03 0. -1.
<mgrwt>
<rscale>  2 0.19237769E+03</rscale>
<asrwt>0</asrwt>
<pdfrwt beam="1">  1        1 0.18428678E+00 0.19237769E+03</pdfrwt>
<pdfrwt beam="2">  1       -1 0.50722737E-02 0.19237769E+03</pdfrwt>
<totfact> 0.19757126E+03</totfact>
</mgrwt>
</event>
<event>
 4    1  0.7368504E-001  0.1901276E+03  0.7546771E-02  0.1158346E+00
         -1   -1    0    0    0  501 -0.00000000000E+00  0.00000000000E+00  0.48040395696E+02  0.48040395696E+02  0.00000000000E+00 0.  1.
          1   -1    0    0  502    0  0.00000000000E+00 -0.00000000000E+00 -0.76867429410E+03  0.76867429410E+03  0.00000000000E+00 0. -1.
          6    1    1    2  502    0 -0.54723506639E+02  0.56787617509E+02 -0.41962487963E+03  0.46068811064E+03  0.17300000000E+03 0.  1.
         -6    1    1    2    0  501  0.54723506639E+02 -0.56787617509E+02 -0.30100901877E+03  0.35602657915E+03  0.17300000000E+03 0.  1.
<mgrwt>
<rscale>  2 0.19012758E+03</rscale>
<asrwt>0</asrwt>
<pdfrwt beam="1">  1        1 0.11825758E+00 0.19012758E+03</pdfrwt>
<pdfrwt beam="2">  1       -1 0.73908304E-02 0.19012758E+03</pdfrwt>
<totfact> 0.23640664E+03</totfact>
</mgrwt>
</event>
<event>
 4    1  0.7368504E-001  0.1744278E+03  0.7546771E-02  0.1173307E+00
          2   -1    0    0  502    0  0.00000000000E+00  0.00000000000E+00  0.49884358428E+03  0.49884358428E+03  0.00000000000E+00 0.  1.
         -2   -1    0    0    0  501 -0.00000000000E+00 -0.00000000000E+00 -0.12874207391E+03  0.12874207391E+03  0.00000000000E+00 0. -1.
          6    1    1    2  502    0  0.21656727076E+02  0.52012956364E+01 -0.42584866960E+02  0.17955093483E+03  0.17300000000E+03 0. -1.
         -6    1    1    2    0  501 -0.21656727076E+02 -0.52012956364E+01  0.41268637733E+03  0.44803472336E+03  0.17300000000E+03 0.  1.
<mgrwt>
<rscale>  2 0.17442783E+03</rscale>
<asrwt>0</asrwt>
<pdfrwt beam="1">  1        2 0.76745166E-01 0.17442783E+03</pdfrwt>
<pdfrwt beam="2">  1       -2 0.19806473E-01 0.17442783E+03</pdfrwt>
<totfact> 0.13266736E+03</totfact>
</mgrwt>
</event>
<event>
 4    1  0.7368504E-001  0.1848096E+03  0.7546771E-02  0.1163228E+00
         -4   -1    0    0    0  501 -0.00000000000E+00  0.00000000000E+00  0.55741701140E+02  0.55741701140E+02  0.00000000000E+00 0. -1.
          4   -1    0    0  502    0  0.00000000000E+00 -0.00000000000E+00 -0.67851748021E+03  0.67851748021E+03  0.00000000000E+00 0.  1.
          6    1    1    2  502    0  0.68740953285E+01  0.64639946555E+02 -0.19707040307E+03  0.27016905752E+03  0.17300000000E+03 0. -1.
         -6    1    1    2    0  501 -0.68740953285E+01 -0.64639946555E+02 -0.42570537601E+03  0.46409012383E+03  0.17300000000E+03 0.  1.
<mgrwt>
<rscale>  2 0.18480957E+03</rscale>
<asrwt>0</asrwt>
<pdfrwt beam="1">  1        4 0.10438731E+00 0.18480957E+03</pdfrwt>
<pdfrwt beam="2">  1       -4 0.85756462E-02 0.18480957E+03</pdfrwt>
<totfact> 0.13367585E+02</totfact>
</mgrwt>
</event>
<event>
 4    1  0.7368504E-001  0.2054583E+03  0.7546771E-02  0.1145214E+00
         -1   -1    0    0    0  501 -0.00000000000E+00  0.00000000000E+00  0.69090894642E+02  0.69090894642E+02  0.00000000000E+00 0.  1.
          1   -1    0    0  502    0  0.00000000000E+00 -0.00000000000E+00 -0.61194342817E+03  0.61194342817E+03  0.00000000000E+00 0. -1.
          6    1    1    2  502    0  0.83518726686E+02 -0.72860959439E+02 -0.25790924057E+03  0.32974273834E+03  0.17300000000E+03 0.  1.
         -6    1    1    2    0  501 -0.83518726686E+02  0.72860959439E+02 -0.28494329296E+03  0.35129158447E+03  0.17300000000E+03 0. -1.
<mgrwt>
<rscale>  2 0.20545826E+03</rscale>
<asrwt>0</asrwt>
<pdfrwt beam="1">  1        1 0.94145142E-01 0.20545826E+03</pdfrwt>
<pdfrwt beam="2">  1       -1 0.10629369E-01 0.20545826E+03</pdfrwt>
<totfact> 0.18852993E+03</totfact>
</mgrwt>
</event>
<event>
 4    1  0.7368504E-001  0.3942570E+03  0.7546771E-02  0.1045787E+00
         -1   -1    0    0    0  501 -0.00000000000E+00  0.00000000000E+00  0.49245372031E+03  0.49245372031E+03  0.00000000000E+00 0.  1.
          1   -1    0    0  502    0  0.00000000000E+00 -0.00000000000E+00 -0.32722571002E+03  0.32722571002E+03  0.00000000000E+00 0. -1.
          6    1    1    2  502    0 -0.28804624245E+03 -0.20624978864E+03  0.55002529607E+01  0.39429540434E+03  0.17300000000E+03 0.  1.
         -6    1    1    2    0  501  0.28804624245E+03  0.20624978864E+03  0.15972775733E+03  0.42538402599E+03  0.17300000000E+03 0.  1.
<mgrwt>
<rscale>  2 0.39425704E+03</rscale>
<asrwt>0</asrwt>
<pdfrwt beam="1">  1        1 0.50342417E-01 0.39425704E+03</pdfrwt>
<pdfrwt beam="2">  1       -1 0.75762111E-01 0.39425704E+03</pdfrwt>
<totfact> 0.14257961E+02</totfact>
</mgrwt>
</event>
<event>
 4    1  0.7368504E-001  0.2735647E+03  0.7546771E-02  0.1099257E+00
          2   -1    0    0  502    0  0.00000000000E+00  0.00000000000E+00  0.15552513788E+04  0.15552513788E+04  0.00000000000E+00 0. -1.
         -2   -1    0    0    0  501 -0.00000000000E+00 -0.00000000000E+00 -0.50568467939E+02  0.50568467939E+02  0.00000000000E+00 0.  1.
          6    1    1    2  502    0 -0.20662162056E+03  0.47076206681E+02  0.57564288415E+03  0.63734009240E+03  0.17300000000E+03 0. -1.
         -6    1    1    2    0  501  0.20662162056E+03 -0.47076206681E+02  0.92904002672E+03  0.96847975434E+03  0.17300000000E+03 0.  1.
<mgrwt>
<rscale>  2 0.27356473E+03</rscale>
<asrwt>0</asrwt>
<pdfrwt beam="1">  1        2 0.23926941E+00 0.27356473E+03</pdfrwt>
<pdfrwt beam="2">  1       -2 0.77797655E-02 0.27356473E+03</pdfrwt>
<totfact> 0.12602200E+03</totfact>
</mgrwt>
</event>
<event>
 4    1  0.7368504E-001  0.1827337E+03  0.7546771E-02  0.1165183E+00
         -1   -1    0    0    0  501 -0.00000000000E+00  0.00000000000E+00  0.38801770315E+03  0.38801770315E+03  0.00000000000E+00 0. -1.
          1   -1    0    0  502    0  0.00000000000E+00 -0.00000000000E+00 -0.89412974282E+02  0.89412974282E+02  0.00000000000E+00 0.  1.
          6    1    1    2  502    0  0.14685728977E+02  0.56981774818E+02  0.10305392659E+03  0.20978966867E+03  0.17300000000E+03 0.  1.
         -6    1    1    2    0  501 -0.14685728977E+02 -0.56981774818E+02  0.19555080228E+03  0.26764100876E+03  0.17300000000E+03 0. -1.
<mgrwt>
<rscale>  2 0.18273367E+03</rscale>
<asrwt>0</asrwt>
<pdfrwt beam="1">  1        1 0.13755842E-01 0.18273367E+03</pdfrwt>
<pdfrwt beam="2">  1       -1 0.59695030E-01 0.18273367E+03</pdfrwt>
<totfact> 0.12157543E+03</totfact>
</mgrwt>
</event>
<event>
 4    1  0.7368504E-001  0.1976420E+03  0.7546771E-02  0.1151744E+00
          2   -1    0    0  502    0  0.00000000000E+00  0.00000000000E+00  0.24825973424E+04  0.24825973424E+04  0.00000000000E+00 0.  1.
         -2   -1    0    0    0  501 -0.00000000000E+00 -0.00000000000E+00 -0.16509061234E+02  0.16509061234E+02  0.00000000000E+00 0. -1.
          6    1    1    2  502    0 -0.31008811670E+01 -0.95518388692E+02  0.96238227605E+03  0.98246731411E+03  0.17300000000E+03 0. -1.
         -6    1    1    2    0  501  0.31008811670E+01  0.95518388692E+02  0.15037060051E+04  0.15166390895E+04  0.17300000000E+03 0.  1.
<mgrwt>
<rscale>  2 0.19764205E+03</rscale>
<asrwt>0</asrwt>
<pdfrwt beam="1">  1        2 0.38193776E+00 0.19764205E+03</pdfrwt>
<pdfrwt beam="2">  1       -2 0.25398575E-02 0.19764205E+03</pdfrwt>
<totfact> 0.22395755E+03</totfact>
</mgrwt>
</event>
<event>
 4    1  0.7368504E-001  0.1809112E+03  0.7546771E-02  0.1166924E+00
          2   -1    0    0  502    0  0.00000000000E+00  0.00000000000E+00  0.24006254829E+04  0.24006254829E+04  0.00000000000E+00 0.  1.
         -2   -1    0    0    0  501 -0.00000000000E+00 -0.00000000000E+00 -0.13962809249E+02  0.13962809249E+02  0.00000000000E+00 0. -1.
          6    1    1    2  502    0  0.10543474997E+02  0.51852799315E+02  0.10079174102E+04  0.10240246010E+04  0.17300000000E+03 0. -1.
         -6    1    1    2    0  501 -0.10543474997E+02 -0.51852799315E+02  0.13787452634E+04  0.13905636911E+04  0.17300000000E+03 0.  1.
<mgrwt>
<rscale>  2 0.18091124E+03</rscale>
<asrwt>0</asrwt>
<pdfrwt beam="1">  1        2 0.36932667E+00 0.18091124E+03</pdfrwt>
<pdfrwt beam="2">  1       -2 0.21481264E-02 0.18091124E+03</pdfrwt>
<totfact> 0.31749868E+03</totfact>
</mgrwt>
</event>
<event>
 4    1  0.7368504E-001  0.2502561E+03  0.7546771E-02  0.1113143E+00
          2   -1    0    0  502    0  0.00000000000E+00  0.00000000000E+00  0.14987533007E+04  0.14987533007E+04  0.00000000000E+00 0.  1.
         -2   -1    0    0    0  501 -0.00000000000E+00 -0.00000000000E+00 -0.50174509651E+02  0.50174509651E+02  0.00000000000E+00 0. -1.
          6    1    1    2  502    0  0.12409722102E+03  0.13152564549E+03  0.40763821384E+03  0.47832732420E+03  0.17300000000E+03 0. -1.
         -6    1    1    2    0  501 -0.12409722102E+03 -0.13152564549E+03  0.10409405772E+04  0.10706004862E+04  0.17300000000E+03 0.  1.
<mgrwt>
<rscale>  2 0.25025610E+03</rscale>
<asrwt>0</asrwt>
<pdfrwt beam="1">  1        2 0.23057740E+00 0.25025610E+03</pdfrwt>
<pdfrwt beam="2">  1       -2 0.77191565E-02 0.25025610E+03</pdfrwt>
<totfact> 0.13694863E+03</totfact>
</mgrwt>
</event>
<event>
 4    1  0.7368504E-001  0.2108373E+03  0.7546771E-02  0.1140905E+00
         -2   -1    0    0    0  501 -0.00000000000E+00  0.00000000000E+00  0.95054413770E+02  0.95054413770E+02  0.00000000000E+00 0.  1.
          2   -1    0    0  502    0  0.00000000000E+00 -0.00000000000E+00 -0.48916949737E+03  0.48916949737E+03  0.00000000000E+00 0. -1.
          6    1    1    2  502    0 -0.53236298911E+02 -0.10811693512E+03 -0.25832315024E+03  0.33344148682E+03  0.17300000000E+03 0. -1.
         -6    1    1    2    0  501  0.53236298911E+02  0.10811693512E+03 -0.13579193336E+03  0.25078242432E+03  0.17300000000E+03 0.  1.
<mgrwt>
<rscale>  2 0.21083732E+03</rscale>
<asrwt>0</asrwt>
<pdfrwt beam="1">  1        2 0.75256846E-01 0.21083732E+03</pdfrwt>
<pdfrwt beam="2">  1       -2 0.14623756E-01 0.21083732E+03</pdfrwt>
<totfact> 0.22599341E+03</totfact>
</mgrwt>
</event>
<event>
 4    1  0.7368504E-001  0.4681832E+03  0.7546771E-02  0.1022434E+00
         -2   -1    0    0    0  501 -0.00000000000E+00  0.00000000000E+00  0.32205913283E+03  0.32205913283E+03  0.00000000000E+00 0.  1.
          2   -1    0    0  502    0  0.00000000000E+00 -0.00000000000E+00 -0.68135798912E+03  0.68135798912E+03  0.00000000000E+00 0. -1.
          6    1    1    2  502    0 -0.38328608062E+03 -0.20581124020E+03 -0.16298567849E+03  0.49574168433E+03  0.17300000000E+03 0. -1.
         -6    1    1    2    0  501  0.38328608062E+03  0.20581124020E+03 -0.19631317780E+03  0.50767543762E+03  0.17300000000E+03 0.  1.
<mgrwt>
<rscale>  2 0.46818318E+03</rscale>
<asrwt>0</asrwt>
<pdfrwt beam="1">  1        2 0.10482430E+00 0.46818318E+03</pdfrwt>
<pdfrwt beam="2">  1       -2 0.49547560E-01 0.46818318E+03</pdfrwt>
<totfact> 0.16806241E+02</totfact>
</mgrwt>
</event>
<event>
 4    1  0.7368504E-001  0.1880480E+03  0.7546771E-02  0.1160234E+00
          4   -1    0    0  502    0  0.00000000000E+00  0.00000000000E+00  0.54931790822E+03  0.54931790822E+03  0.00000000000E+00 0. -1.
         -4   -1    0    0    0  501 -0.00000000000E+00 -0.00000000000E+00 -0.13465337364E+03  0.13465337364E+03  0.00000000000E+00 0.  1.
          6    1    1    2  502    0  0.47323905565E+02 -0.56511132514E+02  0.45439752519E+03  0.49177146220E+03  0.17300000000E+03 0. -1.
         -6    1    1    2    0  501 -0.47323905565E+02  0.56511132514E+02 -0.39732990615E+02  0.19219981966E+03  0.17300000000E+03 0.  1.
<mgrwt>
<rscale>  2 0.18804803E+03</rscale>
<asrwt>0</asrwt>
<pdfrwt beam="1">  1        4 0.84510446E-01 0.18804803E+03</pdfrwt>
<pdfrwt beam="2">  1       -4 0.20715904E-01 0.18804803E+03</pdfrwt>
<totfact> 0.46893742E+01</totfact>
</mgrwt>
</event>
<event>
 4    1  0.7368504E-001  0.2625675E+03  0.7546771E-02  0.1105610E+00
         -2   -1    0    0    0  501 -0.00000000000E+00  0.00000000000E+00  0.69528520494E+02  0.69528520494E+02  0.00000000000E+00 0.  1.
          2   -1    0    0  502    0  0.00000000000E+00 -0.00000000000E+00 -0.10878466424E+04  0.10878466424E+04  0.00000000000E+00 0. -1.
          6    1    1    2  502    0  0.15573316901E+03  0.12149031731E+03 -0.33699488691E+03  0.42720869716E+03  0.17300000000E+03 0.  1.
         -6    1    1    2    0  501 -0.15573316901E+03 -0.12149031731E+03 -0.68132323501E+03  0.73016646575E+03  0.17300000000E+03 0. -1.
<mgrwt>
<rscale>  2 0.26256755E+03</rscale>
<asrwt>0</asrwt>
<pdfrwt beam="1">  1        2 0.16736103E+00 0.26256755E+03</pdfrwt>
<pdfrwt beam="2">  1       -2 0.10696695E-01 0.26256755E+03</pdfrwt>
<totfact> 0.13843605E+03</totfact>
</mgrwt>
</event>
<event>
 4    1  0.7368504E-001  0.2557834E+03  0.7546771E-02  0.1109703E+00
          1   -1    0    0  502    0  0.00000000000E+00  0.00000000000E+00  0.98415838903E+03  0.98415838903E+03  0.00000000000E+00 0. -1.
         -1   -1    0    0    0  501 -0.00000000000E+00 -0.00000000000E+00 -0.11281900728E+03  0.11281900728E+03  0.00000000000E+00 0.  1.
          6    1    1    2  502    0 -0.11977580690E+03  0.14542997925E+03  0.78719624066E+03  0.82770951673E+03  0.17300000000E+03 0. -1.
         -6    1    1    2    0  501  0.11977580690E+03 -0.14542997925E+03  0.84143141085E+02  0.26926787958E+03  0.17300000000E+03 0.  1.
<mgrwt>
<rscale>  2 0.25578335E+03</rscale>
<asrwt>0</asrwt>
<pdfrwt beam="1">  1        1 0.15140898E+00 0.25578335E+03</pdfrwt>
<pdfrwt beam="2">  1       -1 0.17356771E-01 0.25578335E+03</pdfrwt>
<totfact> 0.42069633E+02</totfact>
</mgrwt>
</event>
<event>
 4    1  0.7368504E-001  0.1937832E+03  0.7546771E-02  0.1155093E+00
          2   -1    0    0  502    0  0.00000000000E+00  0.00000000000E+00  0.24754708683E+04  0.24754708683E+04  0.00000000000E+00 0.  1.
         -2   -1    0    0    0  501 -0.00000000000E+00 -0.00000000000E+00 -0.19183864665E+02  0.19183864665E+02  0.00000000000E+00 0. -1.
          6    1    1    2  502    0  0.12194843570E+02 -0.86453632724E+02  0.65756620807E+03  0.68552553769E+03  0.17300000000E+03 0.  1.
         -6    1    1    2    0  501 -0.12194843570E+02  0.86453632724E+02  0.17987207956E+04  0.18091291953E+04  0.17300000000E+03 0.  1.
<mgrwt>
<rscale>  2 0.19378324E+03</rscale>
<asrwt>0</asrwt>
<pdfrwt beam="1">  1        2 0.38084142E+00 0.19378324E+03</pdfrwt>
<pdfrwt beam="2">  1       -2 0.29513658E-02 0.19378324E+03</pdfrwt>
<totfact> 0.18104613E+03</totfact>
</mgrwt>
</event>
<event>
 4    1  0.7368504E-001  0.3783721E+03  0.7546771E-02  0.1051537E+00
          1   -1    0    0  502    0  0.00000000000E+00  0.00000000000E+00  0.10013763932E+04  0.10013763932E+04  0.00000000000E+00 0. -1.
         -1   -1    0    0    0  501 -0.00000000000E+00 -0.00000000000E+00 -0.18160700662E+03  0.18160700662E+03  0.00000000000E+00 0.  1.
          6    1    1    2  502    0 -0.31294395734E+03 -0.12370326352E+03  0.68271446037E+03  0.78055393935E+03  0.17300000000E+03 0. -1.
         -6    1    1    2    0  501  0.31294395734E+03  0.12370326352E+03  0.13705492619E+03  0.40242946044E+03  0.17300000000E+03 0.  1.
<mgrwt>
<rscale>  2 0.37837206E+03</rscale>
<asrwt>0</asrwt>
<pdfrwt beam="1">  1        1 0.15405790E+00 0.37837206E+03</pdfrwt>
<pdfrwt beam="2">  1       -1 0.27939540E-01 0.37837206E+03</pdfrwt>
<totfact> 0.18299520E+02</totfact>
</mgrwt>
</event>
<event>
 4    1  0.7368504E-001  0.1987211E+03  0.7546771E-02  0.1150823E+00
          2   -1    0    0  502    0  0.00000000000E+00  0.00000000000E+00  0.22262734700E+03  0.22262734700E+03  0.00000000000E+00 0. -1.
         -2   -1    0    0    0  501 -0.00000000000E+00 -0.00000000000E+00 -0.21373404577E+03  0.21373404577E+03  0.00000000000E+00 0.  1.
          6    1    1    2  502    0 -0.82004402762E+02 -0.53257266092E+02  0.94426359861E+02  0.22001453566E+03  0.17300000000E+03 0. -1.
         -6    1    1    2    0  501  0.82004402762E+02  0.53257266092E+02 -0.85533058636E+02  0.21634685711E+03  0.17300000000E+03 0.  1.
<mgrwt>
<rscale>  2 0.19872106E+03</rscale>
<asrwt>0</asrwt>
<pdfrwt beam="1">  1        2 0.34250361E-01 0.19872106E+03</pdfrwt>
<pdfrwt beam="2">  1       -2 0.32882161E-01 0.19872106E+03</pdfrwt>
<totfact> 0.12984360E+03</totfact>
</mgrwt>
</event>
<event>
 4    1  0.7368504E-001  0.2203340E+03  0.7546771E-02  0.1133634E+00
         -2   -1    0    0    0  501 -0.00000000000E+00  0.00000000000E+00  0.13431548750E+03  0.13431548750E+03  0.00000000000E+00 0.  1.
          2   -1    0    0  502    0  0.00000000000E+00 -0.00000000000E+00 -0.39463731756E+03  0.39463731756E+03  0.00000000000E+00 0. -1.
          6    1    1    2  502    0 -0.33688911523E+02  0.13222382993E+03 -0.53453956242E+02  0.22672540528E+03  0.17300000000E+03 0. -1.
         -6    1    1    2    0  501  0.33688911523E+02 -0.13222382993E+03 -0.20686787381E+03  0.30222739978E+03  0.17300000000E+03 0.  1.
<mgrwt>
<rscale>  2 0.22033403E+03</rscale>
<asrwt>0</asrwt>
<pdfrwt beam="1">  1        2 0.60713434E-01 0.22033403E+03</pdfrwt>
<pdfrwt beam="2">  1       -2 0.20663921E-01 0.22033403E+03</pdfrwt>
<totfact> 0.16017464E+03</totfact>
</mgrwt>
</event>
<event>
 4    1  0.7368504E-001  0.1856536E+03  0.7546771E-02  0.1162441E+00
          1   -1    0    0  502    0  0.00000000000E+00  0.00000000000E+00  0.23646402815E+03  0.23646402815E+03  0.00000000000E+00 0. -1.
         -1   -1    0    0    0  501 -0.00000000000E+00 -0.00000000000E+00 -0.14585772429E+03  0.14585772429E+03  0.00000000000E+00 0.  1.
          6    1    1    2  502    0  0.47862800060E+02 -0.47407012180E+02  0.50221614100E+02  0.19232650092E+03  0.17300000000E+03 0. -1.
         -6    1    1    2    0  501 -0.47862800060E+02  0.47407012180E+02  0.40384689763E+02  0.18999525152E+03  0.17300000000E+03 0. -1.
<mgrwt>
<rscale>  2 0.18565364E+03</rscale>
<asrwt>0</asrwt>
<pdfrwt beam="1">  1        1 0.36379081E-01 0.18565364E+03</pdfrwt>
<pdfrwt beam="2">  1       -1 0.22439650E-01 0.18565364E+03</pdfrwt>
<totfact> 0.19516439E+03</totfact>
</mgrwt>
</event>
<event>
 4    1  0.7368504E-001  0.2253352E+03  0.7546771E-02  0.1129967E+00
         -1   -1    0    0    0  501 -0.00000000000E+00  0.00000000000E+00  0.51645265690E+03  0.51645265690E+03  0.00000000000E+00 0. -1.
          1   -1    0    0  502    0  0.00000000000E+00 -0.00000000000E+00 -0.10294223732E+03  0.10294223732E+03  0.00000000000E+00 0.  1.
          6    1    1    2  502    0  0.13174830555E+03  0.59070438968E+02  0.14110730917E+03  0.26587065554E+03  0.17300000000E+03 0.  1.
         -6    1    1    2    0  501 -0.13174830555E+03 -0.59070438968E+02  0.27240311041E+03  0.35352423868E+03  0.17300000000E+03 0. -1.
<mgrwt>
<rscale>  2 0.22533516E+03</rscale>
<asrwt>0</asrwt>
<pdfrwt beam="1">  1        1 0.15837268E-01 0.22533516E+03</pdfrwt>
<pdfrwt beam="2">  1       -1 0.79454253E-01 0.22533516E+03</pdfrwt>
<totfact> 0.57455269E+02</totfact>
</mgrwt>
</event>
<event>
 4    1  0.7368504E-001  0.2017667E+03  0.7546771E-02  0.1148257E+00
         -1   -1    0    0    0  501 -0.00000000000E+00  0.00000000000E+00  0.56056144897E+03  0.56056144897E+03  0.00000000000E+00 0. -1.
          1   -1    0    0  502    0  0.00000000000E+00 -0.00000000000E+00 -0.11856456045E+03  0.11856456045E+03  0.00000000000E+00 0.  1.
          6    1    1    2  502    0 -0.97943557838E+02 -0.34465173991E+02  0.43236908118E+03  0.47712976338E+03  0.17300000000E+03 0. -1.
         -6    1    1    2    0  501  0.97943557838E+02  0.34465173991E+02  0.96278073425E+01  0.20199624604E+03  0.17300000000E+03 0.  1.
<mgrwt>
<rscale>  2 0.20176667E+03</rscale>
<asrwt>0</asrwt>
<pdfrwt beam="1">  1        1 0.18240702E-01 0.20176667E+03</pdfrwt>
<pdfrwt beam="2">  1       -1 0.86240221E-01 0.20176667E+03</pdfrwt>
<totfact> 0.40289856E+02</totfact>
</mgrwt>
</event>
<event>
 4    1  0.7368504E-001  0.1944448E+03  0.7546771E-02  0.1154512E+00
         -1   -1    0    0    0  501 -0.00000000000E+00  0.00000000000E+00  0.15099403605E+03  0.15099403605E+03  0.00000000000E+00 0. -1.
          1   -1    0    0  502    0  0.00000000000E+00 -0.00000000000E+00 -0.26522226261E+03  0.26522226261E+03  0.00000000000E+00 0.  1.
          6    1    1    2  502    0  0.48615840985E+02  0.74271774522E+02 -0.79155934368E+01  0.19460589175E+03  0.17300000000E+03 0. -1.
         -6    1    1    2    0  501 -0.48615840985E+02 -0.74271774522E+02 -0.10631263313E+03  0.22161040690E+03  0.17300000000E+03 0.  1.
<mgrwt>
<rscale>  2 0.19444484E+03</rscale>
<asrwt>0</asrwt>
<pdfrwt beam="1">  1        1 0.40803425E-01 0.19444484E+03</pdfrwt>
<pdfrwt beam="2">  1       -1 0.23229852E-01 0.19444484E+03</pdfrwt>
<totfact> 0.15996678E+03</totfact>
</mgrwt>
</event>
<event>
 4    1  0.7368504E-001  0.2007658E+03  0.7546771E-02  0.1149095E+00
         -2   -1    0    0    0  501 -0.00000000000E+00  0.00000000000E+00  0.78007687865E+02  0.78007687865E+02  0.00000000000E+00 0. -1.
          2   -1    0    0  502    0  0.00000000000E+00 -0.00000000000E+00 -0.10004387376E+04  0.10004387376E+04  0.00000000000E+00 0.  1.
          6    1    1    2  502    0  0.72795823729E+02 -0.71264695490E+02 -0.86262430296E+02  0.21851337638E+03  0.17300000000E+03 0. -1.
         -6    1    1    2    0  501 -0.72795823729E+02  0.71264695490E+02 -0.83616861943E+03  0.85993304908E+03  0.17300000000E+03 0.  1.
<mgrwt>
<rscale>  2 0.20076576E+03</rscale>
<asrwt>0</asrwt>
<pdfrwt beam="1">  1        2 0.15391363E+00 0.20076576E+03</pdfrwt>
<pdfrwt beam="2">  1       -2 0.12001184E-01 0.20076576E+03</pdfrwt>
<totfact> 0.12989341E+03</totfact>
</mgrwt>
</event>
<event>
 4    1  0.7368504E-001  0.2806691E+03  0.7546771E-02  0.1095324E+00
          2   -1    0    0  502    0  0.00000000000E+00  0.00000000000E+00  0.47754997171E+03  0.47754997171E+03  0.00000000000E+00 0. -1.
         -2   -1    0    0    0  501 -0.00000000000E+00 -0.00000000000E+00 -0.17513009329E+03  0.17513009329E+03  0.00000000000E+00 0.  1.
          6    1    1    2  502    0  0.19783506902E+03  0.98526419233E+02  0.72556393936E+02  0.28989584357E+03  0.17300000000E+03 0.  1.
         -6    1    1    2    0  501 -0.19783506902E+03 -0.98526419233E+02  0.22986348448E+03  0.36278422143E+03  0.17300000000E+03 0.  1.
<mgrwt>
<rscale>  2 0.28066915E+03</rscale>
<asrwt>0</asrwt>
<pdfrwt beam="1">  1        2 0.73469226E-01 0.28066915E+03</pdfrwt>
<pdfrwt beam="2">  1       -2 0.26943091E-01 0.28066915E+03</pdfrwt>
<totfact> 0.81734886E+02</totfact>
</mgrwt>
</event>
<event>
 4    1  0.7368504E-001  0.1864063E+03  0.7546771E-02  0.1161743E+00
         -1   -1    0    0    0  501 -0.00000000000E+00  0.00000000000E+00  0.70398880752E+02  0.70398880752E+02  0.00000000000E+00 0.  1.
          1   -1    0    0  502    0  0.00000000000E+00 -0.00000000000E+00 -0.51915590180E+03  0.51915590180E+03  0.00000000000E+00 0. -1.
          6    1    1    2  502    0  0.30169163470E+02  0.62515024532E+02 -0.28980921493E+03  0.34458190286E+03  0.17300000000E+03 0.  1.
         -6    1    1    2    0  501 -0.30169163470E+02 -0.62515024532E+02 -0.15894780611E+03  0.24497287969E+03  0.17300000000E+03 0.  1.
<mgrwt>
<rscale>  2 0.18640629E+03</rscale>
<asrwt>0</asrwt>
<pdfrwt beam="1">  1        1 0.79870138E-01 0.18640629E+03</pdfrwt>
<pdfrwt beam="2">  1       -1 0.10830597E-01 0.18640629E+03</pdfrwt>
<totfact> 0.22846506E+03</totfact>
</mgrwt>
</event>
<event>
 4    1  0.7368504E-001  0.2074745E+03  0.7546771E-02  0.1143582E+00
         -2   -1    0    0    0  501 -0.00000000000E+00  0.00000000000E+00  0.44919617142E+03  0.44919617142E+03  0.00000000000E+00 0.  1.
          2   -1    0    0  502    0  0.00000000000E+00 -0.00000000000E+00 -0.11732339771E+03  0.11732339771E+03  0.00000000000E+00 0. -1.
          6    1    1    2  502    0 -0.87449599550E+02 -0.73954395401E+02  0.28718109027E+03  0.35428613249E+03  0.17300000000E+03 0. -1.
         -6    1    1    2    0  501  0.87449599550E+02  0.73954395401E+02  0.44691683430E+02  0.21223343664E+03  0.17300000000E+03 0. -1.
<mgrwt>
<rscale>  2 0.20747454E+03</rscale>
<asrwt>0</asrwt>
<pdfrwt beam="1">  1        2 0.18049754E-01 0.20747454E+03</pdfrwt>
<pdfrwt beam="2">  1       -2 0.69107102E-01 0.20747454E+03</pdfrwt>
<totfact> 0.61209420E+02</totfact>
</mgrwt>
</event>
<event>
 4    1  0.7368504E-001  0.1787009E+03  0.7546771E-02  0.1169066E+00
          1   -1    0    0  502    0  0.00000000000E+00  0.00000000000E+00  0.68085635630E+03  0.68085635630E+03  0.00000000000E+00 0.  1.
         -1   -1    0    0    0  501 -0.00000000000E+00 -0.00000000000E+00 -0.61283567888E+02  0.61283567888E+02  0.00000000000E+00 0. -1.
          6    1    1    2  502    0  0.44697276432E+02  0.26751247134E+01  0.13003333245E+03  0.22100377907E+03  0.17300000000E+03 0. -1.
         -6    1    1    2    0  501 -0.44697276432E+02 -0.26751247134E+01  0.48953945596E+03  0.52113614512E+03  0.17300000000E+03 0.  1.
<mgrwt>
<rscale>  2 0.17870088E+03</rscale>
<asrwt>0</asrwt>
<pdfrwt beam="1">  1        1 0.10474713E+00 0.17870088E+03</pdfrwt>
<pdfrwt beam="2">  1       -1 0.94282417E-02 0.17870088E+03</pdfrwt>
<totfact> 0.19460339E+03</totfact>
</mgrwt>
</event>
<event>
 4    1  0.7368504E-001  0.1896415E+03  0.7546771E-02  0.1158785E+00
          2   -1    0    0  502    0  0.00000000000E+00  0.00000000000E+00  0.48613176591E+02  0.48613176591E+02  0.00000000000E+00 0.  1.
         -2   -1    0    0    0  501 -0.00000000000E+00 -0.00000000000E+00 -0.13152216019E+04  0.13152216019E+04  0.00000000000E+00 0. -1.
          6    1    1    2  502    0 -0.12167031339E+02  0.76725951316E+02 -0.18225252786E+03  0.26302070673E+03  0.17300000000E+03 0.  1.
         -6    1    1    2    0  501  0.12167031339E+02 -0.76725951316E+02 -0.10843558975E+04  0.11008140718E+04  0.17300000000E+03 0. -1.
<mgrwt>
<rscale>  2 0.18964153E+03</rscale>
<asrwt>0</asrwt>
<pdfrwt beam="1">  1        2 0.74789512E-02 0.18964153E+03</pdfrwt>
<pdfrwt beam="2">  1       -2 0.20234176E+00 0.18964153E+03</pdfrwt>
<totfact> 0.12955033E+02</totfact>
</mgrwt>
</event>
<event>
 4    1  0.7368504E-001  0.1833946E+03  0.7546771E-02  0.1164558E+00
          2   -1    0    0  502    0  0.00000000000E+00  0.00000000000E+00  0.81125294343E+03  0.81125294343E+03  0.00000000000E+00 0.  1.
         -2   -1    0    0    0  501 -0.00000000000E+00 -0.00000000000E+00 -0.45106054377E+02  0.45106054377E+02  0.00000000000E+00 0. -1.
          6    1    1    2  502    0  0.52267888682E+02 -0.31187076543E+02  0.50482991074E+03  0.53710967661E+03  0.17300000000E+03 0.  1.
         -6    1    1    2    0  501 -0.52267888682E+02  0.31187076543E+02  0.26131697831E+03  0.31924932120E+03  0.17300000000E+03 0.  1.
<mgrwt>
<rscale>  2 0.18339456E+03</rscale>
<asrwt>0</asrwt>
<pdfrwt beam="1">  1        2 0.12480813E+00 0.18339456E+03</pdfrwt>
<pdfrwt beam="2">  1       -2 0.69393936E-02 0.18339456E+03</pdfrwt>
<totfact> 0.40580153E+03</totfact>
</mgrwt>
</event>
<event>
 4    1  0.7368504E-001  0.2457969E+03  0.7546771E-02  0.1115990E+00
          1   -1    0    0  502    0  0.00000000000E+00  0.00000000000E+00  0.10333546624E+03  0.10333546624E+03  0.00000000000E+00 0.  1.
         -1   -1    0    0    0  501 -0.00000000000E+00 -0.00000000000E+00 -0.60287854943E+03  0.60287854943E+03  0.00000000000E+00 0. -1.
          6    1    1    2  502    0 -0.13611777720E+02 -0.17407417171E+03 -0.18838825226E+03  0.30968731220E+03  0.17300000000E+03 0.  1.
         -6    1    1    2    0  501  0.13611777720E+02  0.17407417171E+03 -0.31115483093E+03  0.39652670347E+03  0.17300000000E+03 0. -1.
<mgrwt>
<rscale>  2 0.24579686E+03</rscale>
<asrwt>0</asrwt>
<pdfrwt beam="1">  1        1 0.15897764E-01 0.24579686E+03</pdfrwt>
<pdfrwt beam="2">  1       -1 0.92750546E-01 0.24579686E+03</pdfrwt>
<totfact> 0.41189066E+02</totfact>
</mgrwt>
</event>
<event>
 4    1  0.7368504E-001  0.3262538E+03  0.7546771E-02  0.1072807E+00
          4   -1    0    0  502    0  0.00000000000E+00  0.00000000000E+00  0.54109375563E+03  0.54109375563E+03  0.00000000000E+00 0. -1.
         -4   -1    0    0    0  501 -0.00000000000E+00 -0.00000000000E+00 -0.24258325452E+03  0.24258325452E+03  0.00000000000E+00 0.  1.
          6    1    1    2  502    0 -0.46578209641E+01 -0.27656975343E+03  0.31963990749E+03  0.45673974457E+03  0.17300000000E+03 0.  1.
         -6    1    1    2    0  501  0.46578209641E+01  0.27656975343E+03 -0.21129406381E+02  0.32693726558E+03  0.17300000000E+03 0.  1.
<mgrwt>
<rscale>  2 0.32625377E+03</rscale>
<asrwt>0</asrwt>
<pdfrwt beam="1">  1        4 0.83245193E-01 0.32625377E+03</pdfrwt>
<pdfrwt beam="2">  1       -4 0.37320501E-01 0.32625377E+03</pdfrwt>
<totfact> 0.16785846E+01</totfact>
</mgrwt>
</event>
<event>
 4    1  0.7368504E-001  0.2671350E+03  0.7546771E-02  0.1102931E+00
         -2   -1    0    0    0  501 -0.00000000000E+00  0.00000000000E+00  0.16142656564E+03  0.16142656564E+03  0.00000000000E+00 0.  1.
          2   -1    0    0  502    0  0.00000000000E+00 -0.00000000000E+00 -0.55804463170E+03  0.55804463170E+03  0.00000000000E+00 0. -1.
          6    1    1    2  502    0 -0.90264986288E+02 -0.18243995702E+03 -0.34310867745E+02  0.26932942898E+03  0.17300000000E+03 0.  1.
         -6    1    1    2    0  501  0.90264986288E+02  0.18243995702E+03 -0.36230719832E+03  0.45014176836E+03  0.17300000000E+03 0. -1.
<mgrwt>
<rscale>  2 0.26713500E+03</rscale>
<asrwt>0</asrwt>
<pdfrwt beam="1">  1        2 0.85853021E-01 0.26713500E+03</pdfrwt>
<pdfrwt beam="2">  1       -2 0.24834856E-01 0.26713500E+03</pdfrwt>
<totfact> 0.79214663E+02</totfact>
</mgrwt>
</event>
<event>
 4    1  0.7368504E-001  0.1917308E+03  0.7546771E-02  0.1156909E+00
          2   -1    0    0  502    0  0.00000000000E+00  0.00000000000E+00  0.14259550816E+04  0.14259550816E+04  0.00000000000E+00 0. -1.
         -2   -1    0    0    0  501 -0.00000000000E+00 -0.00000000000E+00 -0.26704722729E+02  0.26704722729E+02  0.00000000000E+00 0.  1.
          6    1    1    2  502    0 -0.18861452010E+02  0.80473228761E+02  0.56444408011E+03  0.59611896002E+03  0.17300000000E+03 0.  1.
         -6    1    1    2    0  501  0.18861452010E+02 -0.80473228761E+02  0.83480627877E+03  0.85654084432E+03  0.17300000000E+03 0. -1.
<mgrwt>
<rscale>  2 0.19173079E+03</rscale>
<asrwt>0</asrwt>
<pdfrwt beam="1">  1        2 0.21937765E+00 0.19173079E+03</pdfrwt>
<pdfrwt beam="2">  1       -2 0.41084200E-02 0.19173079E+03</pdfrwt>
<totfact> 0.39297347E+03</totfact>
</mgrwt>
</event>
<event>
 4    1  0.7368504E-001  0.1795652E+03  0.7546771E-02  0.1168225E+00
          2   -1    0    0  502    0  0.00000000000E+00  0.00000000000E+00  0.17235526018E+03  0.17235526018E+03  0.00000000000E+00 0.  1.
         -2   -1    0    0    0  501 -0.00000000000E+00 -0.00000000000E+00 -0.35399332260E+03  0.35399332260E+03  0.00000000000E+00 0. -1.
          6    1    1    2  502    0 -0.13906625170E+02 -0.46057040311E+02 -0.27153468898E+03  0.32553760536E+03  0.17300000000E+03 0. -1.
         -6    1    1    2    0  501  0.13906625170E+02  0.46057040311E+02  0.89896626551E+02  0.20081097742E+03  0.17300000000E+03 0.  1.
<mgrwt>
<rscale>  2 0.17956516E+03</rscale>
<asrwt>0</asrwt>
<pdfrwt beam="1">  1        2 0.26516194E-01 0.17956516E+03</pdfrwt>
<pdfrwt beam="2">  1       -2 0.54460510E-01 0.17956516E+03</pdfrwt>
<totfact> 0.64835106E+02</totfact>
</mgrwt>
</event>
<event>
 4    1  0.7368504E-001  0.2099952E+03  0.7546771E-02  0.1141570E+00
         -1   -1    0    0    0  501 -0.00000000000E+00  0.00000000000E+00  0.99093728405E+03  0.99093728405E+03  0.00000000000E+00 0. -1.
          1   -1    0    0  502    0  0.00000000000E+00 -0.00000000000E+00 -0.52569874168E+02  0.52569874168E+02  0.00000000000E+00 0.  1.
          6    1    1    2  502    0  0.67056924705E+02 -0.98348178200E+02  0.67359054366E+03  0.70556517475E+03  0.17300000000E+03 0. -1.
         -6    1    1    2    0  501 -0.67056924705E+02  0.98348178200E+02  0.26477686622E+03  0.33794198347E+03  0.17300000000E+03 0.  1.
<mgrwt>
<rscale>  2 0.20999523E+03</rscale>
<asrwt>0</asrwt>
<pdfrwt beam="1">  1        1 0.80876737E-02 0.20999523E+03</pdfrwt>
<pdfrwt beam="2">  1       -1 0.15245188E+00 0.20999523E+03</pdfrwt>
<totfact> 0.31116050E+02</totfact>
</mgrwt>
</event>
<event>
 4    1  0.7368504E-001  0.1733679E+03  0.7546771E-02  0.1174380E+00
         -1   -1    0    0    0  501 -0.00000000000E+00  0.00000000000E+00  0.26408905216E+03  0.26408905216E+03  0.00000000000E+00 0. -1.
          1   -1    0    0  502    0  0.00000000000E+00 -0.00000000000E+00 -0.11454337640E+03  0.11454337640E+03  0.00000000000E+00 0.  1.
          6    1    1    2  502    0 -0.57055769942E+01  0.97408189750E+01  0.89903137365E+02  0.19529211779E+03  0.17300000000E+03 0. -1.
         -6    1    1    2    0  501  0.57055769942E+01 -0.97408189750E+01  0.59642538395E+02  0.18334031076E+03  0.17300000000E+03 0.  1.
<mgrwt>
<rscale>  2 0.17336792E+03</rscale>
<asrwt>0</asrwt>
<pdfrwt beam="1">  1        1 0.17622058E-01 0.17336792E+03</pdfrwt>
<pdfrwt beam="2">  1       -1 0.40629085E-01 0.17336792E+03</pdfrwt>
<totfact> 0.17814247E+03</totfact>
</mgrwt>
</event>
<event>
 4    1  0.7368504E-001  0.1770519E+03  0.7546771E-02  0.1170687E+00
         -2   -1    0    0    0  501 -0.00000000000E+00  0.00000000000E+00  0.78754396607E+02  0.78754396607E+02  0.00000000000E+00 0.  1.
          2   -1    0    0  502    0  0.00000000000E+00 -0.00000000000E+00 -0.10042907944E+04  0.10042907944E+04  0.00000000000E+00 0. -1.
          6    1    1    2  502    0 -0.30019012731E+02 -0.22742995212E+02 -0.42028908055E+02  0.18197201452E+03  0.17300000000E+03 0.  1.
         -6    1    1    2    0  501  0.30019012731E+02  0.22742995212E+02 -0.88350748970E+03  0.90107317644E+03  0.17300000000E+03 0. -1.
<mgrwt>
<rscale>  2 0.17705193E+03</rscale>
<asrwt>0</asrwt>
<pdfrwt beam="1">  1        2 0.15450627E+00 0.17705193E+03</pdfrwt>
<pdfrwt beam="2">  1       -2 0.12116061E-01 0.17705193E+03</pdfrwt>
<totfact> 0.12723587E+03</totfact>
</mgrwt>
</event>
<event>
 4    1  0.7368504E-001  0.1937738E+03  0.7546771E-02  0.1155101E+00
          1   -1    0    0  502    0  0.00000000000E+00  0.00000000000E+00  0.13648990036E+04  0.13648990036E+04  0.00000000000E+00 0.  1.
         -1   -1    0    0    0  501 -0.00000000000E+00 -0.00000000000E+00 -0.29082636209E+02  0.29082636209E+02  0.00000000000E+00 0. -1.
          6    1    1    2  502    0 -0.86238512588E+02 -0.13498499988E+02  0.50582703515E+03  0.54167266873E+03  0.17300000000E+03 0. -1.
         -6    1    1    2    0  501  0.86238512588E+02  0.13498499988E+02  0.82998933219E+03  0.85230897104E+03  0.17300000000E+03 0. -1.
<mgrwt>
<rscale>  2 0.19377381E+03</rscale>
<asrwt>0</asrwt>
<pdfrwt beam="1">  1        1 0.20998441E+00 0.19377381E+03</pdfrwt>
<pdfrwt beam="2">  1       -1 0.44742528E-02 0.19377381E+03</pdfrwt>
<totfact> 0.18335241E+03</totfact>
</mgrwt>
</event>
<event>
 4    1  0.7368504E-001  0.2130069E+03  0.7546771E-02  0.1139207E+00
          2   -1    0    0  502    0  0.00000000000E+00  0.00000000000E+00  0.15273759733E+04  0.15273759733E+04  0.00000000000E+00 0. -1.
         -2   -1    0    0    0  501 -0.00000000000E+00 -0.00000000000E+00 -0.40616102907E+02  0.40616102907E+02  0.00000000000E+00 0.  1.
          6    1    1    2  502    0 -0.11883224810E+03  0.36357255254E+02  0.33704629230E+03  0.39871312538E+03  0.17300000000E+03 0. -1.
         -6    1    1    2    0  501  0.11883224810E+03 -0.36357255254E+02  0.11497135781E+04  0.11692789509E+04  0.17300000000E+03 0.  1.
<mgrwt>
<rscale>  2 0.21300693E+03</rscale>
<asrwt>0</asrwt>
<pdfrwt beam="1">  1        2 0.23498087E+00 0.21300693E+03</pdfrwt>
<pdfrwt beam="2">  1       -2 0.62486324E-02 0.21300693E+03</pdfrwt>
<totfact> 0.18376876E+03</totfact>
</mgrwt>
</event>
<event>
 4    1  0.7368504E-001  0.2014257E+03  0.7546771E-02  0.1148542E+00
          1   -1    0    0  502    0  0.00000000000E+00  0.00000000000E+00  0.10449049749E+04  0.10449049749E+04  0.00000000000E+00 0.  1.
         -1   -1    0    0    0  501 -0.00000000000E+00 -0.00000000000E+00 -0.41236855368E+02  0.41236855368E+02  0.00000000000E+00 0. -1.
          6    1    1    2  502    0  0.97026599006E+02  0.35059471348E+02  0.63307030988E+03  0.66434203894E+03  0.17300000000E+03 0. -1.
         -6    1    1    2    0  501 -0.97026599006E+02 -0.35059471348E+02  0.37059780962E+03  0.42179979130E+03  0.17300000000E+03 0. -1.
<mgrwt>
<rscale>  2 0.20142574E+03</rscale>
<asrwt>0</asrwt>
<pdfrwt beam="1">  1        1 0.16075459E+00 0.20142574E+03</pdfrwt>
<pdfrwt beam="2">  1       -1 0.63441324E-02 0.20142574E+03</pdfrwt>
<totfact> 0.18142693E+03</totfact>
</mgrwt>
</event>
<event>
 4    1  0.7368504E-001  0.2045657E+03  0.7546771E-02  0.1145943E+00
         -2   -1    0    0    0  501 -0.00000000000E+00  0.00000000000E+00  0.15067317018E+03  0.15067317018E+03  0.00000000000E+00 0. -1.
          2   -1    0    0  502    0  0.00000000000E+00 -0.00000000000E+00 -0.27843182445E+03  0.27843182445E+03  0.00000000000E+00 0.  1.
          6    1    1    2  502    0 -0.13690311607E+02 -0.10830842016E+03 -0.74616493260E+02  0.21774930442E+03  0.17300000000E+03 0.  1.
         -6    1    1    2    0  501  0.13690311607E+02  0.10830842016E+03 -0.53142161010E+02  0.21135569021E+03  0.17300000000E+03 0.  1.
<mgrwt>
<rscale>  2 0.20456573E+03</rscale>
<asrwt>0</asrwt>
<pdfrwt beam="1">  1        2 0.42835664E-01 0.20456573E+03</pdfrwt>
<pdfrwt beam="2">  1       -2 0.23180488E-01 0.20456573E+03</pdfrwt>
<totfact> 0.19083410E+03</totfact>
</mgrwt>
</event>
<event>
 4    1  0.7368504E-001  0.1923860E+03  0.7546771E-02  0.1156327E+00
         -1   -1    0    0    0  501 -0.00000000000E+00  0.00000000000E+00  0.21228028465E+03  0.21228028465E+03  0.00000000000E+00 0.  1.
          1   -1    0    0  502    0  0.00000000000E+00 -0.00000000000E+00 -0.18625260594E+03  0.18625260594E+03  0.00000000000E+00 0. -1.
          6    1    1    2  502    0 -0.13093170372E+02 -0.83138052053E+02 -0.37346928154E+02  0.19597744730E+03  0.17300000000E+03 0. -1.
         -6    1    1    2    0  501  0.13093170372E+02  0.83138052053E+02  0.63374606866E+02  0.20255544329E+03  0.17300000000E+03 0.  1.
<mgrwt>
<rscale>  2 0.19238598E+03</rscale>
<asrwt>0</asrwt>
<pdfrwt beam="1">  1        1 0.28654247E-01 0.19238598E+03</pdfrwt>
<pdfrwt beam="2">  1       -1 0.32658505E-01 0.19238598E+03</pdfrwt>
<totfact> 0.14063791E+03</totfact>
</mgrwt>
</event>
<event>
 4    1  0.7368504E-001  0.1781730E+03  0.7546771E-02  0.1169583E+00
         -1   -1    0    0    0  501 -0.00000000000E+00  0.00000000000E+00  0.19740638077E+03  0.19740638077E+03  0.00000000000E+00 0. -1.
          1   -1    0    0  502    0  0.00000000000E+00 -0.00000000000E+00 -0.59824513378E+03  0.59824513378E+03  0.00000000000E+00 0.  1.
          6    1    1    2  502    0  0.41301445110E+02  0.10526529754E+02  0.13976031944E+03  0.22644770718E+03  0.17300000000E+03 0. -1.
         -6    1    1    2    0  501 -0.41301445110E+02 -0.10526529754E+02 -0.54059907244E+03  0.56920380737E+03  0.17300000000E+03 0.  1.
<mgrwt>
<rscale>  2 0.17817300E+03</rscale>
<asrwt>0</asrwt>
<pdfrwt beam="1">  1        1 0.92037713E-01 0.17817300E+03</pdfrwt>
<pdfrwt beam="2">  1       -1 0.30370212E-01 0.17817300E+03</pdfrwt>
<totfact> 0.35920776E+02</totfact>
</mgrwt>
</event>
<event>
 4    1  0.7368504E-001  0.1858078E+03  0.7546771E-02  0.1162298E+00
         -2   -1    0    0    0  501 -0.00000000000E+00  0.00000000000E+00  0.52917815621E+02  0.52917815621E+02  0.00000000000E+00 0. -1.
          2   -1    0    0  502    0  0.00000000000E+00 -0.00000000000E+00 -0.84095621017E+03  0.84095621017E+03  0.00000000000E+00 0.  1.
          6    1    1    2  502    0  0.43824935488E+02 -0.51719701480E+02 -0.60564028860E+03  0.63350194291E+03  0.17300000000E+03 0.  1.
         -6    1    1    2    0  501 -0.43824935488E+02  0.51719701480E+02 -0.18239810595E+03  0.26037208288E+03  0.17300000000E+03 0. -1.
<mgrwt>
<rscale>  2 0.18580784E+03</rscale>
<asrwt>0</asrwt>
<pdfrwt beam="1">  1        2 0.12937789E+00 0.18580784E+03</pdfrwt>
<pdfrwt beam="2">  1       -2 0.81412018E-02 0.18580784E+03</pdfrwt>
<totfact> 0.30274942E+03</totfact>
</mgrwt>
</event>
<event>
 4    1  0.7368504E-001  0.2016919E+03  0.7546771E-02  0.1148319E+00
         -2   -1    0    0    0  501 -0.00000000000E+00  0.00000000000E+00  0.12580996974E+03  0.12580996974E+03  0.00000000000E+00 0.  1.
          2   -1    0    0  502    0  0.00000000000E+00 -0.00000000000E+00 -0.32515554443E+03  0.32515554443E+03  0.00000000000E+00 0. -1.
          6    1    1    2  502    0  0.55490522000E+02  0.87586604582E+02 -0.82831859341E+02  0.21803836418E+03  0.17300000000E+03 0.  1.
         -6    1    1    2    0  501 -0.55490522000E+02 -0.87586604582E+02 -0.11651371535E+03  0.23292714998E+03  0.17300000000E+03 0. -1.
<mgrwt>
<rscale>  2 0.20169187E+03</rscale>
<asrwt>0</asrwt>
<pdfrwt beam="1">  1        2 0.50023929E-01 0.20169187E+03</pdfrwt>
<pdfrwt beam="2">  1       -2 0.19355380E-01 0.20169187E+03</pdfrwt>
<totfact> 0.22025595E+03</totfact>
</mgrwt>
</event>
<event>
 4    1  0.7368504E-001  0.2002364E+03  0.7546771E-02  0.1149540E+00
          4   -1    0    0  502    0  0.00000000000E+00  0.00000000000E+00  0.39041996233E+03  0.39041996233E+03  0.00000000000E+00 0. -1.
         -4   -1    0    0    0  501 -0.00000000000E+00 -0.00000000000E+00 -0.17016499039E+03  0.17016499039E+03  0.00000000000E+00 0.  1.
          6    1    1    2  502    0 -0.97827766409E+02  0.24399376411E+02  0.28662076321E+03  0.34963704517E+03  0.17300000000E+03 0. -1.
         -6    1    1    2    0  501  0.97827766409E+02 -0.24399376411E+02 -0.66365791278E+02  0.21094790755E+03  0.17300000000E+03 0.  1.
<mgrwt>
<rscale>  2 0.20023636E+03</rscale>
<asrwt>0</asrwt>
<pdfrwt beam="1">  1        4 0.60064610E-01 0.20023636E+03</pdfrwt>
<pdfrwt beam="2">  1       -4 0.26179229E-01 0.20023636E+03</pdfrwt>
<totfact> 0.64654413E+01</totfact>
</mgrwt>
</event>
<event>
 4    1  0.7368504E-001  0.1825461E+03  0.7546771E-02  0.1165361E+00
         -2   -1    0    0    0  501 -0.00000000000E+00  0.00000000000E+00  0.28821590878E+03  0.28821590878E+03  0.00000000000E+00 0.  1.
          2   -1    0    0  502    0  0.00000000000E+00 -0.00000000000E+00 -0.33463353652E+03  0.33463353652E+03  0.00000000000E+00 0. -1.
          6    1    1    2  502    0 -0.12889604754E+02 -0.56814840526E+02 -0.27515361446E+03  0.33020081702E+03  0.17300000000E+03 0. -1.
         -6    1    1    2    0  501  0.12889604754E+02  0.56814840526E+02  0.22873598671E+03  0.29264862827E+03  0.17300000000E+03 0.  1.
<mgrwt>
<rscale>  2 0.18254607E+03</rscale>
<asrwt>0</asrwt>
<pdfrwt beam="1">  1        2 0.51482083E-01 0.18254607E+03</pdfrwt>
<pdfrwt beam="2">  1       -2 0.44340909E-01 0.18254607E+03</pdfrwt>
<totfact> 0.47585420E+02</totfact>
</mgrwt>
</event>
<event>
 4    1  0.7368504E-001  0.2433705E+03  0.7546771E-02  0.1117568E+00
          2   -1    0    0  502    0  0.00000000000E+00  0.00000000000E+00  0.48262420155E+03  0.48262420155E+03  0.00000000000E+00 0. -1.
         -2   -1    0    0    0  501 -0.00000000000E+00 -0.00000000000E+00 -0.24047611697E+03  0.24047611697E+03  0.00000000000E+00 0.  1.
          6    1    1    2  502    0 -0.15331241436E+03  0.76128293733E+02  0.37407275735E+03  0.44627305687E+03  0.17300000000E+03 0. -1.
         -6    1    1    2    0  501  0.15331241436E+03 -0.76128293733E+02 -0.13192467277E+03  0.27682726164E+03  0.17300000000E+03 0. -1.
<mgrwt>
<rscale>  2 0.24337053E+03</rscale>
<asrwt>0</asrwt>
<pdfrwt beam="1">  1        2 0.74249877E-01 0.24337053E+03</pdfrwt>
<pdfrwt beam="2">  1       -2 0.36996326E-01 0.24337053E+03</pdfrwt>
<totfact> 0.45118175E+02</totfact>
</mgrwt>
</event>
<event>
 4    1  0.7368504E-001  0.2131090E+03  0.7546771E-02  0.1139127E+00
         -2   -1    0    0    0  501 -0.00000000000E+00  0.00000000000E+00  0.20423071841E+02  0.20423071841E+02  0.00000000000E+00 0. -1.
          2   -1    0    0  502    0  0.00000000000E+00 -0.00000000000E+00 -0.22665828009E+04  0.22665828009E+04  0.00000000000E+00 0.  1.
          6    1    1    2  502    0 -0.46276989936E+02 -0.11552013952E+03 -0.96585363647E+03  0.98908478378E+03  0.17300000000E+03 0.  1.
         -6    1    1    2    0  501  0.46276989936E+02  0.11552013952E+03 -0.12803060925E+04  0.12979210889E+04  0.17300000000E+03 0. -1.
<mgrwt>
<rscale>  2 0.21310904E+03</rscale>
<asrwt>0</asrwt>
<pdfrwt beam="1">  1        2 0.34870515E+00 0.21310904E+03</pdfrwt>
<pdfrwt beam="2">  1       -2 0.31420102E-02 0.21310904E+03</pdfrwt>
<totfact> 0.21291970E+03</totfact>
</mgrwt>
</event>
<event>
 4    1  0.7368504E-001  0.2043512E+03  0.7546771E-02  0.1146119E+00
         -2   -1    0    0    0  501 -0.00000000000E+00  0.00000000000E+00  0.14672510226E+03  0.14672510226E+03  0.00000000000E+00 0. -1.
          2   -1    0    0  502    0  0.00000000000E+00 -0.00000000000E+00 -0.29599879434E+03  0.29599879434E+03  0.00000000000E+00 0.  1.
          6    1    1    2  502    0  0.77990962766E+02 -0.75814495908E+02 -0.31216098043E+02  0.20672172803E+03  0.17300000000E+03 0. -1.
         -6    1    1    2    0  501 -0.77990962766E+02  0.75814495908E+02 -0.11805759403E+03  0.23600216857E+03  0.17300000000E+03 0.  1.
<mgrwt>
<rscale>  2 0.20435124E+03</rscale>
<asrwt>0</asrwt>
<pdfrwt beam="1">  1        2 0.45538276E-01 0.20435124E+03</pdfrwt>
<pdfrwt beam="2">  1       -2 0.22573093E-01 0.20435124E+03</pdfrwt>
<totfact> 0.18714255E+03</totfact>
</mgrwt>
</event>
<event>
 4    1  0.7368504E-001  0.1741923E+03  0.7546771E-02  0.1173545E+00
          3   -1    0    0  502    0  0.00000000000E+00  0.00000000000E+00  0.98605577869E+02  0.98605577869E+02  0.00000000000E+00 0. -1.
         -3   -1    0    0    0  501 -0.00000000000E+00 -0.00000000000E+00 -0.31597368521E+03  0.31597368521E+03  0.00000000000E+00 0.  1.
          6    1    1    2  502    0 -0.63510345463E+01 -0.19329494502E+02 -0.14218530099E+03  0.22485467488E+03  0.17300000000E+03 0.  1.
         -6    1    1    2    0  501  0.63510345463E+01  0.19329494502E+02 -0.75182806358E+02  0.18972458820E+03  0.17300000000E+03 0. -1.
<mgrwt>
<rscale>  2 0.17419232E+03</rscale>
<asrwt>0</asrwt>
<pdfrwt beam="1">  1        3 0.15170089E-01 0.17419232E+03</pdfrwt>
<pdfrwt beam="2">  1       -3 0.48611336E-01 0.17419232E+03</pdfrwt>
<totfact> 0.36963841E+02</totfact>
</mgrwt>
</event>
<event>
 4    1  0.7368504E-001  0.2085436E+03  0.7546771E-02  0.1142725E+00
         -2   -1    0    0    0  501 -0.00000000000E+00  0.00000000000E+00  0.38083950674E+02  0.38083950674E+02  0.00000000000E+00 0.  1.
          2   -1    0    0  502    0  0.00000000000E+00 -0.00000000000E+00 -0.11419743185E+04  0.11419743185E+04  0.00000000000E+00 0. -1.
          6    1    1    2  502    0 -0.66095061386E+01  0.11626584356E+03 -0.55386755679E+03  0.59182742621E+03  0.17300000000E+03 0.  1.
         -6    1    1    2    0  501  0.66095061386E+01 -0.11626584356E+03 -0.55002281099E+03  0.58823084291E+03  0.17300000000E+03 0.  1.
<mgrwt>
<rscale>  2 0.20854360E+03</rscale>
<asrwt>0</asrwt>
<pdfrwt beam="1">  1        2 0.17568833E+00 0.20854360E+03</pdfrwt>
<pdfrwt beam="2">  1       -2 0.58590703E-02 0.20854360E+03</pdfrwt>
<totfact> 0.32970638E+03</totfact>
</mgrwt>
</event>
<event>
 4    1  0.7368504E-001  0.1794938E+03  0.7546771E-02  0.1168294E+00
          2   -1    0    0  502    0  0.00000000000E+00  0.00000000000E+00  0.83111088654E+03  0.83111088654E+03  0.00000000000E+00 0.  1.
         -2   -1    0    0    0  501 -0.00000000000E+00 -0.00000000000E+00 -0.38810927495E+02  0.38810927495E+02  0.00000000000E+00 0. -1.
          6    1    1    2  502    0  0.47827761783E+02  0.12405701556E+01  0.41110868842E+03  0.44858487213E+03  0.17300000000E+03 0. -1.
         -6    1    1    2    0  501 -0.47827761783E+02 -0.12405701556E+01  0.38119127063E+03  0.42133694190E+03  0.17300000000E+03 0.  1.
<mgrwt>
<rscale>  2 0.17949383E+03</rscale>
<asrwt>0</asrwt>
<pdfrwt beam="1">  1        2 0.12786320E+00 0.17949383E+03</pdfrwt>
<pdfrwt beam="2">  1       -2 0.59709125E-02 0.17949383E+03</pdfrwt>
<totfact> 0.49515367E+03</totfact>
</mgrwt>
</event>
<event>
 4    1  0.7368504E-001  0.1737351E+03  0.7546771E-02  0.1174008E+00
         -1   -1    0    0    0  501 -0.00000000000E+00  0.00000000000E+00  0.76696800016E+02  0.76696800016E+02  0.00000000000E+00 0. -1.
          1   -1    0    0  502    0  0.00000000000E+00 -0.00000000000E+00 -0.40122444324E+03  0.40122444324E+03  0.00000000000E+00 0.  1.
          6    1    1    2  502    0 -0.15009718525E+02 -0.54389441652E+01 -0.19531691510E+03  0.26140499438E+03  0.17300000000E+03 0.  1.
         -6    1    1    2    0  501  0.15009718525E+02  0.54389441652E+01 -0.12921072812E+03  0.21651624887E+03  0.17300000000E+03 0.  1.
<mgrwt>
<rscale>  2 0.17373507E+03</rscale>
<asrwt>0</asrwt>
<pdfrwt beam="1">  1        1 0.61726839E-01 0.17373507E+03</pdfrwt>
<pdfrwt beam="2">  1       -1 0.11799507E-01 0.17373507E+03</pdfrwt>
<totfact> 0.27889401E+03</totfact>
</mgrwt>
</event>
<event>
 4    1  0.7368504E-001  0.3277400E+03  0.7546771E-02  0.1072141E+00
         -4   -1    0    0    0  501 -0.00000000000E+00  0.00000000000E+00  0.12921595096E+03  0.12921595096E+03  0.00000000000E+00 0.  1.
          4   -1    0    0  502    0  0.00000000000E+00 -0.00000000000E+00 -0.84397590112E+03  0.84397590112E+03  0.00000000000E+00 0. -1.
          6    1    1    2  502    0  0.13696188404E+03 -0.24233437610E+03 -0.41708137208E+03  0.53044356764E+03  0.17300000000E+03 0. -1.
         -6    1    1    2    0  501 -0.13696188404E+03  0.24233437610E+03 -0.29767857808E+03  0.44274828443E+03  0.17300000000E+03 0.  1.
<mgrwt>
<rscale>  2 0.32774000E+03</rscale>
<asrwt>0</asrwt>
<pdfrwt beam="1">  1        4 0.12984245E+00 0.32774000E+03</pdfrwt>
<pdfrwt beam="2">  1       -4 0.19879376E-01 0.32774000E+03</pdfrwt>
<totfact> 0.19293285E+01</totfact>
</mgrwt>
</event>
<event>
 4    1  0.7368504E-001  0.2082317E+03  0.7546771E-02  0.1142974E+00
         -1   -1    0    0    0  501 -0.00000000000E+00  0.00000000000E+00  0.12819598630E+03  0.12819598630E+03  0.00000000000E+00 0.  1.
          1   -1    0    0  502    0  0.00000000000E+00 -0.00000000000E+00 -0.36866418523E+03  0.36866418523E+03  0.00000000000E+00 0. -1.
          6    1    1    2  502    0 -0.92925841710E+02  0.69254867291E+02 -0.48861837019E+02  0.21388765233E+03  0.17300000000E+03 0.  1.
         -6    1    1    2    0  501  0.92925841710E+02 -0.69254867291E+02 -0.19160636191E+03  0.28297251920E+03  0.17300000000E+03 0. -1.
<mgrwt>
<rscale>  2 0.20823172E+03</rscale>
<asrwt>0</asrwt>
<pdfrwt beam="1">  1        1 0.56717567E-01 0.20823172E+03</pdfrwt>
<pdfrwt beam="2">  1       -1 0.19722459E-01 0.20823172E+03</pdfrwt>
<totfact> 0.13832720E+03</totfact>
</mgrwt>
</event>
<event>
 4    1  0.7368504E-001  0.1747100E+03  0.7546771E-02  0.1173023E+00
          2   -1    0    0  502    0  0.00000000000E+00  0.00000000000E+00  0.10066444190E+04  0.10066444190E+04  0.00000000000E+00 0.  1.
         -2   -1    0    0    0  501 -0.00000000000E+00 -0.00000000000E+00 -0.39832130367E+02  0.39832130367E+02  0.00000000000E+00 0. -1.
          6    1    1    2  502    0  0.23713166335E+02  0.56805533239E+01  0.73907242753E+03  0.75944166075E+03  0.17300000000E+03 0.  1.
         -6    1    1    2    0  501 -0.23713166335E+02 -0.56805533239E+01  0.22773986105E+03  0.28703488857E+03  0.17300000000E+03 0. -1.
<mgrwt>
<rscale>  2 0.17471000E+03</rscale>
<asrwt>0</asrwt>
<pdfrwt beam="1">  1        2 0.15486835E+00 0.17471000E+03</pdfrwt>
<pdfrwt beam="2">  1       -2 0.61280208E-02 0.17471000E+03</pdfrwt>
<totfact> 0.36831105E+03</totfact>
</mgrwt>
</event>
<event>
 4    1  0.7368504E-001  0.2930827E+03  0.7546771E-02  0.1088751E+00
         -1   -1    0    0    0  501 -0.00000000000E+00  0.00000000000E+00  0.12701131357E+03  0.12701131357E+03  0.00000000000E+00 0. -1.
          1   -1    0    0  502    0  0.00000000000E+00 -0.00000000000E+00 -0.82731638181E+03  0.82731638181E+03  0.00000000000E+00 0.  1.
          6    1    1    2  502    0 -0.17680334811E+03  0.15719111383E+03 -0.14628553332E+03  0.32756209705E+03  0.17300000000E+03 0.  1.
         -6    1    1    2    0  501  0.17680334811E+03 -0.15719111383E+03 -0.55401953492E+03  0.62676559832E+03  0.17300000000E+03 0.  1.
<mgrwt>
<rscale>  2 0.29308270E+03</rscale>
<asrwt>0</asrwt>
<pdfrwt beam="1">  1        1 0.12727944E+00 0.29308270E+03</pdfrwt>
<pdfrwt beam="2">  1       -1 0.19540203E-01 0.29308270E+03</pdfrwt>
<totfact> 0.45975670E+02</totfact>
</mgrwt>
</event>
<event>
 4    1  0.7368504E-001  0.1818985E+03  0.7546771E-02  0.1165978E+00
          2   -1    0    0  502    0  0.00000000000E+00  0.00000000000E+00  0.32793456174E+03  0.32793456174E+03  0.00000000000E+00 0. -1.
         -2   -1    0    0    0  501 -0.00000000000E+00 -0.00000000000E+00 -0.11950008982E+03  0.11950008982E+03  0.00000000000E+00 0.  1.
          6    1    1    2  502    0  0.47544480565E+02  0.29959670228E+02  0.19249021095E+03  0.26483870711E+03  0.17300000000E+03 0. -1.
         -6    1    1    2    0  501 -0.47544480565E+02 -0.29959670228E+02  0.15944260979E+02  0.18259594445E+03  0.17300000000E+03 0. -1.
<mgrwt>
<rscale>  2 0.18189849E+03</rscale>
<asrwt>0</asrwt>
<pdfrwt beam="1">  1        2 0.50451471E-01 0.18189849E+03</pdfrwt>
<pdfrwt beam="2">  1       -2 0.18384629E-01 0.18189849E+03</pdfrwt>
<totfact> 0.23732040E+03</totfact>
</mgrwt>
</event>
<event>
 4    1  0.7368504E-001  0.1948039E+03  0.7546771E-02  0.1154199E+00
         -1   -1    0    0    0  501 -0.00000000000E+00  0.00000000000E+00  0.24270317302E+03  0.24270317302E+03  0.00000000000E+00 0.  1.
          1   -1    0    0  502    0  0.00000000000E+00 -0.00000000000E+00 -0.15961739784E+03  0.15961739784E+03  0.00000000000E+00 0. -1.
          6    1    1    2  502    0  0.87707105852E+02  0.18083352726E+02  0.70289152881E+02  0.20709685916E+03  0.17300000000E+03 0.  1.
         -6    1    1    2    0  501 -0.87707105852E+02 -0.18083352726E+02  0.12796622300E+02  0.19522371169E+03  0.17300000000E+03 0. -1.
<mgrwt>
<rscale>  2 0.19480386E+03</rscale>
<asrwt>0</asrwt>
<pdfrwt beam="1">  1        1 0.24556523E-01 0.19480386E+03</pdfrwt>
<pdfrwt beam="2">  1       -1 0.37338950E-01 0.19480386E+03</pdfrwt>
<totfact> 0.13560733E+03</totfact>
</mgrwt>
</event>
<event>
 4    1  0.7368504E-001  0.2868778E+03  0.7546771E-02  0.1091991E+00
          2   -1    0    0  502    0  0.00000000000E+00  0.00000000000E+00  0.16873866945E+03  0.16873866945E+03  0.00000000000E+00 0. -1.
         -2   -1    0    0    0  501 -0.00000000000E+00 -0.00000000000E+00 -0.57936028626E+03  0.57936028626E+03  0.00000000000E+00 0.  1.
          6    1    1    2  502    0  0.61232644895E+01 -0.22876272535E+03 -0.35406686879E+03  0.45569971083E+03  0.17300000000E+03 0.  1.
         -6    1    1    2    0  501 -0.61232644895E+01  0.22876272535E+03 -0.56554748026E+02  0.29239924488E+03  0.17300000000E+03 0. -1.
<mgrwt>
<rscale>  2 0.28687781E+03</rscale>
<asrwt>0</asrwt>
<pdfrwt beam="1">  1        2 0.25959796E-01 0.28687781E+03</pdfrwt>
<pdfrwt beam="2">  1       -2 0.89132349E-01 0.28687781E+03</pdfrwt>
<totfact> 0.23141385E+02</totfact>
</mgrwt>
</event>
<event>
 4    1  0.7368504E-001  0.2163142E+03  0.7546771E-02  0.1136661E+00
         -2   -1    0    0    0  501 -0.00000000000E+00  0.00000000000E+00  0.32599765744E+03  0.32599765744E+03  0.00000000000E+00 0.  1.
          2   -1    0    0  502    0  0.00000000000E+00 -0.00000000000E+00 -0.39715411105E+03  0.39715411105E+03  0.00000000000E+00 0. -1.
          6    1    1    2  502    0  0.14155123782E+02  0.12908320727E+03 -0.32452079103E+03  0.39000716114E+03  0.17300000000E+03 0. -1.
         -6    1    1    2    0  501 -0.14155123782E+02 -0.12908320727E+03  0.25336433742E+03  0.33314460735E+03  0.17300000000E+03 0.  1.
<mgrwt>
<rscale>  2 0.21631422E+03</rscale>
<asrwt>0</asrwt>
<pdfrwt beam="1">  1        2 0.61100633E-01 0.21631422E+03</pdfrwt>
<pdfrwt beam="2">  1       -2 0.50153486E-01 0.21631422E+03</pdfrwt>
<totfact> 0.31016442E+02</totfact>
</mgrwt>
</event>
<event>
 4    1  0.7368504E-001  0.1817069E+03  0.7546771E-02  0.1166161E+00
          1   -1    0    0  502    0  0.00000000000E+00  0.00000000000E+00  0.76039430820E+03  0.76039430820E+03  0.00000000000E+00 0. -1.
         -1   -1    0    0    0  501 -0.00000000000E+00 -0.00000000000E+00 -0.44042897817E+02  0.44042897817E+02  0.00000000000E+00 0.  1.
          6    1    1    2  502    0  0.23274136694E+02 -0.50464844386E+02  0.40595544323E+03  0.44476646439E+03  0.17300000000E+03 0. -1.
         -6    1    1    2    0  501 -0.23274136694E+02  0.50464844386E+02  0.31039596716E+03  0.35967074163E+03  0.17300000000E+03 0.  1.
<mgrwt>
<rscale>  2 0.18170687E+03</rscale>
<asrwt>0</asrwt>
<pdfrwt beam="1">  1        1 0.11698373E+00 0.18170687E+03</pdfrwt>
<pdfrwt beam="2">  1       -1 0.67758310E-02 0.18170687E+03</pdfrwt>
<totfact> 0.27370562E+03</totfact>
</mgrwt>
</event>
<event>
 4    1  0.7368504E-001  0.1874395E+03  0.7546771E-02  0.1160791E+00
         -2   -1    0    0    0  501 -0.00000000000E+00  0.00000000000E+00  0.95837869916E+02  0.95837869916E+02  0.00000000000E+00 0. -1.
          2   -1    0    0  502    0  0.00000000000E+00 -0.00000000000E+00 -0.46687361008E+03  0.46687361008E+03  0.00000000000E+00 0.  1.
          6    1    1    2  502    0 -0.71571605640E+02 -0.90585969938E+01 -0.31591355791E+03  0.36733490031E+03  0.17300000000E+03 0.  1.
         -6    1    1    2    0  501  0.71571605640E+02  0.90585969938E+01 -0.55122182253E+02  0.19537657969E+03  0.17300000000E+03 0. -1.
<mgrwt>
<rscale>  2 0.18743946E+03</rscale>
<asrwt>0</asrwt>
<pdfrwt beam="1">  1        2 0.71826710E-01 0.18743946E+03</pdfrwt>
<pdfrwt beam="2">  1       -2 0.14744287E-01 0.18743946E+03</pdfrwt>
<totfact> 0.23403163E+03</totfact>
</mgrwt>
</event>
<event>
 4    1  0.7368504E-001  0.1795864E+03  0.7546771E-02  0.1168204E+00
          2   -1    0    0  502    0  0.00000000000E+00  0.00000000000E+00  0.32959944439E+03  0.32959944439E+03  0.00000000000E+00 0. -1.
         -2   -1    0    0    0  501 -0.00000000000E+00 -0.00000000000E+00 -0.10495214018E+03  0.10495214018E+03  0.00000000000E+00 0.  1.
          6    1    1    2  502    0 -0.38804063031E+02 -0.28574670784E+02  0.55802125224E+02  0.18805622643E+03  0.17300000000E+03 0.  1.
         -6    1    1    2    0  501  0.38804063031E+02  0.28574670784E+02  0.16884517899E+03  0.24649535814E+03  0.17300000000E+03 0. -1.
<mgrwt>
<rscale>  2 0.17958638E+03</rscale>
<asrwt>0</asrwt>
<pdfrwt beam="1">  1        2 0.50707606E-01 0.17958638E+03</pdfrwt>
<pdfrwt beam="2">  1       -2 0.16146483E-01 0.17958638E+03</pdfrwt>
<totfact> 0.29307363E+03</totfact>
</mgrwt>
</event>
<event>
 4    1  0.7368504E-001  0.1852895E+03  0.7546771E-02  0.1162780E+00
          1   -1    0    0  502    0  0.00000000000E+00  0.00000000000E+00  0.75036093336E+03  0.75036093336E+03  0.00000000000E+00 0.  1.
         -1   -1    0    0    0  501 -0.00000000000E+00 -0.00000000000E+00 -0.57082121947E+02  0.57082121947E+02  0.00000000000E+00 0. -1.
          6    1    1    2  502    0 -0.36504256444E+02 -0.55413235346E+02  0.16679108569E+03  0.24930193272E+03  0.17300000000E+03 0. -1.
         -6    1    1    2    0  501  0.36504256444E+02  0.55413235346E+02  0.52648772572E+03  0.55814112259E+03  0.17300000000E+03 0.  1.
<mgrwt>
<rscale>  2 0.18528947E+03</rscale>
<asrwt>0</asrwt>
<pdfrwt beam="1">  1        1 0.11544014E+00 0.18528947E+03</pdfrwt>
<pdfrwt beam="2">  1       -1 0.87818654E-02 0.18528947E+03</pdfrwt>
<totfact> 0.18842318E+03</totfact>
</mgrwt>
</event>
<event>
 4    1  0.7368504E-001  0.2826317E+03  0.7546771E-02  0.1094260E+00
          1   -1    0    0  502    0  0.00000000000E+00  0.00000000000E+00  0.11869608891E+04  0.11869608891E+04  0.00000000000E+00 0.  1.
         -1   -1    0    0    0  501 -0.00000000000E+00 -0.00000000000E+00 -0.71299200842E+02  0.71299200842E+02  0.00000000000E+00 0. -1.
          6    1    1    2  502    0 -0.17887530086E+03 -0.13399731544E+03  0.40880291388E+03  0.49699142467E+03  0.17300000000E+03 0.  1.
         -6    1    1    2    0  501  0.17887530086E+03  0.13399731544E+03  0.70685877440E+03  0.76126866529E+03  0.17300000000E+03 0. -1.
<mgrwt>
<rscale>  2 0.28263166E+03</rscale>
<asrwt>0</asrwt>
<pdfrwt beam="1">  1        1 0.18260935E+00 0.28263166E+03</pdfrwt>
<pdfrwt beam="2">  1       -1 0.10969109E-01 0.28263166E+03</pdfrwt>
<totfact> 0.61808918E+02</totfact>
</mgrwt>
</event>
<event>
 4    1  0.7368504E-001  0.1828644E+03  0.7546771E-02  0.1165059E+00
          1   -1    0    0  502    0  0.00000000000E+00  0.00000000000E+00  0.27124184866E+02  0.27124184866E+02  0.00000000000E+00 0. -1.
         -1   -1    0    0    0  501 -0.00000000000E+00 -0.00000000000E+00 -0.12559386853E+04  0.12559386853E+04  0.00000000000E+00 0.  1.
          6    1    1    2  502    0  0.42551118138E+00  0.59247126157E+02 -0.70143504828E+03  0.72487966586E+03  0.17300000000E+03 0.  1.
         -6    1    1    2    0  501 -0.42551118138E+00 -0.59247126157E+02 -0.52737945215E+03  0.55818320431E+03  0.17300000000E+03 0. -1.
<mgrwt>
<rscale>  2 0.18286444E+03</rscale>
<asrwt>0</asrwt>
<pdfrwt beam="1">  1        1 0.41729524E-02 0.18286444E+03</pdfrwt>
<pdfrwt beam="2">  1       -1 0.19322129E+00 0.18286444E+03</pdfrwt>
<totfact> 0.39735061E+02</totfact>
</mgrwt>
</event>
<event>
 4    1  0.7368504E-001  0.1788883E+03  0.7546771E-02  0.1168883E+00
         -2   -1    0    0    0  501 -0.00000000000E+00  0.00000000000E+00  0.38931937808E+02  0.38931937808E+02  0.00000000000E+00 0. -1.
          2   -1    0    0  502    0  0.00000000000E+00 -0.00000000000E+00 -0.83285134842E+03  0.83285134842E+03  0.00000000000E+00 0.  1.
          6    1    1    2  502    0  0.44835288149E+02  0.78636371091E+01 -0.44677431411E+03  0.48125702862E+03  0.17300000000E+03 0.  1.
         -6    1    1    2    0  501 -0.44835288149E+02 -0.78636371091E+01 -0.34714509650E+03  0.39052625760E+03  0.17300000000E+03 0. -1.
<mgrwt>
<rscale>  2 0.17888834E+03</rscale>
<asrwt>0</asrwt>
<pdfrwt beam="1">  1        2 0.12813098E+00 0.17888834E+03</pdfrwt>
<pdfrwt beam="2">  1       -2 0.59895288E-02 0.17888834E+03</pdfrwt>
<totfact> 0.49143037E+03</totfact>
</mgrwt>
</event>
<event>
 4    1  0.7368504E-001  0.1811740E+03  0.7546771E-02  0.1166672E+00
          2   -1    0    0  502    0  0.00000000000E+00  0.00000000000E+00  0.28963307276E+04  0.28963307276E+04  0.00000000000E+00 0.  1.
         -2   -1    0    0    0  501 -0.00000000000E+00 -0.00000000000E+00 -0.11472876054E+02  0.11472876054E+02  0.00000000000E+00 0. -1.
          6    1    1    2  502    0  0.17593249752E+02 -0.50847642776E+02  0.12818716258E+04  0.12946114747E+04  0.17300000000E+03 0.  1.
         -6    1    1    2    0  501 -0.17593249752E+02  0.50847642776E+02  0.16029862258E+04  0.16131921290E+04  0.17300000000E+03 0.  1.
<mgrwt>
<rscale>  2 0.18117396E+03</rscale>
<asrwt>0</asrwt>
<pdfrwt beam="1">  1        2 0.44558876E+00 0.18117396E+03</pdfrwt>
<pdfrwt beam="2">  1       -2 0.17650602E-02 0.18117396E+03</pdfrwt>
<totfact> 0.22533652E+03</totfact>
</mgrwt>
</event>
<event>
 4    1  0.7368504E-001  0.2700432E+03  0.7546771E-02  0.1101255E+00
         -2   -1    0    0    0  501 -0.00000000000E+00  0.00000000000E+00  0.36069989672E+02  0.36069989672E+02  0.00000000000E+00 0. -1.
          2   -1    0    0  502    0  0.00000000000E+00 -0.00000000000E+00 -0.20397880739E+04  0.20397880739E+04  0.00000000000E+00 0.  1.
          6    1    1    2  502    0 -0.20365356227E+03 -0.38981484258E+02 -0.10995515014E+04  0.11322264941E+04  0.17300000000E+03 0.  1.
         -6    1    1    2    0  501  0.20365356227E+03  0.38981484258E+02 -0.90416658276E+03  0.94363156948E+03  0.17300000000E+03 0.  1.
<mgrwt>
<rscale>  2 0.27004320E+03</rscale>
<asrwt>0</asrwt>
<pdfrwt beam="1">  1        2 0.31381361E+00 0.27004320E+03</pdfrwt>
<pdfrwt beam="2">  1       -2 0.55492282E-02 0.27004320E+03</pdfrwt>
<totfact> 0.11817338E+03</totfact>
</mgrwt>
</event>
<event>
 4    1  0.7368504E-001  0.1963320E+03  0.7546771E-02  0.1152871E+00
          1   -1    0    0  502    0  0.00000000000E+00  0.00000000000E+00  0.17382272948E+03  0.17382272948E+03  0.00000000000E+00 0. -1.
         -1   -1    0    0    0  501 -0.00000000000E+00 -0.00000000000E+00 -0.24168073808E+03  0.24168073808E+03  0.00000000000E+00 0.  1.
          6    1    1    2  502    0 -0.86454143982E+02  0.33807498808E+02  0.25722018174E+02  0.19800981846E+03  0.17300000000E+03 0. -1.
         -6    1    1    2    0  501  0.86454143982E+02 -0.33807498808E+02 -0.93580026771E+02  0.21749364910E+03  0.17300000000E+03 0.  1.
<mgrwt>
<rscale>  2 0.19633203E+03</rscale>
<asrwt>0</asrwt>
<pdfrwt beam="1">  1        1 0.26741959E-01 0.19633203E+03</pdfrwt>
<pdfrwt beam="2">  1       -1 0.37181652E-01 0.19633203E+03</pdfrwt>
<totfact> 0.12264468E+03</totfact>
</mgrwt>
</event>
<event>
 4    1  0.7368504E-001  0.5982647E+03  0.7546771E-02  0.9909013E-01
         -2   -1    0    0    0  501 -0.00000000000E+00  0.00000000000E+00  0.10004186336E+04  0.10004186336E+04  0.00000000000E+00 0. -1.
          2   -1    0    0  502    0  0.00000000000E+00 -0.00000000000E+00 -0.57954984159E+03  0.57954984159E+03  0.00000000000E+00 0.  1.
          6    1    1    2  502    0  0.23991266464E+03 -0.52003231129E+03  0.69912407544E+03  0.92016040140E+03  0.17300000000E+03 0. -1.
         -6    1    1    2    0  501 -0.23991266464E+03  0.52003231129E+03 -0.27825528346E+03  0.65980807377E+03  0.17300000000E+03 0.  1.
<mgrwt>
<rscale>  2 0.59826473E+03</rscale>
<asrwt>0</asrwt>
<pdfrwt beam="1">  1        2 0.89161514E-01 0.59826473E+03</pdfrwt>
<pdfrwt beam="2">  1       -2 0.15391056E+00 0.59826473E+03</pdfrwt>
<totfact> 0.14921910E+01</totfact>
</mgrwt>
</event>
<event>
 4    1  0.7368504E-001  0.1746598E+03  0.7546771E-02  0.1173074E+00
          1   -1    0    0  502    0  0.00000000000E+00  0.00000000000E+00  0.17666341009E+04  0.17666341009E+04  0.00000000000E+00 0.  1.
         -1   -1    0    0    0  501 -0.00000000000E+00 -0.00000000000E+00 -0.18240348230E+02  0.18240348230E+02  0.00000000000E+00 0. -1.
          6    1    1    2  502    0 -0.23401893174E+02 -0.54208990223E+01  0.66813498769E+03  0.69058699418E+03  0.17300000000E+03 0.  1.
         -6    1    1    2    0  501  0.23401893174E+02  0.54208990223E+01  0.10802587649E+04  0.10942874549E+04  0.17300000000E+03 0.  1.
<mgrwt>
<rscale>  2 0.17465977E+03</rscale>
<asrwt>0</asrwt>
<pdfrwt beam="1">  1        1 0.27178973E+00 0.17465977E+03</pdfrwt>
<pdfrwt beam="2">  1       -1 0.28062088E-02 0.17465977E+03</pdfrwt>
<totfact> 0.19945743E+03</totfact>
</mgrwt>
</event>
<event>
 4    1  0.7368504E-001  0.2099172E+03  0.7546771E-02  0.1141632E+00
          1   -1    0    0  502    0  0.00000000000E+00  0.00000000000E+00  0.96640639361E+03  0.96640639361E+03  0.00000000000E+00 0. -1.
         -1   -1    0    0    0  501 -0.00000000000E+00 -0.00000000000E+00 -0.70174581912E+02  0.70174581912E+02  0.00000000000E+00 0.  1.
          6    1    1    2  502    0 -0.10259229257E+03  0.60092164337E+02  0.14138836978E+03  0.25309270598E+03  0.17300000000E+03 0.  1.
         -6    1    1    2    0  501  0.10259229257E+03 -0.60092164337E+02  0.75484344191E+03  0.78348826954E+03  0.17300000000E+03 0. -1.
<mgrwt>
<rscale>  2 0.20991724E+03</rscale>
<asrwt>0</asrwt>
<pdfrwt beam="1">  1        1 0.14867790E+00 0.20991724E+03</pdfrwt>
<pdfrwt beam="2">  1       -1 0.10796090E-01 0.20991724E+03</pdfrwt>
<totfact> 0.92103569E+02</totfact>
</mgrwt>
</event>
<event>
 4    1  0.7368504E-001  0.2235586E+03  0.7546771E-02  0.1131257E+00
         -2   -1    0    0    0  501 -0.00000000000E+00  0.00000000000E+00  0.79220155164E+02  0.79220155164E+02  0.00000000000E+00 0. -1.
          2   -1    0    0  502    0  0.00000000000E+00 -0.00000000000E+00 -0.10197373444E+04  0.10197373444E+04  0.00000000000E+00 0.  1.
          6    1    1    2  502    0 -0.73762862293E+02  0.12086560352E+03 -0.80957244930E+03  0.83987261215E+03  0.17300000000E+03 0.  1.
         -6    1    1    2    0  501  0.73762862293E+02 -0.12086560352E+03 -0.13094473992E+03  0.25908488740E+03  0.17300000000E+03 0. -1.
<mgrwt>
<rscale>  2 0.22355861E+03</rscale>
<asrwt>0</asrwt>
<pdfrwt beam="1">  1        2 0.15688266E+00 0.22355861E+03</pdfrwt>
<pdfrwt beam="2">  1       -2 0.12187717E-01 0.22355861E+03</pdfrwt>
<totfact> 0.12330314E+03</totfact>
</mgrwt>
</event>
<event>
 4    1  0.7368504E-001  0.2196663E+03  0.7546771E-02  0.1134132E+00
         -1   -1    0    0    0  501 -0.00000000000E+00  0.00000000000E+00  0.43738010617E+02  0.43738010617E+02  0.00000000000E+00 0.  1.
          1   -1    0    0  502    0  0.00000000000E+00 -0.00000000000E+00 -0.12755157574E+04  0.12755157574E+04  0.00000000000E+00 0. -1.
          6    1    1    2  502    0 -0.12452823086E+03  0.53075638414E+02 -0.85831188001E+03  0.88597550025E+03  0.17300000000E+03 0.  1.
         -6    1    1    2    0  501  0.12452823086E+03 -0.53075638414E+02 -0.37346586676E+03  0.43327826775E+03  0.17300000000E+03 0.  1.
<mgrwt>
<rscale>  2 0.21966635E+03</rscale>
<asrwt>0</asrwt>
<pdfrwt beam="1">  1        1 0.19623315E+00 0.21966635E+03</pdfrwt>
<pdfrwt beam="2">  1       -1 0.67289260E-02 0.21966635E+03</pdfrwt>
<totfact> 0.11419164E+03</totfact>
</mgrwt>
</event>
<event>
 4    1  0.7368504E-001  0.2637602E+03  0.7546771E-02  0.1104905E+00
         -2   -1    0    0    0  501 -0.00000000000E+00  0.00000000000E+00  0.27940144935E+02  0.27940144935E+02  0.00000000000E+00 0. -1.
          2   -1    0    0  502    0  0.00000000000E+00 -0.00000000000E+00 -0.34031158113E+04  0.34031158113E+04  0.00000000000E+00 0.  1.
          6    1    1    2  502    0 -0.17915975815E+03  0.86845838800E+02 -0.79892810710E+03  0.84134151150E+03  0.17300000000E+03 0. -1.
         -6    1    1    2    0  501  0.17915975815E+03 -0.86845838800E+02 -0.25762475592E+04  0.25897144447E+04  0.17300000000E+03 0.  1.
<mgrwt>
<rscale>  2 0.26376015E+03</rscale>
<asrwt>0</asrwt>
<pdfrwt beam="1">  1        2 0.52355633E+00 0.26376015E+03</pdfrwt>
<pdfrwt beam="2">  1       -2 0.42984834E-02 0.26376015E+03</pdfrwt>
<totfact> 0.28999951E+02</totfact>
</mgrwt>
</event>
<event>
 4    1  0.7368504E-001  0.1901654E+03  0.7546771E-02  0.1158312E+00
          2   -1    0    0  502    0  0.00000000000E+00  0.00000000000E+00  0.15111004527E+04  0.15111004527E+04  0.00000000000E+00 0.  1.
         -2   -1    0    0    0  501 -0.00000000000E+00 -0.00000000000E+00 -0.40088089064E+02  0.40088089064E+02  0.00000000000E+00 0. -1.
          6    1    1    2  502    0 -0.66746288271E+02 -0.42176105492E+02  0.24312455365E+03  0.30866233891E+03  0.17300000000E+03 0. -1.
         -6    1    1    2    0  501  0.66746288271E+02  0.42176105492E+02  0.12278878100E+04  0.12425262029E+04  0.17300000000E+03 0.  1.
<mgrwt>
<rscale>  2 0.19016543E+03</rscale>
<asrwt>0</asrwt>
<pdfrwt beam="1">  1        2 0.23247695E+00 0.19016543E+03</pdfrwt>
<pdfrwt beam="2">  1       -2 0.61673995E-02 0.19016543E+03</pdfrwt>
<totfact> 0.19136212E+03</totfact>
</mgrwt>
</event>
<event>
 4    1  0.7368504E-001  0.1777858E+03  0.7546771E-02  0.1169963E+00
          2   -1    0    0  502    0  0.00000000000E+00  0.00000000000E+00  0.18537773549E+04  0.18537773549E+04  0.00000000000E+00 0. -1.
         -2   -1    0    0    0  501 -0.00000000000E+00 -0.00000000000E+00 -0.34431552888E+02  0.34431552888E+02  0.00000000000E+00 0.  1.
          6    1    1    2  502    0  0.70227844221E+01 -0.40366717601E+02  0.15804528118E+04  0.15904209763E+04  0.17300000000E+03 0. -1.
         -6    1    1    2    0  501 -0.70227844221E+01  0.40366717601E+02  0.23889299019E+03  0.29778793151E+03  0.17300000000E+03 0.  1.
<mgrwt>
<rscale>  2 0.17778580E+03</rscale>
<asrwt>0</asrwt>
<pdfrwt beam="1">  1        2 0.28519644E+00 0.17778580E+03</pdfrwt>
<pdfrwt beam="2">  1       -2 0.52971634E-02 0.17778580E+03</pdfrwt>
<totfact> 0.16011284E+03</totfact>
</mgrwt>
</event>
<event>
 4    1  0.7368504E-001  0.2081444E+03  0.7546771E-02  0.1143044E+00
         -1   -1    0    0    0  501 -0.00000000000E+00  0.00000000000E+00  0.42487296564E+02  0.42487296564E+02  0.00000000000E+00 0. -1.
          1   -1    0    0  502    0  0.00000000000E+00 -0.00000000000E+00 -0.10506402722E+04  0.10506402722E+04  0.00000000000E+00 0.  1.
          6    1    1    2  502    0  0.94868285949E+02 -0.66295595257E+02 -0.59787775621E+03  0.63307338358E+03  0.17300000000E+03 0. -1.
         -6    1    1    2    0  501 -0.94868285949E+02  0.66295595257E+02 -0.41027521944E+03  0.46005418520E+03  0.17300000000E+03 0.  1.
<mgrwt>
<rscale>  2 0.20814442E+03</rscale>
<asrwt>0</asrwt>
<pdfrwt beam="1">  1        1 0.16163695E+00 0.20814442E+03</pdfrwt>
<pdfrwt beam="2">  1       -1 0.65365079E-02 0.20814442E+03</pdfrwt>
<totfact> 0.17179952E+03</totfact>
</mgrwt>
</event>
<event>
 4    1  0.7368504E-001  0.6422251E+03  0.7546771E-02  0.9821479E-01
         -1   -1    0    0    0  501 -0.00000000000E+00  0.00000000000E+00  0.32813418898E+03  0.32813418898E+03  0.00000000000E+00 0. -1.
          1   -1    0    0  502    0  0.00000000000E+00 -0.00000000000E+00 -0.14252437882E+04  0.14252437882E+04  0.00000000000E+00 0.  1.
          6    1    1    2  502    0 -0.28523046776E+03  0.54878739995E+03 -0.24731226466E+03  0.68819792671E+03  0.17300000000E+03 0. -1.
         -6    1    1    2    0  501  0.28523046776E+03 -0.54878739995E+03 -0.84979733459E+03  0.10651800505E+04  0.17300000000E+03 0.  1.
<mgrwt>
<rscale>  2 0.64222506E+03</rscale>
<asrwt>0</asrwt>
<pdfrwt beam="1">  1        1 0.21926828E+00 0.64222506E+03</pdfrwt>
<pdfrwt beam="2">  1       -1 0.50482183E-01 0.64222506E+03</pdfrwt>
<totfact> 0.30396366E+01</totfact>
</mgrwt>
</event>
<event>
 4    1  0.7368504E-001  0.2964812E+03  0.7546771E-02  0.1087013E+00
         -2   -1    0    0    0  501 -0.00000000000E+00  0.00000000000E+00  0.76004306906E+02  0.76004306906E+02  0.00000000000E+00 0. -1.
          2   -1    0    0  502    0  0.00000000000E+00 -0.00000000000E+00 -0.14055522994E+04  0.14055522994E+04  0.00000000000E+00 0.  1.
          6    1    1    2  502    0 -0.28079064043E+02 -0.23913107476E+03 -0.35296713930E+03  0.46096302041E+03  0.17300000000E+03 0. -1.
         -6    1    1    2    0  501  0.28079064043E+02  0.23913107476E+03 -0.97658085317E+03  0.10205935859E+04  0.17300000000E+03 0.  1.
<mgrwt>
<rscale>  2 0.29648120E+03</rscale>
<asrwt>0</asrwt>
<pdfrwt beam="1">  1        2 0.21623882E+00 0.29648120E+03</pdfrwt>
<pdfrwt beam="2">  1       -2 0.11692970E-01 0.29648120E+03</pdfrwt>
<totfact> 0.79171637E+02</totfact>
</mgrwt>
</event>
<event>
 4    1  0.7368504E-001  0.2010057E+03  0.7546771E-02  0.1148893E+00
         -1   -1    0    0    0  501 -0.00000000000E+00  0.00000000000E+00  0.40795879931E+03  0.40795879931E+03  0.00000000000E+00 0.  1.
          1   -1    0    0  502    0  0.00000000000E+00 -0.00000000000E+00 -0.10553785762E+03  0.10553785762E+03  0.00000000000E+00 0. -1.
          6    1    1    2  502    0  0.16759811819E+02  0.10096235865E+03  0.21492909892E+03  0.29427505283E+03  0.17300000000E+03 0. -1.
         -6    1    1    2    0  501 -0.16759811819E+02 -0.10096235865E+03  0.87491842768E+02  0.21922160411E+03  0.17300000000E+03 0. -1.
<mgrwt>
<rscale>  2 0.20100569E+03</rscale>
<asrwt>0</asrwt>
<pdfrwt beam="1">  1        1 0.16236594E-01 0.20100569E+03</pdfrwt>
<pdfrwt beam="2">  1       -1 0.62762891E-01 0.20100569E+03</pdfrwt>
<totfact> 0.89045285E+02</totfact>
</mgrwt>
</event>
<event>
 4    1  0.7368504E-001  0.1908215E+03  0.7546771E-02  0.1157722E+00
         -1   -1    0    0    0  501 -0.00000000000E+00  0.00000000000E+00  0.15435970860E+03  0.15435970860E+03  0.00000000000E+00 0.  1.
          1   -1    0    0  502    0  0.00000000000E+00 -0.00000000000E+00 -0.26803605246E+03  0.26803605246E+03  0.00000000000E+00 0. -1.
          6    1    1    2  502    0  0.43528476349E+02 -0.67743096402E+02  0.16295178769E+02  0.19151602600E+03  0.17300000000E+03 0.  1.
         -6    1    1    2    0  501 -0.43528476349E+02  0.67743096402E+02 -0.12997152263E+03  0.23087973505E+03  0.17300000000E+03 0. -1.
<mgrwt>
<rscale>  2 0.19082153E+03</rscale>
<asrwt>0</asrwt>
<pdfrwt beam="1">  1        1 0.41236315E-01 0.19082153E+03</pdfrwt>
<pdfrwt beam="2">  1       -1 0.23747648E-01 0.19082153E+03</pdfrwt>
<totfact> 0.15218145E+03</totfact>
</mgrwt>
</event>
<event>
 4    1  0.7368504E-001  0.2376994E+03  0.7546771E-02  0.1121335E+00
         -2   -1    0    0    0  501 -0.00000000000E+00  0.00000000000E+00  0.44828405336E+02  0.44828405336E+02  0.00000000000E+00 0.  1.
          2   -1    0    0  502    0  0.00000000000E+00 -0.00000000000E+00 -0.15218383598E+04  0.15218383598E+04  0.00000000000E+00 0. -1.
          6    1    1    2  502    0  0.14588522367E+03  0.72729125749E+02 -0.41382167354E+03  0.47723097312E+03  0.17300000000E+03 0.  1.
         -6    1    1    2    0  501 -0.14588522367E+03 -0.72729125749E+02 -0.10631882809E+04  0.10894357920E+04  0.17300000000E+03 0. -1.
<mgrwt>
<rscale>  2 0.23769944E+03</rscale>
<asrwt>0</asrwt>
<pdfrwt beam="1">  1        2 0.23412895E+00 0.23769944E+03</pdfrwt>
<pdfrwt beam="2">  1       -2 0.68966785E-02 0.23769944E+03</pdfrwt>
<totfact> 0.15873218E+03</totfact>
</mgrwt>
</event>
<event>
 4    1  0.7368504E-001  0.3073166E+03  0.7546771E-02  0.1081639E+00
         -2   -1    0    0    0  501 -0.00000000000E+00  0.00000000000E+00  0.47446536872E+02  0.47446536872E+02  0.00000000000E+00 0. -1.
          2   -1    0    0  502    0  0.00000000000E+00 -0.00000000000E+00 -0.24842078605E+04  0.24842078605E+04  0.00000000000E+00 0.  1.
          6    1    1    2  502    0  0.23324601686E+03 -0.10055256404E+03 -0.65408795339E+03  0.72268566700E+03  0.17300000000E+03 0. -1.
         -6    1    1    2    0  501 -0.23324601686E+03  0.10055256404E+03 -0.17826733702E+04  0.18089687303E+04  0.17300000000E+03 0.  1.
<mgrwt>
<rscale>  2 0.30731665E+03</rscale>
<asrwt>0</asrwt>
<pdfrwt beam="1">  1        2 0.38218594E+00 0.30731665E+03</pdfrwt>
<pdfrwt beam="2">  1       -2 0.72994650E-02 0.30731665E+03</pdfrwt>
<totfact> 0.44367191E+02</totfact>
</mgrwt>
</event>
<event>
 4    1  0.7368504E-001  0.1990704E+03  0.7546771E-02  0.1150526E+00
         -1   -1    0    0    0  501 -0.00000000000E+00  0.00000000000E+00  0.41426834384E+02  0.41426834384E+02  0.00000000000E+00 0. -1.
          1   -1    0    0  502    0  0.00000000000E+00 -0.00000000000E+00 -0.11685519459E+04  0.11685519459E+04  0.00000000000E+00 0.  1.
          6    1    1    2  502    0  0.56244609644E+02 -0.80849032551E+02 -0.30590690533E+03  0.36497678955E+03  0.17300000000E+03 0. -1.
         -6    1    1    2    0  501 -0.56244609644E+02  0.80849032551E+02 -0.82121820615E+03  0.84500199070E+03  0.17300000000E+03 0.  1.
<mgrwt>
<rscale>  2 0.19907040E+03</rscale>
<asrwt>0</asrwt>
<pdfrwt beam="1">  1        1 0.17977723E+00 0.19907040E+03</pdfrwt>
<pdfrwt beam="2">  1       -1 0.63733588E-02 0.19907040E+03</pdfrwt>
<totfact> 0.14703636E+03</totfact>
</mgrwt>
</event>
<event>
 4    1  0.7368504E-001  0.2815748E+03  0.7546771E-02  0.1094832E+00
          1   -1    0    0  502    0  0.00000000000E+00  0.00000000000E+00  0.67528678154E+02  0.67528678154E+02  0.00000000000E+00 0. -1.
         -1   -1    0    0    0  501 -0.00000000000E+00 -0.00000000000E+00 -0.11860269207E+04  0.11860269207E+04  0.00000000000E+00 0.  1.
          6    1    1    2  502    0 -0.14219866601E+03 -0.17068953009E+03 -0.62214352208E+03  0.68289599381E+03  0.17300000000E+03 0. -1.
         -6    1    1    2    0  501  0.14219866601E+03  0.17068953009E+03 -0.49635472044E+03  0.57065960502E+03  0.17300000000E+03 0.  1.
<mgrwt>
<rscale>  2 0.28157481E+03</rscale>
<asrwt>0</asrwt>
<pdfrwt beam="1">  1        1 0.10389028E-01 0.28157481E+03</pdfrwt>
<pdfrwt beam="2">  1       -1 0.18246567E+00 0.28157481E+03</pdfrwt>
<totfact> 0.13404692E+02</totfact>
</mgrwt>
</event>
<event>
 4    1  0.7368504E-001  0.1990912E+03  0.7546771E-02  0.1150508E+00
         -1   -1    0    0    0  501 -0.00000000000E+00  0.00000000000E+00  0.16533564700E+03  0.16533564700E+03  0.00000000000E+00 0. -1.
          1   -1    0    0  502    0  0.00000000000E+00 -0.00000000000E+00 -0.24085169447E+03  0.24085169447E+03  0.00000000000E+00 0.  1.
          6    1    1    2  502    0  0.94893481463E+02  0.26523894706E+02 -0.23949645465E+02  0.20052649534E+03  0.17300000000E+03 0. -1.
         -6    1    1    2    0  501 -0.94893481463E+02 -0.26523894706E+02 -0.51566402004E+02  0.20566084613E+03  0.17300000000E+03 0. -1.
<mgrwt>
<rscale>  2 0.19909116E+03</rscale>
<asrwt>0</asrwt>
<pdfrwt beam="1">  1        1 0.37054107E-01 0.19909116E+03</pdfrwt>
<pdfrwt beam="2">  1       -1 0.25436253E-01 0.19909116E+03</pdfrwt>
<totfact> 0.15540598E+03</totfact>
</mgrwt>
</event>
<event>
 4    1  0.7368504E-001  0.2043718E+03  0.7546771E-02  0.1146102E+00
         -2   -1    0    0    0  501 -0.00000000000E+00  0.00000000000E+00  0.11008405766E+03  0.11008405766E+03  0.00000000000E+00 0.  1.
          2   -1    0    0  502    0  0.00000000000E+00 -0.00000000000E+00 -0.49878312589E+03  0.49878312589E+03  0.00000000000E+00 0. -1.
          6    1    1    2  502    0 -0.85166461146E+02 -0.67716385817E+02 -0.34327742981E+03  0.39950873436E+03  0.17300000000E+03 0. -1.
         -6    1    1    2    0  501  0.85166461146E+02  0.67716385817E+02 -0.45421638428E+02  0.20935844920E+03  0.17300000000E+03 0.  1.
<mgrwt>
<rscale>  2 0.20437181E+03</rscale>
<asrwt>0</asrwt>
<pdfrwt beam="1">  1        2 0.76735864E-01 0.20437181E+03</pdfrwt>
<pdfrwt beam="2">  1       -2 0.16936009E-01 0.20437181E+03</pdfrwt>
<totfact> 0.17324051E+03</totfact>
</mgrwt>
</event>
<event>
 4    1  0.7368504E-001  0.3506960E+03  0.7546771E-02  0.1062330E+00
         -1   -1    0    0    0  501 -0.00000000000E+00  0.00000000000E+00  0.55986241811E+02  0.55986241811E+02  0.00000000000E+00 0.  1.
          1   -1    0    0  502    0  0.00000000000E+00 -0.00000000000E+00 -0.23356304500E+04  0.23356304500E+04  0.00000000000E+00 0. -1.
          6    1    1    2  502    0  0.27402735569E+03 -0.13404356810E+03 -0.14314191086E+04  0.14737531456E+04  0.17300000000E+03 0. -1.
         -6    1    1    2    0  501 -0.27402735569E+03  0.13404356810E+03 -0.84822509961E+03  0.91786354620E+03  0.17300000000E+03 0.  1.
<mgrwt>
<rscale>  2 0.35069598E+03</rscale>
<asrwt>0</asrwt>
<pdfrwt beam="1">  1        1 0.35932772E+00 0.35069598E+03</pdfrwt>
<pdfrwt beam="2">  1       -1 0.86132689E-02 0.35069598E+03</pdfrwt>
<totfact> 0.15389901E+02</totfact>
</mgrwt>
</event>
<event>
 4    1  0.7368504E-001  0.1742082E+03  0.7546771E-02  0.1173529E+00
         -1   -1    0    0    0  501 -0.00000000000E+00  0.00000000000E+00  0.27589268932E+02  0.27589268932E+02  0.00000000000E+00 0.  1.
          1   -1    0    0  502    0  0.00000000000E+00 -0.00000000000E+00 -0.11025276215E+04  0.11025276215E+04  0.00000000000E+00 0. -1.
          6    1    1    2  502    0  0.18194226077E+02  0.94061869364E+01 -0.56446434033E+03  0.59073555651E+03  0.17300000000E+03 0. -1.
         -6    1    1    2    0  501 -0.18194226077E+02 -0.94061869364E+01 -0.51047401220E+03  0.53938133389E+03  0.17300000000E+03 0.  1.
<mgrwt>
<rscale>  2 0.17420823E+03</rscale>
<asrwt>0</asrwt>
<pdfrwt beam="1">  1        1 0.16961967E+00 0.17420823E+03</pdfrwt>
<pdfrwt beam="2">  1       -1 0.42445021E-02 0.17420823E+03</pdfrwt>
<totfact> 0.29996365E+03</totfact>
</mgrwt>
</event>
<event>
 4    1  0.7368504E-001  0.1824130E+03  0.7546771E-02  0.1165488E+00
          1   -1    0    0  502    0  0.00000000000E+00  0.00000000000E+00  0.17145301372E+04  0.17145301372E+04  0.00000000000E+00 0.  1.
         -1   -1    0    0    0  501 -0.00000000000E+00 -0.00000000000E+00 -0.57018093558E+02  0.57018093558E+02  0.00000000000E+00 0. -1.
          6    1    1    2  502    0  0.46837456165E+02 -0.33937540487E+02  0.10935253309E+03  0.21267929012E+03  0.17300000000E+03 0. -1.
         -6    1    1    2    0  501 -0.46837456165E+02  0.33937540487E+02  0.15481595105E+04  0.15588689406E+04  0.17300000000E+03 0.  1.
<mgrwt>
<rscale>  2 0.18241300E+03</rscale>
<asrwt>0</asrwt>
<pdfrwt beam="1">  1        1 0.26377383E+00 0.18241300E+03</pdfrwt>
<pdfrwt beam="2">  1       -1 0.87720157E-02 0.18241300E+03</pdfrwt>
<totfact> 0.39350514E+02</totfact>
</mgrwt>
</event>
<event>
 4    1  0.7368504E-001  0.1812624E+03  0.7546771E-02  0.1166587E+00
          1   -1    0    0  502    0  0.00000000000E+00  0.00000000000E+00  0.32761163312E+02  0.32761163312E+02  0.00000000000E+00 0. -1.
         -1   -1    0    0    0  501 -0.00000000000E+00 -0.00000000000E+00 -0.13497715216E+04  0.13497715216E+04  0.00000000000E+00 0.  1.
          6    1    1    2  502    0 -0.39889213932E+02 -0.36550263284E+02 -0.30807499546E+03  0.35744408509E+03  0.17300000000E+03 0. -1.
         -6    1    1    2    0  501  0.39889213932E+02  0.36550263284E+02 -0.10089353629E+04  0.10250885999E+04  0.17300000000E+03 0.  1.
<mgrwt>
<rscale>  2 0.18126244E+03</rscale>
<asrwt>0</asrwt>
<pdfrwt beam="1">  1        1 0.50401785E-02 0.18126244E+03</pdfrwt>
<pdfrwt beam="2">  1       -1 0.20765718E+00 0.18126244E+03</pdfrwt>
<totfact> 0.24560399E+02</totfact>
</mgrwt>
</event>
<event>
 4    1  0.7368504E-001  0.2870308E+03  0.7546771E-02  0.1091910E+00
          1   -1    0    0  502    0  0.00000000000E+00  0.00000000000E+00  0.31366701578E+03  0.31366701578E+03  0.00000000000E+00 0.  1.
         -1   -1    0    0    0  501 -0.00000000000E+00 -0.00000000000E+00 -0.37161888400E+03  0.37161888400E+03  0.00000000000E+00 0. -1.
          6    1    1    2  502    0  0.52991313917E+02 -0.22282189135E+03  0.15656137296E+03  0.32695280718E+03  0.17300000000E+03 0.  1.
         -6    1    1    2    0  501 -0.52991313917E+02  0.22282189135E+03 -0.21451324117E+03  0.35833309260E+03  0.17300000000E+03 0. -1.
<mgrwt>
<rscale>  2 0.28703079E+03</rscale>
<asrwt>0</asrwt>
<pdfrwt beam="1">  1        1 0.48256464E-01 0.28703079E+03</pdfrwt>
<pdfrwt beam="2">  1       -1 0.57172136E-01 0.28703079E+03</pdfrwt>
<totfact> 0.26568956E+02</totfact>
</mgrwt>
</event>
<event>
 4    1  0.7368504E-001  0.3020364E+03  0.7546771E-02  0.1084227E+00
         -2   -1    0    0    0  501 -0.00000000000E+00  0.00000000000E+00  0.22690143519E+03  0.22690143519E+03  0.00000000000E+00 0. -1.
          2   -1    0    0  502    0  0.00000000000E+00 -0.00000000000E+00 -0.40565688330E+03  0.40565688330E+03  0.00000000000E+00 0.  1.
          6    1    1    2  502    0  0.11959349697E+03 -0.21678191841E+03 -0.59559471469E+02  0.30785278187E+03  0.17300000000E+03 0. -1.
         -6    1    1    2    0  501 -0.11959349697E+03  0.21678191841E+03 -0.11919597664E+03  0.32470553662E+03  0.17300000000E+03 0.  1.
<mgrwt>
<rscale>  2 0.30203643E+03</rscale>
<asrwt>0</asrwt>
<pdfrwt beam="1">  1        2 0.62408751E-01 0.30203643E+03</pdfrwt>
<pdfrwt beam="2">  1       -2 0.34907913E-01 0.30203643E+03</pdfrwt>
<totfact> 0.60911417E+02</totfact>
</mgrwt>
</event>
<event>
 4    1  0.7368504E-001  0.1823401E+03  0.7546771E-02  0.1165557E+00
          2   -1    0    0  502    0  0.00000000000E+00  0.00000000000E+00  0.15014525340E+04  0.15014525340E+04  0.00000000000E+00 0. -1.
         -2   -1    0    0    0  501 -0.00000000000E+00 -0.00000000000E+00 -0.25608222982E+02  0.25608222982E+02  0.00000000000E+00 0.  1.
          6    1    1    2  502    0 -0.57532502482E+02  0.29868146379E+01  0.10187564652E+04  0.10349457209E+04  0.17300000000E+03 0. -1.
         -6    1    1    2    0  501  0.57532502482E+02 -0.29868146379E+01  0.45708784579E+03  0.49211503602E+03  0.17300000000E+03 0.  1.
<mgrwt>
<rscale>  2 0.18234009E+03</rscale>
<asrwt>0</asrwt>
<pdfrwt beam="1">  1        2 0.23099263E+00 0.18234009E+03</pdfrwt>
<pdfrwt beam="2">  1       -2 0.39397278E-02 0.18234009E+03</pdfrwt>
<totfact> 0.38129155E+03</totfact>
</mgrwt>
</event>
<event>
 4    1  0.7368504E-001  0.3000645E+03  0.7546771E-02  0.1085208E+00
          2   -1    0    0  502    0  0.00000000000E+00  0.00000000000E+00  0.40538433124E+04  0.40538433124E+04  0.00000000000E+00 0. -1.
         -2   -1    0    0    0  501 -0.00000000000E+00 -0.00000000000E+00 -0.22236172896E+02  0.22236172896E+02  0.00000000000E+00 0.  1.
          6    1    1    2  502    0  0.23879921773E+03 -0.55539457787E+02  0.19468238265E+04  0.19698126077E+04  0.17300000000E+03 0. -1.
         -6    1    1    2    0  501 -0.23879921773E+03  0.55539457787E+02  0.20847833130E+04  0.21062668776E+04  0.17300000000E+03 0.  1.
<mgrwt>
<rscale>  2 0.30006449E+03</rscale>
<asrwt>0</asrwt>
<pdfrwt beam="1">  1        2 0.62366761E+00 0.30006449E+03</pdfrwt>
<pdfrwt beam="2">  1       -2 0.34209529E-02 0.30006449E+03</pdfrwt>
<totfact> 0.13986614E+02</totfact>
</mgrwt>
</event>
<event>
 4    1  0.7368504E-001  0.2102834E+03  0.7546771E-02  0.1141342E+00
         -2   -1    0    0    0  501 -0.00000000000E+00  0.00000000000E+00  0.27343184786E+02  0.27343184786E+02  0.00000000000E+00 0. -1.
          2   -1    0    0  502    0  0.00000000000E+00 -0.00000000000E+00 -0.16872094502E+04  0.16872094502E+04  0.00000000000E+00 0.  1.
          6    1    1    2  502    0 -0.57073053867E+02  0.10503711020E+03 -0.65529248412E+03  0.68820590504E+03  0.17300000000E+03 0. -1.
         -6    1    1    2    0  501  0.57073053867E+02 -0.10503711020E+03 -0.10045737813E+04  0.10263467300E+04  0.17300000000E+03 0.  1.
<mgrwt>
<rscale>  2 0.21028345E+03</rscale>
<asrwt>0</asrwt>
<pdfrwt beam="1">  1        2 0.25957068E+00 0.21028345E+03</pdfrwt>
<pdfrwt beam="2">  1       -2 0.42066440E-02 0.21028345E+03</pdfrwt>
<totfact> 0.27638753E+03</totfact>
</mgrwt>
</event>
<event>
 4    1  0.7368504E-001  0.2452925E+03  0.7546771E-02  0.1116316E+00
         -2   -1    0    0    0  501 -0.00000000000E+00  0.00000000000E+00  0.14506241104E+03  0.14506241104E+03  0.00000000000E+00 0.  1.
          2   -1    0    0  502    0  0.00000000000E+00 -0.00000000000E+00 -0.41590207646E+03  0.41590207646E+03  0.00000000000E+00 0. -1.
          6    1    1    2  502    0  0.17380531381E+03 -0.55800045459E+01 -0.12082593745E+03  0.27343615474E+03  0.17300000000E+03 0. -1.
         -6    1    1    2    0  501 -0.17380531381E+03  0.55800045459E+01 -0.15001372796E+03  0.28752833276E+03  0.17300000000E+03 0.  1.
<mgrwt>
<rscale>  2 0.24529253E+03</rscale>
<asrwt>0</asrwt>
<pdfrwt beam="1">  1        2 0.63984934E-01 0.24529253E+03</pdfrwt>
<pdfrwt beam="2">  1       -2 0.22317294E-01 0.24529253E+03</pdfrwt>
<totfact> 0.13266870E+03</totfact>
</mgrwt>
</event>
<event>
 4    1  0.7368504E-001  0.1797105E+03  0.7546771E-02  0.1168083E+00
         -2   -1    0    0    0  501 -0.00000000000E+00  0.00000000000E+00  0.79733824301E+02  0.79733824301E+02  0.00000000000E+00 0.  1.
          2   -1    0    0  502    0  0.00000000000E+00 -0.00000000000E+00 -0.47686095591E+03  0.47686095591E+03  0.00000000000E+00 0. -1.
          6    1    1    2  502    0  0.13707921903E+02  0.46679475818E+02 -0.30656267408E+03  0.35535412440E+03  0.17300000000E+03 0. -1.
         -6    1    1    2    0  501 -0.13707921903E+02 -0.46679475818E+02 -0.90564457527E+02  0.20124065581E+03  0.17300000000E+03 0.  1.
<mgrwt>
<rscale>  2 0.17971055E+03</rscale>
<asrwt>0</asrwt>
<pdfrwt beam="1">  1        2 0.73363224E-01 0.17971055E+03</pdfrwt>
<pdfrwt beam="2">  1       -2 0.12266742E-01 0.17971055E+03</pdfrwt>
<totfact> 0.30797632E+03</totfact>
</mgrwt>
</event>
<event>
 4    1  0.7368504E-001  0.2693086E+03  0.7546771E-02  0.1101676E+00
          2   -1    0    0  502    0  0.00000000000E+00  0.00000000000E+00  0.12447916138E+04  0.12447916138E+04  0.00000000000E+00 0.  1.
         -2   -1    0    0    0  501 -0.00000000000E+00 -0.00000000000E+00 -0.62234092310E+02  0.62234092310E+02  0.00000000000E+00 0. -1.
          6    1    1    2  502    0  0.68816913124E+02 -0.19458249005E+03  0.42622895536E+03  0.50418075662E+03  0.17300000000E+03 0.  1.
         -6    1    1    2    0  501 -0.68816913124E+02  0.19458249005E+03  0.75632856613E+03  0.80284494948E+03  0.17300000000E+03 0. -1.
<mgrwt>
<rscale>  2 0.26930858E+03</rscale>
<asrwt>0</asrwt>
<pdfrwt beam="1">  1        2 0.19150638E+00 0.26930858E+03</pdfrwt>
<pdfrwt beam="2">  1       -2 0.95744766E-02 0.26930858E+03</pdfrwt>
<totfact> 0.13417022E+03</totfact>
</mgrwt>
</event>
<event>
 4    1  0.7368504E-001  0.1825722E+03  0.7546771E-02  0.1165337E+00
          2   -1    0    0  502    0  0.00000000000E+00  0.00000000000E+00  0.25291439704E+03  0.25291439704E+03  0.00000000000E+00 0. -1.
         -2   -1    0    0    0  501 -0.00000000000E+00 -0.00000000000E+00 -0.13215240413E+03  0.13215240413E+03  0.00000000000E+00 0.  1.
          6    1    1    2  502    0  0.17093089302E+02  0.55780108857E+02  0.50354044381E+02  0.18938881707E+03  0.17300000000E+03 0.  1.
         -6    1    1    2    0  501 -0.17093089302E+02 -0.55780108857E+02  0.70407948530E+02  0.19567798410E+03  0.17300000000E+03 0.  1.
<mgrwt>
<rscale>  2 0.18257216E+03</rscale>
<asrwt>0</asrwt>
<pdfrwt beam="1">  1        2 0.38909907E-01 0.18257216E+03</pdfrwt>
<pdfrwt beam="2">  1       -2 0.20331139E-01 0.18257216E+03</pdfrwt>
<totfact> 0.26426721E+03</totfact>
</mgrwt>
</event>
<event>
 4    1  0.7368504E-001  0.3430153E+03  0.7546771E-02  0.1065519E+00
         -2   -1    0    0    0  501 -0.00000000000E+00  0.00000000000E+00  0.19973586100E+03  0.19973586100E+03  0.00000000000E+00 0. -1.
          2   -1    0    0  502    0  0.00000000000E+00 -0.00000000000E+00 -0.59765710641E+03  0.59765710641E+03  0.00000000000E+00 0.  1.
          6    1    1    2  502    0  0.14284314850E+03  0.25947316103E+03 -0.15118540646E+03  0.37485532341E+03  0.17300000000E+03 0. -1.
         -6    1    1    2    0  501 -0.14284314850E+03 -0.25947316103E+03 -0.24673583895E+03  0.42253764399E+03  0.17300000000E+03 0.  1.
<mgrwt>
<rscale>  2 0.34301529E+03</rscale>
<asrwt>0</asrwt>
<pdfrwt beam="1">  1        2 0.91947245E-01 0.34301529E+03</pdfrwt>
<pdfrwt beam="2">  1       -2 0.30728595E-01 0.34301529E+03</pdfrwt>
<totfact> 0.49726099E+02</totfact>
</mgrwt>
</event>
<event>
 4    1  0.7368504E-001  0.3248088E+03  0.7546771E-02  0.1073457E+00
          2   -1    0    0  502    0  0.00000000000E+00  0.00000000000E+00  0.11403049637E+04  0.11403049637E+04  0.00000000000E+00 0.  1.
         -2   -1    0    0    0  501 -0.00000000000E+00 -0.00000000000E+00 -0.10082656566E+03  0.10082656566E+03  0.00000000000E+00 0. -1.
          6    1    1    2  502    0 -0.26172596368E+03 -0.84091013087E+02  0.69786076427E+03  0.76974698756E+03  0.17300000000E+03 0.  1.
         -6    1    1    2    0  501  0.26172596368E+03  0.84091013087E+02  0.34161763378E+03  0.47138454181E+03  0.17300000000E+03 0. -1.
<mgrwt>
<rscale>  2 0.32480883E+03</rscale>
<asrwt>0</asrwt>
<pdfrwt beam="1">  1        2 0.17543152E+00 0.32480883E+03</pdfrwt>
<pdfrwt beam="2">  1       -2 0.15511780E-01 0.32480883E+03</pdfrwt>
<totfact> 0.69988089E+02</totfact>
</mgrwt>
</event>
<event>
 4    1  0.7368504E-001  0.1735779E+03  0.7546771E-02  0.1174167E+00
          1   -1    0    0  502    0  0.00000000000E+00  0.00000000000E+00  0.12767954684E+02  0.12767954684E+02  0.00000000000E+00 0.  1.
         -1   -1    0    0    0  501 -0.00000000000E+00 -0.00000000000E+00 -0.24021725933E+04  0.24021725933E+04  0.00000000000E+00 0. -1.
          6    1    1    2  502    0 -0.13871984336E+02 -0.28012133144E+01 -0.13551501271E+04  0.13662214849E+04  0.17300000000E+03 0. -1.
         -6    1    1    2    0  501  0.13871984336E+02  0.28012133144E+01 -0.10342545115E+04  0.10487190631E+04  0.17300000000E+03 0.  1.
<mgrwt>
<rscale>  2 0.17357788E+03</rscale>
<asrwt>0</asrwt>
<pdfrwt beam="1">  1        1 0.19643009E-02 0.17357788E+03</pdfrwt>
<pdfrwt beam="2">  1       -1 0.36956499E+00 0.17357788E+03</pdfrwt>
<totfact> 0.87830817E+01</totfact>
</mgrwt>
</event>
<event>
 4    1  0.7368504E-001  0.1889318E+03  0.7546771E-02  0.1159428E+00
         -1   -1    0    0    0  501 -0.00000000000E+00  0.00000000000E+00  0.48663468547E+02  0.48663468547E+02  0.00000000000E+00 0. -1.
          1   -1    0    0  502    0  0.00000000000E+00 -0.00000000000E+00 -0.93211939521E+03  0.93211939521E+03  0.00000000000E+00 0.  1.
          6    1    1    2  502    0 -0.51257652413E+02  0.56025732177E+02 -0.21536519270E+03  0.28649152836E+03  0.17300000000E+03 0. -1.
         -6    1    1    2    0  501  0.51257652413E+02 -0.56025732177E+02 -0.66809073396E+03  0.69429133539E+03  0.17300000000E+03 0.  1.
<mgrwt>
<rscale>  2 0.18893181E+03</rscale>
<asrwt>0</asrwt>
<pdfrwt beam="1">  1        1 0.14340297E+00 0.18893181E+03</pdfrwt>
<pdfrwt beam="2">  1       -1 0.74866881E-02 0.18893181E+03</pdfrwt>
<totfact> 0.17136120E+03</totfact>
</mgrwt>
</event>
<event>
 4    1  0.7368504E-001  0.2491904E+03  0.7546771E-02  0.1113818E+00
         -2   -1    0    0    0  501 -0.00000000000E+00  0.00000000000E+00  0.10439952198E+03  0.10439952198E+03  0.00000000000E+00 0.  1.
          2   -1    0    0  502    0  0.00000000000E+00 -0.00000000000E+00 -0.63569426960E+03  0.63569426960E+03  0.00000000000E+00 0. -1.
          6    1    1    2  502    0  0.17922133101E+03 -0.68228181145E+01 -0.17178000007E+03  0.30266186539E+03  0.17300000000E+03 0. -1.
         -6    1    1    2    0  501 -0.17922133101E+03  0.68228181145E+01 -0.35951474755E+03  0.43743192619E+03  0.17300000000E+03 0. -1.
<mgrwt>
<rscale>  2 0.24919036E+03</rscale>
<asrwt>0</asrwt>
<pdfrwt beam="1">  1        2 0.97799120E-01 0.24919036E+03</pdfrwt>
<pdfrwt beam="2">  1       -2 0.16061465E-01 0.24919036E+03</pdfrwt>
<totfact> 0.14378832E+03</totfact>
</mgrwt>
</event>
<event>
 4    1  0.7368504E-001  0.1812633E+03  0.7546771E-02  0.1166586E+00
         -2   -1    0    0    0  501 -0.00000000000E+00  0.00000000000E+00  0.87256541675E+02  0.87256541675E+02  0.00000000000E+00 0.  1.
          2   -1    0    0  502    0  0.00000000000E+00 -0.00000000000E+00 -0.44577163369E+03  0.44577163369E+03  0.00000000000E+00 0. -1.
          6    1    1    2  502    0  0.25572627699E+02  0.47680455715E+02 -0.28428122738E+03  0.33715308301E+03  0.17300000000E+03 0. -1.
         -6    1    1    2    0  501 -0.25572627699E+02 -0.47680455715E+02 -0.74233864631E+02  0.19587509235E+03  0.17300000000E+03 0. -1.
<mgrwt>
<rscale>  2 0.18126330E+03</rscale>
<asrwt>0</asrwt>
<pdfrwt beam="1">  1        2 0.68580252E-01 0.18126330E+03</pdfrwt>
<pdfrwt beam="2">  1       -2 0.13424083E-01 0.18126330E+03</pdfrwt>
<totfact> 0.28667921E+03</totfact>
</mgrwt>
</event>
<event>
 4    1  0.7368504E-001  0.1922109E+03  0.7546771E-02  0.1156482E+00
         -1   -1    0    0    0  501 -0.00000000000E+00  0.00000000000E+00  0.35097067692E+02  0.35097067692E+02  0.00000000000E+00 0.  1.
          1   -1    0    0  502    0  0.00000000000E+00 -0.00000000000E+00 -0.12584607374E+04  0.12584607374E+04  0.00000000000E+00 0. -1.
          6    1    1    2  502    0 -0.71760316907E+02 -0.43202843226E+02 -0.35012443899E+03  0.39941476128E+03  0.17300000000E+03 0.  1.
         -6    1    1    2    0  501  0.71760316907E+02  0.43202843226E+02 -0.87323923076E+03  0.89414304386E+03  0.17300000000E+03 0. -1.
<mgrwt>
<rscale>  2 0.19221090E+03</rscale>
<asrwt>0</asrwt>
<pdfrwt beam="1">  1        1 0.19360934E+00 0.19221090E+03</pdfrwt>
<pdfrwt beam="2">  1       -1 0.53995490E-02 0.19221090E+03</pdfrwt>
<totfact> 0.16347056E+03</totfact>
</mgrwt>
</event>
<event>
 4    1  0.7368504E-001  0.2981000E+03  0.7546771E-02  0.1086194E+00
         -1   -1    0    0    0  501 -0.00000000000E+00  0.00000000000E+00  0.10688295395E+03  0.10688295395E+03  0.00000000000E+00 0.  1.
          1   -1    0    0  502    0  0.00000000000E+00 -0.00000000000E+00 -0.83142554642E+03  0.83142554642E+03  0.00000000000E+00 0. -1.
          6    1    1    2  502    0 -0.16139299049E+03  0.18134755830E+03 -0.36425210529E+03  0.47068379034E+03  0.17300000000E+03 0. -1.
         -6    1    1    2    0  501  0.16139299049E+03 -0.18134755830E+03 -0.36029048717E+03  0.46762471003E+03  0.17300000000E+03 0.  1.
<mgrwt>
<rscale>  2 0.29810004E+03</rscale>
<asrwt>0</asrwt>
<pdfrwt beam="1">  1        1 0.12791163E+00 0.29810004E+03</pdfrwt>
<pdfrwt beam="2">  1       -1 0.16443531E-01 0.29810004E+03</pdfrwt>
<totfact> 0.60302419E+02</totfact>
</mgrwt>
</event>
<event>
 4    1  0.7368504E-001  0.2373767E+03  0.7546771E-02  0.1121553E+00
         -1   -1    0    0    0  501 -0.00000000000E+00  0.00000000000E+00  0.55545518824E+02  0.55545518824E+02  0.00000000000E+00 0.  1.
          1   -1    0    0  502    0  0.00000000000E+00 -0.00000000000E+00 -0.11041325337E+04  0.11041325337E+04  0.00000000000E+00 0. -1.
          6    1    1    2  502    0 -0.12272534326E+03 -0.10657010643E+03 -0.68955458032E+03  0.72926896047E+03  0.17300000000E+03 0. -1.
         -6    1    1    2    0  501  0.12272534326E+03  0.10657010643E+03 -0.35903243456E+03  0.43040909206E+03  0.17300000000E+03 0.  1.
<mgrwt>
<rscale>  2 0.23737670E+03</rscale>
<asrwt>0</asrwt>
<pdfrwt beam="1">  1        1 0.16986652E+00 0.23737670E+03</pdfrwt>
<pdfrwt beam="2">  1       -1 0.85454654E-02 0.23737670E+03</pdfrwt>
<totfact> 0.10448283E+03</totfact>
</mgrwt>
</event>
<event>
 4    1  0.7368504E-001  0.2821869E+03  0.7546771E-02  0.1094500E+00
          1   -1    0    0  502    0  0.00000000000E+00  0.00000000000E+00  0.14541288702E+03  0.14541288702E+03  0.00000000000E+00 0. -1.
         -1   -1    0    0    0  501 -0.00000000000E+00 -0.00000000000E+00 -0.59244409625E+03  0.59244409625E+03  0.00000000000E+00 0.  1.
          6    1    1    2  502    0 -0.11743280229E+03  0.18949930463E+03 -0.32500627018E+03  0.43041668784E+03  0.17300000000E+03 0. -1.
         -6    1    1    2    0  501  0.11743280229E+03 -0.18949930463E+03 -0.12202493905E+03  0.30744029544E+03  0.17300000000E+03 0.  1.
<mgrwt>
<rscale>  2 0.28218691E+03</rscale>
<asrwt>0</asrwt>
<pdfrwt beam="1">  1        1 0.22371213E-01 0.28218691E+03</pdfrwt>
<pdfrwt beam="2">  1       -1 0.91145246E-01 0.28218691E+03</pdfrwt>
<totfact> 0.27402111E+02</totfact>
</mgrwt>
</event>
<event>
 4    1  0.7368504E-001  0.1936654E+03  0.7546771E-02  0.1155196E+00
         -2   -1    0    0    0  501 -0.00000000000E+00  0.00000000000E+00  0.35444260724E+02  0.35444260724E+02  0.00000000000E+00 0. -1.
          2   -1    0    0  502    0  0.00000000000E+00 -0.00000000000E+00 -0.11151646099E+04  0.11151646099E+04  0.00000000000E+00 0.  1.
          6    1    1    2  502    0 -0.86314817570E+02 -0.11271519549E+02 -0.40980753736E+03  0.45326428556E+03  0.17300000000E+03 0. -1.
         -6    1    1    2    0  501  0.86314817570E+02  0.11271519549E+02 -0.66991281182E+03  0.69734458507E+03  0.17300000000E+03 0.  1.
<mgrwt>
<rscale>  2 0.19366542E+03</rscale>
<asrwt>0</asrwt>
<pdfrwt beam="1">  1        2 0.17156381E+00 0.19366542E+03</pdfrwt>
<pdfrwt beam="2">  1       -2 0.54529623E-02 0.19366542E+03</pdfrwt>
<totfact> 0.38068776E+03</totfact>
</mgrwt>
</event>
<event>
 4    1  0.7368504E-001  0.3086107E+03  0.7546771E-02  0.1081014E+00
          1   -1    0    0  502    0  0.00000000000E+00  0.00000000000E+00  0.28687094975E+03  0.28687094975E+03  0.00000000000E+00 0. -1.
         -1   -1    0    0    0  501 -0.00000000000E+00 -0.00000000000E+00 -0.33244291198E+03  0.33244291198E+03  0.00000000000E+00 0.  1.
          6    1    1    2  502    0 -0.23901748714E+03 -0.90455512580E+02 -0.34115145207E+02  0.31049058286E+03  0.17300000000E+03 0. -1.
         -6    1    1    2    0  501  0.23901748714E+03  0.90455512580E+02 -0.11456817018E+02  0.30882327887E+03  0.17300000000E+03 0.  1.
<mgrwt>
<rscale>  2 0.30861069E+03</rscale>
<asrwt>0</asrwt>
<pdfrwt beam="1">  1        1 0.44133992E-01 0.30861069E+03</pdfrwt>
<pdfrwt beam="2">  1       -1 0.51145064E-01 0.30861069E+03</pdfrwt>
<totfact> 0.36670056E+02</totfact>
</mgrwt>
</event>
<event>
 4    1  0.7368504E-001  0.1808722E+03  0.7546771E-02  0.1166962E+00
          2   -1    0    0  502    0  0.00000000000E+00  0.00000000000E+00  0.55780017829E+03  0.55780017829E+03  0.00000000000E+00 0. -1.
         -2   -1    0    0    0  501 -0.00000000000E+00 -0.00000000000E+00 -0.17325966886E+03  0.17325966886E+03  0.00000000000E+00 0.  1.
          6    1    1    2  502    0  0.24719912209E+02 -0.46633623404E+02 -0.10502333372E+03  0.20915226395E+03  0.17300000000E+03 0.  1.
         -6    1    1    2    0  501 -0.24719912209E+02  0.46633623404E+02  0.48956384314E+03  0.52190758320E+03  0.17300000000E+03 0. -1.
<mgrwt>
<rscale>  2 0.18087224E+03</rscale>
<asrwt>0</asrwt>
<pdfrwt beam="1">  1        2 0.85815411E-01 0.18087224E+03</pdfrwt>
<pdfrwt beam="2">  1       -2 0.26655334E-01 0.18087224E+03</pdfrwt>
<totfact> 0.69940274E+02</totfact>
</mgrwt>
</event>
<event>
 4    1  0.7368504E-001  0.2222140E+03  0.7546771E-02  0.1132243E+00
         -2   -1    0    0    0  501 -0.00000000000E+00  0.00000000000E+00  0.26242398382E+02  0.26242398382E+02  0.00000000000E+00 0. -1.
          2   -1    0    0  502    0  0.00000000000E+00 -0.00000000000E+00 -0.19949913945E+04  0.19949913945E+04  0.00000000000E+00 0.  1.
          6    1    1    2  502    0  0.12140591562E+03 -0.68634340366E+02 -0.74349162131E+03  0.77598895610E+03  0.17300000000E+03 0.  1.
         -6    1    1    2    0  501 -0.12140591562E+03  0.68634340366E+02 -0.12252573748E+04  0.12452448368E+04  0.17300000000E+03 0.  1.
<mgrwt>
<rscale>  2 0.22221402E+03</rscale>
<asrwt>0</asrwt>
<pdfrwt beam="1">  1        2 0.30692185E+00 0.22221402E+03</pdfrwt>
<pdfrwt beam="2">  1       -2 0.40372908E-02 0.22221402E+03</pdfrwt>
<totfact> 0.20312017E+03</totfact>
</mgrwt>
</event>
<event>
 4    1  0.7368504E-001  0.2314797E+03  0.7546771E-02  0.1125603E+00
         -1   -1    0    0    0  501 -0.00000000000E+00  0.00000000000E+00  0.33763564051E+02  0.33763564051E+02  0.00000000000E+00 0.  1.
          1   -1    0    0  502    0  0.00000000000E+00 -0.00000000000E+00 -0.16988286614E+04  0.16988286614E+04  0.00000000000E+00 0. -1.
          6    1    1    2  502    0  0.42257267527E+02  0.14787897182E+03 -0.61027172678E+03  0.65269782248E+03  0.17300000000E+03 0. -1.
         -6    1    1    2    0  501 -0.42257267527E+02 -0.14787897182E+03 -0.10547933706E+04  0.10798944030E+04  0.17300000000E+03 0.  1.
<mgrwt>
<rscale>  2 0.23147973E+03</rscale>
<asrwt>0</asrwt>
<pdfrwt beam="1">  1        1 0.26135830E+00 0.23147973E+03</pdfrwt>
<pdfrwt beam="2">  1       -1 0.51943936E-02 0.23147973E+03</pdfrwt>
<totfact> 0.88326944E+02</totfact>
</mgrwt>
</event>
<event>
 4    1  0.7368504E-001  0.1867011E+03  0.7546771E-02  0.1161471E+00
         -2   -1    0    0    0  501 -0.00000000000E+00  0.00000000000E+00  0.38401695343E+02  0.38401695343E+02  0.00000000000E+00 0.  1.
          2   -1    0    0  502    0  0.00000000000E+00 -0.00000000000E+00 -0.17152248063E+04  0.17152248063E+04  0.00000000000E+00 0. -1.
          6    1    1    2  502    0 -0.44325185944E+02  0.54438907588E+02 -0.14400337237E+04  0.14520862379E+04  0.17300000000E+03 0. -1.
         -6    1    1    2    0  501  0.44325185944E+02 -0.54438907588E+02 -0.23678938725E+03  0.30154026378E+03  0.17300000000E+03 0.  1.
<mgrwt>
<rscale>  2 0.18670114E+03</rscale>
<asrwt>0</asrwt>
<pdfrwt beam="1">  1        2 0.26388075E+00 0.18670114E+03</pdfrwt>
<pdfrwt beam="2">  1       -2 0.59079529E-02 0.18670114E+03</pdfrwt>
<totfact> 0.15986055E+03</totfact>
</mgrwt>
</event>
<event>
 4    1  0.7368504E-001  0.1743067E+03  0.7546771E-02  0.1173430E+00
         -2   -1    0    0    0  501 -0.00000000000E+00  0.00000000000E+00  0.11328615975E+02  0.11328615975E+02  0.00000000000E+00 0. -1.
          2   -1    0    0  502    0  0.00000000000E+00 -0.00000000000E+00 -0.27105036448E+04  0.27105036448E+04  0.00000000000E+00 0.  1.
          6    1    1    2  502    0 -0.13195057751E+02 -0.16724983146E+02 -0.12099180198E+04  0.12224092806E+04  0.17300000000E+03 0. -1.
         -6    1    1    2    0  501  0.13195057751E+02  0.16724983146E+02 -0.14892570090E+04  0.14994229801E+04  0.17300000000E+03 0.  1.
<mgrwt>
<rscale>  2 0.17430673E+03</rscale>
<asrwt>0</asrwt>
<pdfrwt beam="1">  1        2 0.41700101E+00 0.17430673E+03</pdfrwt>
<pdfrwt beam="2">  1       -2 0.17428621E-02 0.17430673E+03</pdfrwt>
<totfact> 0.29243501E+03</totfact>
</mgrwt>
</event>
<event>
 4    1  0.7368504E-001  0.1879646E+03  0.7546771E-02  0.1160310E+00
          2   -1    0    0  502    0  0.00000000000E+00  0.00000000000E+00  0.97817423581E+02  0.97817423581E+02  0.00000000000E+00 0.  1.
         -2   -1    0    0    0  501 -0.00000000000E+00 -0.00000000000E+00 -0.36145953936E+03  0.36145953936E+03  0.00000000000E+00 0. -1.
          6    1    1    2  502    0 -0.36263105772E+02  0.63927032760E+02 -0.13809152793E+03  0.23323796527E+03  0.17300000000E+03 0.  1.
         -6    1    1    2    0  501  0.36263105772E+02 -0.63927032760E+02 -0.12555058784E+03  0.22603899766E+03  0.17300000000E+03 0. -1.
<mgrwt>
<rscale>  2 0.18796457E+03</rscale>
<asrwt>0</asrwt>
<pdfrwt beam="1">  1        2 0.15048834E-01 0.18796457E+03</pdfrwt>
<pdfrwt beam="2">  1       -2 0.55609161E-01 0.18796457E+03</pdfrwt>
<totfact> 0.11877789E+03</totfact>
</mgrwt>
</event>
<event>
 4    1  0.7368504E-001  0.1749943E+03  0.7546771E-02  0.1172737E+00
          2   -1    0    0  502    0  0.00000000000E+00  0.00000000000E+00  0.28163274156E+03  0.28163274156E+03  0.00000000000E+00 0. -1.
         -2   -1    0    0    0  501 -0.00000000000E+00 -0.00000000000E+00 -0.11052904072E+03  0.11052904072E+03  0.00000000000E+00 0.  1.
          6    1    1    2  502    0 -0.24743714208E+02  0.90426174074E+01  0.60562848356E+02  0.18517796555E+03  0.17300000000E+03 0.  1.
         -6    1    1    2    0  501  0.24743714208E+02 -0.90426174074E+01  0.11054085248E+03  0.20698381673E+03  0.17300000000E+03 0.  1.
<mgrwt>
<rscale>  2 0.17499434E+03</rscale>
<asrwt>0</asrwt>
<pdfrwt beam="1">  1        2 0.43328114E-01 0.17499434E+03</pdfrwt>
<pdfrwt beam="2">  1       -2 0.17004468E-01 0.17499434E+03</pdfrwt>
<totfact> 0.31779476E+03</totfact>
</mgrwt>
</event>
<event>
 4    1  0.7368504E-001  0.2052794E+03  0.7546771E-02  0.1145360E+00
         -2   -1    0    0    0  501 -0.00000000000E+00  0.00000000000E+00  0.59536993631E+02  0.59536993631E+02  0.00000000000E+00 0.  1.
          2   -1    0    0  502    0  0.00000000000E+00 -0.00000000000E+00 -0.11811462253E+04  0.11811462253E+04  0.00000000000E+00 0. -1.
          6    1    1    2  502    0  0.51099361765E+02 -0.97976884837E+02 -0.95351618527E+03  0.97536287110E+03  0.17300000000E+03 0. -1.
         -6    1    1    2    0  501 -0.51099361765E+02  0.97976884837E+02 -0.16809304643E+03  0.26532034787E+03  0.17300000000E+03 0.  1.
<mgrwt>
<rscale>  2 0.20527936E+03</rscale>
<asrwt>0</asrwt>
<pdfrwt beam="1">  1        2 0.18171480E+00 0.20527936E+03</pdfrwt>
<pdfrwt beam="2">  1       -2 0.91595378E-02 0.20527936E+03</pdfrwt>
<totfact> 0.15657112E+03</totfact>
</mgrwt>
</event>
<event>
 4    1  0.7368504E-001  0.2260721E+03  0.7546771E-02  0.1129435E+00
          1   -1    0    0  502    0  0.00000000000E+00  0.00000000000E+00  0.31104556822E+04  0.31104556822E+04  0.00000000000E+00 0. -1.
         -1   -1    0    0    0  501 -0.00000000000E+00 -0.00000000000E+00 -0.16740252852E+02  0.16740252852E+02  0.00000000000E+00 0.  1.
          6    1    1    2  502    0  0.14424175296E+03 -0.19336917189E+02  0.13344147577E+04  0.13534294755E+04  0.17300000000E+03 0. -1.
         -6    1    1    2    0  501 -0.14424175296E+03  0.19336917189E+02  0.17593006717E+04  0.17737664596E+04  0.17300000000E+03 0. -1.
<mgrwt>
<rscale>  2 0.22607211E+03</rscale>
<asrwt>0</asrwt>
<pdfrwt beam="1">  1        1 0.47853118E+00 0.22607211E+03</pdfrwt>
<pdfrwt beam="2">  1       -1 0.25754260E-02 0.22607211E+03</pdfrwt>
<totfact> 0.28891109E+02</totfact>
</mgrwt>
</event>
<event>
 4    1  0.7368504E-001  0.3008172E+03  0.7546771E-02  0.1084833E+00
          2   -1    0    0  502    0  0.00000000000E+00  0.00000000000E+00  0.29141025343E+03  0.29141025343E+03  0.00000000000E+00 0.  1.
         -2   -1    0    0    0  501 -0.00000000000E+00 -0.00000000000E+00 -0.32115298131E+03  0.32115298131E+03  0.00000000000E+00 0. -1.
          6    1    1    2  502    0 -0.21549241192E+03  0.11884868621E+03 -0.70581315798E+02  0.30898658862E+03  0.17300000000E+03 0. -1.
         -6    1    1    2    0  501  0.21549241192E+03 -0.11884868621E+03  0.40838587920E+02  0.30357664612E+03  0.17300000000E+03 0.  1.
<mgrwt>
<rscale>  2 0.30081720E+03</rscale>
<asrwt>0</asrwt>
<pdfrwt beam="1">  1        2 0.44832347E-01 0.30081720E+03</pdfrwt>
<pdfrwt beam="2">  1       -2 0.49408151E-01 0.30081720E+03</pdfrwt>
<totfact> 0.44588456E+02</totfact>
</mgrwt>
</event>
<event>
 4    1  0.7368504E-001  0.1730113E+03  0.7546771E-02  0.1174743E+00
         -2   -1    0    0    0  501 -0.00000000000E+00  0.00000000000E+00  0.29838951961E+02  0.29838951961E+02  0.00000000000E+00 0. -1.
          2   -1    0    0  502    0  0.00000000000E+00 -0.00000000000E+00 -0.12089504993E+04  0.12089504993E+04  0.00000000000E+00 0.  1.
          6    1    1    2  502    0  0.18234976711E+01  0.75638355700E+00 -0.33399856759E+03  0.37614882747E+03  0.17300000000E+03 0. -1.
         -6    1    1    2    0  501 -0.18234976711E+01 -0.75638355700E+00 -0.84511297972E+03  0.86264062375E+03  0.17300000000E+03 0.  1.
<mgrwt>
<rscale>  2 0.17301126E+03</rscale>
<asrwt>0</asrwt>
<pdfrwt beam="1">  1        2 0.18599239E+00 0.17301126E+03</pdfrwt>
<pdfrwt beam="2">  1       -2 0.45906079E-02 0.17301126E+03</pdfrwt>
<totfact> 0.43580734E+03</totfact>
</mgrwt>
</event>
<event>
 4    1  0.7368504E-001  0.2669163E+03  0.7546771E-02  0.1103058E+00
         -2   -1    0    0    0  501 -0.00000000000E+00  0.00000000000E+00  0.35373438975E+02  0.35373438975E+02  0.00000000000E+00 0. -1.
          2   -1    0    0  502    0  0.00000000000E+00 -0.00000000000E+00 -0.23605591302E+04  0.23605591302E+04  0.00000000000E+00 0.  1.
          6    1    1    2  502    0 -0.19111570223E+03  0.69210627493E+02 -0.16215652357E+04  0.16433861799E+04  0.17300000000E+03 0.  1.
         -6    1    1    2    0  501  0.19111570223E+03 -0.69210627493E+02 -0.70362045544E+03  0.75254638921E+03  0.17300000000E+03 0. -1.
<mgrwt>
<rscale>  2 0.26691632E+03</rscale>
<asrwt>0</asrwt>
<pdfrwt beam="1">  1        2 0.36316289E+00 0.26691632E+03</pdfrwt>
<pdfrwt beam="2">  1       -2 0.54420684E-02 0.26691632E+03</pdfrwt>
<totfact> 0.82205310E+02</totfact>
</mgrwt>
</event>
<event>
 4    1  0.7368504E-001  0.1883895E+03  0.7546771E-02  0.1159922E+00
          2   -1    0    0  502    0  0.00000000000E+00  0.00000000000E+00  0.71161581041E+02  0.71161581041E+02  0.00000000000E+00 0. -1.
         -2   -1    0    0    0  501 -0.00000000000E+00 -0.00000000000E+00 -0.51695236948E+03  0.51695236948E+03  0.00000000000E+00 0.  1.
          6    1    1    2  502    0 -0.70721216521E+02  0.23667016977E+02 -0.27809991878E+03  0.33590204373E+03  0.17300000000E+03 0.  1.
         -6    1    1    2    0  501  0.70721216521E+02 -0.23667016977E+02 -0.16769086966E+03  0.25221190679E+03  0.17300000000E+03 0.  1.
<mgrwt>
<rscale>  2 0.18838954E+03</rscale>
<asrwt>0</asrwt>
<pdfrwt beam="1">  1        2 0.10947935E-01 0.18838954E+03</pdfrwt>
<pdfrwt beam="2">  1       -2 0.79531135E-01 0.18838954E+03</pdfrwt>
<totfact> 0.81783110E+02</totfact>
</mgrwt>
</event>
<event>
 4    1  0.7368504E-001  0.2097884E+03  0.7546771E-02  0.1141734E+00
         -2   -1    0    0    0  501 -0.00000000000E+00  0.00000000000E+00  0.22904857463E+02  0.22904857463E+02  0.00000000000E+00 0. -1.
          2   -1    0    0  502    0  0.00000000000E+00 -0.00000000000E+00 -0.23814239838E+04  0.23814239838E+04  0.00000000000E+00 0.  1.
          6    1    1    2  502    0  0.10565658722E+03  0.54026316321E+02 -0.17075824038E+04  0.17204211180E+04  0.17300000000E+03 0. -1.
         -6    1    1    2    0  501 -0.10565658722E+03 -0.54026316321E+02 -0.65093672255E+03  0.68390772334E+03  0.17300000000E+03 0.  1.
<mgrwt>
<rscale>  2 0.20978836E+03</rscale>
<asrwt>0</asrwt>
<pdfrwt beam="1">  1        2 0.36637323E+00 0.20978836E+03</pdfrwt>
<pdfrwt beam="2">  1       -2 0.35238213E-02 0.20978836E+03</pdfrwt>
<totfact> 0.15592191E+03</totfact>
</mgrwt>
</event>
<event>
 4    1  0.7368504E-001  0.1952893E+03  0.7546771E-02  0.1153775E+00
         -2   -1    0    0    0  501 -0.00000000000E+00  0.00000000000E+00  0.65040107490E+02  0.65040107490E+02  0.00000000000E+00 0. -1.
          2   -1    0    0  502    0  0.00000000000E+00 -0.00000000000E+00 -0.93333736560E+03  0.93333736560E+03  0.00000000000E+00 0.  1.
          6    1    1    2  502    0  0.81832233629E+02  0.38889456476E+02 -0.12978936318E+03  0.23448493146E+03  0.17300000000E+03 0. -1.
         -6    1    1    2    0  501 -0.81832233629E+02 -0.38889456476E+02 -0.73850789493E+03  0.76389254163E+03  0.17300000000E+03 0.  1.
<mgrwt>
<rscale>  2 0.19528928E+03</rscale>
<asrwt>0</asrwt>
<pdfrwt beam="1">  1        2 0.14359036E+00 0.19528928E+03</pdfrwt>
<pdfrwt beam="2">  1       -2 0.10006171E-01 0.19528928E+03</pdfrwt>
<totfact> 0.19103816E+03</totfact>
</mgrwt>
</event>
<event>
 4    1  0.7368504E-001  0.2015056E+03  0.7546771E-02  0.1148475E+00
         -2   -1    0    0    0  501 -0.00000000000E+00  0.00000000000E+00  0.18435675941E+02  0.18435675941E+02  0.00000000000E+00 0.  1.
          2   -1    0    0  502    0  0.00000000000E+00 -0.00000000000E+00 -0.28958261485E+04  0.28958261485E+04  0.00000000000E+00 0. -1.
          6    1    1    2  502    0  0.99013416103E+02  0.29527140740E+02 -0.21516833144E+04  0.21610982379E+04  0.17300000000E+03 0. -1.
         -6    1    1    2    0  501 -0.99013416103E+02 -0.29527140740E+02 -0.72570715813E+03  0.75316358646E+03  0.17300000000E+03 0.  1.
<mgrwt>
<rscale>  2 0.20150560E+03</rscale>
<asrwt>0</asrwt>
<pdfrwt beam="1">  1        2 0.44551144E+00 0.20150560E+03</pdfrwt>
<pdfrwt beam="2">  1       -2 0.28362596E-02 0.20150560E+03</pdfrwt>
<totfact> 0.11192274E+03</totfact>
</mgrwt>
</event>
<event>
 4    1  0.7368504E-001  0.2032041E+03  0.7546771E-02  0.1147063E+00
          2   -1    0    0  502    0  0.00000000000E+00  0.00000000000E+00  0.22240855881E+03  0.22240855881E+03  0.00000000000E+00 0. -1.
         -2   -1    0    0    0  501 -0.00000000000E+00 -0.00000000000E+00 -0.18569117607E+03  0.18569117607E+03  0.00000000000E+00 0.  1.
          6    1    1    2  502    0 -0.28466123905E+02 -0.10272583398E+03  0.21088156713E+02  0.20429544178E+03  0.17300000000E+03 0. -1.
         -6    1    1    2    0  501  0.28466123905E+02  0.10272583398E+03  0.15629226027E+02  0.20380429309E+03  0.17300000000E+03 0. -1.
<mgrwt>
<rscale>  2 0.20320413E+03</rscale>
<asrwt>0</asrwt>
<pdfrwt beam="1">  1        2 0.34216701E-01 0.20320413E+03</pdfrwt>
<pdfrwt beam="2">  1       -2 0.28567873E-01 0.20320413E+03</pdfrwt>
<totfact> 0.16798174E+03</totfact>
</mgrwt>
</event>
<event>
 4    1  0.7368504E-001  0.1834630E+03  0.7546771E-02  0.1164493E+00
          1   -1    0    0  502    0  0.00000000000E+00  0.00000000000E+00  0.16877029079E+03  0.16877029079E+03  0.00000000000E+00 0.  1.
         -1   -1    0    0    0  501 -0.00000000000E+00 -0.00000000000E+00 -0.23698285612E+03  0.23698285612E+03  0.00000000000E+00 0. -1.
          6    1    1    2  502    0  0.37612162256E+02  0.48114416035E+02 -0.11486084670E+03  0.21645250260E+03  0.17300000000E+03 0. -1.
         -6    1    1    2    0  501 -0.37612162256E+02 -0.48114416035E+02  0.46648281361E+02  0.18930064430E+03  0.17300000000E+03 0.  1.
<mgrwt>
<rscale>  2 0.18346300E+03</rscale>
<asrwt>0</asrwt>
<pdfrwt beam="1">  1        1 0.25964660E-01 0.18346300E+03</pdfrwt>
<pdfrwt beam="2">  1       -1 0.36458901E-01 0.18346300E+03</pdfrwt>
<totfact> 0.13154552E+03</totfact>
</mgrwt>
</event>
<event>
 4    1  0.7368504E-001  0.2558482E+03  0.7546771E-02  0.1109664E+00
         -2   -1    0    0    0  501 -0.00000000000E+00  0.00000000000E+00  0.11264506434E+03  0.11264506434E+03  0.00000000000E+00 0. -1.
          2   -1    0    0  502    0  0.00000000000E+00 -0.00000000000E+00 -0.26177038658E+04  0.26177038658E+04  0.00000000000E+00 0.  1.
          6    1    1    2  502    0 -0.82912009227E+02  0.16927756957E+03 -0.24566803838E+04  0.24699669643E+04  0.17300000000E+03 0.  1.
         -6    1    1    2    0  501  0.82912009227E+02 -0.16927756957E+03 -0.48378417698E+02  0.26038196583E+03  0.17300000000E+03 0. -1.
<mgrwt>
<rscale>  2 0.25584819E+03</rscale>
<asrwt>0</asrwt>
<pdfrwt beam="1">  1        2 0.40272363E+00 0.25584819E+03</pdfrwt>
<pdfrwt beam="2">  1       -2 0.17330012E-01 0.25584819E+03</pdfrwt>
<totfact> 0.93804213E+01</totfact>
</mgrwt>
</event>
<event>
 4    1  0.7368504E-001  0.1959972E+03  0.7546771E-02  0.1153161E+00
          2   -1    0    0  502    0  0.00000000000E+00  0.00000000000E+00  0.19783958072E+04  0.19783958072E+04  0.00000000000E+00 0.  1.
         -2   -1    0    0    0  501 -0.00000000000E+00 -0.00000000000E+00 -0.61291309863E+02  0.61291309863E+02  0.00000000000E+00 0. -1.
          6    1    1    2  502    0 -0.27904356318E+02  0.87790978640E+02  0.11559238909E+03  0.22754452190E+03  0.17300000000E+03 0. -1.
         -6    1    1    2    0  501  0.27904356318E+02 -0.87790978640E+02  0.18015121082E+04  0.18121425952E+04  0.17300000000E+03 0.  1.
<mgrwt>
<rscale>  2 0.19599722E+03</rscale>
<asrwt>0</asrwt>
<pdfrwt beam="1">  1        2 0.30436854E+00 0.19599722E+03</pdfrwt>
<pdfrwt beam="2">  1       -2 0.94294338E-02 0.19599722E+03</pdfrwt>
<totfact> 0.56477387E+02</totfact>
</mgrwt>
</event>
<event>
 4    1  0.7368504E-001  0.1976025E+03  0.7546771E-02  0.1151778E+00
          2   -1    0    0  502    0  0.00000000000E+00  0.00000000000E+00  0.99898205340E+03  0.99898205340E+03  0.00000000000E+00 0.  1.
         -2   -1    0    0    0  501 -0.00000000000E+00 -0.00000000000E+00 -0.39167366473E+02  0.39167366473E+02  0.00000000000E+00 0. -1.
          6    1    1    2  502    0  0.85575035172E+02 -0.42363421975E+02  0.50348823163E+03  0.54087627564E+03  0.17300000000E+03 0. -1.
         -6    1    1    2    0  501 -0.85575035172E+02  0.42363421975E+02  0.45632645530E+03  0.49727314423E+03  0.17300000000E+03 0.  1.
<mgrwt>
<rscale>  2 0.19760250E+03</rscale>
<asrwt>0</asrwt>
<pdfrwt beam="1">  1        2 0.15368953E+00 0.19760250E+03</pdfrwt>
<pdfrwt beam="2">  1       -2 0.60257494E-02 0.19760250E+03</pdfrwt>
<totfact> 0.38313728E+03</totfact>
</mgrwt>
</event>
<event>
 4    1  0.7368504E-001  0.2011293E+03  0.7546771E-02  0.1148790E+00
          2   -1    0    0  502    0  0.00000000000E+00  0.00000000000E+00  0.25595797007E+03  0.25595797007E+03  0.00000000000E+00 0.  1.
         -2   -1    0    0    0  501 -0.00000000000E+00 -0.00000000000E+00 -0.20659294673E+03  0.20659294673E+03  0.00000000000E+00 0. -1.
          6    1    1    2  502    0  0.96389217515E+02  0.35115684057E+02 -0.87430295416E+02  0.21931039436E+03  0.17300000000E+03 0. -1.
         -6    1    1    2    0  501 -0.96389217515E+02 -0.35115684057E+02  0.13679531875E+03  0.24324052243E+03  0.17300000000E+03 0. -1.
<mgrwt>
<rscale>  2 0.20112929E+03</rscale>
<asrwt>0</asrwt>
<pdfrwt beam="1">  1        2 0.39378149E-01 0.20112929E+03</pdfrwt>
<pdfrwt beam="2">  1       -2 0.31783530E-01 0.20112929E+03</pdfrwt>
<totfact> 0.11888286E+03</totfact>
</mgrwt>
</event>
<event>
 4    1  0.7368504E-001  0.1825772E+03  0.7546771E-02  0.1165332E+00
         -2   -1    0    0    0  501 -0.00000000000E+00  0.00000000000E+00  0.35649463062E+02  0.35649463062E+02  0.00000000000E+00 0.  1.
          2   -1    0    0  502    0  0.00000000000E+00 -0.00000000000E+00 -0.10777544919E+04  0.10777544919E+04  0.00000000000E+00 0. -1.
          6    1    1    2  502    0 -0.18490556598E+02 -0.55349089073E+02 -0.72361776056E+03  0.74629557532E+03  0.17300000000E+03 0.  1.
         -6    1    1    2    0  501  0.18490556598E+02  0.55349089073E+02 -0.31848726824E+03  0.36710837961E+03  0.17300000000E+03 0.  1.
<mgrwt>
<rscale>  2 0.18257717E+03</rscale>
<asrwt>0</asrwt>
<pdfrwt beam="1">  1        2 0.16580837E+00 0.18257717E+03</pdfrwt>
<pdfrwt beam="2">  1       -2 0.54845331E-02 0.18257717E+03</pdfrwt>
<totfact> 0.39619593E+03</totfact>
</mgrwt>
</event>
<event>
 4    1  0.7368504E-001  0.1758003E+03  0.7546771E-02  0.1171931E+00
         -2   -1    0    0    0  501 -0.00000000000E+00  0.00000000000E+00  0.10314332339E+02  0.10314332339E+02  0.00000000000E+00 0. -1.
          2   -1    0    0  502    0  0.00000000000E+00 -0.00000000000E+00 -0.33105526218E+04  0.33105526218E+04  0.00000000000E+00 0.  1.
          6    1    1    2  502    0 -0.29802338743E+02 -0.94111299642E+01 -0.21616235698E+04  0.21687605231E+04  0.17300000000E+03 0.  1.
         -6    1    1    2    0  501  0.29802338743E+02  0.94111299642E+01 -0.11386147197E+04  0.11521064311E+04  0.17300000000E+03 0. -1.
<mgrwt>
<rscale>  2 0.17580031E+03</rscale>
<asrwt>0</asrwt>
<pdfrwt beam="1">  1        2 0.50931543E+00 0.17580031E+03</pdfrwt>
<pdfrwt beam="2">  1       -2 0.15868215E-02 0.17580031E+03</pdfrwt>
<totfact> 0.14902205E+03</totfact>
</mgrwt>
</event>
<event>
 4    1  0.7368504E-001  0.5733087E+03  0.7546771E-02  0.9962384E-01
          1   -1    0    0  502    0  0.00000000000E+00  0.00000000000E+00  0.20459679980E+03  0.20459679980E+03  0.00000000000E+00 0.  1.
         -1   -1    0    0    0  501 -0.00000000000E+00 -0.00000000000E+00 -0.16112404240E+04  0.16112404240E+04  0.00000000000E+00 0. -1.
          6    1    1    2  502    0 -0.39114593999E+03 -0.38178355457E+03 -0.65402634196E+03  0.86973173156E+03  0.17300000000E+03 0. -1.
         -6    1    1    2    0  501  0.39114593999E+03  0.38178355457E+03 -0.75261728223E+03  0.94610549222E+03  0.17300000000E+03 0.  1.
<mgrwt>
<rscale>  2 0.57330867E+03</rscale>
<asrwt>0</asrwt>
<pdfrwt beam="1">  1        1 0.31476432E-01 0.57330867E+03</pdfrwt>
<pdfrwt beam="2">  1       -1 0.24788313E+00 0.57330867E+03</pdfrwt>
<totfact> 0.11005235E+01</totfact>
</mgrwt>
</event>
<event>
 4    1  0.7368504E-001  0.2056234E+03  0.7546771E-02  0.1145079E+00
         -1   -1    0    0    0  501 -0.00000000000E+00  0.00000000000E+00  0.89899567955E+02  0.89899567955E+02  0.00000000000E+00 0.  1.
          1   -1    0    0  502    0  0.00000000000E+00 -0.00000000000E+00 -0.49954305047E+03  0.49954305047E+03  0.00000000000E+00 0. -1.
          6    1    1    2  502    0 -0.98040672273E+02  0.52345175951E+02 -0.27611283616E+03  0.34426630558E+03  0.17300000000E+03 0.  1.
         -6    1    1    2    0  501  0.98040672273E+02 -0.52345175951E+02 -0.13353064636E+03  0.24517631285E+03  0.17300000000E+03 0. -1.
<mgrwt>
<rscale>  2 0.20562342E+03</rscale>
<asrwt>0</asrwt>
<pdfrwt beam="1">  1        1 0.76852777E-01 0.20562342E+03</pdfrwt>
<pdfrwt beam="2">  1       -1 0.13830703E-01 0.20562342E+03</pdfrwt>
<totfact> 0.16456458E+03</totfact>
</mgrwt>
</event>
<event>
 4    1  0.7368504E-001  0.2025461E+03  0.7546771E-02  0.1147609E+00
         -2   -1    0    0    0  501 -0.00000000000E+00  0.00000000000E+00  0.15027421242E+02  0.15027421242E+02  0.00000000000E+00 0.  1.
          2   -1    0    0  502    0  0.00000000000E+00 -0.00000000000E+00 -0.36468474364E+04  0.36468474364E+04  0.00000000000E+00 0. -1.
          6    1    1    2  502    0 -0.27228198521E+02  0.10175720893E+03 -0.27339519925E+04  0.27414445830E+04  0.17300000000E+03 0. -1.
         -6    1    1    2    0  501  0.27228198521E+02 -0.10175720893E+03 -0.89786802262E+03  0.92043027460E+03  0.17300000000E+03 0.  1.
<mgrwt>
<rscale>  2 0.20254605E+03</rscale>
<asrwt>0</asrwt>
<pdfrwt beam="1">  1        2 0.56105405E+00 0.20254605E+03</pdfrwt>
<pdfrwt beam="2">  1       -2 0.23119085E-02 0.20254605E+03</pdfrwt>
<totfact> 0.51465980E+02</totfact>
</mgrwt>
</event>
<event>
 4    1  0.7368504E-001  0.1970545E+03  0.7546771E-02  0.1152248E+00
          2   -1    0    0  502    0  0.00000000000E+00  0.00000000000E+00  0.12453258708E+04  0.12453258708E+04  0.00000000000E+00 0. -1.
         -2   -1    0    0    0  501 -0.00000000000E+00 -0.00000000000E+00 -0.40064476252E+02  0.40064476252E+02  0.00000000000E+00 0.  1.
          6    1    1    2  502    0 -0.87818328754E+02 -0.34488052196E+02  0.29999706116E+03  0.35892718108E+03  0.17300000000E+03 0.  1.
         -6    1    1    2    0  501  0.87818328754E+02  0.34488052196E+02  0.90526433338E+03  0.92646316597E+03  0.17300000000E+03 0. -1.
<mgrwt>
<rscale>  2 0.19705452E+03</rscale>
<asrwt>0</asrwt>
<pdfrwt beam="1">  1        2 0.19158857E+00 0.19705452E+03</pdfrwt>
<pdfrwt beam="2">  1       -2 0.61637665E-02 0.19705452E+03</pdfrwt>
<totfact> 0.26654038E+03</totfact>
</mgrwt>
</event>
<event>
 4    1  0.7368504E-001  0.1840537E+03  0.7546771E-02  0.1163937E+00
          1   -1    0    0  502    0  0.00000000000E+00  0.00000000000E+00  0.14885317779E+03  0.14885317779E+03  0.00000000000E+00 0.  1.
         -1   -1    0    0    0  501 -0.00000000000E+00 -0.00000000000E+00 -0.28652015844E+03  0.28652015844E+03  0.00000000000E+00 0. -1.
          6    1    1    2  502    0  0.13805175287E+02 -0.61287621309E+02 -0.16756734619E+03  0.24890675141E+03  0.17300000000E+03 0. -1.
         -6    1    1    2    0  501 -0.13805175287E+02  0.61287621309E+02  0.29900365540E+02  0.18646658481E+03  0.17300000000E+03 0.  1.
<mgrwt>
<rscale>  2 0.18405368E+03</rscale>
<asrwt>0</asrwt>
<pdfrwt beam="1">  1        1 0.22900489E-01 0.18405368E+03</pdfrwt>
<pdfrwt beam="2">  1       -1 0.44080024E-01 0.18405368E+03</pdfrwt>
<totfact> 0.11030423E+03</totfact>
</mgrwt>
</event>
<event>
 4    1  0.7368504E-001  0.1937789E+03  0.7546771E-02  0.1155096E+00
         -2   -1    0    0    0  501 -0.00000000000E+00  0.00000000000E+00  0.47183709989E+02  0.47183709989E+02  0.00000000000E+00 0. -1.
          2   -1    0    0  502    0  0.00000000000E+00 -0.00000000000E+00 -0.97304842009E+03  0.97304842009E+03  0.00000000000E+00 0.  1.
          6    1    1    2  502    0 -0.42372237441E+02  0.76327417358E+02 -0.24523437091E+03  0.31255427980E+03  0.17300000000E+03 0. -1.
         -6    1    1    2    0  501  0.42372237441E+02 -0.76327417358E+02 -0.68063033920E+03  0.70767785028E+03  0.17300000000E+03 0.  1.
<mgrwt>
<rscale>  2 0.19377895E+03</rscale>
<asrwt>0</asrwt>
<pdfrwt beam="1">  1        2 0.14969975E+00 0.19377895E+03</pdfrwt>
<pdfrwt beam="2">  1       -2 0.72590325E-02 0.19377895E+03</pdfrwt>
<totfact> 0.29825190E+03</totfact>
</mgrwt>
</event>
<event>
 4    1  0.7368504E-001  0.2140768E+03  0.7546771E-02  0.1138378E+00
         -2   -1    0    0    0  501 -0.00000000000E+00  0.00000000000E+00  0.81732453794E+03  0.81732453794E+03  0.00000000000E+00 0. -1.
          2   -1    0    0  502    0  0.00000000000E+00 -0.00000000000E+00 -0.57042473429E+02  0.57042473429E+02  0.00000000000E+00 0.  1.
          6    1    1    2  502    0 -0.82586804428E+02 -0.95285433473E+02  0.43716944596E+03  0.48677101247E+03  0.17300000000E+03 0. -1.
         -6    1    1    2    0  501  0.82586804428E+02  0.95285433473E+02  0.32311261856E+03  0.38759599891E+03  0.17300000000E+03 0.  1.
<mgrwt>
<rscale>  2 0.21407684E+03</rscale>
<asrwt>0</asrwt>
<pdfrwt beam="1">  1        2 0.87757658E-02 0.21407684E+03</pdfrwt>
<pdfrwt beam="2">  1       -2 0.12574223E+00 0.21407684E+03</pdfrwt>
<totfact> 0.37303790E+02</totfact>
</mgrwt>
</event>
<event>
 4    1  0.7368504E-001  0.1937392E+03  0.7546771E-02  0.1155131E+00
         -2   -1    0    0    0  501 -0.00000000000E+00  0.00000000000E+00  0.23724907861E+02  0.23724907861E+02  0.00000000000E+00 0.  1.
          2   -1    0    0  502    0  0.00000000000E+00 -0.00000000000E+00 -0.16333175115E+04  0.16333175115E+04  0.00000000000E+00 0. -1.
          6    1    1    2  502    0 -0.82185629994E+02 -0.29178766629E+02 -0.65806225358E+03  0.68598892687E+03  0.17300000000E+03 0.  1.
         -6    1    1    2    0  501  0.82185629994E+02  0.29178766629E+02 -0.95153035010E+03  0.97105349254E+03  0.17300000000E+03 0.  1.
<mgrwt>
<rscale>  2 0.19373920E+03</rscale>
<asrwt>0</asrwt>
<pdfrwt beam="1">  1        2 0.25127962E+00 0.19373920E+03</pdfrwt>
<pdfrwt beam="2">  1       -2 0.36499857E-02 0.19373920E+03</pdfrwt>
<totfact> 0.36470754E+03</totfact>
</mgrwt>
</event>
<event>
 4    1  0.7368504E-001  0.1938150E+03  0.7546771E-02  0.1155065E+00
          2   -1    0    0  502    0  0.00000000000E+00  0.00000000000E+00  0.27242889182E+04  0.27242889182E+04  0.00000000000E+00 0.  1.
         -2   -1    0    0    0  501 -0.00000000000E+00 -0.00000000000E+00 -0.37812936880E+02  0.37812936880E+02  0.00000000000E+00 0. -1.
          6    1    1    2  502    0 -0.26045884352E+02  0.83407943330E+02  0.24440539554E+04  0.24517267405E+04  0.17300000000E+03 0.  1.
         -6    1    1    2    0  501  0.26045884352E+02 -0.83407943330E+02  0.24242202587E+03  0.31037511455E+03  0.17300000000E+03 0. -1.
<mgrwt>
<rscale>  2 0.19381505E+03</rscale>
<asrwt>0</asrwt>
<pdfrwt beam="1">  1        2 0.41912122E+00 0.19381505E+03</pdfrwt>
<pdfrwt beam="2">  1       -2 0.58173770E-02 0.19381505E+03</pdfrwt>
<totfact> 0.47696909E+02</totfact>
</mgrwt>
</event>
<event>
 4    1  0.7368504E-001  0.2130653E+03  0.7546771E-02  0.1139161E+00
          2   -1    0    0  502    0  0.00000000000E+00  0.00000000000E+00  0.16054844307E+03  0.16054844307E+03  0.00000000000E+00 0.  1.
         -2   -1    0    0    0  501 -0.00000000000E+00 -0.00000000000E+00 -0.28378731074E+03  0.28378731074E+03  0.00000000000E+00 0. -1.
          6    1    1    2  502    0  0.96867931038E+02 -0.78002718146E+02 -0.48258149381E+02  0.21846205410E+03  0.17300000000E+03 0.  1.
         -6    1    1    2    0  501 -0.96867931038E+02  0.78002718146E+02 -0.74980718292E+02  0.22587369970E+03  0.17300000000E+03 0. -1.
<mgrwt>
<rscale>  2 0.21306530E+03</rscale>
<asrwt>0</asrwt>
<pdfrwt beam="1">  1        2 0.24699760E-01 0.21306530E+03</pdfrwt>
<pdfrwt beam="2">  1       -2 0.43659586E-01 0.21306530E+03</pdfrwt>
<totfact> 0.10906798E+03</totfact>
</mgrwt>
</event>
<event>
 4    1  0.7368504E-001  0.2377196E+03  0.7546771E-02  0.1121321E+00
         -4   -1    0    0    0  501 -0.00000000000E+00  0.00000000000E+00  0.32803464164E+02  0.32803464164E+02  0.00000000000E+00 0.  1.
          4   -1    0    0  502    0  0.00000000000E+00 -0.00000000000E+00 -0.17898083433E+04  0.17898083433E+04  0.00000000000E+00 0. -1.
          6    1    1    2  502    0 -0.16139414656E+03 -0.23098670033E+02 -0.10549599566E+04  0.10814116372E+04  0.17300000000E+03 0. -1.
         -6    1    1    2    0  501  0.16139414656E+03  0.23098670033E+02 -0.70204492253E+03  0.74120017023E+03  0.17300000000E+03 0.  1.
<mgrwt>
<rscale>  2 0.23771962E+03</rscale>
<asrwt>0</asrwt>
<pdfrwt beam="1">  1        4 0.27535515E+00 0.23771962E+03</pdfrwt>
<pdfrwt beam="2">  1       -4 0.50466864E-02 0.23771962E+03</pdfrwt>
<totfact> 0.21804471E+01</totfact>
</mgrwt>
</event>
<event>
 4    1  0.7368504E-001  0.2284544E+03  0.7546771E-02  0.1127732E+00
         -2   -1    0    0    0  501 -0.00000000000E+00  0.00000000000E+00  0.34350468560E+03  0.34350468560E+03  0.00000000000E+00 0. -1.
          2   -1    0    0  502    0  0.00000000000E+00 -0.00000000000E+00 -0.17850011292E+03  0.17850011292E+03  0.00000000000E+00 0.  1.
          6    1    1    2  502    0 -0.12974744594E+03  0.73675050490E+02  0.18318539402E+03  0.29282810892E+03  0.17300000000E+03 0. -1.
         -6    1    1    2    0  501  0.12974744594E+03 -0.73675050490E+02 -0.18180821331E+02  0.22917668960E+03  0.17300000000E+03 0. -1.
<mgrwt>
<rscale>  2 0.22845440E+03</rscale>
<asrwt>0</asrwt>
<pdfrwt beam="1">  1        2 0.27461556E-01 0.22845440E+03</pdfrwt>
<pdfrwt beam="2">  1       -2 0.52846875E-01 0.22845440E+03</pdfrwt>
<totfact> 0.66491602E+02</totfact>
</mgrwt>
</event>
<event>
 4    1  0.7368504E-001  0.1873182E+03  0.7546771E-02  0.1160903E+00
         -4   -1    0    0    0  501 -0.00000000000E+00  0.00000000000E+00  0.13790122591E+04  0.13790122591E+04  0.00000000000E+00 0.  1.
          4   -1    0    0  502    0  0.00000000000E+00 -0.00000000000E+00 -0.26001473428E+02  0.26001473428E+02  0.00000000000E+00 0. -1.
          6    1    1    2  502    0 -0.57281736122E+02  0.43334779971E+02  0.57367562359E+03  0.60348307479E+03  0.17300000000E+03 0. -1.
         -6    1    1    2    0  501  0.57281736122E+02 -0.43334779971E+02  0.77933516211E+03  0.80153065777E+03  0.17300000000E+03 0.  1.
<mgrwt>
<rscale>  2 0.18731818E+03</rscale>
<asrwt>0</asrwt>
<pdfrwt beam="1">  1        4 0.40002278E-02 0.18731818E+03</pdfrwt>
<pdfrwt beam="2">  1       -4 0.21215567E+00 0.18731818E+03</pdfrwt>
<totfact> 0.73689805E+01</totfact>
</mgrwt>
</event>
<event>
 4    1  0.7368504E-001  0.2118577E+03  0.7546771E-02  0.1140103E+00
         -2   -1    0    0    0  501 -0.00000000000E+00  0.00000000000E+00  0.24818301129E+03  0.24818301129E+03  0.00000000000E+00 0.  1.
          2   -1    0    0  502    0  0.00000000000E+00 -0.00000000000E+00 -0.18899062676E+03  0.18899062676E+03  0.00000000000E+00 0. -1.
          6    1    1    2  502    0  0.93704686055E+02 -0.78575672659E+02  0.74964597025E+02  0.22472960492E+03  0.17300000000E+03 0.  1.
         -6    1    1    2    0  501 -0.93704686055E+02  0.78575672659E+02 -0.15772212501E+02  0.21244403312E+03  0.17300000000E+03 0.  1.
<mgrwt>
<rscale>  2 0.21185775E+03</rscale>
<asrwt>0</asrwt>
<pdfrwt beam="1">  1        2 0.29075481E-01 0.21185775E+03</pdfrwt>
<pdfrwt beam="2">  1       -2 0.38182002E-01 0.21185775E+03</pdfrwt>
<totfact> 0.11766361E+03</totfact>
</mgrwt>
</event>
<event>
 4    1  0.7368504E-001  0.2068323E+03  0.7546771E-02  0.1144099E+00
          1   -1    0    0  502    0  0.00000000000E+00  0.00000000000E+00  0.26653058437E+03  0.26653058437E+03  0.00000000000E+00 0. -1.
         -1   -1    0    0    0  501 -0.00000000000E+00 -0.00000000000E+00 -0.22015227358E+03  0.22015227358E+03  0.00000000000E+00 0.  1.
          6    1    1    2  502    0 -0.82138997427E+02 -0.78126661620E+02  0.14985176077E+03  0.25541170756E+03  0.17300000000E+03 0. -1.
         -6    1    1    2    0  501  0.82138997427E+02  0.78126661620E+02 -0.10347344998E+03  0.23127115039E+03  0.17300000000E+03 0.  1.
<mgrwt>
<rscale>  2 0.20683228E+03</rscale>
<asrwt>0</asrwt>
<pdfrwt beam="1">  1        1 0.41004705E-01 0.20683228E+03</pdfrwt>
<pdfrwt beam="2">  1       -1 0.33869581E-01 0.20683228E+03</pdfrwt>
<totfact> 0.84375500E+02</totfact>
</mgrwt>
</event>
<event>
 4    1  0.7368504E-001  0.1997804E+03  0.7546771E-02  0.1149924E+00
          4   -1    0    0  502    0  0.00000000000E+00  0.00000000000E+00  0.15804882966E+04  0.15804882966E+04  0.00000000000E+00 0. -1.
         -4   -1    0    0    0  501 -0.00000000000E+00 -0.00000000000E+00 -0.25746938173E+02  0.25746938173E+02  0.00000000000E+00 0.  1.
          6    1    1    2  502    0  0.97510818219E+02  0.21790789235E+02  0.66614187572E+03  0.69545466909E+03  0.17300000000E+03 0. -1.
         -6    1    1    2    0  501 -0.97510818219E+02 -0.21790789235E+02  0.88859948267E+03  0.91078056565E+03  0.17300000000E+03 0.  1.
<mgrwt>
<rscale>  2 0.19978037E+03</rscale>
<asrwt>0</asrwt>
<pdfrwt beam="1">  1        4 0.24315197E+00 0.19978037E+03</pdfrwt>
<pdfrwt beam="2">  1       -4 0.39610686E-02 0.19978037E+03</pdfrwt>
<totfact> 0.49140295E+01</totfact>
</mgrwt>
</event>
<event>
 4    1  0.7368504E-001  0.2381344E+03  0.7546771E-02  0.1121042E+00
         -2   -1    0    0    0  501 -0.00000000000E+00  0.00000000000E+00  0.74203876713E+02  0.74203876713E+02  0.00000000000E+00 0. -1.
          2   -1    0    0  502    0  0.00000000000E+00 -0.00000000000E+00 -0.77713091308E+03  0.77713091308E+03  0.00000000000E+00 0.  1.
          6    1    1    2  502    0 -0.85205562324E+02 -0.13971047395E+03 -0.29659535514E+03  0.38036404808E+03  0.17300000000E+03 0.  1.
         -6    1    1    2    0  501  0.85205562324E+02  0.13971047395E+03 -0.40633168122E+03  0.47097074171E+03  0.17300000000E+03 0. -1.
<mgrwt>
<rscale>  2 0.23813443E+03</rscale>
<asrwt>0</asrwt>
<pdfrwt beam="1">  1        2 0.11955860E+00 0.23813443E+03</pdfrwt>
<pdfrwt beam="2">  1       -2 0.11415981E-01 0.23813443E+03</pdfrwt>
<totfact> 0.19687184E+03</totfact>
</mgrwt>
</event>
<event>
 4    1  0.7368504E-001  0.3545323E+03  0.7546771E-02  0.1060770E+00
         -1   -1    0    0    0  501 -0.00000000000E+00  0.00000000000E+00  0.19784802117E+03  0.19784802117E+03  0.00000000000E+00 0.  1.
          1   -1    0    0  502    0  0.00000000000E+00 -0.00000000000E+00 -0.20750751467E+04  0.20750751467E+04  0.00000000000E+00 0. -1.
          6    1    1    2  502    0 -0.29581701876E+03  0.90865067455E+02  0.80266229886E+01  0.35462317430E+03  0.17300000000E+03 0.  1.
         -6    1    1    2    0  501  0.29581701876E+03 -0.90865067455E+02 -0.18852537485E+04  0.19182999936E+04  0.17300000000E+03 0. -1.
<mgrwt>
<rscale>  2 0.35453232E+03</rscale>
<asrwt>0</asrwt>
<pdfrwt beam="1">  1        1 0.31924232E+00 0.35453232E+03</pdfrwt>
<pdfrwt beam="2">  1       -1 0.30438158E-01 0.35453232E+03</pdfrwt>
<totfact> 0.29556993E+01</totfact>
</mgrwt>
</event>
<event>
 4    1  0.7368504E-001  0.4439069E+03  0.7546771E-02  0.1029555E+00
          2   -1    0    0  502    0  0.00000000000E+00  0.00000000000E+00  0.89369087564E+03  0.89369087564E+03  0.00000000000E+00 0.  1.
         -2   -1    0    0    0  501 -0.00000000000E+00 -0.00000000000E+00 -0.63385706395E+03  0.63385706395E+03  0.00000000000E+00 0. -1.
          6    1    1    2  502    0  0.31493811433E+03 -0.26064984366E+03  0.74670373265E+03  0.86868856400E+03  0.17300000000E+03 0.  1.
         -6    1    1    2    0  501 -0.31493811433E+03  0.26064984366E+03 -0.48686992097E+03  0.65885937559E+03  0.17300000000E+03 0. -1.
<mgrwt>
<rscale>  2 0.44390692E+03</rscale>
<asrwt>0</asrwt>
<pdfrwt beam="1">  1        2 0.13749090E+00 0.44390692E+03</pdfrwt>
<pdfrwt beam="2">  1       -2 0.97516472E-01 0.44390692E+03</pdfrwt>
<totfact> 0.27356139E+01</totfact>
</mgrwt>
</event>
<event>
 4    1  0.7368504E-001  0.2820903E+03  0.7546771E-02  0.1094553E+00
         -2   -1    0    0    0  501 -0.00000000000E+00  0.00000000000E+00  0.76120397484E+02  0.76120397484E+02  0.00000000000E+00 0.  1.
          2   -1    0    0  502    0  0.00000000000E+00 -0.00000000000E+00 -0.19630484487E+04  0.19630484487E+04  0.00000000000E+00 0. -1.
          6    1    1    2  502    0 -0.22106152735E+03  0.27887892455E+02 -0.24635615689E+03  0.37452141388E+03  0.17300000000E+03 0.  1.
         -6    1    1    2    0  501  0.22106152735E+03 -0.27887892455E+02 -0.16405718943E+04  0.16646474323E+04  0.17300000000E+03 0. -1.
<mgrwt>
<rscale>  2 0.28209029E+03</rscale>
<asrwt>0</asrwt>
<pdfrwt beam="1">  1        2 0.30200746E+00 0.28209029E+03</pdfrwt>
<pdfrwt beam="2">  1       -2 0.11710830E-01 0.28209029E+03</pdfrwt>
<totfact> 0.39994605E+02</totfact>
</mgrwt>
</event>
<event>
 4    1  0.7368504E-001  0.1730517E+03  0.7546771E-02  0.1174702E+00
          2   -1    0    0  502    0  0.00000000000E+00  0.00000000000E+00  0.11062444559E+04  0.11062444559E+04  0.00000000000E+00 0.  1.
         -2   -1    0    0    0  501 -0.00000000000E+00 -0.00000000000E+00 -0.38856439285E+02  0.38856439285E+02  0.00000000000E+00 0. -1.
          6    1    1    2  502    0 -0.19823446112E+01  0.37344738054E+01  0.21836813727E+03  0.27862433375E+03  0.17300000000E+03 0. -1.
         -6    1    1    2    0  501  0.19823446112E+01 -0.37344738054E+01  0.84901987933E+03  0.86647656142E+03  0.17300000000E+03 0.  1.
<mgrwt>
<rscale>  2 0.17305166E+03</rscale>
<asrwt>0</asrwt>
<pdfrwt beam="1">  1        2 0.17019143E+00 0.17305166E+03</pdfrwt>
<pdfrwt beam="2">  1       -2 0.59779146E-02 0.17305166E+03</pdfrwt>
<totfact> 0.33411034E+03</totfact>
</mgrwt>
</event>
<event>
 4    1  0.7368504E-001  0.2126007E+03  0.7546771E-02  0.1139523E+00
         -1   -1    0    0    0  501 -0.00000000000E+00  0.00000000000E+00  0.20514343721E+02  0.20514343721E+02  0.00000000000E+00 0.  1.
          1   -1    0    0  502    0  0.00000000000E+00 -0.00000000000E+00 -0.23195301500E+04  0.23195301500E+04  0.00000000000E+00 0. -1.
          6    1    1    2  502    0 -0.76581351291E+01 -0.12333454410E+03 -0.88758623852E+03  0.91269293172E+03  0.17300000000E+03 0. -1.
         -6    1    1    2    0  501  0.76581351291E+01  0.12333454410E+03 -0.14114295678E+04  0.14273515620E+04  0.17300000000E+03 0. -1.
<mgrwt>
<rscale>  2 0.21260070E+03</rscale>
<asrwt>0</asrwt>
<pdfrwt beam="1">  1        1 0.35685041E+00 0.21260070E+03</pdfrwt>
<pdfrwt beam="2">  1       -1 0.31560563E-02 0.21260070E+03</pdfrwt>
<totfact> 0.73600823E+02</totfact>
</mgrwt>
</event>
<event>
 4    1  0.7368504E-001  0.1934905E+03  0.7546771E-02  0.1155350E+00
         -2   -1    0    0    0  501 -0.00000000000E+00  0.00000000000E+00  0.19456060637E+03  0.19456060637E+03  0.00000000000E+00 0. -1.
          2   -1    0    0  502    0  0.00000000000E+00 -0.00000000000E+00 -0.19322745375E+03  0.19322745375E+03  0.00000000000E+00 0.  1.
          6    1    1    2  502    0 -0.76334952025E+02  0.41018793040E+02 -0.11818860311E+02  0.19385110715E+03  0.17300000000E+03 0. -1.
         -6    1    1    2    0  501  0.76334952025E+02 -0.41018793040E+02  0.13152012933E+02  0.19393695297E+03  0.17300000000E+03 0.  1.
<mgrwt>
<rscale>  2 0.19349048E+03</rscale>
<asrwt>0</asrwt>
<pdfrwt beam="1">  1        2 0.29727301E-01 0.19349048E+03</pdfrwt>
<pdfrwt beam="2">  1       -2 0.29932401E-01 0.19349048E+03</pdfrwt>
<totfact> 0.17974651E+03</totfact>
</mgrwt>
</event>
<event>
 4    1  0.7368504E-001  0.3159296E+03  0.7546771E-02  0.1077538E+00
         -2   -1    0    0    0  501 -0.00000000000E+00  0.00000000000E+00  0.72864247084E+02  0.72864247084E+02  0.00000000000E+00 0. -1.
          2   -1    0    0  502    0  0.00000000000E+00 -0.00000000000E+00 -0.13746976130E+04  0.13746976130E+04  0.00000000000E+00 0.  1.
          6    1    1    2  502    0 -0.20966452238E+03  0.16100710622E+03 -0.60784002579E+03  0.68504087261E+03  0.17300000000E+03 0. -1.
         -6    1    1    2    0  501  0.20966452238E+03 -0.16100710622E+03 -0.69399334013E+03  0.76252098748E+03  0.17300000000E+03 0. -1.
<mgrwt>
<rscale>  2 0.31592958E+03</rscale>
<asrwt>0</asrwt>
<pdfrwt beam="1">  1        2 0.21149194E+00 0.31592958E+03</pdfrwt>
<pdfrwt beam="2">  1       -2 0.11209884E-01 0.31592958E+03</pdfrwt>
<totfact> 0.87998801E+02</totfact>
</mgrwt>
</event>
<event>
 4    1  0.7368504E-001  0.2163642E+03  0.7546771E-02  0.1136623E+00
         -2   -1    0    0    0  501 -0.00000000000E+00  0.00000000000E+00  0.53938096127E+03  0.53938096127E+03  0.00000000000E+00 0. -1.
          2   -1    0    0  502    0  0.00000000000E+00 -0.00000000000E+00 -0.16952390101E+03  0.16952390101E+03  0.00000000000E+00 0.  1.
          6    1    1    2  502    0  0.58929615314E+02 -0.11580913198E+03 -0.62689015588E+02  0.22526288484E+03  0.17300000000E+03 0.  1.
         -6    1    1    2    0  501 -0.58929615314E+02  0.11580913198E+03  0.43254607585E+03  0.48364197744E+03  0.17300000000E+03 0. -1.
<mgrwt>
<rscale>  2 0.21636417E+03</rscale>
<asrwt>0</asrwt>
<pdfrwt beam="1">  1        2 0.26080600E-01 0.21636417E+03</pdfrwt>
<pdfrwt beam="2">  1       -2 0.82981686E-01 0.21636417E+03</pdfrwt>
<totfact> 0.27068415E+02</totfact>
</mgrwt>
</event>
<event>
 4    1  0.7368504E-001  0.2074952E+03  0.7546771E-02  0.1143565E+00
          1   -1    0    0  502    0  0.00000000000E+00  0.00000000000E+00  0.12921090023E+03  0.12921090023E+03  0.00000000000E+00 0.  1.
         -1   -1    0    0    0  501 -0.00000000000E+00 -0.00000000000E+00 -0.38644630512E+03  0.38644630512E+03  0.00000000000E+00 0. -1.
          6    1    1    2  502    0 -0.69889398244E+02 -0.90778511676E+02 -0.32921752390E+02  0.21009071362E+03  0.17300000000E+03 0.  1.
         -6    1    1    2    0  501  0.69889398244E+02  0.90778511676E+02 -0.22431365251E+03  0.30556649173E+03  0.17300000000E+03 0. -1.
<mgrwt>
<rscale>  2 0.20749522E+03</rscale>
<asrwt>0</asrwt>
<pdfrwt beam="1">  1        1 0.19878600E-01 0.20749522E+03</pdfrwt>
<pdfrwt beam="2">  1       -1 0.59453277E-01 0.20749522E+03</pdfrwt>
<totfact> 0.76087155E+02</totfact>
</mgrwt>
</event>
<event>
 4    1  0.7368504E-001  0.1757065E+03  0.7546771E-02  0.1172024E+00
         -2   -1    0    0    0  501 -0.00000000000E+00  0.00000000000E+00  0.14532205590E+03  0.14532205590E+03  0.00000000000E+00 0. -1.
          2   -1    0    0  502    0  0.00000000000E+00 -0.00000000000E+00 -0.31870662760E+03  0.31870662760E+03  0.00000000000E+00 0.  1.
          6    1    1    2  502    0 -0.17816536112E+02  0.25026907342E+02 -0.22066300656E+03  0.28207257490E+03  0.17300000000E+03 0.  1.
         -6    1    1    2    0  501  0.17816536112E+02 -0.25026907342E+02  0.47278434859E+02  0.18195610859E+03  0.17300000000E+03 0. -1.
<mgrwt>
<rscale>  2 0.17570650E+03</rscale>
<asrwt>0</asrwt>
<pdfrwt beam="1">  1        2 0.49031788E-01 0.17570650E+03</pdfrwt>
<pdfrwt beam="2">  1       -2 0.22357240E-01 0.17570650E+03</pdfrwt>
<totfact> 0.17505982E+03</totfact>
</mgrwt>
</event>
<event>
 4    1  0.7368504E-001  0.2323578E+03  0.7546771E-02  0.1124991E+00
         -1   -1    0    0    0  501 -0.00000000000E+00  0.00000000000E+00  0.86145793100E+02  0.86145793100E+02  0.00000000000E+00 0.  1.
          1   -1    0    0  502    0  0.00000000000E+00 -0.00000000000E+00 -0.69114908915E+03  0.69114908915E+03  0.00000000000E+00 0. -1.
          6    1    1    2  502    0 -0.22237464063E+02  0.15351437689E+03 -0.42115407173E+03  0.48099991773E+03  0.17300000000E+03 0. -1.
         -6    1    1    2    0  501  0.22237464063E+02 -0.15351437689E+03 -0.18384922432E+03  0.29629496453E+03  0.17300000000E+03 0.  1.
<mgrwt>
<rscale>  2 0.23235785E+03</rscale>
<asrwt>0</asrwt>
<pdfrwt beam="1">  1        1 0.10633063E+00 0.23235785E+03</pdfrwt>
<pdfrwt beam="2">  1       -1 0.13253199E-01 0.23235785E+03</pdfrwt>
<totfact> 0.11256917E+03</totfact>
</mgrwt>
</event>
<event>
 4    1  0.7368504E-001  0.1777007E+03  0.7546771E-02  0.1170047E+00
         -2   -1    0    0    0  501 -0.00000000000E+00  0.00000000000E+00  0.11882058881E+03  0.11882058881E+03  0.00000000000E+00 0.  1.
          2   -1    0    0  502    0  0.00000000000E+00 -0.00000000000E+00 -0.26698129510E+03  0.26698129510E+03  0.00000000000E+00 0. -1.
          6    1    1    2  502    0  0.92682937910E+01  0.39530260838E+02 -0.87136906480E+02  0.19791509104E+03  0.17300000000E+03 0. -1.
         -6    1    1    2    0  501 -0.92682937910E+01 -0.39530260838E+02 -0.61023799802E+02  0.18788679287E+03  0.17300000000E+03 0.  1.
<mgrwt>
<rscale>  2 0.17770071E+03</rscale>
<asrwt>0</asrwt>
<pdfrwt beam="1">  1        2 0.41074045E-01 0.17770071E+03</pdfrwt>
<pdfrwt beam="2">  1       -2 0.18280091E-01 0.17770071E+03</pdfrwt>
<totfact> 0.29828658E+03</totfact>
</mgrwt>
</event>
<event>
 4    1  0.7368504E-001  0.2430080E+03  0.7546771E-02  0.1117805E+00
         -2   -1    0    0    0  501 -0.00000000000E+00  0.00000000000E+00  0.58489887860E+03  0.58489887860E+03  0.00000000000E+00 0.  1.
          2   -1    0    0  502    0  0.00000000000E+00 -0.00000000000E+00 -0.11043867227E+03  0.11043867227E+03  0.00000000000E+00 0. -1.
          6    1    1    2  502    0  0.12232672381E+03  0.11899597888E+03  0.13538951597E+03  0.27817834456E+03  0.17300000000E+03 0. -1.
         -6    1    1    2    0  501 -0.12232672381E+03 -0.11899597888E+03  0.33907069036E+03  0.41715920631E+03  0.17300000000E+03 0.  1.
<mgrwt>
<rscale>  2 0.24300796E+03</rscale>
<asrwt>0</asrwt>
<pdfrwt beam="1">  1        2 0.16990565E-01 0.24300796E+03</pdfrwt>
<pdfrwt beam="2">  1       -2 0.89984441E-01 0.24300796E+03</pdfrwt>
<totfact> 0.36813208E+02</totfact>
</mgrwt>
</event>
<event>
 4    1  0.7368504E-001  0.1752835E+03  0.7546771E-02  0.1172447E+00
          1   -1    0    0  502    0  0.00000000000E+00  0.00000000000E+00  0.24662918668E+03  0.24662918668E+03  0.00000000000E+00 0. -1.
         -1   -1    0    0    0  501 -0.00000000000E+00 -0.00000000000E+00 -0.15251999309E+03  0.15251999309E+03  0.00000000000E+00 0.  1.
          6    1    1    2  502    0  0.27124458926E+02  0.77182542880E+01  0.13247838713E+03  0.21971534034E+03  0.17300000000E+03 0. -1.
         -6    1    1    2    0  501 -0.27124458926E+02 -0.77182542880E+01 -0.38369193550E+02  0.17943383944E+03  0.17300000000E+03 0.  1.
<mgrwt>
<rscale>  2 0.17528351E+03</rscale>
<asrwt>0</asrwt>
<pdfrwt beam="1">  1        1 0.37942952E-01 0.17528351E+03</pdfrwt>
<pdfrwt beam="2">  1       -1 0.23464614E-01 0.17528351E+03</pdfrwt>
<totfact> 0.17182075E+03</totfact>
</mgrwt>
</event>
<event>
 4    1  0.7368504E-001  0.2247214E+03  0.7546771E-02  0.1130411E+00
          2   -1    0    0  502    0  0.00000000000E+00  0.00000000000E+00  0.16384378504E+03  0.16384378504E+03  0.00000000000E+00 0.  1.
         -2   -1    0    0    0  501 -0.00000000000E+00 -0.00000000000E+00 -0.31102304477E+03  0.31102304477E+03  0.00000000000E+00 0. -1.
          6    1    1    2  502    0 -0.64706881756E+02 -0.12799886070E+03 -0.51043333188E+02  0.23044546155E+03  0.17300000000E+03 0.  1.
         -6    1    1    2    0  501  0.64706881756E+02  0.12799886070E+03 -0.96135926539E+02  0.24442136826E+03  0.17300000000E+03 0.  1.
<mgrwt>
<rscale>  2 0.22472136E+03</rscale>
<asrwt>0</asrwt>
<pdfrwt beam="1">  1        2 0.25206736E-01 0.22472136E+03</pdfrwt>
<pdfrwt beam="2">  1       -2 0.47849699E-01 0.22472136E+03</pdfrwt>
<totfact> 0.89189331E+02</totfact>
</mgrwt>
</event>
<event>
 4    1  0.7368504E-001  0.2057887E+03  0.7546771E-02  0.1144945E+00
          2   -1    0    0  502    0  0.00000000000E+00  0.00000000000E+00  0.24884777009E+04  0.24884777009E+04  0.00000000000E+00 0.  1.
         -2   -1    0    0    0  501 -0.00000000000E+00 -0.00000000000E+00 -0.30013602955E+02  0.30013602955E+02  0.00000000000E+00 0. -1.
          6    1    1    2  502    0  0.39002237946E+02 -0.10439731532E+03  0.40062389190E+03  0.45038702998E+03  0.17300000000E+03 0. -1.
         -6    1    1    2    0  501 -0.39002237946E+02  0.10439731532E+03  0.20578402060E+04  0.20681042739E+04  0.17300000000E+03 0.  1.
<mgrwt>
<rscale>  2 0.20578866E+03</rscale>
<asrwt>0</asrwt>
<pdfrwt beam="1">  1        2 0.38284256E+00 0.20578866E+03</pdfrwt>
<pdfrwt beam="2">  1       -2 0.46174793E-02 0.20578866E+03</pdfrwt>
<totfact> 0.91029377E+02</totfact>
</mgrwt>
</event>
<event>
 4    1  0.7368504E-001  0.1918008E+03  0.7546771E-02  0.1156847E+00
          2   -1    0    0  502    0  0.00000000000E+00  0.00000000000E+00  0.17756953448E+04  0.17756953448E+04  0.00000000000E+00 0.  1.
         -2   -1    0    0    0  501 -0.00000000000E+00 -0.00000000000E+00 -0.28475008582E+02  0.28475008582E+02  0.00000000000E+00 0. -1.
          6    1    1    2  502    0  0.62375626796E+02  0.54477926528E+02  0.40275956462E+03  0.44609733264E+03  0.17300000000E+03 0. -1.
         -6    1    1    2    0  501 -0.62375626796E+02 -0.54477926528E+02  0.13444607716E+04  0.13580730207E+04  0.17300000000E+03 0.  1.
<mgrwt>
<rscale>  2 0.19180084E+03</rscale>
<asrwt>0</asrwt>
<pdfrwt beam="1">  1        2 0.27318381E+00 0.19180084E+03</pdfrwt>
<pdfrwt beam="2">  1       -2 0.43807719E-02 0.19180084E+03</pdfrwt>
<totfact> 0.23392377E+03</totfact>
</mgrwt>
</event>
<event>
 4    1  0.7368504E-001  0.1757123E+03  0.7546771E-02  0.1172018E+00
          1   -1    0    0  502    0  0.00000000000E+00  0.00000000000E+00  0.11795394220E+03  0.11795394220E+03  0.00000000000E+00 0.  1.
         -1   -1    0    0    0  501 -0.00000000000E+00 -0.00000000000E+00 -0.37534450055E+03  0.37534450055E+03  0.00000000000E+00 0. -1.
          6    1    1    2  502    0 -0.21353524537E+02  0.22132352472E+02 -0.26438201112E+03  0.31744710085E+03  0.17300000000E+03 0. -1.
         -6    1    1    2    0  501  0.21353524537E+02 -0.22132352472E+02  0.69914527600E+01  0.17585134190E+03  0.17300000000E+03 0.  1.
<mgrwt>
<rscale>  2 0.17571230E+03</rscale>
<asrwt>0</asrwt>
<pdfrwt beam="1">  1        1 0.18146761E-01 0.17571230E+03</pdfrwt>
<pdfrwt beam="2">  1       -1 0.57745307E-01 0.17571230E+03</pdfrwt>
<totfact> 0.90261682E+02</totfact>
</mgrwt>
</event>
<event>
 4    1  0.7368504E-001  0.1775727E+03  0.7546771E-02  0.1170173E+00
          1   -1    0    0  502    0  0.00000000000E+00  0.00000000000E+00  0.55181733836E+03  0.55181733836E+03  0.00000000000E+00 0.  1.
         -1   -1    0    0    0  501 -0.00000000000E+00 -0.00000000000E+00 -0.83076772846E+02  0.83076772846E+02  0.00000000000E+00 0. -1.
          6    1    1    2  502    0  0.32378580457E+02  0.23551583636E+02  0.57003963940E+02  0.18649799320E+03  0.17300000000E+03 0. -1.
         -6    1    1    2    0  501 -0.32378580457E+02 -0.23551583636E+02  0.41173660157E+03  0.44839611800E+03  0.17300000000E+03 0.  1.
<mgrwt>
<rscale>  2 0.17757266E+03</rscale>
<asrwt>0</asrwt>
<pdfrwt beam="1">  1        1 0.84894973E-01 0.17757266E+03</pdfrwt>
<pdfrwt beam="2">  1       -1 0.12781042E-01 0.17757266E+03</pdfrwt>
<totfact> 0.16266654E+03</totfact>
</mgrwt>
</event>
<event>
 4    1  0.7368504E-001  0.1998226E+03  0.7546771E-02  0.1149889E+00
         -3   -1    0    0    0  501 -0.00000000000E+00  0.00000000000E+00  0.53953039707E+02  0.53953039707E+02  0.00000000000E+00 0.  1.
          3   -1    0    0  502    0  0.00000000000E+00 -0.00000000000E+00 -0.74165664219E+03  0.74165664219E+03  0.00000000000E+00 0. -1.
          6    1    1    2  502    0  0.82978242856E+02  0.55809329933E+02 -0.36224666095E+03  0.41370486275E+03  0.17300000000E+03 0. -1.
         -6    1    1    2    0  501 -0.82978242856E+02 -0.55809329933E+02 -0.32545694153E+03  0.38190481915E+03  0.17300000000E+03 0.  1.
<mgrwt>
<rscale>  2 0.19982260E+03</rscale>
<asrwt>0</asrwt>
<pdfrwt beam="1">  1        3 0.11410102E+00 0.19982260E+03</pdfrwt>
<pdfrwt beam="2">  1       -3 0.83004675E-02 0.19982260E+03</pdfrwt>
<totfact> 0.16377793E+02</totfact>
</mgrwt>
</event>
<event>
 4    1  0.7368504E-001  0.1879638E+03  0.7546771E-02  0.1160311E+00
          2   -1    0    0  502    0  0.00000000000E+00  0.00000000000E+00  0.17364307764E+03  0.17364307764E+03  0.00000000000E+00 0. -1.
         -2   -1    0    0    0  501 -0.00000000000E+00 -0.00000000000E+00 -0.21992637967E+03  0.21992637967E+03  0.00000000000E+00 0.  1.
          6    1    1    2  502    0 -0.43226259228E+02 -0.59438190716E+02  0.30694845410E+02  0.19045362044E+03  0.17300000000E+03 0. -1.
         -6    1    1    2    0  501  0.43226259228E+02  0.59438190716E+02 -0.76978147442E+02  0.20311583687E+03  0.17300000000E+03 0.  1.
<mgrwt>
<rscale>  2 0.18796385E+03</rscale>
<asrwt>0</asrwt>
<pdfrwt beam="1">  1        2 0.26714320E-01 0.18796385E+03</pdfrwt>
<pdfrwt beam="2">  1       -2 0.33834827E-01 0.18796385E+03</pdfrwt>
<totfact> 0.16142471E+03</totfact>
</mgrwt>
</event>
<event>
 4    1  0.7368504E-001  0.1797901E+03  0.7546771E-02  0.1168006E+00
         -2   -1    0    0    0  501 -0.00000000000E+00  0.00000000000E+00  0.35859459667E+02  0.35859459667E+02  0.00000000000E+00 0. -1.
          2   -1    0    0  502    0  0.00000000000E+00 -0.00000000000E+00 -0.92331046466E+03  0.92331046466E+03  0.00000000000E+00 0.  1.
          6    1    1    2  502    0  0.19841664760E+02  0.44741199606E+02 -0.36988235736E+03  0.41126320634E+03  0.17300000000E+03 0.  1.
         -6    1    1    2    0  501 -0.19841664760E+02 -0.44741199606E+02 -0.51756864764E+03  0.54790671799E+03  0.17300000000E+03 0.  1.
<mgrwt>
<rscale>  2 0.17979006E+03</rscale>
<asrwt>0</asrwt>
<pdfrwt beam="1">  1        2 0.14204774E+00 0.17979006E+03</pdfrwt>
<pdfrwt beam="2">  1       -2 0.55168408E-02 0.17979006E+03</pdfrwt>
<totfact> 0.48681033E+03</totfact>
</mgrwt>
</event>
<event>
 4    1  0.7368504E-001  0.2039219E+03  0.7546771E-02  0.1146472E+00
          1   -1    0    0  502    0  0.00000000000E+00  0.00000000000E+00  0.79151459968E+03  0.79151459968E+03  0.00000000000E+00 0.  1.
         -1   -1    0    0    0  501 -0.00000000000E+00 -0.00000000000E+00 -0.92192019665E+02  0.92192019665E+02  0.00000000000E+00 0. -1.
          6    1    1    2  502    0 -0.10559593444E+03  0.22464431662E+02  0.63944776653E+03  0.67117627951E+03  0.17300000000E+03 0.  1.
         -6    1    1    2    0  501  0.10559593444E+03 -0.22464431662E+02  0.59874813486E+02  0.21253033983E+03  0.17300000000E+03 0. -1.
<mgrwt>
<rscale>  2 0.20392193E+03</rscale>
<asrwt>0</asrwt>
<pdfrwt beam="1">  1        1 0.12177147E+00 0.20392193E+03</pdfrwt>
<pdfrwt beam="2">  1       -1 0.14183388E-01 0.20392193E+03</pdfrwt>
<totfact> 0.82733825E+02</totfact>
</mgrwt>
</event>
<event>
 4    1  0.7368504E-001  0.1788831E+03  0.7546771E-02  0.1168888E+00
         -2   -1    0    0    0  501 -0.00000000000E+00  0.00000000000E+00  0.15746877333E+03  0.15746877333E+03  0.00000000000E+00 0.  1.
          2   -1    0    0  502    0  0.00000000000E+00 -0.00000000000E+00 -0.35867668433E+03  0.35867668433E+03  0.00000000000E+00 0. -1.
          6    1    1    2  502    0 -0.44092782547E+02  0.11225260558E+02  0.69302409210E+02  0.19183848381E+03  0.17300000000E+03 0.  1.
         -6    1    1    2    0  501  0.44092782547E+02 -0.11225260558E+02 -0.27051032022E+03  0.32430697386E+03  0.17300000000E+03 0. -1.
<mgrwt>
<rscale>  2 0.17888315E+03</rscale>
<asrwt>0</asrwt>
<pdfrwt beam="1">  1        2 0.55181028E-01 0.17888315E+03</pdfrwt>
<pdfrwt beam="2">  1       -2 0.24225965E-01 0.17888315E+03</pdfrwt>
<totfact> 0.13422573E+03</totfact>
</mgrwt>
</event>
<event>
 4    1  0.7368504E-001  0.1822362E+03  0.7546771E-02  0.1165656E+00
         -1   -1    0    0    0  501 -0.00000000000E+00  0.00000000000E+00  0.34702846599E+02  0.34702846599E+02  0.00000000000E+00 0. -1.
          1   -1    0    0  502    0  0.00000000000E+00 -0.00000000000E+00 -0.96954771323E+03  0.96954771323E+03  0.00000000000E+00 0.  1.
          6    1    1    2  502    0  0.49821662407E+02  0.28263437917E+02 -0.52458489125E+03  0.55533713013E+03  0.17300000000E+03 0.  1.
         -6    1    1    2    0  501 -0.49821662407E+02 -0.28263437917E+02 -0.41025997537E+03  0.44891342970E+03  0.17300000000E+03 0. -1.
<mgrwt>
<rscale>  2 0.18223617E+03</rscale>
<asrwt>0</asrwt>
<pdfrwt beam="1">  1        1 0.14916118E+00 0.18223617E+03</pdfrwt>
<pdfrwt beam="2">  1       -1 0.53388998E-02 0.18223617E+03</pdfrwt>
<totfact> 0.26685899E+03</totfact>
</mgrwt>
</event>
<event>
 4    1  0.7368504E-001  0.2056700E+03  0.7546771E-02  0.1145041E+00
          2   -1    0    0  502    0  0.00000000000E+00  0.00000000000E+00  0.41809934145E+03  0.41809934145E+03  0.00000000000E+00 0.  1.
         -2   -1    0    0    0  501 -0.00000000000E+00 -0.00000000000E+00 -0.10573317368E+03  0.10573317368E+03  0.00000000000E+00 0. -1.
          6    1    1    2  502    0 -0.86834125677E+02  0.69505341854E+02  0.10178657104E+03  0.22947911446E+03  0.17300000000E+03 0. -1.
         -6    1    1    2    0  501  0.86834125677E+02 -0.69505341854E+02  0.21057959673E+03  0.29435340067E+03  0.17300000000E+03 0.  1.
<mgrwt>
<rscale>  2 0.20567002E+03</rscale>
<asrwt>0</asrwt>
<pdfrwt beam="1">  1        2 0.64322975E-01 0.20567002E+03</pdfrwt>
<pdfrwt beam="2">  1       -2 0.16266642E-01 0.20567002E+03</pdfrwt>
<totfact> 0.22503344E+03</totfact>
</mgrwt>
</event>
<event>
 4    1  0.7368504E-001  0.1901742E+03  0.7546771E-02  0.1158304E+00
          2   -1    0    0  502    0  0.00000000000E+00  0.00000000000E+00  0.16921737340E+03  0.16921737340E+03  0.00000000000E+00 0. -1.
         -2   -1    0    0    0  501 -0.00000000000E+00 -0.00000000000E+00 -0.21706505224E+03  0.21706505224E+03  0.00000000000E+00 0.  1.
          6    1    1    2  502    0  0.18002687087E+02 -0.76896984415E+02  0.28987882622E-01  0.19017424588E+03  0.17300000000E+03 0.  1.
         -6    1    1    2    0  501 -0.18002687087E+02  0.76896984415E+02 -0.47876666727E+02  0.19610817977E+03  0.17300000000E+03 0.  1.
<mgrwt>
<rscale>  2 0.19017424E+03</rscale>
<asrwt>0</asrwt>
<pdfrwt beam="1">  1        2 0.26033442E-01 0.19017424E+03</pdfrwt>
<pdfrwt beam="2">  1       -2 0.33394623E-01 0.19017424E+03</pdfrwt>
<totfact> 0.17023803E+03</totfact>
</mgrwt>
</event>
<event>
 4    1  0.7368504E-001  0.2537132E+03  0.7546771E-02  0.1110980E+00
          1   -1    0    0  502    0  0.00000000000E+00  0.00000000000E+00  0.94585024824E+02  0.94585024824E+02  0.00000000000E+00 0.  1.
         -1   -1    0    0    0  501 -0.00000000000E+00 -0.00000000000E+00 -0.72732129494E+03  0.72732129494E+03  0.00000000000E+00 0. -1.
          6    1    1    2  502    0 -0.10023420261E+03 -0.15618742210E+03 -0.42057372325E+03  0.49117477835E+03  0.17300000000E+03 0.  1.
         -6    1    1    2    0  501  0.10023420261E+03  0.15618742210E+03 -0.21216254687E+03  0.33073154142E+03  0.17300000000E+03 0. -1.
<mgrwt>
<rscale>  2 0.25371324E+03</rscale>
<asrwt>0</asrwt>
<pdfrwt beam="1">  1        1 0.14551542E-01 0.25371324E+03</pdfrwt>
<pdfrwt beam="2">  1       -1 0.11189559E+00 0.25371324E+03</pdfrwt>
<totfact> 0.30353207E+02</totfact>
</mgrwt>
</event>
<event>
 4    1  0.7368504E-001  0.2199733E+03  0.7546771E-02  0.1133903E+00
         -1   -1    0    0    0  501 -0.00000000000E+00  0.00000000000E+00  0.36204951882E+02  0.36204951882E+02  0.00000000000E+00 0. -1.
          1   -1    0    0  502    0  0.00000000000E+00 -0.00000000000E+00 -0.14413787208E+04  0.14413787208E+04  0.00000000000E+00 0.  1.
          6    1    1    2  502    0 -0.40264014938E+02 -0.12976151909E+03 -0.50330943093E+03  0.54928009794E+03  0.17300000000E+03 0. -1.
         -6    1    1    2    0  501  0.40264014938E+02  0.12976151909E+03 -0.90186433795E+03  0.92830357470E+03  0.17300000000E+03 0. -1.
<mgrwt>
<rscale>  2 0.21997328E+03</rscale>
<asrwt>0</asrwt>
<pdfrwt beam="1">  1        1 0.22175054E+00 0.21997328E+03</pdfrwt>
<pdfrwt beam="2">  1       -1 0.55699934E-02 0.21997328E+03</pdfrwt>
<totfact> 0.11744111E+03</totfact>
</mgrwt>
</event>
<event>
 4    1  0.7368504E-001  0.4019002E+03  0.7546771E-02  0.1043124E+00
         -2   -1    0    0    0  501 -0.00000000000E+00  0.00000000000E+00  0.41396038946E+03  0.41396038946E+03  0.00000000000E+00 0. -1.
          2   -1    0    0  502    0  0.00000000000E+00 -0.00000000000E+00 -0.39123491269E+03  0.39123491269E+03  0.00000000000E+00 0.  1.
          6    1    1    2  502    0 -0.13960360319E+03  0.33482175432E+03 -0.94297607025E+01  0.40201081276E+03  0.17300000000E+03 0.  1.
         -6    1    1    2    0  501  0.13960360319E+03 -0.33482175432E+03  0.32155237467E+02  0.40318448939E+03  0.17300000000E+03 0. -1.
<mgrwt>
<rscale>  2 0.40190020E+03</rscale>
<asrwt>0</asrwt>
<pdfrwt beam="1">  1        2 0.60189987E-01 0.40190020E+03</pdfrwt>
<pdfrwt beam="2">  1       -2 0.63686214E-01 0.40190020E+03</pdfrwt>
<totfact> 0.19078769E+02</totfact>
</mgrwt>
</event>
<event>
 4    1  0.7368504E-001  0.1973697E+03  0.7546771E-02  0.1151977E+00
         -2   -1    0    0    0  501 -0.00000000000E+00  0.00000000000E+00  0.12770236779E+03  0.12770236779E+03  0.00000000000E+00 0. -1.
          2   -1    0    0  502    0  0.00000000000E+00 -0.00000000000E+00 -0.32472103295E+03  0.32472103295E+03  0.00000000000E+00 0.  1.
          6    1    1    2  502    0  0.46478596510E+02  0.82858566508E+02 -0.42823715089E+02  0.20196205721E+03  0.17300000000E+03 0. -1.
         -6    1    1    2    0  501 -0.46478596510E+02 -0.82858566508E+02 -0.15419495007E+03  0.25046134353E+03  0.17300000000E+03 0.  1.
<mgrwt>
<rscale>  2 0.19736971E+03</rscale>
<asrwt>0</asrwt>
<pdfrwt beam="1">  1        2 0.49957081E-01 0.19736971E+03</pdfrwt>
<pdfrwt beam="2">  1       -2 0.19646518E-01 0.19736971E+03</pdfrwt>
<totfact> 0.21490369E+03</totfact>
</mgrwt>
</event>
<event>
 4    1  0.7368504E-001  0.1788543E+03  0.7546771E-02  0.1168916E+00
         -2   -1    0    0    0  501 -0.00000000000E+00  0.00000000000E+00  0.78440662960E+02  0.78440662960E+02  0.00000000000E+00 0.  1.
          2   -1    0    0  502    0  0.00000000000E+00 -0.00000000000E+00 -0.40982496457E+03  0.40982496457E+03  0.00000000000E+00 0. -1.
          6    1    1    2  502    0  0.41646873577E+02  0.18039201740E+02 -0.18281109535E+03  0.25575138604E+03  0.17300000000E+03 0.  1.
         -6    1    1    2    0  501 -0.41646873577E+02 -0.18039201740E+02 -0.14857320626E+03  0.23251424149E+03  0.17300000000E+03 0. -1.
<mgrwt>
<rscale>  2 0.17885434E+03</rscale>
<asrwt>0</asrwt>
<pdfrwt beam="1">  1        2 0.63049994E-01 0.17885434E+03</pdfrwt>
<pdfrwt beam="2">  1       -2 0.12067794E-01 0.17885434E+03</pdfrwt>
<totfact> 0.37292321E+03</totfact>
</mgrwt>
</event>
<event>
 4    1  0.7368504E-001  0.2140458E+03  0.7546771E-02  0.1138402E+00
          2   -1    0    0  502    0  0.00000000000E+00  0.00000000000E+00  0.93377811754E+03  0.93377811754E+03  0.00000000000E+00 0. -1.
         -2   -1    0    0    0  501 -0.00000000000E+00 -0.00000000000E+00 -0.50444848910E+02  0.50444848910E+02  0.00000000000E+00 0.  1.
          6    1    1    2  502    0  0.11987623153E+03  0.38939801215E+02  0.52306305119E+03  0.56516420138E+03  0.17300000000E+03 0. -1.
         -6    1    1    2    0  501 -0.11987623153E+03 -0.38939801215E+02  0.36027021745E+03  0.41905876507E+03  0.17300000000E+03 0.  1.
<mgrwt>
<rscale>  2 0.21404583E+03</rscale>
<asrwt>0</asrwt>
<pdfrwt beam="1">  1        2 0.14365816E+00 0.21404583E+03</pdfrwt>
<pdfrwt beam="2">  1       -2 0.77607467E-02 0.21404583E+03</pdfrwt>
<totfact> 0.28493822E+03</totfact>
</mgrwt>
</event>
<event>
 4    1  0.7368504E-001  0.1854483E+03  0.7546771E-02  0.1162632E+00
         -2   -1    0    0    0  501 -0.00000000000E+00  0.00000000000E+00  0.16890758891E+03  0.16890758891E+03  0.00000000000E+00 0.  1.
          2   -1    0    0  502    0  0.00000000000E+00 -0.00000000000E+00 -0.24018584180E+03  0.24018584180E+03  0.00000000000E+00 0. -1.
          6    1    1    2  502    0 -0.35476497696E+02  0.56599340452E+02  0.44182991556E+02  0.19063893614E+03  0.17300000000E+03 0.  1.
         -6    1    1    2    0  501  0.35476497696E+02 -0.56599340452E+02 -0.11546124444E+03  0.21845449457E+03  0.17300000000E+03 0. -1.
<mgrwt>
<rscale>  2 0.18544829E+03</rscale>
<asrwt>0</asrwt>
<pdfrwt beam="1">  1        2 0.36951668E-01 0.18544829E+03</pdfrwt>
<pdfrwt beam="2">  1       -2 0.25985783E-01 0.18544829E+03</pdfrwt>
<totfact> 0.18252812E+03</totfact>
</mgrwt>
</event>
<event>
 4    1  0.7368504E-001  0.2122024E+03  0.7546771E-02  0.1139834E+00
         -2   -1    0    0    0  501 -0.00000000000E+00  0.00000000000E+00  0.69098696337E+02  0.69098696337E+02  0.00000000000E+00 0. -1.
          2   -1    0    0  502    0  0.00000000000E+00 -0.00000000000E+00 -0.65882119992E+03  0.65882119992E+03  0.00000000000E+00 0.  1.
          6    1    1    2  502    0  0.70659794279E+02  0.10053871521E+03 -0.25695326111E+03  0.33324888324E+03  0.17300000000E+03 0. -1.
         -6    1    1    2    0  501 -0.70659794279E+02 -0.10053871521E+03 -0.33276924247E+03  0.39467101302E+03  0.17300000000E+03 0.  1.
<mgrwt>
<rscale>  2 0.21220236E+03</rscale>
<asrwt>0</asrwt>
<pdfrwt beam="1">  1        2 0.10135710E+00 0.21220236E+03</pdfrwt>
<pdfrwt beam="2">  1       -2 0.10630569E-01 0.21220236E+03</pdfrwt>
<totfact> 0.26942575E+03</totfact>
</mgrwt>
</event>
<event>
 4    1  0.7368504E-001  0.1822809E+03  0.7546771E-02  0.1165614E+00
         -2   -1    0    0    0  501 -0.00000000000E+00  0.00000000000E+00  0.17868079137E+02  0.17868079137E+02  0.00000000000E+00 0.  1.
          2   -1    0    0  502    0  0.00000000000E+00 -0.00000000000E+00 -0.18685893863E+04  0.18685893863E+04  0.00000000000E+00 0. -1.
          6    1    1    2  502    0  0.44143271690E+02 -0.36724570289E+02 -0.99101814365E+03  0.10076424383E+04  0.17300000000E+03 0. -1.
         -6    1    1    2    0  501 -0.44143271690E+02  0.36724570289E+02 -0.85970316354E+03  0.87881502712E+03  0.17300000000E+03 0. -1.
<mgrwt>
<rscale>  2 0.18228089E+03</rscale>
<asrwt>0</asrwt>
<pdfrwt beam="1">  1        2 0.28747522E+00 0.18228089E+03</pdfrwt>
<pdfrwt beam="2">  1       -2 0.27489359E-02 0.18228089E+03</pdfrwt>
<totfact> 0.41922117E+03</totfact>
</mgrwt>
</event>
<event>
 4    1  0.7368504E-001  0.1773184E+03  0.7546771E-02  0.1170424E+00
         -2   -1    0    0    0  501 -0.00000000000E+00  0.00000000000E+00  0.44508984293E+02  0.44508984293E+02  0.00000000000E+00 0. -1.
          2   -1    0    0  502    0  0.00000000000E+00 -0.00000000000E+00 -0.72642166285E+03  0.72642166285E+03  0.00000000000E+00 0.  1.
          6    1    1    2  502    0 -0.27712932977E+02  0.27291251881E+02 -0.40492644120E+03  0.44204891343E+03  0.17300000000E+03 0.  1.
         -6    1    1    2    0  501  0.27712932977E+02 -0.27291251881E+02 -0.27698623736E+03  0.32888173371E+03  0.17300000000E+03 0. -1.
<mgrwt>
<rscale>  2 0.17731841E+03</rscale>
<asrwt>0</asrwt>
<pdfrwt beam="1">  1        2 0.11175717E+00 0.17731841E+03</pdfrwt>
<pdfrwt beam="2">  1       -2 0.68475366E-02 0.17731841E+03</pdfrwt>
<totfact> 0.47442133E+03</totfact>
</mgrwt>
</event>
<event>
 4    1  0.7368504E-001  0.2366343E+03  0.7546771E-02  0.1122055E+00
          2   -1    0    0  502    0  0.00000000000E+00  0.00000000000E+00  0.19414211860E+03  0.19414211860E+03  0.00000000000E+00 0. -1.
         -2   -1    0    0    0  501 -0.00000000000E+00 -0.00000000000E+00 -0.38170563899E+03  0.38170563899E+03  0.00000000000E+00 0.  1.
          6    1    1    2  502    0 -0.18606893665E+02  0.16037641549E+03  0.48550946753E+02  0.24156366773E+03  0.17300000000E+03 0. -1.
         -6    1    1    2    0  501  0.18606893665E+02 -0.16037641549E+03 -0.23611446714E+03  0.33428408986E+03  0.17300000000E+03 0.  1.
<mgrwt>
<rscale>  2 0.23663434E+03</rscale>
<asrwt>0</asrwt>
<pdfrwt beam="1">  1        2 0.29868018E-01 0.23663434E+03</pdfrwt>
<pdfrwt beam="2">  1       -2 0.58723944E-01 0.23663434E+03</pdfrwt>
<totfact> 0.48874774E+02</totfact>
</mgrwt>
</event>
<event>
 4    1  0.7368504E-001  0.2115850E+03  0.7546771E-02  0.1140317E+00
         -2   -1    0    0    0  501 -0.00000000000E+00  0.00000000000E+00  0.28823684636E+02  0.28823684636E+02  0.00000000000E+00 0.  1.
          2   -1    0    0  502    0  0.00000000000E+00 -0.00000000000E+00 -0.15543936550E+04  0.15543936550E+04  0.00000000000E+00 0. -1.
          6    1    1    2  502    0  0.82555259913E+02  0.89575817276E+02 -0.74061088822E+03  0.77024196571E+03  0.17300000000E+03 0. -1.
         -6    1    1    2    0  501 -0.82555259913E+02 -0.89575817276E+02 -0.78495908215E+03  0.81297537393E+03  0.17300000000E+03 0. -1.
<mgrwt>
<rscale>  2 0.21158497E+03</rscale>
<asrwt>0</asrwt>
<pdfrwt beam="1">  1        2 0.23913749E+00 0.21158497E+03</pdfrwt>
<pdfrwt beam="2">  1       -2 0.44344130E-02 0.21158497E+03</pdfrwt>
<totfact> 0.29971154E+03</totfact>
</mgrwt>
</event>
<event>
 4    1  0.7368504E-001  0.1824519E+03  0.7546771E-02  0.1165451E+00
          2   -1    0    0  502    0  0.00000000000E+00  0.00000000000E+00  0.28128065580E+04  0.28128065580E+04  0.00000000000E+00 0.  1.
         -2   -1    0    0    0  501 -0.00000000000E+00 -0.00000000000E+00 -0.12160759410E+02  0.12160759410E+02  0.00000000000E+00 0. -1.
          6    1    1    2  502    0 -0.54180057859E+02 -0.20596851575E+02  0.11690341619E+04  0.11831861986E+04  0.17300000000E+03 0.  1.
         -6    1    1    2    0  501  0.54180057859E+02  0.20596851575E+02  0.16316116367E+04  0.16417811187E+04  0.17300000000E+03 0.  1.
<mgrwt>
<rscale>  2 0.18245194E+03</rscale>
<asrwt>0</asrwt>
<pdfrwt beam="1">  1        2 0.43273895E+00 0.18245194E+03</pdfrwt>
<pdfrwt beam="2">  1       -2 0.18708883E-02 0.18245194E+03</pdfrwt>
<totfact> 0.23089828E+03</totfact>
</mgrwt>
</event>
<event>
 4    1  0.7368504E-001  0.1868617E+03  0.7546771E-02  0.1161323E+00
          2   -1    0    0  502    0  0.00000000000E+00  0.00000000000E+00  0.20800570274E+04  0.20800570274E+04  0.00000000000E+00 0.  1.
         -2   -1    0    0    0  501 -0.00000000000E+00 -0.00000000000E+00 -0.20964540775E+02  0.20964540775E+02  0.00000000000E+00 0. -1.
          6    1    1    2  502    0  0.70532903936E+02 -0.36593501674E+01  0.14985043828E+04  0.15101101505E+04  0.17300000000E+03 0. -1.
         -6    1    1    2    0  501 -0.70532903936E+02  0.36593501674E+01  0.56058810376E+03  0.59091141761E+03  0.17300000000E+03 0. -1.
<mgrwt>
<rscale>  2 0.18686166E+03</rscale>
<asrwt>0</asrwt>
<pdfrwt beam="1">  1        2 0.32000861E+00 0.18686166E+03</pdfrwt>
<pdfrwt beam="2">  1       -2 0.32253156E-02 0.18686166E+03</pdfrwt>
<totfact> 0.25706703E+03</totfact>
</mgrwt>
</event>
<event>
 4    1  0.7368504E-001  0.2757376E+03  0.7546771E-02  0.1098040E+00
          1   -1    0    0  502    0  0.00000000000E+00  0.00000000000E+00  0.14637779041E+04  0.14637779041E+04  0.00000000000E+00 0.  1.
         -1   -1    0    0    0  501 -0.00000000000E+00 -0.00000000000E+00 -0.54243567962E+02  0.54243567962E+02  0.00000000000E+00 0. -1.
          6    1    1    2  502    0 -0.16433103351E+03  0.13819391769E+03  0.86111984373E+03  0.90418948939E+03  0.17300000000E+03 0.  1.
         -6    1    1    2    0  501  0.16433103351E+03 -0.13819391769E+03  0.54841449236E+03  0.61383198262E+03  0.17300000000E+03 0.  1.
<mgrwt>
<rscale>  2 0.27573764E+03</rscale>
<asrwt>0</asrwt>
<pdfrwt beam="1">  1        1 0.22519657E+00 0.27573764E+03</pdfrwt>
<pdfrwt beam="2">  1       -1 0.83451654E-02 0.27573764E+03</pdfrwt>
<totfact> 0.61101693E+02</totfact>
</mgrwt>
</event>
<event>
 4    1  0.7368504E-001  0.1766992E+03  0.7546771E-02  0.1171036E+00
          1   -1    0    0  502    0  0.00000000000E+00  0.00000000000E+00  0.54447131436E+03  0.54447131436E+03  0.00000000000E+00 0.  1.
         -1   -1    0    0    0  501 -0.00000000000E+00 -0.00000000000E+00 -0.79759131016E+02  0.79759131016E+02  0.00000000000E+00 0. -1.
          6    1    1    2  502    0  0.21083541787E+02 -0.29139197500E+02  0.39781397261E+03  0.43529135687E+03  0.17300000000E+03 0.  1.
         -6    1    1    2    0  501 -0.21083541787E+02  0.29139197500E+02  0.66898210737E+02  0.18893908850E+03  0.17300000000E+03 0. -1.
<mgrwt>
<rscale>  2 0.17669920E+03</rscale>
<asrwt>0</asrwt>
<pdfrwt beam="1">  1        1 0.83764815E-01 0.17669920E+03</pdfrwt>
<pdfrwt beam="2">  1       -1 0.12270636E-01 0.17669920E+03</pdfrwt>
<totfact> 0.17645703E+03</totfact>
</mgrwt>
</event>
<event>
 4    1  0.7368504E-001  0.1943217E+03  0.7546771E-02  0.1154620E+00
          2   -1    0    0  502    0  0.00000000000E+00  0.00000000000E+00  0.53673266962E+03  0.53673266962E+03  0.00000000000E+00 0.  1.
         -2   -1    0    0    0  501 -0.00000000000E+00 -0.00000000000E+00 -0.88269113672E+02  0.88269113672E+02  0.00000000000E+00 0. -1.
          6    1    1    2  502    0 -0.85932791342E+02 -0.21153490598E+02  0.36501961620E+03  0.41352174671E+03  0.17300000000E+03 0.  1.
         -6    1    1    2    0  501  0.85932791342E+02  0.21153490598E+02  0.83443939752E+02  0.21148003658E+03  0.17300000000E+03 0. -1.
<mgrwt>
<rscale>  2 0.19432168E+03</rscale>
<asrwt>0</asrwt>
<pdfrwt beam="1">  1        2 0.82574254E-01 0.19432168E+03</pdfrwt>
<pdfrwt beam="2">  1       -2 0.13579864E-01 0.19432168E+03</pdfrwt>
<totfact> 0.22951269E+03</totfact>
</mgrwt>
</event>
<event>
 4    1  0.7368504E-001  0.1823910E+03  0.7546771E-02  0.1165509E+00
          2   -1    0    0  502    0  0.00000000000E+00  0.00000000000E+00  0.87649979851E+03  0.87649979851E+03  0.00000000000E+00 0. -1.
         -2   -1    0    0    0  501 -0.00000000000E+00 -0.00000000000E+00 -0.45195396647E+02  0.45195396647E+02  0.00000000000E+00 0.  1.
          6    1    1    2  502    0 -0.54751693615E+02  0.18432065835E+02  0.60012303095E+03  0.62722734417E+03  0.17300000000E+03 0.  1.
         -6    1    1    2    0  501  0.54751693615E+02 -0.18432065835E+02  0.23118137091E+03  0.29446785098E+03  0.17300000000E+03 0.  1.
<mgrwt>
<rscale>  2 0.18239103E+03</rscale>
<asrwt>0</asrwt>
<pdfrwt beam="1">  1        2 0.13484611E+00 0.18239103E+03</pdfrwt>
<pdfrwt beam="2">  1       -2 0.69531386E-02 0.18239103E+03</pdfrwt>
<totfact> 0.36618222E+03</totfact>
</mgrwt>
</event>
<event>
 4    1  0.7368504E-001  0.1767286E+03  0.7546771E-02  0.1171007E+00
         -2   -1    0    0    0  501 -0.00000000000E+00  0.00000000000E+00  0.47222288941E+02  0.47222288941E+02  0.00000000000E+00 0.  1.
          2   -1    0    0  502    0  0.00000000000E+00 -0.00000000000E+00 -0.88880796757E+03  0.88880796757E+03  0.00000000000E+00 0. -1.
          6    1    1    2  502    0  0.18613135290E+02 -0.30944503757E+02 -0.18406194744E+03  0.25517016208E+03  0.17300000000E+03 0.  1.
         -6    1    1    2    0  501 -0.18613135290E+02  0.30944503757E+02 -0.65752373118E+03  0.68086009443E+03  0.17300000000E+03 0. -1.
<mgrwt>
<rscale>  2 0.17672864E+03</rscale>
<asrwt>0</asrwt>
<pdfrwt beam="1">  1        2 0.13673967E+00 0.17672864E+03</pdfrwt>
<pdfrwt beam="2">  1       -2 0.72649685E-02 0.17672864E+03</pdfrwt>
<totfact> 0.33573716E+03</totfact>
</mgrwt>
</event>
<event>
 4    1  0.7368504E-001  0.2044043E+03  0.7546771E-02  0.1146075E+00
          2   -1    0    0  502    0  0.00000000000E+00  0.00000000000E+00  0.18519414230E+03  0.18519414230E+03  0.00000000000E+00 0. -1.
         -2   -1    0    0    0  501 -0.00000000000E+00 -0.00000000000E+00 -0.31502507822E+03  0.31502507822E+03  0.00000000000E+00 0.  1.
          6    1    1    2  502    0  0.10323809152E+03 -0.34554754177E+02  0.68335373595E+02  0.21552461080E+03  0.17300000000E+03 0. -1.
         -6    1    1    2    0  501 -0.10323809152E+03  0.34554754177E+02 -0.19816630952E+03  0.28469460972E+03  0.17300000000E+03 0.  1.
<mgrwt>
<rscale>  2 0.20440434E+03</rscale>
<asrwt>0</asrwt>
<pdfrwt beam="1">  1        2 0.28491407E-01 0.20440434E+03</pdfrwt>
<pdfrwt beam="2">  1       -2 0.48465396E-01 0.20440434E+03</pdfrwt>
<totfact> 0.75790195E+02</totfact>
</mgrwt>
</event>
<event>
 4    1  0.7368504E-001  0.1981088E+03  0.7546771E-02  0.1151345E+00
          3   -1    0    0  502    0  0.00000000000E+00  0.00000000000E+00  0.58964116256E+02  0.58964116256E+02  0.00000000000E+00 0.  1.
         -3   -1    0    0    0  501 -0.00000000000E+00 -0.00000000000E+00 -0.74256581752E+03  0.74256581752E+03  0.00000000000E+00 0. -1.
          6    1    1    2  502    0  0.12044082226E+02 -0.95775895178E+02 -0.21278468756E+03  0.29073081239E+03  0.17300000000E+03 0.  1.
         -6    1    1    2    0  501 -0.12044082226E+02  0.95775895178E+02 -0.47081701370E+03  0.51079912138E+03  0.17300000000E+03 0. -1.
<mgrwt>
<rscale>  2 0.19810876E+03</rscale>
<asrwt>0</asrwt>
<pdfrwt beam="1">  1        3 0.90714027E-02 0.19810876E+03</pdfrwt>
<pdfrwt beam="2">  1       -3 0.11424089E+00 0.19810876E+03</pdfrwt>
<totfact> 0.14057860E+02</totfact>
</mgrwt>
</event>
<event>
 4    1  0.7368504E-001  0.3359543E+03  0.7546771E-02  0.1068532E+00
          2   -1    0    0  502    0  0.00000000000E+00  0.00000000000E+00  0.97215355304E+03  0.97215355304E+03  0.00000000000E+00 0.  1.
         -2   -1    0    0    0  501 -0.00000000000E+00 -0.00000000000E+00 -0.12200236529E+03  0.12200236529E+03  0.00000000000E+00 0. -1.
          6    1    1    2  502    0 -0.27427822286E+03 -0.87793731933E+02  0.54542505423E+03  0.64058861423E+03  0.17300000000E+03 0.  1.
         -6    1    1    2    0  501  0.27427822286E+03  0.87793731933E+02  0.30472613351E+03  0.45356730410E+03  0.17300000000E+03 0. -1.
<mgrwt>
<rscale>  2 0.33595429E+03</rscale>
<asrwt>0</asrwt>
<pdfrwt beam="1">  1        2 0.14956208E+00 0.33595429E+03</pdfrwt>
<pdfrwt beam="2">  1       -2 0.18769595E-01 0.33595429E+03</pdfrwt>
<totfact> 0.64052942E+02</totfact>
</mgrwt>
</event>
<event>
 4    1  0.7368504E-001  0.2936303E+03  0.7546771E-02  0.1088469E+00
          2   -1    0    0  502    0  0.00000000000E+00  0.00000000000E+00  0.36041041896E+03  0.36041041896E+03  0.00000000000E+00 0.  1.
         -2   -1    0    0    0  501 -0.00000000000E+00 -0.00000000000E+00 -0.26912924076E+03  0.26912924076E+03  0.00000000000E+00 0. -1.
          6    1    1    2  502    0 -0.18988851352E+03 -0.14223966036E+03 -0.59286442322E+02  0.29955575573E+03  0.17300000000E+03 0. -1.
         -6    1    1    2    0  501  0.18988851352E+03  0.14223966036E+03  0.15056762052E+03  0.32998390399E+03  0.17300000000E+03 0. -1.
<mgrwt>
<rscale>  2 0.29363033E+03</rscale>
<asrwt>0</asrwt>
<pdfrwt beam="1">  1        2 0.55447757E-01 0.29363033E+03</pdfrwt>
<pdfrwt beam="2">  1       -2 0.41404498E-01 0.29363033E+03</pdfrwt>
<totfact> 0.50104464E+02</totfact>
</mgrwt>
</event>
<event>
 4    1  0.7368504E-001  0.1970942E+03  0.7546771E-02  0.1152214E+00
          2   -1    0    0  502    0  0.00000000000E+00  0.00000000000E+00  0.25257998341E+03  0.25257998341E+03  0.00000000000E+00 0.  1.
         -2   -1    0    0    0  501 -0.00000000000E+00 -0.00000000000E+00 -0.25753540486E+03  0.25753540486E+03  0.00000000000E+00 0. -1.
          6    1    1    2  502    0  0.52878315863E+02  0.78236851577E+02  0.15940076200E+03  0.25348515570E+03  0.17300000000E+03 0.  1.
         -6    1    1    2    0  501 -0.52878315863E+02 -0.78236851577E+02 -0.16435618345E+03  0.25663023258E+03  0.17300000000E+03 0. -1.
<mgrwt>
<rscale>  2 0.19709419E+03</rscale>
<asrwt>0</asrwt>
<pdfrwt beam="1">  1        2 0.38858459E-01 0.19709419E+03</pdfrwt>
<pdfrwt beam="2">  1       -2 0.39620831E-01 0.19709419E+03</pdfrwt>
<totfact> 0.79912707E+02</totfact>
</mgrwt>
</event>
<event>
 4    1  0.7368504E-001  0.2322045E+03  0.7546771E-02  0.1125098E+00
          3   -1    0    0  502    0  0.00000000000E+00  0.00000000000E+00  0.18298790336E+03  0.18298790336E+03  0.00000000000E+00 0.  1.
         -3   -1    0    0    0  501 -0.00000000000E+00 -0.00000000000E+00 -0.49305086143E+03  0.49305086143E+03  0.00000000000E+00 0. -1.
          6    1    1    2  502    0 -0.13851202366E+03  0.69313398787E+02 -0.36944802473E+03  0.43636082653E+03  0.17300000000E+03 0. -1.
         -6    1    1    2    0  501  0.13851202366E+03 -0.69313398787E+02  0.59385066666E+02  0.23967793827E+03  0.17300000000E+03 0. -1.
<mgrwt>
<rscale>  2 0.23220450E+03</rscale>
<asrwt>0</asrwt>
<pdfrwt beam="1">  1        3 0.28151985E-01 0.23220450E+03</pdfrwt>
<pdfrwt beam="2">  1       -3 0.75853978E-01 0.23220450E+03</pdfrwt>
<totfact> 0.49941842E+01</totfact>
</mgrwt>
</event>
<event>
 4    1  0.7368504E-001  0.1795936E+03  0.7546771E-02  0.1168197E+00
         -2   -1    0    0    0  501 -0.00000000000E+00  0.00000000000E+00  0.77395615951E+02  0.77395615951E+02  0.00000000000E+00 0.  1.
          2   -1    0    0  502    0  0.00000000000E+00 -0.00000000000E+00 -0.47779155922E+03  0.47779155922E+03  0.00000000000E+00 0. -1.
          6    1    1    2  502    0  0.23335716074E+02  0.42193859615E+02 -0.10096927978E+03  0.20603075715E+03  0.17300000000E+03 0.  1.
         -6    1    1    2    0  501 -0.23335716074E+02 -0.42193859615E+02 -0.29942666350E+03  0.34915641802E+03  0.17300000000E+03 0. -1.
<mgrwt>
<rscale>  2 0.17959365E+03</rscale>
<asrwt>0</asrwt>
<pdfrwt beam="1">  1        2 0.73506394E-01 0.17959365E+03</pdfrwt>
<pdfrwt beam="2">  1       -2 0.11907018E-01 0.17959365E+03</pdfrwt>
<totfact> 0.32237637E+03</totfact>
</mgrwt>
</event>
<event>
 4    1  0.7368504E-001  0.1866247E+03  0.7546771E-02  0.1161541E+00
         -2   -1    0    0    0  501 -0.00000000000E+00  0.00000000000E+00  0.29507767663E+03  0.29507767663E+03  0.00000000000E+00 0.  1.
          2   -1    0    0  502    0  0.00000000000E+00 -0.00000000000E+00 -0.19099189344E+03  0.19099189344E+03  0.00000000000E+00 0. -1.
          6    1    1    2  502    0 -0.64003305338E+02  0.28343626546E+02  0.20225373740E+03  0.27520057876E+03  0.17300000000E+03 0.  1.
         -6    1    1    2    0  501  0.64003305338E+02 -0.28343626546E+02 -0.98167954204E+02  0.21086899130E+03  0.17300000000E+03 0. -1.
<mgrwt>
<rscale>  2 0.18662472E+03</rscale>
<asrwt>0</asrwt>
<pdfrwt beam="1">  1        2 0.29383368E-01 0.18662472E+03</pdfrwt>
<pdfrwt beam="2">  1       -2 0.45396566E-01 0.18662472E+03</pdfrwt>
<totfact> 0.83197798E+02</totfact>
</mgrwt>
</event>
<event>
 4    1  0.7368504E-001  0.2063981E+03  0.7546771E-02  0.1144450E+00
         -2   -1    0    0    0  501 -0.00000000000E+00  0.00000000000E+00  0.73261449632E+02  0.73261449632E+02  0.00000000000E+00 0.  1.
          2   -1    0    0  502    0  0.00000000000E+00 -0.00000000000E+00 -0.70877409864E+03  0.70877409864E+03  0.00000000000E+00 0. -1.
          6    1    1    2  502    0  0.63051604962E+02 -0.93250517546E+02 -0.15204794297E+03  0.25635666731E+03  0.17300000000E+03 0. -1.
         -6    1    1    2    0  501 -0.63051604962E+02  0.93250517546E+02 -0.48346470604E+03  0.52567888097E+03  0.17300000000E+03 0. -1.
<mgrwt>
<rscale>  2 0.20639807E+03</rscale>
<asrwt>0</asrwt>
<pdfrwt beam="1">  1        2 0.10904217E+00 0.20639807E+03</pdfrwt>
<pdfrwt beam="2">  1       -2 0.11270992E-01 0.20639807E+03</pdfrwt>
<totfact> 0.22463881E+03</totfact>
</mgrwt>
</event>
<event>
 4    1  0.7368504E-001  0.1738522E+03  0.7546771E-02  0.1173889E+00
          1   -1    0    0  502    0  0.00000000000E+00  0.00000000000E+00  0.70681732809E+02  0.70681732809E+02  0.00000000000E+00 0.  1.
         -1   -1    0    0    0  501 -0.00000000000E+00 -0.00000000000E+00 -0.44308549882E+03  0.44308549882E+03  0.00000000000E+00 0. -1.
          6    1    1    2  502    0  0.17178438250E+02  0.69190992409E+00 -0.13820167200E+03  0.22209070134E+03  0.17300000000E+03 0.  1.
         -6    1    1    2    0  501 -0.17178438250E+02 -0.69190992409E+00 -0.23420209401E+03  0.29167653029E+03  0.17300000000E+03 0. -1.
<mgrwt>
<rscale>  2 0.17385217E+03</rscale>
<asrwt>0</asrwt>
<pdfrwt beam="1">  1        1 0.10874113E-01 0.17385217E+03</pdfrwt>
<pdfrwt beam="2">  1       -1 0.68166999E-01 0.17385217E+03</pdfrwt>
<totfact> 0.12802145E+03</totfact>
</mgrwt>
</event>
<event>
 4    1  0.7368504E-001  0.2426763E+03  0.7546771E-02  0.1118023E+00
         -2   -1    0    0    0  501 -0.00000000000E+00  0.00000000000E+00  0.14370359761E+02  0.14370359761E+02  0.00000000000E+00 0. -1.
          2   -1    0    0  502    0  0.00000000000E+00 -0.00000000000E+00 -0.41576507961E+04  0.41576507961E+04  0.00000000000E+00 0.  1.
          6    1    1    2  502    0  0.16122308898E+03 -0.54496653979E+02 -0.18220748045E+04  0.18381644004E+04  0.17300000000E+03 0. -1.
         -6    1    1    2    0  501 -0.16122308898E+03  0.54496653979E+02 -0.23212056318E+04  0.23338567554E+04  0.17300000000E+03 0.  1.
<mgrwt>
<rscale>  2 0.24267627E+03</rscale>
<asrwt>0</asrwt>
<pdfrwt beam="1">  1        2 0.63963898E+00 0.24267627E+03</pdfrwt>
<pdfrwt beam="2">  1       -2 0.22108232E-02 0.24267627E+03</pdfrwt>
<totfact> 0.22658522E+02</totfact>
</mgrwt>
</event>
<event>
 4    1  0.7368504E-001  0.2360857E+03  0.7546771E-02  0.1122428E+00
         -1   -1    0    0    0  501 -0.00000000000E+00  0.00000000000E+00  0.27484454371E+02  0.27484454371E+02  0.00000000000E+00 0. -1.
          1   -1    0    0  502    0  0.00000000000E+00 -0.00000000000E+00 -0.20415722916E+04  0.20415722916E+04  0.00000000000E+00 0.  1.
          6    1    1    2  502    0 -0.13773076936E+03  0.82690430941E+02 -0.92246765717E+03  0.95219906045E+03  0.17300000000E+03 0.  1.
         -6    1    1    2    0  501  0.13773076936E+03 -0.82690430941E+02 -0.10916201801E+04  0.11168576856E+04  0.17300000000E+03 0. -1.
<mgrwt>
<rscale>  2 0.23608573E+03</rscale>
<asrwt>0</asrwt>
<pdfrwt beam="1">  1        1 0.31408813E+00 0.23608573E+03</pdfrwt>
<pdfrwt beam="2">  1       -1 0.42283764E-02 0.23608573E+03</pdfrwt>
<totfact> 0.72044416E+02</totfact>
</mgrwt>
</event>
<event>
 4    1  0.7368504E-001  0.2665837E+03  0.7546771E-02  0.1103251E+00
          2   -1    0    0  502    0  0.00000000000E+00  0.00000000000E+00  0.39355407622E+03  0.39355407622E+03  0.00000000000E+00 0.  1.
         -2   -1    0    0    0  501 -0.00000000000E+00 -0.00000000000E+00 -0.43058762582E+03  0.43058762582E+03  0.00000000000E+00 0. -1.
          6    1    1    2  502    0 -0.56859803499E+02 -0.19469166392E+03  0.29547640014E+03  0.39796128492E+03  0.17300000000E+03 0.  1.
         -6    1    1    2    0  501  0.56859803499E+02  0.19469166392E+03 -0.33250994975E+03  0.42618041712E+03  0.17300000000E+03 0. -1.
<mgrwt>
<rscale>  2 0.26658372E+03</rscale>
<asrwt>0</asrwt>
<pdfrwt beam="1">  1        2 0.60546781E-01 0.26658372E+03</pdfrwt>
<pdfrwt beam="2">  1       -2 0.66244250E-01 0.26658372E+03</pdfrwt>
<totfact> 0.17604634E+02</totfact>
</mgrwt>
</event>
<event>
 4    1  0.7368504E-001  0.2620647E+03  0.7546771E-02  0.1105909E+00
          2   -1    0    0  502    0  0.00000000000E+00  0.00000000000E+00  0.12621912721E+04  0.12621912721E+04  0.00000000000E+00 0.  1.
         -2   -1    0    0    0  501 -0.00000000000E+00 -0.00000000000E+00 -0.66035363192E+02  0.66035363192E+02  0.00000000000E+00 0. -1.
          6    1    1    2  502    0  0.18932062465E+03 -0.53913160579E+02  0.31944910652E+03  0.41318961684E+03  0.17300000000E+03 0.  1.
         -6    1    1    2    0  501 -0.18932062465E+03  0.53913160579E+02  0.87670680241E+03  0.91503701848E+03  0.17300000000E+03 0.  1.
<mgrwt>
<rscale>  2 0.26206474E+03</rscale>
<asrwt>0</asrwt>
<pdfrwt beam="1">  1        2 0.19418326E+00 0.26206474E+03</pdfrwt>
<pdfrwt beam="2">  1       -2 0.10159288E-01 0.26206474E+03</pdfrwt>
<totfact> 0.11939288E+03</totfact>
</mgrwt>
</event>
<event>
 4    1  0.7368504E-001  0.1755596E+03  0.7546771E-02  0.1172171E+00
          2   -1    0    0  502    0  0.00000000000E+00  0.00000000000E+00  0.16979672762E+04  0.16979672762E+04  0.00000000000E+00 0.  1.
         -2   -1    0    0    0  501 -0.00000000000E+00 -0.00000000000E+00 -0.23620414495E+02  0.23620414495E+02  0.00000000000E+00 0. -1.
          6    1    1    2  502    0 -0.29770752660E+02  0.24228683902E+01  0.42298885714E+03  0.45797460767E+03  0.17300000000E+03 0. -1.
         -6    1    1    2    0  501  0.29770752660E+02 -0.24228683902E+01  0.12513580046E+04  0.12636130830E+04  0.17300000000E+03 0.  1.
<mgrwt>
<rscale>  2 0.17555959E+03</rscale>
<asrwt>0</asrwt>
<pdfrwt beam="1">  1        2 0.26122564E+00 0.17555959E+03</pdfrwt>
<pdfrwt beam="2">  1       -2 0.36339113E-02 0.17555959E+03</pdfrwt>
<totfact> 0.33951793E+03</totfact>
</mgrwt>
</event>
<event>
 4    1  0.7368504E-001  0.2064104E+03  0.7546771E-02  0.1144440E+00
         -1   -1    0    0    0  501 -0.00000000000E+00  0.00000000000E+00  0.22054253951E+03  0.22054253951E+03  0.00000000000E+00 0. -1.
          1   -1    0    0  502    0  0.00000000000E+00 -0.00000000000E+00 -0.23602009475E+03  0.23602009475E+03  0.00000000000E+00 0.  1.
          6    1    1    2  502    0  0.56309622913E+02  0.97496078233E+02 -0.10499144651E+03  0.23157820006E+03  0.17300000000E+03 0.  1.
         -6    1    1    2    0  501 -0.56309622913E+02 -0.97496078233E+02  0.89513891270E+02  0.22498443420E+03  0.17300000000E+03 0. -1.
<mgrwt>
<rscale>  2 0.20641041E+03</rscale>
<asrwt>0</asrwt>
<pdfrwt beam="1">  1        1 0.36310784E-01 0.20641041E+03</pdfrwt>
<pdfrwt beam="2">  1       -1 0.33929622E-01 0.20641041E+03</pdfrwt>
<totfact> 0.97947250E+02</totfact>
</mgrwt>
</event>
<event>
 4    1  0.7368504E-001  0.1900950E+03  0.7546771E-02  0.1158376E+00
          2   -1    0    0  502    0  0.00000000000E+00  0.00000000000E+00  0.21750939292E+04  0.21750939292E+04  0.00000000000E+00 0. -1.
         -2   -1    0    0    0  501 -0.00000000000E+00 -0.00000000000E+00 -0.17339302308E+02  0.17339302308E+02  0.00000000000E+00 0.  1.
          6    1    1    2  502    0 -0.57970290825E+02 -0.53353020209E+02  0.85461025849E+03  0.87549688366E+03  0.17300000000E+03 0.  1.
         -6    1    1    2    0  501  0.57970290825E+02  0.53353020209E+02  0.13031443684E+04  0.13169363478E+04  0.17300000000E+03 0.  1.
<mgrwt>
<rscale>  2 0.19009497E+03</rscale>
<asrwt>0</asrwt>
<pdfrwt beam="1">  1        2 0.33462962E+00 0.19009497E+03</pdfrwt>
<pdfrwt beam="2">  1       -2 0.26675867E-02 0.19009497E+03</pdfrwt>
<totfact> 0.30368807E+03</totfact>
</mgrwt>
</event>
<event>
 4    1  0.7368504E-001  0.1852764E+03  0.7546771E-02  0.1162792E+00
         -2   -1    0    0    0  501 -0.00000000000E+00  0.00000000000E+00  0.60519702172E+02  0.60519702172E+02  0.00000000000E+00 0. -1.
          2   -1    0    0  502    0  0.00000000000E+00 -0.00000000000E+00 -0.67300672367E+03  0.67300672367E+03  0.00000000000E+00 0.  1.
          6    1    1    2  502    0 -0.20054972415E+02  0.63215112436E+02 -0.45165982171E+03  0.48818433701E+03  0.17300000000E+03 0.  1.
         -6    1    1    2    0  501  0.20054972415E+02 -0.63215112436E+02 -0.16082719979E+03  0.24534208883E+03  0.17300000000E+03 0. -1.
<mgrwt>
<rscale>  2 0.18527642E+03</rscale>
<asrwt>0</asrwt>
<pdfrwt beam="1">  1        2 0.10353950E+00 0.18527642E+03</pdfrwt>
<pdfrwt beam="2">  1       -2 0.93107227E-02 0.18527642E+03</pdfrwt>
<totfact> 0.32292851E+03</totfact>
</mgrwt>
</event>
<event>
 4    1  0.7368504E-001  0.2088437E+03  0.7546771E-02  0.1142485E+00
         -1   -1    0    0    0  501 -0.00000000000E+00  0.00000000000E+00  0.54327468680E+03  0.54327468680E+03  0.00000000000E+00 0.  1.
          1   -1    0    0  502    0  0.00000000000E+00 -0.00000000000E+00 -0.21883760449E+03  0.21883760449E+03  0.00000000000E+00 0. -1.
          6    1    1    2  502    0 -0.73437856565E+02  0.91068974616E+02  0.46542510928E+03  0.51013352102E+03  0.17300000000E+03 0.  1.
         -6    1    1    2    0  501  0.73437856565E+02 -0.91068974616E+02 -0.14098802698E+03  0.25197877027E+03  0.17300000000E+03 0. -1.
<mgrwt>
<rscale>  2 0.20884367E+03</rscale>
<asrwt>0</asrwt>
<pdfrwt beam="1">  1        1 0.33667324E-01 0.20884367E+03</pdfrwt>
<pdfrwt beam="2">  1       -1 0.83580721E-01 0.20884367E+03</pdfrwt>
<totfact> 0.19731672E+02</totfact>
</mgrwt>
</event>
<event>
 4    1  0.7368504E-001  0.2377554E+03  0.7546771E-02  0.1121297E+00
          1   -1    0    0  502    0  0.00000000000E+00  0.00000000000E+00  0.76706274783E+03  0.76706274783E+03  0.00000000000E+00 0. -1.
         -1   -1    0    0    0  501 -0.00000000000E+00 -0.00000000000E+00 -0.12664652054E+03  0.12664652054E+03  0.00000000000E+00 0.  1.
          6    1    1    2  502    0  0.15895065704E+03 -0.36514675502E+02  0.31263568593E+02  0.23980209261E+03  0.17300000000E+03 0.  1.
         -6    1    1    2    0  501 -0.15895065704E+03  0.36514675502E+02  0.60915265870E+03  0.65390717575E+03  0.17300000000E+03 0. -1.
<mgrwt>
<rscale>  2 0.23775541E+03</rscale>
<asrwt>0</asrwt>
<pdfrwt beam="1">  1        1 0.11800965E+00 0.23775541E+03</pdfrwt>
<pdfrwt beam="2">  1       -1 0.19484080E-01 0.23775541E+03</pdfrwt>
<totfact> 0.52127856E+02</totfact>
</mgrwt>
</event>
<event>
 4    1  0.7368504E-001  0.1931359E+03  0.7546771E-02  0.1155663E+00
         -2   -1    0    0    0  501 -0.00000000000E+00  0.00000000000E+00  0.15441372208E+02  0.15441372208E+02  0.00000000000E+00 0.  1.
          2   -1    0    0  502    0  0.00000000000E+00 -0.00000000000E+00 -0.25460351931E+04  0.25460351931E+04  0.00000000000E+00 0. -1.
          6    1    1    2  502    0  0.47656817114E+01 -0.85730764461E+02 -0.15550884515E+04  0.15670359178E+04  0.17300000000E+03 0. -1.
         -6    1    1    2    0  501 -0.47656817114E+01  0.85730764461E+02 -0.97550536935E+03  0.99444064747E+03  0.17300000000E+03 0.  1.
<mgrwt>
<rscale>  2 0.19313590E+03</rscale>
<asrwt>0</asrwt>
<pdfrwt beam="1">  1        2 0.39169759E+00 0.19313590E+03</pdfrwt>
<pdfrwt beam="2">  1       -2 0.23755965E-02 0.19313590E+03</pdfrwt>
<totfact> 0.22841324E+03</totfact>
</mgrwt>
</event>
<event>
 4    1  0.7368504E-001  0.1949181E+03  0.7546771E-02  0.1154099E+00
         -1   -1    0    0    0  501 -0.00000000000E+00  0.00000000000E+00  0.51403665013E+02  0.51403665013E+02  0.00000000000E+00 0.  1.
          1   -1    0    0  502    0  0.00000000000E+00 -0.00000000000E+00 -0.73924768715E+03  0.73924768715E+03  0.00000000000E+00 0. -1.
          6    1    1    2  502    0 -0.89710401886E+02  0.40124240061E+01 -0.33856234828E+03  0.39066292302E+03  0.17300000000E+03 0.  1.
         -6    1    1    2    0  501  0.89710401886E+02 -0.40124240061E+01 -0.34928167386E+03  0.39998842914E+03  0.17300000000E+03 0.  1.
<mgrwt>
<rscale>  2 0.19491807E+03</rscale>
<asrwt>0</asrwt>
<pdfrwt beam="1">  1        1 0.11373041E+00 0.19491807E+03</pdfrwt>
<pdfrwt beam="2">  1       -1 0.79082564E-02 0.19491807E+03</pdfrwt>
<totfact> 0.22619627E+03</totfact>
</mgrwt>
</event>
<event>
 4    1  0.7368504E-001  0.2660288E+03  0.7546771E-02  0.1103574E+00
         -2   -1    0    0    0  501 -0.00000000000E+00  0.00000000000E+00  0.73118972401E+02  0.73118972401E+02  0.00000000000E+00 0.  1.
          2   -1    0    0  502    0  0.00000000000E+00 -0.00000000000E+00 -0.96844991347E+03  0.96844991347E+03  0.00000000000E+00 0. -1.
          6    1    1    2  502    0 -0.40110426113E+02  0.19807446487E+03 -0.46015430801E+03  0.53151982757E+03  0.17300000000E+03 0. -1.
         -6    1    1    2    0  501  0.40110426113E+02 -0.19807446487E+03 -0.43517663306E+03  0.51004905831E+03  0.17300000000E+03 0.  1.
<mgrwt>
<rscale>  2 0.26602883E+03</rscale>
<asrwt>0</asrwt>
<pdfrwt beam="1">  1        2 0.14899229E+00 0.26602883E+03</pdfrwt>
<pdfrwt beam="2">  1       -2 0.11249073E-01 0.26602883E+03</pdfrwt>
<totfact> 0.15084471E+03</totfact>
</mgrwt>
</event>
<event>
 4    1  0.7368504E-001  0.1733483E+03  0.7546771E-02  0.1174400E+00
         -1   -1    0    0    0  501 -0.00000000000E+00  0.00000000000E+00  0.76843117019E+02  0.76843117019E+02  0.00000000000E+00 0.  1.
          1   -1    0    0  502    0  0.00000000000E+00 -0.00000000000E+00 -0.58771004173E+03  0.58771004173E+03  0.00000000000E+00 0. -1.
          6    1    1    2  502    0 -0.59574811136E+00  0.10967627526E+02 -0.44764266896E+03  0.48003500169E+03  0.17300000000E+03 0. -1.
         -6    1    1    2    0  501  0.59574811136E+00 -0.10967627526E+02 -0.63224255744E+02  0.18451815706E+03  0.17300000000E+03 0.  1.
<mgrwt>
<rscale>  2 0.17334833E+03</rscale>
<asrwt>0</asrwt>
<pdfrwt beam="1">  1        1 0.90416930E-01 0.17334833E+03</pdfrwt>
<pdfrwt beam="2">  1       -1 0.11822018E-01 0.17334833E+03</pdfrwt>
<totfact> 0.16853993E+03</totfact>
</mgrwt>
</event>
<event>
 4    1  0.7368504E-001  0.2437598E+03  0.7546771E-02  0.1117313E+00
         -2   -1    0    0    0  501 -0.00000000000E+00  0.00000000000E+00  0.23541028540E+02  0.23541028540E+02  0.00000000000E+00 0.  1.
          2   -1    0    0  502    0  0.00000000000E+00 -0.00000000000E+00 -0.25665851025E+04  0.25665851025E+04  0.00000000000E+00 0. -1.
          6    1    1    2  502    0  0.11395395355E+03 -0.12846923004E+03 -0.14382322504E+04  0.14587429015E+04  0.17300000000E+03 0. -1.
         -6    1    1    2    0  501 -0.11395395355E+03  0.12846923004E+03 -0.11048118236E+04  0.11313832295E+04  0.17300000000E+03 0.  1.
<mgrwt>
<rscale>  2 0.24375981E+03</rscale>
<asrwt>0</asrwt>
<pdfrwt beam="1">  1        2 0.39485913E+00 0.24375981E+03</pdfrwt>
<pdfrwt beam="2">  1       -2 0.36216978E-02 0.24375981E+03</pdfrwt>
<totfact> 0.11813503E+03</totfact>
</mgrwt>
</event>
<event>
 4    1  0.7368504E-001  0.1891610E+03  0.7546771E-02  0.1159220E+00
         -2   -1    0    0    0  501 -0.00000000000E+00  0.00000000000E+00  0.39609513150E+02  0.39609513150E+02  0.00000000000E+00 0. -1.
          2   -1    0    0  502    0  0.00000000000E+00 -0.00000000000E+00 -0.10064934753E+04  0.10064934753E+04  0.00000000000E+00 0.  1.
          6    1    1    2  502    0 -0.75847753375E+02 -0.10000952831E+02 -0.31601499811E+03  0.36830338008E+03  0.17300000000E+03 0. -1.
         -6    1    1    2    0  501  0.75847753375E+02  0.10000952831E+02 -0.65086896399E+03  0.67779960832E+03  0.17300000000E+03 0.  1.
<mgrwt>
<rscale>  2 0.18916104E+03</rscale>
<asrwt>0</asrwt>
<pdfrwt beam="1">  1        2 0.15484516E+00 0.18916104E+03</pdfrwt>
<pdfrwt beam="2">  1       -2 0.60937710E-02 0.18916104E+03</pdfrwt>
<totfact> 0.37229511E+03</totfact>
</mgrwt>
</event>
<event>
 4    1  0.7368504E-001  0.1801836E+03  0.7546771E-02  0.1167625E+00
          1   -1    0    0  502    0  0.00000000000E+00  0.00000000000E+00  0.61907865943E+02  0.61907865943E+02  0.00000000000E+00 0.  1.
         -1   -1    0    0    0  501 -0.00000000000E+00 -0.00000000000E+00 -0.53619860246E+03  0.53619860246E+03  0.00000000000E+00 0. -1.
          6    1    1    2  502    0  0.22261030437E+02  0.45183757852E+02 -0.28145648384E+03  0.33419137892E+03  0.17300000000E+03 0.  1.
         -6    1    1    2    0  501 -0.22261030437E+02 -0.45183757852E+02 -0.19283425267E+03  0.26391508947E+03  0.17300000000E+03 0.  1.
<mgrwt>
<rscale>  2 0.18018359E+03</rscale>
<asrwt>0</asrwt>
<pdfrwt beam="1">  1        1 0.95242868E-02 0.18018359E+03</pdfrwt>
<pdfrwt beam="2">  1       -1 0.82492095E-01 0.18018359E+03</pdfrwt>
<totfact> 0.10396127E+03</totfact>
</mgrwt>
</event>
<event>
 4    1  0.7368504E-001  0.3198238E+03  0.7546771E-02  0.1075730E+00
          1   -1    0    0  502    0  0.00000000000E+00  0.00000000000E+00  0.92973724254E+03  0.92973724254E+03  0.00000000000E+00 0.  1.
         -1   -1    0    0    0  501 -0.00000000000E+00 -0.00000000000E+00 -0.11522511154E+03  0.11522511154E+03  0.00000000000E+00 0. -1.
          6    1    1    2  502    0 -0.26887232826E+03 -0.81212798154E+01  0.29618010106E+03  0.43590129198E+03  0.17300000000E+03 0. -1.
         -6    1    1    2    0  501  0.26887232826E+03  0.81212798154E+01  0.51833202994E+03  0.60906106209E+03  0.17300000000E+03 0.  1.
<mgrwt>
<rscale>  2 0.31982383E+03</rscale>
<asrwt>0</asrwt>
<pdfrwt beam="1">  1        1 0.14303649E+00 0.31982383E+03</pdfrwt>
<pdfrwt beam="2">  1       -1 0.17726941E-01 0.31982383E+03</pdfrwt>
<totfact> 0.44486941E+02</totfact>
</mgrwt>
</event>
<event>
 4    1  0.7368504E-001  0.2552348E+03  0.7546771E-02  0.1110041E+00
         -2   -1    0    0    0  501 -0.00000000000E+00  0.00000000000E+00  0.13273883211E+03  0.13273883211E+03  0.00000000000E+00 0. -1.
          2   -1    0    0  502    0  0.00000000000E+00 -0.00000000000E+00 -0.49329610533E+03  0.49329610533E+03  0.00000000000E+00 0.  1.
          6    1    1    2  502    0 -0.99834509603E+02 -0.15889892406E+03 -0.20265950956E+03  0.32590746262E+03  0.17300000000E+03 0. -1.
         -6    1    1    2    0  501  0.99834509603E+02  0.15889892406E+03 -0.15789776366E+03  0.30012747482E+03  0.17300000000E+03 0. -1.
<mgrwt>
<rscale>  2 0.25523479E+03</rscale>
<asrwt>0</asrwt>
<pdfrwt beam="1">  1        2 0.75891708E-01 0.25523479E+03</pdfrwt>
<pdfrwt beam="2">  1       -2 0.20421359E-01 0.25523479E+03</pdfrwt>
<totfact> 0.12813262E+03</totfact>
</mgrwt>
</event>
<event>
 4    1  0.7368504E-001  0.1970938E+03  0.7546771E-02  0.1152214E+00
          1   -1    0    0  502    0  0.00000000000E+00  0.00000000000E+00  0.95704682083E+02  0.95704682083E+02  0.00000000000E+00 0. -1.
         -1   -1    0    0    0  501 -0.00000000000E+00 -0.00000000000E+00 -0.40946302137E+03  0.40946302137E+03  0.00000000000E+00 0.  1.
          6    1    1    2  502    0  0.93801135700E+02  0.10876502759E+02 -0.18046091259E+03  0.26723041059E+03  0.17300000000E+03 0.  1.
         -6    1    1    2    0  501 -0.93801135700E+02 -0.10876502759E+02 -0.13329742669E+03  0.23793729286E+03  0.17300000000E+03 0. -1.
<mgrwt>
<rscale>  2 0.19709376E+03</rscale>
<asrwt>0</asrwt>
<pdfrwt beam="1">  1        1 0.14723797E-01 0.19709376E+03</pdfrwt>
<pdfrwt beam="2">  1       -1 0.62994311E-01 0.19709376E+03</pdfrwt>
<totfact> 0.10042661E+03</totfact>
</mgrwt>
</event>
<event>
 4    1  0.7368504E-001  0.3009679E+03  0.7546771E-02  0.1084758E+00
          1   -1    0    0  502    0  0.00000000000E+00  0.00000000000E+00  0.54213432338E+03  0.54213432338E+03  0.00000000000E+00 0.  1.
         -1   -1    0    0    0  501 -0.00000000000E+00 -0.00000000000E+00 -0.24437328900E+03  0.24437328900E+03  0.00000000000E+00 0. -1.
          6    1    1    2  502    0 -0.46812885645E+02 -0.24178751662E+03 -0.72279895483E+02  0.30952549612E+03  0.17300000000E+03 0. -1.
         -6    1    1    2    0  501  0.46812885645E+02  0.24178751662E+03  0.37004092986E+03  0.47698211626E+03  0.17300000000E+03 0.  1.
<mgrwt>
<rscale>  2 0.30096785E+03</rscale>
<asrwt>0</asrwt>
<pdfrwt beam="1">  1        1 0.83405281E-01 0.30096785E+03</pdfrwt>
<pdfrwt beam="2">  1       -1 0.37595891E-01 0.30096785E+03</pdfrwt>
<totfact> 0.28057284E+02</totfact>
</mgrwt>
</event>
<event>
 4    1  0.7368504E-001  0.1816164E+03  0.7546771E-02  0.1166248E+00
          2   -1    0    0  502    0  0.00000000000E+00  0.00000000000E+00  0.15150191581E+04  0.15150191581E+04  0.00000000000E+00 0.  1.
         -2   -1    0    0    0  501 -0.00000000000E+00 -0.00000000000E+00 -0.21953669708E+02  0.21953669708E+02  0.00000000000E+00 0. -1.
          6    1    1    2  502    0  0.53113058799E+02 -0.15313636637E+02  0.81650279776E+03  0.83645760397E+03  0.17300000000E+03 0.  1.
         -6    1    1    2    0  501 -0.53113058799E+02  0.15313636637E+02  0.67656269067E+03  0.70051522388E+03  0.17300000000E+03 0.  1.
<mgrwt>
<rscale>  2 0.18161637E+03</rscale>
<asrwt>0</asrwt>
<pdfrwt beam="1">  1        2 0.23307979E+00 0.18161637E+03</pdfrwt>
<pdfrwt beam="2">  1       -2 0.33774888E-02 0.18161637E+03</pdfrwt>
<totfact> 0.47184575E+03</totfact>
</mgrwt>
</event>
<event>
 4    1  0.7368504E-001  0.3893331E+03  0.7546771E-02  0.1047537E+00
         -1   -1    0    0    0  501 -0.00000000000E+00  0.00000000000E+00  0.88312466354E+03  0.88312466354E+03  0.00000000000E+00 0. -1.
          1   -1    0    0  502    0  0.00000000000E+00 -0.00000000000E+00 -0.18872242135E+03  0.18872242135E+03  0.00000000000E+00 0.  1.
          6    1    1    2  502    0 -0.34778470146E+03 -0.26401450975E+02  0.50843468965E+03  0.64037962868E+03  0.17300000000E+03 0. -1.
         -6    1    1    2    0  501  0.34778470146E+03  0.26401450975E+02  0.18596755254E+03  0.43146745622E+03  0.17300000000E+03 0.  1.
<mgrwt>
<rscale>  2 0.38933306E+03</rscale>
<asrwt>0</asrwt>
<pdfrwt beam="1">  1        1 0.29034219E-01 0.38933306E+03</pdfrwt>
<pdfrwt beam="2">  1       -1 0.13586533E+00 0.38933306E+03</pdfrwt>
<totfact> 0.76341905E+01</totfact>
</mgrwt>
</event>
<event>
 4    1  0.7368504E-001  0.2367730E+03  0.7546771E-02  0.1121961E+00
         -2   -1    0    0    0  501 -0.00000000000E+00  0.00000000000E+00  0.22118043588E+02  0.22118043588E+02  0.00000000000E+00 0. -1.
          2   -1    0    0  502    0  0.00000000000E+00 -0.00000000000E+00 -0.25358951524E+04  0.25358951524E+04  0.00000000000E+00 0.  1.
          6    1    1    2  502    0 -0.63023166663E+02  0.14886412328E+03 -0.12285203723E+04  0.12511289909E+04  0.17300000000E+03 0.  1.
         -6    1    1    2    0  501  0.63023166663E+02 -0.14886412328E+03 -0.12852567365E+04  0.13068842051E+04  0.17300000000E+03 0.  1.
<mgrwt>
<rscale>  2 0.23677299E+03</rscale>
<asrwt>0</asrwt>
<pdfrwt beam="1">  1        2 0.39013767E+00 0.23677299E+03</pdfrwt>
<pdfrwt beam="2">  1       -2 0.34027763E-02 0.23677299E+03</pdfrwt>
<totfact> 0.13498067E+03</totfact>
</mgrwt>
</event>
<event>
 4    1  0.7368504E-001  0.1888152E+03  0.7546771E-02  0.1159534E+00
         -2   -1    0    0    0  501 -0.00000000000E+00  0.00000000000E+00  0.98529030835E+03  0.98529030835E+03  0.00000000000E+00 0. -1.
          2   -1    0    0  502    0  0.00000000000E+00 -0.00000000000E+00 -0.38874286731E+02  0.38874286731E+02  0.00000000000E+00 0.  1.
          6    1    1    2  502    0  0.67173518019E+02 -0.34783539574E+02  0.33848108920E+03  0.38758305419E+03  0.17300000000E+03 0.  1.
         -6    1    1    2    0  501 -0.67173518019E+02  0.34783539574E+02  0.60793493243E+03  0.63658154090E+03  0.17300000000E+03 0.  1.
<mgrwt>
<rscale>  2 0.18881519E+03</rscale>
<asrwt>0</asrwt>
<pdfrwt beam="1">  1        2 0.59806602E-02 0.18881519E+03</pdfrwt>
<pdfrwt beam="2">  1       -2 0.15158311E+00 0.18881519E+03</pdfrwt>
<totfact> 0.38014758E+02</totfact>
</mgrwt>
</event>
<event>
 4    1  0.7368504E-001  0.2032483E+03  0.7546771E-02  0.1147027E+00
         -2   -1    0    0    0  501 -0.00000000000E+00  0.00000000000E+00  0.43250541065E+02  0.43250541065E+02  0.00000000000E+00 0.  1.
          2   -1    0    0  502    0  0.00000000000E+00 -0.00000000000E+00 -0.15995620197E+04  0.15995620197E+04  0.00000000000E+00 0. -1.
          6    1    1    2  502    0 -0.58175259567E+02 -0.89423134135E+02 -0.25678545051E+03  0.32748835909E+03  0.17300000000E+03 0.  1.
         -6    1    1    2    0  501  0.58175259567E+02  0.89423134135E+02 -0.12995260281E+04  0.13153242017E+04  0.17300000000E+03 0. -1.
<mgrwt>
<rscale>  2 0.20324827E+03</rscale>
<asrwt>0</asrwt>
<pdfrwt beam="1">  1        2 0.24608644E+00 0.20324827E+03</pdfrwt>
<pdfrwt beam="2">  1       -2 0.66539299E-02 0.20324827E+03</pdfrwt>
<totfact> 0.15290780E+03</totfact>
</mgrwt>
</event>
<event>
 4    1  0.7368504E-001  0.2445026E+03  0.7546771E-02  0.1116829E+00
         -1   -1    0    0    0  501 -0.00000000000E+00  0.00000000000E+00  0.77114112789E+02  0.77114112789E+02  0.00000000000E+00 0. -1.
          1   -1    0    0  502    0  0.00000000000E+00 -0.00000000000E+00 -0.11679730688E+04  0.11679730688E+04  0.00000000000E+00 0.  1.
          6    1    1    2  502    0  0.67830320562E+02  0.15890749462E+03 -0.90642761405E+03  0.93882509753E+03  0.17300000000E+03 0.  1.
         -6    1    1    2    0  501 -0.67830320562E+02 -0.15890749462E+03 -0.18443134196E+03  0.30626208406E+03  0.17300000000E+03 0. -1.
<mgrwt>
<rscale>  2 0.24450265E+03</rscale>
<asrwt>0</asrwt>
<pdfrwt beam="1">  1        1 0.17968816E+00 0.24450265E+03</pdfrwt>
<pdfrwt beam="2">  1       -1 0.11863710E-01 0.24450265E+03</pdfrwt>
<totfact> 0.56593787E+02</totfact>
</mgrwt>
</event>
<event>
 4    1  0.7368504E-001  0.2721181E+03  0.7546771E-02  0.1100073E+00
          2   -1    0    0  502    0  0.00000000000E+00  0.00000000000E+00  0.62914794915E+03  0.62914794915E+03  0.00000000000E+00 0.  1.
         -2   -1    0    0    0  501 -0.00000000000E+00 -0.00000000000E+00 -0.12886404084E+03  0.12886404084E+03  0.00000000000E+00 0. -1.
          6    1    1    2  502    0  0.12309860333E+03 -0.17019392488E+03  0.36171709165E+03  0.45264499622E+03  0.17300000000E+03 0.  1.
         -6    1    1    2    0  501 -0.12309860333E+03  0.17019392488E+03  0.13856681666E+03  0.30536699377E+03  0.17300000000E+03 0. -1.
<mgrwt>
<rscale>  2 0.27211806E+03</rscale>
<asrwt>0</asrwt>
<pdfrwt beam="1">  1        2 0.96791990E-01 0.27211806E+03</pdfrwt>
<pdfrwt beam="2">  1       -2 0.19825237E-01 0.27211806E+03</pdfrwt>
<totfact> 0.10199486E+03</totfact>
</mgrwt>
</event>
<event>
 4    1  0.7368504E-001  0.1854862E+03  0.7546771E-02  0.1162597E+00
          1   -1    0    0  502    0  0.00000000000E+00  0.00000000000E+00  0.15537152726E+03  0.15537152726E+03  0.00000000000E+00 0. -1.
         -1   -1    0    0    0  501 -0.00000000000E+00 -0.00000000000E+00 -0.40782210703E+03  0.40782210703E+03  0.00000000000E+00 0.  1.
          6    1    1    2  502    0  0.62805510009E+02 -0.23056548633E+02 -0.31659461763E+03  0.36692954151E+03  0.17300000000E+03 0.  1.
         -6    1    1    2    0  501 -0.62805510009E+02  0.23056548633E+02  0.64144037857E+02  0.19626409278E+03  0.17300000000E+03 0. -1.
<mgrwt>
<rscale>  2 0.18548622E+03</rscale>
<asrwt>0</asrwt>
<pdfrwt beam="1">  1        1 0.23903312E-01 0.18548622E+03</pdfrwt>
<pdfrwt beam="2">  1       -1 0.62741863E-01 0.18548622E+03</pdfrwt>
<totfact> 0.54166334E+02</totfact>
</mgrwt>
</event>
<event>
 4    1  0.7368504E-001  0.1743718E+03  0.7546771E-02  0.1173364E+00
         -2   -1    0    0    0  501 -0.00000000000E+00  0.00000000000E+00  0.15638601480E+02  0.15638601480E+02  0.00000000000E+00 0.  1.
          2   -1    0    0  502    0  0.00000000000E+00 -0.00000000000E+00 -0.19442837166E+04  0.19442837166E+04  0.00000000000E+00 0. -1.
          6    1    1    2  502    0  0.81562598804E+01 -0.20248434308E+02 -0.96766884235E+03  0.98325404251E+03  0.17300000000E+03 0. -1.
         -6    1    1    2    0  501 -0.81562598804E+01  0.20248434308E+02 -0.96097627278E+03  0.97666827557E+03  0.17300000000E+03 0. -1.
<mgrwt>
<rscale>  2 0.17437180E+03</rscale>
<asrwt>0</asrwt>
<pdfrwt beam="1">  1        2 0.29912055E+00 0.17437180E+03</pdfrwt>
<pdfrwt beam="2">  1       -2 0.24059389E-02 0.17437180E+03</pdfrwt>
<totfact> 0.46599858E+03</totfact>
</mgrwt>
</event>
<event>
 4    1  0.7368504E-001  0.1740131E+03  0.7546771E-02  0.1173726E+00
          2   -1    0    0  502    0  0.00000000000E+00  0.00000000000E+00  0.12960758389E+04  0.12960758389E+04  0.00000000000E+00 0. -1.
         -2   -1    0    0    0  501 -0.00000000000E+00 -0.00000000000E+00 -0.24663242869E+02  0.24663242869E+02  0.00000000000E+00 0.  1.
          6    1    1    2  502    0  0.18712051319E+02  0.11858388626E+01  0.78731775167E+03  0.80631866478E+03  0.17300000000E+03 0. -1.
         -6    1    1    2    0  501 -0.18712051319E+02 -0.11858388626E+01  0.48409484439E+03  0.51442041701E+03  0.17300000000E+03 0.  1.
<mgrwt>
<rscale>  2 0.17401307E+03</rscale>
<asrwt>0</asrwt>
<pdfrwt beam="1">  1        2 0.19939623E+00 0.17401307E+03</pdfrwt>
<pdfrwt beam="2">  1       -2 0.37943461E-02 0.17401307E+03</pdfrwt>
<totfact> 0.51908271E+03</totfact>
</mgrwt>
</event>
<event>
 4    1  0.7368504E-001  0.2266378E+03  0.7546771E-02  0.1129029E+00
          1   -1    0    0  502    0  0.00000000000E+00  0.00000000000E+00  0.78534802094E+03  0.78534802094E+03  0.00000000000E+00 0. -1.
         -1   -1    0    0    0  501 -0.00000000000E+00 -0.00000000000E+00 -0.71516956305E+02  0.71516956305E+02  0.00000000000E+00 0.  1.
          6    1    1    2  502    0 -0.28623543500E+02  0.14358405881E+03  0.48217574787E+03  0.53278339034E+03  0.17300000000E+03 0. -1.
         -6    1    1    2    0  501  0.28623543500E+02 -0.14358405881E+03  0.23165531676E+03  0.32408158690E+03  0.17300000000E+03 0.  1.
<mgrwt>
<rscale>  2 0.22663779E+03</rscale>
<asrwt>0</asrwt>
<pdfrwt beam="1">  1        1 0.12082277E+00 0.22663779E+03</pdfrwt>
<pdfrwt beam="2">  1       -1 0.11002609E-01 0.22663779E+03</pdfrwt>
<totfact> 0.12454679E+03</totfact>
</mgrwt>
</event>
<event>
 4    1  0.7368504E-001  0.2147611E+03  0.7546771E-02  0.1137850E+00
          2   -1    0    0  502    0  0.00000000000E+00  0.00000000000E+00  0.23965080796E+04  0.23965080796E+04  0.00000000000E+00 0. -1.
         -2   -1    0    0    0  501 -0.00000000000E+00 -0.00000000000E+00 -0.37215283547E+02  0.37215283547E+02  0.00000000000E+00 0.  1.
          6    1    1    2  502    0 -0.65867625463E+02  0.10887973748E+03  0.33407510096E+03  0.39715049339E+03  0.17300000000E+03 0.  1.
         -6    1    1    2    0  501  0.65867625463E+02 -0.10887973748E+03  0.20252176951E+04  0.20365728698E+04  0.17300000000E+03 0. -1.
<mgrwt>
<rscale>  2 0.21476113E+03</rscale>
<asrwt>0</asrwt>
<pdfrwt beam="1">  1        2 0.36869343E+00 0.21476113E+03</pdfrwt>
<pdfrwt beam="2">  1       -2 0.57254301E-02 0.21476113E+03</pdfrwt>
<totfact> 0.73457100E+02</totfact>
</mgrwt>
</event>
<event>
 4    1  0.7368504E-001  0.2043219E+03  0.7546771E-02  0.1146143E+00
         -1   -1    0    0    0  501 -0.00000000000E+00  0.00000000000E+00  0.11784716628E+03  0.11784716628E+03  0.00000000000E+00 0.  1.
          1   -1    0    0  502    0  0.00000000000E+00 -0.00000000000E+00 -0.36855208986E+03  0.36855208986E+03  0.00000000000E+00 0. -1.
          6    1    1    2  502    0  0.74079351742E+02  0.79565718767E+02 -0.77445245099E+02  0.21850679611E+03  0.17300000000E+03 0. -1.
         -6    1    1    2    0  501 -0.74079351742E+02 -0.79565718767E+02 -0.17325967847E+03  0.26789246003E+03  0.17300000000E+03 0. -1.
<mgrwt>
<rscale>  2 0.20432194E+03</rscale>
<asrwt>0</asrwt>
<pdfrwt beam="1">  1        1 0.56700321E-01 0.20432194E+03</pdfrwt>
<pdfrwt beam="2">  1       -1 0.18130333E-01 0.20432194E+03</pdfrwt>
<totfact> 0.15846098E+03</totfact>
</mgrwt>
</event>
<event>
 4    1  0.7368504E-001  0.2494977E+03  0.7546771E-02  0.1113623E+00
         -1   -1    0    0    0  501 -0.00000000000E+00  0.00000000000E+00  0.27223300991E+02  0.27223300991E+02  0.00000000000E+00 0. -1.
          1   -1    0    0  502    0  0.00000000000E+00 -0.00000000000E+00 -0.22866388326E+04  0.22866388326E+04  0.00000000000E+00 0.  1.
          6    1    1    2  502    0 -0.12990735099E+03  0.12427460306E+03 -0.11337512518E+04  0.11608794071E+04  0.17300000000E+03 0. -1.
         -6    1    1    2    0  501  0.12990735099E+03 -0.12427460306E+03 -0.11256642797E+04  0.11529827265E+04  0.17300000000E+03 0.  1.
<mgrwt>
<rscale>  2 0.24949769E+03</rscale>
<asrwt>0</asrwt>
<pdfrwt beam="1">  1        1 0.35179077E+00 0.24949769E+03</pdfrwt>
<pdfrwt beam="2">  1       -1 0.41881980E-02 0.24949769E+03</pdfrwt>
<totfact> 0.50519273E+02</totfact>
</mgrwt>
</event>
<event>
 4    1  0.7368504E-001  0.2165638E+03  0.7546771E-02  0.1136471E+00
          2   -1    0    0  502    0  0.00000000000E+00  0.00000000000E+00  0.95766382531E+03  0.95766382531E+03  0.00000000000E+00 0. -1.
         -2   -1    0    0    0  501 -0.00000000000E+00 -0.00000000000E+00 -0.50494377332E+02  0.50494377332E+02  0.00000000000E+00 0.  1.
          6    1    1    2  502    0 -0.12573279516E+03  0.34090101822E+02  0.54107621078E+03  0.58280643159E+03  0.17300000000E+03 0.  1.
         -6    1    1    2    0  501  0.12573279516E+03 -0.34090101822E+02  0.36609323720E+03  0.42535177106E+03  0.17300000000E+03 0.  1.
<mgrwt>
<rscale>  2 0.21656378E+03</rscale>
<asrwt>0</asrwt>
<pdfrwt beam="1">  1        2 0.14733288E+00 0.21656378E+03</pdfrwt>
<pdfrwt beam="2">  1       -2 0.77683665E-02 0.21656378E+03</pdfrwt>
<totfact> 0.27492479E+03</totfact>
</mgrwt>
</event>
<event>
 4    1  0.7368504E-001  0.2280163E+03  0.7546771E-02  0.1128044E+00
         -3   -1    0    0    0  501 -0.00000000000E+00  0.00000000000E+00  0.14768148674E+03  0.14768148674E+03  0.00000000000E+00 0. -1.
          3   -1    0    0  502    0  0.00000000000E+00 -0.00000000000E+00 -0.64856142502E+03  0.64856142502E+03  0.00000000000E+00 0.  1.
          6    1    1    2  502    0  0.14850735069E+03 -0.28280971965E+01 -0.51963059333E+03  0.56745694539E+03  0.17300000000E+03 0.  1.
         -6    1    1    2    0  501 -0.14850735069E+03  0.28280971965E+01  0.18750655053E+02  0.22878596637E+03  0.17300000000E+03 0. -1.
<mgrwt>
<rscale>  2 0.22801630E+03</rscale>
<asrwt>0</asrwt>
<pdfrwt beam="1">  1        3 0.99778683E-01 0.22801630E+03</pdfrwt>
<pdfrwt beam="2">  1       -3 0.22720228E-01 0.22801630E+03</pdfrwt>
<totfact> 0.40125049E+01</totfact>
</mgrwt>
</event>
<event>
 4    1  0.7368504E-001  0.4291330E+03  0.7546771E-02  0.1034134E+00
          2   -1    0    0  502    0  0.00000000000E+00  0.00000000000E+00  0.11561088059E+04  0.11561088059E+04  0.00000000000E+00 0.  1.
         -2   -1    0    0    0  501 -0.00000000000E+00 -0.00000000000E+00 -0.19013092492E+03  0.19013092492E+03  0.00000000000E+00 0. -1.
          6    1    1    2  502    0 -0.26913678324E+03 -0.28599224390E+03  0.75409439201E+03  0.86764827190E+03  0.17300000000E+03 0.  1.
         -6    1    1    2    0  501  0.26913678324E+03  0.28599224390E+03  0.21188348899E+03  0.47859145894E+03  0.17300000000E+03 0. -1.
<mgrwt>
<rscale>  2 0.42913305E+03</rscale>
<asrwt>0</asrwt>
<pdfrwt beam="1">  1        2 0.17786289E+00 0.42913305E+03</pdfrwt>
<pdfrwt beam="2">  1       -2 0.29250912E-01 0.42913305E+03</pdfrwt>
<totfact> 0.22429986E+02</totfact>
</mgrwt>
</event>
<event>
 4    1  0.7368504E-001  0.2873053E+03  0.7546771E-02  0.1091764E+00
         -1   -1    0    0    0  501 -0.00000000000E+00  0.00000000000E+00  0.30943702596E+02  0.30943702596E+02  0.00000000000E+00 0. -1.
          1   -1    0    0  502    0  0.00000000000E+00 -0.00000000000E+00 -0.29909221910E+04  0.29909221910E+04  0.00000000000E+00 0.  1.
          6    1    1    2  502    0  0.14036834993E+03 -0.18141688942E+03 -0.98318718479E+03  0.10243053264E+04  0.17300000000E+03 0.  1.
         -6    1    1    2    0  501 -0.14036834993E+03  0.18141688942E+03 -0.19767913036E+04  0.19975605671E+04  0.17300000000E+03 0. -1.
<mgrwt>
<rscale>  2 0.28730535E+03</rscale>
<asrwt>0</asrwt>
<pdfrwt beam="1">  1        1 0.46014186E+00 0.28730535E+03</pdfrwt>
<pdfrwt beam="2">  1       -1 0.47605698E-02 0.28730535E+03</pdfrwt>
<totfact> 0.13847931E+02</totfact>
</mgrwt>
</event>
<event>
 4    1  0.7368504E-001  0.2050603E+03  0.7546771E-02  0.1145538E+00
          1   -1    0    0  502    0  0.00000000000E+00  0.00000000000E+00  0.10493689109E+03  0.10493689109E+03  0.00000000000E+00 0.  1.
         -1   -1    0    0    0  501 -0.00000000000E+00 -0.00000000000E+00 -0.40738389054E+03  0.40738389054E+03  0.00000000000E+00 0. -1.
          6    1    1    2  502    0 -0.76262475232E+02  0.79402649237E+02 -0.11844799371E+03  0.23681147153E+03  0.17300000000E+03 0.  1.
         -6    1    1    2    0  501  0.76262475232E+02 -0.79402649237E+02 -0.18399900575E+03  0.27550931010E+03  0.17300000000E+03 0. -1.
<mgrwt>
<rscale>  2 0.20506035E+03</rscale>
<asrwt>0</asrwt>
<pdfrwt beam="1">  1        1 0.16144137E-01 0.20506035E+03</pdfrwt>
<pdfrwt beam="2">  1       -1 0.62674446E-01 0.20506035E+03</pdfrwt>
<totfact> 0.89980080E+02</totfact>
</mgrwt>
</event>
<event>
 4    1  0.7368504E-001  0.2616547E+03  0.7546771E-02  0.1106153E+00
         -4   -1    0    0    0  501 -0.00000000000E+00  0.00000000000E+00  0.21705991055E+03  0.21705991055E+03  0.00000000000E+00 0.  1.
          4   -1    0    0  502    0  0.00000000000E+00 -0.00000000000E+00 -0.76438010686E+03  0.76438010686E+03  0.00000000000E+00 0. -1.
          6    1    1    2  502    0 -0.19469879226E+03  0.25031671474E+02  0.10242579062E+03  0.28098798349E+03  0.17300000000E+03 0.  1.
         -6    1    1    2    0  501  0.19469879226E+03 -0.25031671474E+02 -0.64974598693E+03  0.70045203391E+03  0.17300000000E+03 0. -1.
<mgrwt>
<rscale>  2 0.26165474E+03</rscale>
<asrwt>0</asrwt>
<pdfrwt beam="1">  1        4 0.11759694E+00 0.26165474E+03</pdfrwt>
<pdfrwt beam="2">  1       -4 0.33393832E-01 0.26165474E+03</pdfrwt>
<totfact> 0.91288868E+00</totfact>
</mgrwt>
</event>
<event>
 4    1  0.7368504E-001  0.2471755E+03  0.7546771E-02  0.1115103E+00
          2   -1    0    0  502    0  0.00000000000E+00  0.00000000000E+00  0.86284555848E+03  0.86284555848E+03  0.00000000000E+00 0.  1.
         -2   -1    0    0    0  501 -0.00000000000E+00 -0.00000000000E+00 -0.11707762125E+03  0.11707762125E+03  0.00000000000E+00 0. -1.
          6    1    1    2  502    0 -0.17470635112E+03 -0.25385864470E+02  0.68090219708E+03  0.72437804579E+03  0.17300000000E+03 0.  1.
         -6    1    1    2    0  501  0.17470635112E+03  0.25385864470E+02  0.64865740152E+02  0.25554513394E+03  0.17300000000E+03 0. -1.
<mgrwt>
<rscale>  2 0.24717555E+03</rscale>
<asrwt>0</asrwt>
<pdfrwt beam="1">  1        2 0.13274547E+00 0.24717555E+03</pdfrwt>
<pdfrwt beam="2">  1       -2 0.18011942E-01 0.24717555E+03</pdfrwt>
<totfact> 0.81157102E+02</totfact>
</mgrwt>
</event>
<event>
 4    1  0.7368504E-001  0.1730136E+03  0.7546771E-02  0.1174741E+00
          4   -1    0    0  502    0  0.00000000000E+00  0.00000000000E+00  0.25987114548E+03  0.25987114548E+03  0.00000000000E+00 0. -1.
         -4   -1    0    0    0  501 -0.00000000000E+00 -0.00000000000E+00 -0.13773815745E+03  0.13773815745E+03  0.00000000000E+00 0.  1.
          6    1    1    2  502    0  0.13351588452E+01 -0.17047860678E+01 -0.19376293569E+02  0.17409517425E+03  0.17300000000E+03 0.  1.
         -6    1    1    2    0  501 -0.13351588452E+01  0.17047860678E+01  0.14150928160E+03  0.22351412869E+03  0.17300000000E+03 0. -1.
<mgrwt>
<rscale>  2 0.17301355E+03</rscale>
<asrwt>0</asrwt>
<pdfrwt beam="1">  1        4 0.39980176E-01 0.17301355E+03</pdfrwt>
<pdfrwt beam="2">  1       -4 0.21190486E-01 0.17301355E+03</pdfrwt>
<totfact> 0.21497011E+02</totfact>
</mgrwt>
</event>
<event>
 4    1  0.7368504E-001  0.2125515E+03  0.7546771E-02  0.1139561E+00
         -2   -1    0    0    0  501 -0.00000000000E+00  0.00000000000E+00  0.53683587560E+02  0.53683587560E+02  0.00000000000E+00 0. -1.
          2   -1    0    0  502    0  0.00000000000E+00 -0.00000000000E+00 -0.89442813768E+03  0.89442813768E+03  0.00000000000E+00 0.  1.
          6    1    1    2  502    0 -0.98684969825E+02  0.74232324517E+02 -0.53562160191E+03  0.57625399062E+03  0.17300000000E+03 0.  1.
         -6    1    1    2    0  501  0.98684969825E+02 -0.74232324517E+02 -0.30512294821E+03  0.37185773462E+03  0.17300000000E+03 0. -1.
<mgrwt>
<rscale>  2 0.21255155E+03</rscale>
<asrwt>0</asrwt>
<pdfrwt beam="1">  1        2 0.13760432E+00 0.21255155E+03</pdfrwt>
<pdfrwt beam="2">  1       -2 0.82590142E-02 0.21255155E+03</pdfrwt>
<totfact> 0.27389853E+03</totfact>
</mgrwt>
</event>
<event>
 4    1  0.7368504E-001  0.1737749E+03  0.7546771E-02  0.1173967E+00
         -3   -1    0    0    0  501 -0.00000000000E+00  0.00000000000E+00  0.11756611680E+03  0.11756611680E+03  0.00000000000E+00 0. -1.
          3   -1    0    0  502    0  0.00000000000E+00 -0.00000000000E+00 -0.26019947143E+03  0.26019947143E+03  0.00000000000E+00 0.  1.
          6    1    1    2  502    0 -0.14575974577E+02 -0.75006782167E+01 -0.49909894011E+02  0.18080021219E+03  0.17300000000E+03 0. -1.
         -6    1    1    2    0  501  0.14575974577E+02  0.75006782167E+01 -0.92723460615E+02  0.19696537604E+03  0.17300000000E+03 0.  1.
<mgrwt>
<rscale>  2 0.17377491E+03</rscale>
<asrwt>0</asrwt>
<pdfrwt beam="1">  1        3 0.40030688E-01 0.17377491E+03</pdfrwt>
<pdfrwt beam="2">  1       -3 0.18087095E-01 0.17377491E+03</pdfrwt>
<totfact> 0.39907299E+02</totfact>
</mgrwt>
</event>
<event>
 4    1  0.7368504E-001  0.1983141E+03  0.7546771E-02  0.1151169E+00
          2   -1    0    0  502    0  0.00000000000E+00  0.00000000000E+00  0.43389690980E+03  0.43389690980E+03  0.00000000000E+00 0. -1.
         -2   -1    0    0    0  501 -0.00000000000E+00 -0.00000000000E+00 -0.14496820030E+03  0.14496820030E+03  0.00000000000E+00 0.  1.
          6    1    1    2  502    0 -0.96945316055E+02 -0.10459587140E+01 -0.32719031267E+02  0.20099508288E+03  0.17300000000E+03 0.  1.
         -6    1    1    2    0  501  0.96945316055E+02  0.10459587140E+01  0.32164774076E+03  0.37787002722E+03  0.17300000000E+03 0. -1.
<mgrwt>
<rscale>  2 0.19831412E+03</rscale>
<asrwt>0</asrwt>
<pdfrwt beam="1">  1        2 0.66753370E-01 0.19831412E+03</pdfrwt>
<pdfrwt beam="2">  1       -2 0.22302800E-01 0.19831412E+03</pdfrwt>
<totfact> 0.12641535E+03</totfact>
</mgrwt>
</event>
<event>
 4    1  0.7368504E-001  0.1855383E+03  0.7546771E-02  0.1162548E+00
         -2   -1    0    0    0  501 -0.00000000000E+00  0.00000000000E+00  0.91406154772E+03  0.91406154772E+03  0.00000000000E+00 0. -1.
          2   -1    0    0  502    0  0.00000000000E+00 -0.00000000000E+00 -0.42678655364E+02  0.42678655364E+02  0.00000000000E+00 0.  1.
          6    1    1    2  502    0  0.61340688965E+02  0.27070143839E+02  0.59971606518E+03  0.62776096697E+03  0.17300000000E+03 0. -1.
         -6    1    1    2    0  501 -0.61340688965E+02 -0.27070143839E+02  0.27166682718E+03  0.32897923612E+03  0.17300000000E+03 0.  1.
<mgrwt>
<rscale>  2 0.18553833E+03</rscale>
<asrwt>0</asrwt>
<pdfrwt beam="1">  1        2 0.65659477E-02 0.18553833E+03</pdfrwt>
<pdfrwt beam="2">  1       -2 0.14062484E+00 0.18553833E+03</pdfrwt>
<totfact> 0.40781996E+02</totfact>
</mgrwt>
</event>
<event>
 4    1  0.7368504E-001  0.1736055E+03  0.7546771E-02  0.1174139E+00
          1   -1    0    0  502    0  0.00000000000E+00  0.00000000000E+00  0.39056052526E+03  0.39056052526E+03  0.00000000000E+00 0.  1.
         -1   -1    0    0    0  501 -0.00000000000E+00 -0.00000000000E+00 -0.96092111882E+02  0.96092111882E+02  0.00000000000E+00 0. -1.
          6    1    1    2  502    0 -0.14422283833E+02 -0.13726819742E+01  0.39252625703E+02  0.17798779495E+03  0.17300000000E+03 0. -1.
         -6    1    1    2    0  501  0.14422283833E+02  0.13726819742E+01  0.25521578768E+03  0.30866484219E+03  0.17300000000E+03 0.  1.
<mgrwt>
<rscale>  2 0.17360555E+03</rscale>
<asrwt>0</asrwt>
<pdfrwt beam="1">  1        1 0.60086234E-01 0.17360555E+03</pdfrwt>
<pdfrwt beam="2">  1       -1 0.14783402E-01 0.17360555E+03</pdfrwt>
<totfact> 0.20290605E+03</totfact>
</mgrwt>
</event>
<event>
 4    1  0.7368504E-001  0.1733664E+03  0.7546771E-02  0.1174382E+00
          2   -1    0    0  502    0  0.00000000000E+00  0.00000000000E+00  0.10433178859E+03  0.10433178859E+03  0.00000000000E+00 0.  1.
         -2   -1    0    0    0  501 -0.00000000000E+00 -0.00000000000E+00 -0.29111386840E+03  0.29111386840E+03  0.00000000000E+00 0. -1.
          6    1    1    2  502    0  0.10826820558E+02  0.31113681317E+01 -0.73206241179E+02  0.18818887959E+03  0.17300000000E+03 0.  1.
         -6    1    1    2    0  501 -0.10826820558E+02 -0.31113681317E+01 -0.11357583863E+03  0.20725677740E+03  0.17300000000E+03 0. -1.
<mgrwt>
<rscale>  2 0.17336638E+03</rscale>
<asrwt>0</asrwt>
<pdfrwt beam="1">  1        2 0.16051044E-01 0.17336638E+03</pdfrwt>
<pdfrwt beam="2">  1       -2 0.44786749E-01 0.17336638E+03</pdfrwt>
<totfact> 0.16882658E+03</totfact>
</mgrwt>
</event>
<event>
 4    1  0.7368504E-001  0.2204760E+03  0.7546771E-02  0.1133529E+00
          1   -1    0    0  502    0  0.00000000000E+00  0.00000000000E+00  0.21423600918E+04  0.21423600918E+04  0.00000000000E+00 0.  1.
         -1   -1    0    0    0  501 -0.00000000000E+00 -0.00000000000E+00 -0.14341674035E+03  0.14341674035E+03  0.00000000000E+00 0. -1.
          6    1    1    2  502    0 -0.51012533050E+02  0.12680054789E+03 -0.49119161527E+02  0.22588127302E+03  0.17300000000E+03 0. -1.
         -6    1    1    2    0  501  0.51012533050E+02 -0.12680054789E+03  0.20480625130E+04  0.20598955591E+04  0.17300000000E+03 0.  1.
<mgrwt>
<rscale>  2 0.22047598E+03</rscale>
<asrwt>0</asrwt>
<pdfrwt beam="1">  1        1 0.32959384E+00 0.22047598E+03</pdfrwt>
<pdfrwt beam="2">  1       -1 0.22064115E-01 0.22047598E+03</pdfrwt>
<totfact> 0.48080789E+01</totfact>
</mgrwt>
</event>
<event>
 4    1  0.7368504E-001  0.1850341E+03  0.7546771E-02  0.1163018E+00
         -4   -1    0    0    0  501 -0.00000000000E+00  0.00000000000E+00  0.23375037920E+03  0.23375037920E+03  0.00000000000E+00 0.  1.
          4   -1    0    0  502    0  0.00000000000E+00 -0.00000000000E+00 -0.15499620509E+03  0.15499620509E+03  0.00000000000E+00 0. -1.
          6    1    1    2  502    0 -0.32729416298E+01 -0.65558291819E+02 -0.62091690574E+01  0.18513820663E+03  0.17300000000E+03 0. -1.
         -6    1    1    2    0  501  0.32729416298E+01  0.65558291819E+02  0.84963343167E+02  0.20360837766E+03  0.17300000000E+03 0.  1.
<mgrwt>
<rscale>  2 0.18503406E+03</rscale>
<asrwt>0</asrwt>
<pdfrwt beam="1">  1        4 0.23845570E-01 0.18503406E+03</pdfrwt>
<pdfrwt beam="2">  1       -4 0.35961597E-01 0.18503406E+03</pdfrwt>
<totfact> 0.21544199E+02</totfact>
</mgrwt>
</event>
<event>
 4    1  0.7368504E-001  0.2745369E+03  0.7546771E-02  0.1098711E+00
          2   -1    0    0  502    0  0.00000000000E+00  0.00000000000E+00  0.24066345279E+03  0.24066345279E+03  0.00000000000E+00 0. -1.
         -2   -1    0    0    0  501 -0.00000000000E+00 -0.00000000000E+00 -0.39822700167E+03  0.39822700167E+03  0.00000000000E+00 0.  1.
          6    1    1    2  502    0  0.14645254637E+03  0.15489720755E+03 -0.22640874953E+03  0.35585308079E+03  0.17300000000E+03 0.  1.
         -6    1    1    2    0  501 -0.14645254637E+03 -0.15489720755E+03  0.68845200655E+02  0.28303737367E+03  0.17300000000E+03 0. -1.
<mgrwt>
<rscale>  2 0.27453687E+03</rscale>
<asrwt>0</asrwt>
<pdfrwt beam="1">  1        2 0.37025147E-01 0.27453687E+03</pdfrwt>
<pdfrwt beam="2">  1       -2 0.61265692E-01 0.27453687E+03</pdfrwt>
<totfact> 0.35378003E+02</totfact>
</mgrwt>
</event>
<event>
 4    1  0.7368504E-001  0.1931716E+03  0.7546771E-02  0.1155631E+00
          2   -1    0    0  502    0  0.00000000000E+00  0.00000000000E+00  0.33837838731E+03  0.33837838731E+03  0.00000000000E+00 0. -1.
         -2   -1    0    0    0  501 -0.00000000000E+00 -0.00000000000E+00 -0.11506201834E+03  0.11506201834E+03  0.00000000000E+00 0.  1.
          6    1    1    2  502    0  0.13102338049E+01  0.85933422719E+02  0.65422505734E+02  0.20394944008E+03  0.17300000000E+03 0.  1.
         -6    1    1    2    0  501 -0.13102338049E+01 -0.85933422719E+02  0.15789386324E+03  0.24949096557E+03  0.17300000000E+03 0. -1.
<mgrwt>
<rscale>  2 0.19317161E+03</rscale>
<asrwt>0</asrwt>
<pdfrwt beam="1">  1        2 0.52058213E-01 0.19317161E+03</pdfrwt>
<pdfrwt beam="2">  1       -2 0.17701849E-01 0.19317161E+03</pdfrwt>
<totfact> 0.24505897E+03</totfact>
</mgrwt>
</event>
<event>
 4    1  0.7368504E-001  0.2355514E+03  0.7546771E-02  0.1122792E+00
          2   -1    0    0  502    0  0.00000000000E+00  0.00000000000E+00  0.69630236500E+03  0.69630236500E+03  0.00000000000E+00 0. -1.
         -2   -1    0    0    0  501 -0.00000000000E+00 -0.00000000000E+00 -0.81736016001E+02  0.81736016001E+02  0.00000000000E+00 0.  1.
          6    1    1    2  502    0 -0.12496154389E+03 -0.99699848913E+02  0.36891579550E+03  0.43770230921E+03  0.17300000000E+03 0.  1.
         -6    1    1    2    0  501  0.12496154389E+03  0.99699848913E+02  0.24565055350E+03  0.34033607179E+03  0.17300000000E+03 0. -1.
<mgrwt>
<rscale>  2 0.23555137E+03</rscale>
<asrwt>0</asrwt>
<pdfrwt beam="1">  1        2 0.10712344E+00 0.23555137E+03</pdfrwt>
<pdfrwt beam="2">  1       -2 0.12574772E-01 0.23555137E+03</pdfrwt>
<totfact> 0.19279424E+03</totfact>
</mgrwt>
</event>
<event>
 4    1  0.7368504E-001  0.1917275E+03  0.7546771E-02  0.1156912E+00
          3   -1    0    0  502    0  0.00000000000E+00  0.00000000000E+00  0.80928666040E+02  0.80928666040E+02  0.00000000000E+00 0.  1.
         -3   -1    0    0    0  501 -0.00000000000E+00 -0.00000000000E+00 -0.45458684713E+03  0.45458684713E+03  0.00000000000E+00 0. -1.
          6    1    1    2  502    0 -0.27869118365E+02 -0.77805751587E+02 -0.17922326137E+03  0.26245075758E+03  0.17300000000E+03 0.  1.
         -6    1    1    2    0  501  0.27869118365E+02  0.77805751587E+02 -0.19443491971E+03  0.27306475559E+03  0.17300000000E+03 0. -1.
<mgrwt>
<rscale>  2 0.19172747E+03</rscale>
<asrwt>0</asrwt>
<pdfrwt beam="1">  1        3 0.12450564E-01 0.19172747E+03</pdfrwt>
<pdfrwt beam="2">  1       -3 0.69936439E-01 0.19172747E+03</pdfrwt>
<totfact> 0.24738622E+02</totfact>
</mgrwt>
</event>
<event>
 4    1  0.7368504E-001  0.2272714E+03  0.7546771E-02  0.1128575E+00
         -2   -1    0    0    0  501 -0.00000000000E+00  0.00000000000E+00  0.23013031069E+02  0.23013031069E+02  0.00000000000E+00 0.  1.
          2   -1    0    0  502    0  0.00000000000E+00 -0.00000000000E+00 -0.23330689855E+04  0.23330689855E+04  0.00000000000E+00 0. -1.
          6    1    1    2  502    0  0.72150638311E+02  0.12852074352E+03 -0.13845823735E+04  0.14031110595E+04  0.17300000000E+03 0. -1.
         -6    1    1    2    0  501 -0.72150638311E+02 -0.12852074352E+03 -0.92547358089E+03  0.95297095708E+03  0.17300000000E+03 0.  1.
<mgrwt>
<rscale>  2 0.22727142E+03</rscale>
<asrwt>0</asrwt>
<pdfrwt beam="1">  1        2 0.35893376E+00 0.22727142E+03</pdfrwt>
<pdfrwt beam="2">  1       -2 0.35404656E-02 0.22727142E+03</pdfrwt>
<totfact> 0.16397265E+03</totfact>
</mgrwt>
</event>
<event>
 4    1  0.7368504E-001  0.2110375E+03  0.7546771E-02  0.1140747E+00
          2   -1    0    0  502    0  0.00000000000E+00  0.00000000000E+00  0.50943693789E+02  0.50943693789E+02  0.00000000000E+00 0.  1.
         -2   -1    0    0    0  501 -0.00000000000E+00 -0.00000000000E+00 -0.94393016270E+03  0.94393016270E+03  0.00000000000E+00 0. -1.
          6    1    1    2  502    0 -0.12056430450E+03 -0.84895788335E+01 -0.58165861603E+03  0.61875970301E+03  0.17300000000E+03 0. -1.
         -6    1    1    2    0  501  0.12056430450E+03  0.84895788335E+01 -0.31132785288E+03  0.37611415348E+03  0.17300000000E+03 0.  1.
<mgrwt>
<rscale>  2 0.21103750E+03</rscale>
<asrwt>0</asrwt>
<pdfrwt beam="1">  1        2 0.78374914E-02 0.21103750E+03</pdfrwt>
<pdfrwt beam="2">  1       -2 0.14522002E+00 0.21103750E+03</pdfrwt>
<totfact> 0.30019078E+02</totfact>
</mgrwt>
</event>
<event>
 4    1  0.7368504E-001  0.1740918E+03  0.7546771E-02  0.1173647E+00
         -1   -1    0    0    0  501 -0.00000000000E+00  0.00000000000E+00  0.14489089945E+03  0.14489089945E+03  0.00000000000E+00 0. -1.
          1   -1    0    0  502    0  0.00000000000E+00 -0.00000000000E+00 -0.23777519947E+03  0.23777519947E+03  0.00000000000E+00 0.  1.
          6    1    1    2  502    0 -0.16408100744E+02  0.10475274037E+02  0.19912309423E+02  0.17522687352E+03  0.17300000000E+03 0. -1.
         -6    1    1    2    0  501  0.16408100744E+02 -0.10475274037E+02 -0.11279660944E+03  0.20743922541E+03  0.17300000000E+03 0.  1.
<mgrwt>
<rscale>  2 0.17409181E+03</rscale>
<asrwt>0</asrwt>
<pdfrwt beam="1">  1        1 0.36580800E-01 0.17409181E+03</pdfrwt>
<pdfrwt beam="2">  1       -1 0.22290908E-01 0.17409181E+03</pdfrwt>
<totfact> 0.19555649E+03</totfact>
</mgrwt>
</event>
<event>
 4    1  0.7368504E-001  0.2818348E+03  0.7546771E-02  0.1094691E+00
          2   -1    0    0  502    0  0.00000000000E+00  0.00000000000E+00  0.17751410746E+03  0.17751410746E+03  0.00000000000E+00 0. -1.
         -2   -1    0    0    0  501 -0.00000000000E+00 -0.00000000000E+00 -0.45974705456E+03  0.45974705456E+03  0.00000000000E+00 0.  1.
          6    1    1    2  502    0  0.49601018649E+02 -0.21689072864E+03 -0.19320155760E+03  0.34169824565E+03  0.17300000000E+03 0.  1.
         -6    1    1    2    0  501 -0.49601018649E+02  0.21689072864E+03 -0.89031389507E+02  0.29556291638E+03  0.17300000000E+03 0. -1.
<mgrwt>
<rscale>  2 0.28183479E+03</rscale>
<asrwt>0</asrwt>
<pdfrwt beam="1">  1        2 0.27309863E-01 0.28183479E+03</pdfrwt>
<pdfrwt beam="2">  1       -2 0.70730316E-01 0.28183479E+03</pdfrwt>
<totfact> 0.36466971E+02</totfact>
</mgrwt>
</event>
<event>
 4    1  0.7368504E-001  0.1900174E+03  0.7546771E-02  0.1158446E+00
         -2   -1    0    0    0  501 -0.00000000000E+00  0.00000000000E+00  0.25396745315E+03  0.25396745315E+03  0.00000000000E+00 0. -1.
          2   -1    0    0  502    0  0.00000000000E+00 -0.00000000000E+00 -0.22116548841E+03  0.22116548841E+03  0.00000000000E+00 0.  1.
          6    1    1    2  502    0 -0.53411204088E+00 -0.78595889142E+02 -0.12557899750E+03  0.22776453561E+03  0.17300000000E+03 0.  1.
         -6    1    1    2    0  501  0.53411204088E+00  0.78595889142E+02  0.15838096224E+03  0.24736840595E+03  0.17300000000E+03 0. -1.
<mgrwt>
<rscale>  2 0.19001737E+03</rscale>
<asrwt>0</asrwt>
<pdfrwt beam="1">  1        2 0.34025460E-01 0.19001737E+03</pdfrwt>
<pdfrwt beam="2">  1       -2 0.39071916E-01 0.19001737E+03</pdfrwt>
<totfact> 0.94668385E+02</totfact>
</mgrwt>
</event>
<event>
 4    1  0.7368504E-001  0.1922702E+03  0.7546771E-02  0.1156430E+00
          1   -1    0    0  502    0  0.00000000000E+00  0.00000000000E+00  0.38724307769E+02  0.38724307769E+02  0.00000000000E+00 0.  1.
         -1   -1    0    0    0  501 -0.00000000000E+00 -0.00000000000E+00 -0.11835689283E+04  0.11835689283E+04  0.00000000000E+00 0. -1.
          6    1    1    2  502    0 -0.83875188403E+02  0.19446792378E+01 -0.84120271593E+03  0.86289619207E+03  0.17300000000E+03 0. -1.
         -6    1    1    2    0  501  0.83875188403E+02 -0.19446792378E+01 -0.30364190463E+03  0.35939704403E+03  0.17300000000E+03 0.  1.
<mgrwt>
<rscale>  2 0.19227020E+03</rscale>
<asrwt>0</asrwt>
<pdfrwt beam="1">  1        1 0.59575871E-02 0.19227020E+03</pdfrwt>
<pdfrwt beam="2">  1       -1 0.18208749E+00 0.19227020E+03</pdfrwt>
<totfact> 0.28948545E+02</totfact>
</mgrwt>
</event>
<event>
 4    1  0.7368504E-001  0.2313425E+03  0.7546771E-02  0.1125698E+00
          1   -1    0    0  502    0  0.00000000000E+00  0.00000000000E+00  0.12977148470E+03  0.12977148470E+03  0.00000000000E+00 0. -1.
         -1   -1    0    0    0  501 -0.00000000000E+00 -0.00000000000E+00 -0.43449760192E+03  0.43449760192E+03  0.00000000000E+00 0.  1.
          6    1    1    2  502    0  0.13825101879E+03  0.66910325950E+02 -0.21597165307E+03  0.31648553023E+03  0.17300000000E+03 0.  1.
         -6    1    1    2    0  501 -0.13825101879E+03 -0.66910325950E+02 -0.88754464151E+02  0.24778355640E+03  0.17300000000E+03 0. -1.
<mgrwt>
<rscale>  2 0.23134246E+03</rscale>
<asrwt>0</asrwt>
<pdfrwt beam="1">  1        1 0.19964844E-01 0.23134246E+03</pdfrwt>
<pdfrwt beam="2">  1       -1 0.66845785E-01 0.23134246E+03</pdfrwt>
<totfact> 0.60285855E+02</totfact>
</mgrwt>
</event>
<event>
 4    1  0.7368504E-001  0.2337749E+03  0.7546771E-02  0.1124011E+00
          2   -1    0    0  502    0  0.00000000000E+00  0.00000000000E+00  0.62979981198E+03  0.62979981198E+03  0.00000000000E+00 0. -1.
         -2   -1    0    0    0  501 -0.00000000000E+00 -0.00000000000E+00 -0.99591736046E+02  0.99591736046E+02  0.00000000000E+00 0.  1.
          6    1    1    2  502    0 -0.94066988738E+00  0.15722862411E+03  0.13427265529E+03  0.26959204562E+03  0.17300000000E+03 0.  1.
         -6    1    1    2    0  501  0.94066988738E+00 -0.15722862411E+03  0.39593542064E+03  0.45979950241E+03  0.17300000000E+03 0.  1.
<mgrwt>
<rscale>  2 0.23377495E+03</rscale>
<asrwt>0</asrwt>
<pdfrwt beam="1">  1        2 0.96892276E-01 0.23377495E+03</pdfrwt>
<pdfrwt beam="2">  1       -2 0.15321806E-01 0.23377495E+03</pdfrwt>
<totfact> 0.15713779E+03</totfact>
</mgrwt>
</event>
<event>
 4    1  0.7368504E-001  0.1775311E+03  0.7546771E-02  0.1170214E+00
         -1   -1    0    0    0  501 -0.00000000000E+00  0.00000000000E+00  0.19728153544E+02  0.19728153544E+02  0.00000000000E+00 0.  1.
          1   -1    0    0  502    0  0.00000000000E+00 -0.00000000000E+00 -0.26520308095E+04  0.26520308095E+04  0.00000000000E+00 0. -1.
          6    1    1    2  502    0 -0.37374062120E+02 -0.13836966931E+02 -0.47380365180E+03  0.50597152353E+03  0.17300000000E+03 0.  1.
         -6    1    1    2    0  501  0.37374062120E+02  0.13836966931E+02 -0.21584990041E+04  0.21657874395E+04  0.17300000000E+03 0. -1.
<mgrwt>
<rscale>  2 0.17753107E+03</rscale>
<asrwt>0</asrwt>
<pdfrwt beam="1">  1        1 0.40800448E+00 0.17753107E+03</pdfrwt>
<pdfrwt beam="2">  1       -1 0.30351025E-02 0.17753107E+03</pdfrwt>
<totfact> 0.47410675E+02</totfact>
</mgrwt>
</event>
<event>
 4    1  0.7368504E-001  0.2114946E+03  0.7546771E-02  0.1140388E+00
          2   -1    0    0  502    0  0.00000000000E+00  0.00000000000E+00  0.28702466016E+04  0.28702466016E+04  0.00000000000E+00 0.  1.
         -2   -1    0    0    0  501 -0.00000000000E+00 -0.00000000000E+00 -0.18673992532E+02  0.18673992532E+02  0.00000000000E+00 0. -1.
          6    1    1    2  502    0  0.50249489416E+02  0.11079685787E+03  0.20133635292E+04  0.20244413194E+04  0.17300000000E+03 0.  1.
         -6    1    1    2    0  501 -0.50249489416E+02 -0.11079685787E+03  0.83820907983E+03  0.86447927471E+03  0.17300000000E+03 0. -1.
<mgrwt>
<rscale>  2 0.21149457E+03</rscale>
<asrwt>0</asrwt>
<pdfrwt beam="1">  1        2 0.44157605E+00 0.21149457E+03</pdfrwt>
<pdfrwt beam="2">  1       -2 0.28729242E-02 0.21149457E+03</pdfrwt>
<totfact> 0.11335655E+03</totfact>
</mgrwt>
</event>
<event>
 4    1  0.7368504E-001  0.1740744E+03  0.7546771E-02  0.1173664E+00
         -2   -1    0    0    0  501 -0.00000000000E+00  0.00000000000E+00  0.14183375684E+02  0.14183375684E+02  0.00000000000E+00 0.  1.
          2   -1    0    0  502    0  0.00000000000E+00 -0.00000000000E+00 -0.40811866843E+04  0.40811866843E+04  0.00000000000E+00 0. -1.
          6    1    1    2  502    0 -0.19239193835E+02  0.16593124837E+01 -0.34470207850E+04  0.34514133616E+04  0.17300000000E+03 0. -1.
         -6    1    1    2    0  501  0.19239193835E+02 -0.16593124837E+01 -0.61998252358E+03  0.64395669842E+03  0.17300000000E+03 0.  1.
<mgrwt>
<rscale>  2 0.17407441E+03</rscale>
<asrwt>0</asrwt>
<pdfrwt beam="1">  1        2 0.62787621E+00 0.17407441E+03</pdfrwt>
<pdfrwt beam="2">  1       -2 0.21820532E-02 0.17407441E+03</pdfrwt>
<totfact> 0.27426896E+02</totfact>
</mgrwt>
</event>
<event>
 4    1  0.7368504E-001  0.1787080E+03  0.7546771E-02  0.1169059E+00
          1   -1    0    0  502    0  0.00000000000E+00  0.00000000000E+00  0.21440564789E+04  0.21440564789E+04  0.00000000000E+00 0. -1.
         -1   -1    0    0    0  501 -0.00000000000E+00 -0.00000000000E+00 -0.29128438355E+02  0.29128438355E+02  0.00000000000E+00 0.  1.
          6    1    1    2  502    0  0.11987891424E+02  0.43172208492E+02  0.29791272755E+03  0.34740256528E+03  0.17300000000E+03 0.  1.
         -6    1    1    2    0  501 -0.11987891424E+02 -0.43172208492E+02  0.18170153130E+04  0.18257823519E+04  0.17300000000E+03 0. -1.
<mgrwt>
<rscale>  2 0.17870800E+03</rscale>
<asrwt>0</asrwt>
<pdfrwt beam="1">  1        1 0.32985472E+00 0.17870800E+03</pdfrwt>
<pdfrwt beam="2">  1       -1 0.44812999E-02 0.17870800E+03</pdfrwt>
<totfact> 0.57288337E+02</totfact>
</mgrwt>
</event>
<event>
 4    1  0.7368504E-001  0.2142421E+03  0.7546771E-02  0.1138250E+00
         -1   -1    0    0    0  501 -0.00000000000E+00  0.00000000000E+00  0.31460019049E+03  0.31460019049E+03  0.00000000000E+00 0. -1.
          1   -1    0    0  502    0  0.00000000000E+00 -0.00000000000E+00 -0.20617502371E+03  0.20617502371E+03  0.00000000000E+00 0.  1.
          6    1    1    2  502    0  0.10335581645E+03  0.72720511354E+02  0.19500405994E+03  0.28970032958E+03  0.17300000000E+03 0. -1.
         -6    1    1    2    0  501 -0.10335581645E+03 -0.72720511354E+02 -0.86578893151E+02  0.23107488463E+03  0.17300000000E+03 0.  1.
<mgrwt>
<rscale>  2 0.21424215E+03</rscale>
<asrwt>0</asrwt>
<pdfrwt beam="1">  1        1 0.31719235E-01 0.21424215E+03</pdfrwt>
<pdfrwt beam="2">  1       -1 0.48400029E-01 0.21424215E+03</pdfrwt>
<totfact> 0.61759097E+02</totfact>
</mgrwt>
</event>
<event>
 4    1  0.7368504E-001  0.2628603E+03  0.7546771E-02  0.1105437E+00
          2   -1    0    0  502    0  0.00000000000E+00  0.00000000000E+00  0.12317394852E+03  0.12317394852E+03  0.00000000000E+00 0. -1.
         -2   -1    0    0    0  501 -0.00000000000E+00 -0.00000000000E+00 -0.56472202884E+03  0.56472202884E+03  0.00000000000E+00 0.  1.
          6    1    1    2  502    0  0.13397087966E+03  0.14566519148E+03 -0.24885032745E+03  0.36196965353E+03  0.17300000000E+03 0.  1.
         -6    1    1    2    0  501 -0.13397087966E+03 -0.14566519148E+03 -0.19269775286E+03  0.32592632383E+03  0.17300000000E+03 0.  1.
<mgrwt>
<rscale>  2 0.26286031E+03</rscale>
<asrwt>0</asrwt>
<pdfrwt beam="1">  1        2 0.18949838E-01 0.26286031E+03</pdfrwt>
<pdfrwt beam="2">  1       -2 0.86880312E-01 0.26286031E+03</pdfrwt>
<totfact> 0.35104448E+02</totfact>
</mgrwt>
</event>
<event>
 4    1  0.7368504E-001  0.1998406E+03  0.7546771E-02  0.1149874E+00
         -3   -1    0    0    0  501 -0.00000000000E+00  0.00000000000E+00  0.33287842793E+03  0.33287842793E+03  0.00000000000E+00 0.  1.
          3   -1    0    0  502    0  0.00000000000E+00 -0.00000000000E+00 -0.12890057155E+03  0.12890057155E+03  0.00000000000E+00 0. -1.
          6    1    1    2  502    0  0.88279803264E+02 -0.47052335725E+02  0.41223520925E+02  0.20404809394E+03  0.17300000000E+03 0. -1.
         -6    1    1    2    0  501 -0.88279803264E+02  0.47052335725E+02  0.16275433546E+03  0.25773090554E+03  0.17300000000E+03 0.  1.
<mgrwt>
<rscale>  2 0.19984055E+03</rscale>
<asrwt>0</asrwt>
<pdfrwt beam="1">  1        3 0.19830857E-01 0.19984055E+03</pdfrwt>
<pdfrwt beam="2">  1       -3 0.51212065E-01 0.19984055E+03</pdfrwt>
<totfact> 0.21177731E+02</totfact>
</mgrwt>
</event>
<event>
 4    1  0.7368504E-001  0.2294328E+03  0.7546771E-02  0.1127040E+00
         -2   -1    0    0    0  501 -0.00000000000E+00  0.00000000000E+00  0.35121952799E+03  0.35121952799E+03  0.00000000000E+00 0.  1.
          2   -1    0    0  502    0  0.00000000000E+00 -0.00000000000E+00 -0.17248487421E+03  0.17248487421E+03  0.00000000000E+00 0. -1.
          6    1    1    2  502    0  0.27890502349E+02 -0.14809642540E+03  0.18416959556E+03  0.29420719105E+03  0.17300000000E+03 0.  1.
         -6    1    1    2    0  501 -0.27890502349E+02  0.14809642540E+03 -0.54349417822E+01  0.22949721116E+03  0.17300000000E+03 0. -1.
<mgrwt>
<rscale>  2 0.22943285E+03</rscale>
<asrwt>0</asrwt>
<pdfrwt beam="1">  1        2 0.26536135E-01 0.22943285E+03</pdfrwt>
<pdfrwt beam="2">  1       -2 0.54033773E-01 0.22943285E+03</pdfrwt>
<totfact> 0.66039421E+02</totfact>
</mgrwt>
</event>
<event>
 4    1  0.7368504E-001  0.2526508E+03  0.7546771E-02  0.1111641E+00
          2   -1    0    0  502    0  0.00000000000E+00  0.00000000000E+00  0.24264291552E+03  0.24264291552E+03  0.00000000000E+00 0.  1.
         -2   -1    0    0    0  501 -0.00000000000E+00 -0.00000000000E+00 -0.27649305746E+03  0.27649305746E+03  0.00000000000E+00 0. -1.
          6    1    1    2  502    0  0.10354617608E+02 -0.18383742472E+03 -0.74113969444E+02  0.26329697549E+03  0.17300000000E+03 0.  1.
         -6    1    1    2    0  501 -0.10354617608E+02  0.18383742472E+03  0.40263827508E+02  0.25583899750E+03  0.17300000000E+03 0. -1.
<mgrwt>
<rscale>  2 0.25265078E+03</rscale>
<asrwt>0</asrwt>
<pdfrwt beam="1">  1        2 0.37329679E-01 0.25265078E+03</pdfrwt>
<pdfrwt beam="2">  1       -2 0.42537393E-01 0.25265078E+03</pdfrwt>
<totfact> 0.73014929E+02</totfact>
</mgrwt>
</event>
<event>
 4    1  0.7368504E-001  0.3261628E+03  0.7546771E-02  0.1072847E+00
         -1   -1    0    0    0  501 -0.00000000000E+00  0.00000000000E+00  0.21253678080E+03  0.21253678080E+03  0.00000000000E+00 0. -1.
          1   -1    0    0  502    0  0.00000000000E+00 -0.00000000000E+00 -0.66593466345E+03  0.66593466345E+03  0.00000000000E+00 0.  1.
          6    1    1    2  502    0  0.43039787475E+02  0.27313135302E+03 -0.44560045861E+03  0.55221547245E+03  0.17300000000E+03 0.  1.
         -6    1    1    2    0  501 -0.43039787475E+02 -0.27313135302E+03 -0.77974240434E+01  0.32625597179E+03  0.17300000000E+03 0. -1.
<mgrwt>
<rscale>  2 0.32616278E+03</rscale>
<asrwt>0</asrwt>
<pdfrwt beam="1">  1        1 0.10245149E+00 0.32616278E+03</pdfrwt>
<pdfrwt beam="2">  1       -1 0.32697967E-01 0.32616278E+03</pdfrwt>
<totfact> 0.26777422E+02</totfact>
</mgrwt>
</event>
<event>
 4    1  0.7368504E-001  0.1759787E+03  0.7546771E-02  0.1171753E+00
         -1   -1    0    0    0  501 -0.00000000000E+00  0.00000000000E+00  0.13488905794E+03  0.13488905794E+03  0.00000000000E+00 0. -1.
          1   -1    0    0  502    0  0.00000000000E+00 -0.00000000000E+00 -0.47829489710E+03  0.47829489710E+03  0.00000000000E+00 0.  1.
          6    1    1    2  502    0 -0.10051152431E+01  0.32225387804E+02  0.49382227337E+02  0.18277606586E+03  0.17300000000E+03 0. -1.
         -6    1    1    2    0  501  0.10051152431E+01 -0.32225387804E+02 -0.39278806650E+03  0.43040788917E+03  0.17300000000E+03 0.  1.
<mgrwt>
<rscale>  2 0.17597865E+03</rscale>
<asrwt>0</asrwt>
<pdfrwt beam="1">  1        1 0.73583831E-01 0.17597865E+03</pdfrwt>
<pdfrwt beam="2">  1       -1 0.20752163E-01 0.17597865E+03</pdfrwt>
<totfact> 0.91008987E+02</totfact>
</mgrwt>
</event>
<event>
 4    1  0.7368504E-001  0.3174278E+03  0.7546771E-02  0.1076839E+00
          2   -1    0    0  502    0  0.00000000000E+00  0.00000000000E+00  0.14770422240E+04  0.14770422240E+04  0.00000000000E+00 0. -1.
         -2   -1    0    0    0  501 -0.00000000000E+00 -0.00000000000E+00 -0.73549127379E+02  0.73549127379E+02  0.00000000000E+00 0.  1.
          6    1    1    2  502    0  0.23469817271E+03 -0.12549175687E+03  0.91048411881E+03  0.96423116727E+03  0.17300000000E+03 0. -1.
         -6    1    1    2    0  501 -0.23469817271E+03  0.12549175687E+03  0.49300897782E+03  0.58636018413E+03  0.17300000000E+03 0.  1.
<mgrwt>
<rscale>  2 0.31742781E+03</rscale>
<asrwt>0</asrwt>
<pdfrwt beam="1">  1        2 0.22723724E+00 0.31742781E+03</pdfrwt>
<pdfrwt beam="2">  1       -2 0.11315251E-01 0.31742781E+03</pdfrwt>
<totfact> 0.76211570E+02</totfact>
</mgrwt>
</event>
<event>
 4    1  0.7368504E-001  0.2390276E+03  0.7546771E-02  0.1120442E+00
         -1   -1    0    0    0  501 -0.00000000000E+00  0.00000000000E+00  0.92571855723E+03  0.92571855723E+03  0.00000000000E+00 0. -1.
          1   -1    0    0  502    0  0.00000000000E+00 -0.00000000000E+00 -0.85778018532E+02  0.85778018532E+02  0.00000000000E+00 0.  1.
          6    1    1    2  502    0 -0.12118933923E+03  0.11188547596E+03  0.68781764602E+03  0.72816710297E+03  0.17300000000E+03 0.  1.
         -6    1    1    2    0  501  0.12118933923E+03 -0.11188547596E+03  0.15212289268E+03  0.28332947279E+03  0.17300000000E+03 0. -1.
<mgrwt>
<rscale>  2 0.23902765E+03</rscale>
<asrwt>0</asrwt>
<pdfrwt beam="1">  1        1 0.13196619E-01 0.23902765E+03</pdfrwt>
<pdfrwt beam="2">  1       -1 0.14241823E+00 0.23902765E+03</pdfrwt>
<totfact> 0.19220191E+02</totfact>
</mgrwt>
</event>
<event>
 4    1  0.7368504E-001  0.2665514E+03  0.7546771E-02  0.1103270E+00
         -2   -1    0    0    0  501 -0.00000000000E+00  0.00000000000E+00  0.37414231055E+03  0.37414231055E+03  0.00000000000E+00 0.  1.
          2   -1    0    0  502    0  0.00000000000E+00 -0.00000000000E+00 -0.33518156848E+03  0.33518156848E+03  0.00000000000E+00 0. -1.
          6    1    1    2  502    0  0.10945103150E+03 -0.17070777333E+03  0.25297644942E+03  0.36748708294E+03  0.17300000000E+03 0.  1.
         -6    1    1    2    0  501 -0.10945103150E+03  0.17070777333E+03 -0.21401570734E+03  0.34183679609E+03  0.17300000000E+03 0. -1.
<mgrwt>
<rscale>  2 0.26655144E+03</rscale>
<asrwt>0</asrwt>
<pdfrwt beam="1">  1        2 0.51566395E-01 0.26655144E+03</pdfrwt>
<pdfrwt beam="2">  1       -2 0.57560355E-01 0.26655144E+03</pdfrwt>
<totfact> 0.28122799E+02</totfact>
</mgrwt>
</event>
<event>
 4    1  0.7368504E-001  0.2074129E+03  0.7546771E-02  0.1143631E+00
         -2   -1    0    0    0  501 -0.00000000000E+00  0.00000000000E+00  0.18898769283E+03  0.18898769283E+03  0.00000000000E+00 0.  1.
          2   -1    0    0  502    0  0.00000000000E+00 -0.00000000000E+00 -0.28256826314E+03  0.28256826314E+03  0.00000000000E+00 0. -1.
          6    1    1    2  502    0  0.23915010997E+02  0.11188919924E+03 -0.15074906838E+03  0.25640866264E+03  0.17300000000E+03 0. -1.
         -6    1    1    2    0  501 -0.23915010997E+02 -0.11188919924E+03  0.57168498066E+02  0.21514729333E+03  0.17300000000E+03 0.  1.
<mgrwt>
<rscale>  2 0.20741292E+03</rscale>
<asrwt>0</asrwt>
<pdfrwt beam="1">  1        2 0.43472040E-01 0.20741292E+03</pdfrwt>
<pdfrwt beam="2">  1       -2 0.29075030E-01 0.20741292E+03</pdfrwt>
<totfact> 0.12575153E+03</totfact>
</mgrwt>
</event>
<event>
 4    1  0.7368504E-001  0.1820668E+03  0.7546771E-02  0.1165818E+00
          1   -1    0    0  502    0  0.00000000000E+00  0.00000000000E+00  0.27728891502E+04  0.27728891502E+04  0.00000000000E+00 0.  1.
         -1   -1    0    0    0  501 -0.00000000000E+00 -0.00000000000E+00 -0.11963163032E+02  0.11963163032E+02  0.00000000000E+00 0. -1.
          6    1    1    2  502    0 -0.46571599617E+02  0.32409826397E+02  0.13428430378E+04  0.13551294163E+04  0.17300000000E+03 0.  1.
         -6    1    1    2    0  501  0.46571599617E+02 -0.32409826397E+02  0.14180829494E+04  0.14297228970E+04  0.17300000000E+03 0. -1.
<mgrwt>
<rscale>  2 0.18206678E+03</rscale>
<asrwt>0</asrwt>
<pdfrwt beam="1">  1        1 0.42659782E+00 0.18206678E+03</pdfrwt>
<pdfrwt beam="2">  1       -1 0.18404888E-02 0.18206678E+03</pdfrwt>
<totfact> 0.81507126E+02</totfact>
</mgrwt>
</event>
<event>
 4    1  0.7368504E-001  0.1824515E+03  0.7546771E-02  0.1165451E+00
          2   -1    0    0  502    0  0.00000000000E+00  0.00000000000E+00  0.13726483973E+04  0.13726483973E+04  0.00000000000E+00 0.  1.
         -2   -1    0    0    0  501 -0.00000000000E+00 -0.00000000000E+00 -0.24346256181E+02  0.24346256181E+02  0.00000000000E+00 0. -1.
          6    1    1    2  502    0 -0.47540773400E+02  0.33157402622E+02  0.71776845437E+03  0.74059441840E+03  0.17300000000E+03 0. -1.
         -6    1    1    2    0  501  0.47540773400E+02 -0.33157402622E+02  0.63053368680E+03  0.65640023512E+03  0.17300000000E+03 0.  1.
<mgrwt>
<rscale>  2 0.18245147E+03</rscale>
<asrwt>0</asrwt>
<pdfrwt beam="1">  1        2 0.21117662E+00 0.18245147E+03</pdfrwt>
<pdfrwt beam="2">  1       -2 0.37455790E-02 0.18245147E+03</pdfrwt>
<totfact> 0.48154548E+03</totfact>
</mgrwt>
</event>
<event>
 4    1  0.7368504E-001  0.2244187E+03  0.7546771E-02  0.1130631E+00
          2   -1    0    0  502    0  0.00000000000E+00  0.00000000000E+00  0.14019146477E+03  0.14019146477E+03  0.00000000000E+00 0. -1.
         -2   -1    0    0    0  501 -0.00000000000E+00 -0.00000000000E+00 -0.46093904848E+03  0.46093904848E+03  0.00000000000E+00 0.  1.
          6    1    1    2  502    0  0.14256058536E+03  0.10547656788E+02 -0.19199937005E+02  0.22523856496E+03  0.17300000000E+03 0. -1.
         -6    1    1    2    0  501 -0.14256058536E+03 -0.10547656788E+02 -0.30154764670E+03  0.37589194830E+03  0.17300000000E+03 0.  1.
<mgrwt>
<rscale>  2 0.22441875E+03</rscale>
<asrwt>0</asrwt>
<pdfrwt beam="1">  1        2 0.21567918E-01 0.22441875E+03</pdfrwt>
<pdfrwt beam="2">  1       -2 0.70913698E-01 0.22441875E+03</pdfrwt>
<totfact> 0.47262673E+02</totfact>
</mgrwt>
</event>
<event>
 4    1  0.7368504E-001  0.2205446E+03  0.7546771E-02  0.1133478E+00
         -2   -1    0    0    0  501 -0.00000000000E+00  0.00000000000E+00  0.54873277374E+02  0.54873277374E+02  0.00000000000E+00 0.  1.
          2   -1    0    0  502    0  0.00000000000E+00 -0.00000000000E+00 -0.30242019145E+04  0.30242019145E+04  0.00000000000E+00 0. -1.
          6    1    1    2  502    0 -0.12474070404E+03  0.56130705230E+02 -0.19026516882E+03  0.29127432736E+03  0.17300000000E+03 0.  1.
         -6    1    1    2    0  501  0.12474070404E+03 -0.56130705230E+02 -0.27790634683E+04  0.27878008645E+04  0.17300000000E+03 0. -1.
<mgrwt>
<rscale>  2 0.22054455E+03</rscale>
<asrwt>0</asrwt>
<pdfrwt beam="1">  1        2 0.46526190E+00 0.22054455E+03</pdfrwt>
<pdfrwt beam="2">  1       -2 0.84420415E-02 0.22054455E+03</pdfrwt>
<totfact> 0.17862780E+02</totfact>
</mgrwt>
</event>
<event>
 4    1  0.7368504E-001  0.2201896E+03  0.7546771E-02  0.1133742E+00
         -1   -1    0    0    0  501 -0.00000000000E+00  0.00000000000E+00  0.49358490726E+02  0.49358490726E+02  0.00000000000E+00 0. -1.
          1   -1    0    0  502    0  0.00000000000E+00 -0.00000000000E+00 -0.98457259423E+03  0.98457259423E+03  0.00000000000E+00 0.  1.
          6    1    1    2  502    0 -0.87923541373E+01  0.13593073103E+03 -0.49259593153E+03  0.53956855069E+03  0.17300000000E+03 0.  1.
         -6    1    1    2    0  501  0.87923541373E+01 -0.13593073103E+03 -0.44261817197E+03  0.49436253427E+03  0.17300000000E+03 0.  1.
<mgrwt>
<rscale>  2 0.22018962E+03</rscale>
<asrwt>0</asrwt>
<pdfrwt beam="1">  1        1 0.15147270E+00 0.22018962E+03</pdfrwt>
<pdfrwt beam="2">  1       -1 0.75936141E-02 0.22018962E+03</pdfrwt>
<totfact> 0.15318305E+03</totfact>
</mgrwt>
</event>
<event>
 4    1  0.7368504E-001  0.1762711E+03  0.7546771E-02  0.1171461E+00
          2   -1    0    0  502    0  0.00000000000E+00  0.00000000000E+00  0.82360740320E+02  0.82360740320E+02  0.00000000000E+00 0.  1.
         -2   -1    0    0    0  501 -0.00000000000E+00 -0.00000000000E+00 -0.39753312476E+03  0.39753312476E+03  0.00000000000E+00 0. -1.
          6    1    1    2  502    0 -0.20014798692E+02  0.27238200826E+02 -0.10340157238E+03  0.20436094764E+03  0.17300000000E+03 0.  1.
         -6    1    1    2    0  501  0.20014798692E+02 -0.27238200826E+02 -0.21177081206E+03  0.27553291743E+03  0.17300000000E+03 0. -1.
<mgrwt>
<rscale>  2 0.17627113E+03</rscale>
<asrwt>0</asrwt>
<pdfrwt beam="1">  1        2 0.12670883E-01 0.17627113E+03</pdfrwt>
<pdfrwt beam="2">  1       -2 0.61158942E-01 0.17627113E+03</pdfrwt>
<totfact> 0.11968783E+03</totfact>
</mgrwt>
</event>
<event>
 4    1  0.7368504E-001  0.1734222E+03  0.7546771E-02  0.1174325E+00
          1   -1    0    0  502    0  0.00000000000E+00  0.00000000000E+00  0.20638335508E+04  0.20638335508E+04  0.00000000000E+00 0.  1.
         -1   -1    0    0    0  501 -0.00000000000E+00 -0.00000000000E+00 -0.19068366976E+02  0.19068366976E+02  0.00000000000E+00 0. -1.
          6    1    1    2  502    0  0.96359968620E+00 -0.12055804677E+02  0.51668896913E+03  0.54501629496E+03  0.17300000000E+03 0. -1.
         -6    1    1    2    0  501 -0.96359968620E+00  0.12055804677E+02  0.15280762146E+04  0.15378856228E+04  0.17300000000E+03 0.  1.
<mgrwt>
<rscale>  2 0.17342223E+03</rscale>
<asrwt>0</asrwt>
<pdfrwt beam="1">  1        1 0.31751268E+00 0.17342223E+03</pdfrwt>
<pdfrwt beam="2">  1       -1 0.29335965E-02 0.17342223E+03</pdfrwt>
<totfact> 0.12054598E+03</totfact>
</mgrwt>
</event>
<event>
 4    1  0.7368504E-001  0.4260941E+03  0.7546771E-02  0.1035101E+00
         -2   -1    0    0    0  501 -0.00000000000E+00  0.00000000000E+00  0.32714355785E+03  0.32714355785E+03  0.00000000000E+00 0. -1.
          2   -1    0    0  502    0  0.00000000000E+00 -0.00000000000E+00 -0.70519345445E+03  0.70519345445E+03  0.00000000000E+00 0.  1.
          6    1    1    2  502    0 -0.35324630185E+03 -0.16384198429E+03  0.49207305568E+02  0.42892598954E+03  0.17300000000E+03 0. -1.
         -6    1    1    2    0  501  0.35324630185E+03  0.16384198429E+03 -0.42725720217E+03  0.60341102276E+03  0.17300000000E+03 0.  1.
<mgrwt>
<rscale>  2 0.42609406E+03</rscale>
<asrwt>0</asrwt>
<pdfrwt beam="1">  1        2 0.10849130E+00 0.42609406E+03</pdfrwt>
<pdfrwt beam="2">  1       -2 0.50329779E-01 0.42609406E+03</pdfrwt>
<totfact> 0.15659986E+02</totfact>
</mgrwt>
</event>
<event>
 4    1  0.7368504E-001  0.3000847E+03  0.7546771E-02  0.1085198E+00
          2   -1    0    0  502    0  0.00000000000E+00  0.00000000000E+00  0.22378719868E+04  0.22378719868E+04  0.00000000000E+00 0. -1.
         -2   -1    0    0    0  501 -0.00000000000E+00 -0.00000000000E+00 -0.40410751412E+02  0.40410751412E+02  0.00000000000E+00 0.  1.
          6    1    1    2  502    0 -0.15902094872E+02 -0.24468135809E+03  0.11728872078E+04  0.12106672729E+04  0.17300000000E+03 0. -1.
         -6    1    1    2    0  501  0.15902094872E+02  0.24468135809E+03  0.10245740276E+04  0.10676154653E+04  0.17300000000E+03 0.  1.
<mgrwt>
<rscale>  2 0.30008473E+03</rscale>
<asrwt>0</asrwt>
<pdfrwt beam="1">  1        2 0.34428790E+00 0.30008473E+03</pdfrwt>
<pdfrwt beam="2">  1       -2 0.62170404E-02 0.30008473E+03</pdfrwt>
<totfact> 0.77552745E+02</totfact>
</mgrwt>
</event>
<event>
 4    1  0.7368504E-001  0.2517996E+03  0.7546771E-02  0.1112173E+00
         -2   -1    0    0    0  501 -0.00000000000E+00  0.00000000000E+00  0.11579255814E+03  0.11579255814E+03  0.00000000000E+00 0. -1.
          2   -1    0    0  502    0  0.00000000000E+00 -0.00000000000E+00 -0.60223407125E+03  0.60223407125E+03  0.00000000000E+00 0.  1.
          6    1    1    2  502    0  0.13224365999E+03  0.12643442077E+03 -0.35139646322E+03  0.43229911257E+03  0.17300000000E+03 0. -1.
         -6    1    1    2    0  501 -0.13224365999E+03 -0.12643442077E+03 -0.13504504989E+03  0.28572751681E+03  0.17300000000E+03 0.  1.
<mgrwt>
<rscale>  2 0.25179962E+03</rscale>
<asrwt>0</asrwt>
<pdfrwt beam="1">  1        2 0.92651398E-01 0.25179962E+03</pdfrwt>
<pdfrwt beam="2">  1       -2 0.17814239E-01 0.25179962E+03</pdfrwt>
<totfact> 0.12876640E+03</totfact>
</mgrwt>
</event>
<event>
 4    1  0.7368504E-001  0.1925112E+03  0.7546771E-02  0.1156216E+00
          1   -1    0    0  502    0  0.00000000000E+00  0.00000000000E+00  0.13340442880E+03  0.13340442880E+03  0.00000000000E+00 0.  1.
         -1   -1    0    0    0  501 -0.00000000000E+00 -0.00000000000E+00 -0.28523428352E+03  0.28523428352E+03  0.00000000000E+00 0. -1.
          6    1    1    2  502    0 -0.82014136570E+02 -0.20130457951E+02 -0.10969433782E+03  0.22157030867E+03  0.17300000000E+03 0. -1.
         -6    1    1    2    0  501  0.82014136570E+02  0.20130457951E+02 -0.42135516898E+02  0.19706840365E+03  0.17300000000E+03 0.  1.
<mgrwt>
<rscale>  2 0.19251118E+03</rscale>
<asrwt>0</asrwt>
<pdfrwt beam="1">  1        1 0.20523758E-01 0.19251118E+03</pdfrwt>
<pdfrwt beam="2">  1       -1 0.43882197E-01 0.19251118E+03</pdfrwt>
<totfact> 0.12802081E+03</totfact>
</mgrwt>
</event>
<event>
 4    1  0.7368504E-001  0.2182932E+03  0.7546771E-02  0.1135162E+00
          2   -1    0    0  502    0  0.00000000000E+00  0.00000000000E+00  0.21219284398E+03  0.21219284398E+03  0.00000000000E+00 0.  1.
         -2   -1    0    0    0  501 -0.00000000000E+00 -0.00000000000E+00 -0.23406683288E+03  0.23406683288E+03  0.00000000000E+00 0. -1.
          6    1    1    2  502    0 -0.12685908228E+03  0.40369538798E+02 -0.55884011471E+02  0.22533297397E+03  0.17300000000E+03 0. -1.
         -6    1    1    2    0  501  0.12685908228E+03 -0.40369538798E+02  0.34010022569E+02  0.22092670290E+03  0.17300000000E+03 0.  1.
<mgrwt>
<rscale>  2 0.21829321E+03</rscale>
<asrwt>0</asrwt>
<pdfrwt beam="1">  1        2 0.32645053E-01 0.21829321E+03</pdfrwt>
<pdfrwt beam="2">  1       -2 0.36010282E-01 0.21829321E+03</pdfrwt>
<totfact> 0.11580161E+03</totfact>
</mgrwt>
</event>
<event>
 4    1  0.7368504E-001  0.1888544E+03  0.7546771E-02  0.1159499E+00
         -1   -1    0    0    0  501 -0.00000000000E+00  0.00000000000E+00  0.45173379211E+02  0.45173379211E+02  0.00000000000E+00 0. -1.
          1   -1    0    0  502    0  0.00000000000E+00 -0.00000000000E+00 -0.79183949107E+03  0.79183949107E+03  0.00000000000E+00 0.  1.
          6    1    1    2  502    0  0.53043592099E+02 -0.54068157374E+02 -0.35075844471E+03  0.39836851637E+03  0.17300000000E+03 0.  1.
         -6    1    1    2    0  501 -0.53043592099E+02  0.54068157374E+02 -0.39590766715E+03  0.43864435390E+03  0.17300000000E+03 0. -1.
<mgrwt>
<rscale>  2 0.18885441E+03</rscale>
<asrwt>0</asrwt>
<pdfrwt beam="1">  1        1 0.12182145E+00 0.18885441E+03</pdfrwt>
<pdfrwt beam="2">  1       -1 0.69497512E-02 0.18885441E+03</pdfrwt>
<totfact> 0.24806999E+03</totfact>
</mgrwt>
</event>
<event>
 4    1  0.7368504E-001  0.2192168E+03  0.7546771E-02  0.1134468E+00
         -2   -1    0    0    0  501 -0.00000000000E+00  0.00000000000E+00  0.67253156189E+02  0.67253156189E+02  0.00000000000E+00 0. -1.
          2   -1    0    0  502    0  0.00000000000E+00 -0.00000000000E+00 -0.77480088861E+03  0.77480088861E+03  0.00000000000E+00 0.  1.
          6    1    1    2  502    0  0.35950313011E+02  0.12974816607E+03 -0.47117768839E+03  0.51967723217E+03  0.17300000000E+03 0.  1.
         -6    1    1    2    0  501 -0.35950313011E+02 -0.12974816607E+03 -0.23637004403E+03  0.32237681263E+03  0.17300000000E+03 0. -1.
<mgrwt>
<rscale>  2 0.21921681E+03</rscale>
<asrwt>0</asrwt>
<pdfrwt beam="1">  1        2 0.11920012E+00 0.21921681E+03</pdfrwt>
<pdfrwt beam="2">  1       -2 0.10346640E-01 0.21921681E+03</pdfrwt>
<totfact> 0.23104603E+03</totfact>
</mgrwt>
</event>
<event>
 4    1  0.7368504E-001  0.1820602E+03  0.7546771E-02  0.1165824E+00
         -1   -1    0    0    0  501 -0.00000000000E+00  0.00000000000E+00  0.48178723899E+02  0.48178723899E+02  0.00000000000E+00 0. -1.
          1   -1    0    0  502    0  0.00000000000E+00 -0.00000000000E+00 -0.82659032353E+03  0.82659032353E+03  0.00000000000E+00 0.  1.
          6    1    1    2  502    0 -0.11559933680E+02 -0.55527373222E+02 -0.56831527164E+03  0.59676475200E+03  0.17300000000E+03 0.  1.
         -6    1    1    2    0  501  0.11559933680E+02  0.55527373222E+02 -0.21009632799E+03  0.27800429543E+03  0.17300000000E+03 0. -1.
<mgrwt>
<rscale>  2 0.18206021E+03</rscale>
<asrwt>0</asrwt>
<pdfrwt beam="1">  1        1 0.12716773E+00 0.18206021E+03</pdfrwt>
<pdfrwt beam="2">  1       -1 0.74121121E-02 0.18206021E+03</pdfrwt>
<totfact> 0.21055689E+03</totfact>
</mgrwt>
</event>
<event>
 4    1  0.7368504E-001  0.1904889E+03  0.7546771E-02  0.1158021E+00
          2   -1    0    0  502    0  0.00000000000E+00  0.00000000000E+00  0.33010234228E+04  0.33010234228E+04  0.00000000000E+00 0.  1.
         -2   -1    0    0    0  501 -0.00000000000E+00 -0.00000000000E+00 -0.11296839382E+02  0.11296839382E+02  0.00000000000E+00 0. -1.
          6    1    1    2  502    0 -0.18987316155E+02 -0.77437137016E+02  0.19167605564E+04  0.19262027565E+04  0.17300000000E+03 0.  1.
         -6    1    1    2    0  501  0.18987316155E+02  0.77437137016E+02  0.13729660270E+04  0.13861175057E+04  0.17300000000E+03 0. -1.
<mgrwt>
<rscale>  2 0.19048892E+03</rscale>
<asrwt>0</asrwt>
<pdfrwt beam="1">  1        2 0.50784899E+00 0.19048892E+03</pdfrwt>
<pdfrwt beam="2">  1       -2 0.17379779E-02 0.19048892E+03</pdfrwt>
<totfact> 0.13184846E+03</totfact>
</mgrwt>
</event>
<event>
 4    1  0.7368504E-001  0.1878976E+03  0.7546771E-02  0.1160371E+00
          2   -1    0    0  502    0  0.00000000000E+00  0.00000000000E+00  0.17986436397E+04  0.17986436397E+04  0.00000000000E+00 0. -1.
         -2   -1    0    0    0  501 -0.00000000000E+00 -0.00000000000E+00 -0.33210068138E+02  0.33210068138E+02  0.00000000000E+00 0.  1.
          6    1    1    2  502    0  0.37051959989E+02 -0.63274583219E+02  0.29699231953E+03  0.35143983622E+03  0.17300000000E+03 0.  1.
         -6    1    1    2    0  501 -0.37051959989E+02  0.63274583219E+02  0.14684412520E+04  0.14804138716E+04  0.17300000000E+03 0. -1.
<mgrwt>
<rscale>  2 0.18789763E+03</rscale>
<asrwt>0</asrwt>
<pdfrwt beam="1">  1        2 0.27671433E+00 0.18789763E+03</pdfrwt>
<pdfrwt beam="2">  1       -2 0.51092426E-02 0.18789763E+03</pdfrwt>
<totfact> 0.18046350E+03</totfact>
</mgrwt>
</event>
<event>
 4    1  0.7368504E-001  0.2051784E+03  0.7546771E-02  0.1145442E+00
          2   -1    0    0  502    0  0.00000000000E+00  0.00000000000E+00  0.11704188993E+03  0.11704188993E+03  0.00000000000E+00 0. -1.
         -2   -1    0    0    0  501 -0.00000000000E+00 -0.00000000000E+00 -0.40592745645E+03  0.40592745645E+03  0.00000000000E+00 0.  1.
          6    1    1    2  502    0  0.10232129767E+02 -0.10983846308E+03 -0.23269865009E+03  0.31023675830E+03  0.17300000000E+03 0.  1.
         -6    1    1    2    0  501 -0.10232129767E+02  0.10983846308E+03 -0.56186916431E+02  0.21273258807E+03  0.17300000000E+03 0. -1.
<mgrwt>
<rscale>  2 0.20517842E+03</rscale>
<asrwt>0</asrwt>
<pdfrwt beam="1">  1        2 0.18006445E-01 0.20517842E+03</pdfrwt>
<pdfrwt beam="2">  1       -2 0.62450378E-01 0.20517842E+03</pdfrwt>
<totfact> 0.75989804E+02</totfact>
</mgrwt>
</event>
<event>
 4    1  0.7368504E-001  0.2556034E+03  0.7546771E-02  0.1109814E+00
          1   -1    0    0  502    0  0.00000000000E+00  0.00000000000E+00  0.20215684205E+03  0.20215684205E+03  0.00000000000E+00 0.  1.
         -1   -1    0    0    0  501 -0.00000000000E+00 -0.00000000000E+00 -0.34123637486E+03  0.34123637486E+03  0.00000000000E+00 0. -1.
          6    1    1    2  502    0  0.83909059164E+02  0.16841428194E+03 -0.13203814116E+03  0.28769284192E+03  0.17300000000E+03 0. -1.
         -6    1    1    2    0  501 -0.83909059164E+02 -0.16841428194E+03 -0.70413916482E+01  0.25570037498E+03  0.17300000000E+03 0.  1.
<mgrwt>
<rscale>  2 0.25560340E+03</rscale>
<asrwt>0</asrwt>
<pdfrwt beam="1">  1        1 0.31101053E-01 0.25560340E+03</pdfrwt>
<pdfrwt beam="2">  1       -1 0.52497904E-01 0.25560340E+03</pdfrwt>
<totfact> 0.54453868E+02</totfact>
</mgrwt>
</event>
<event>
 4    1  0.7368504E-001  0.1830383E+03  0.7546771E-02  0.1164895E+00
          1   -1    0    0  502    0  0.00000000000E+00  0.00000000000E+00  0.29262668833E+04  0.29262668833E+04  0.00000000000E+00 0.  1.
         -1   -1    0    0    0  501 -0.00000000000E+00 -0.00000000000E+00 -0.67884710499E+02  0.67884710499E+02  0.00000000000E+00 0. -1.
          6    1    1    2  502    0 -0.18438515626E+02 -0.56868619938E+02  0.64185107193E+02  0.19396583920E+03  0.17300000000E+03 0. -1.
         -6    1    1    2    0  501  0.18438515626E+02  0.56868619938E+02  0.27941970656E+04  0.28001857546E+04  0.17300000000E+03 0.  1.
<mgrwt>
<rscale>  2 0.18303830E+03</rscale>
<asrwt>0</asrwt>
<pdfrwt beam="1">  1        1 0.45019481E+00 0.18303830E+03</pdfrwt>
<pdfrwt beam="2">  1       -1 0.10443804E-01 0.18303830E+03</pdfrwt>
<totfact> 0.48421356E+01</totfact>
</mgrwt>
</event>
<event>
 4    1  0.7368504E-001  0.1757445E+03  0.7546771E-02  0.1171986E+00
          1   -1    0    0  502    0  0.00000000000E+00  0.00000000000E+00  0.10754976803E+04  0.10754976803E+04  0.00000000000E+00 0.  1.
         -1   -1    0    0    0  501 -0.00000000000E+00 -0.00000000000E+00 -0.73928136342E+02  0.73928136342E+02  0.00000000000E+00 0. -1.
          6    1    1    2  502    0 -0.14372336144E+02  0.27396701950E+02  0.51352787084E+02  0.18309356096E+03  0.17300000000E+03 0. -1.
         -6    1    1    2    0  501  0.14372336144E+02 -0.27396701950E+02  0.95021675683E+03  0.96633225563E+03  0.17300000000E+03 0.  1.
<mgrwt>
<rscale>  2 0.17574454E+03</rscale>
<asrwt>0</asrwt>
<pdfrwt beam="1">  1        1 0.16546117E+00 0.17574454E+03</pdfrwt>
<pdfrwt beam="2">  1       -1 0.11373560E-01 0.17574454E+03</pdfrwt>
<totfact> 0.70775012E+02</totfact>
</mgrwt>
</event>
<event>
 4    1  0.7368504E-001  0.2026197E+03  0.7546771E-02  0.1147547E+00
          2   -1    0    0  502    0  0.00000000000E+00  0.00000000000E+00  0.16752603123E+04  0.16752603123E+04  0.00000000000E+00 0. -1.
         -2   -1    0    0    0  501 -0.00000000000E+00 -0.00000000000E+00 -0.24626153489E+02  0.24626153489E+02  0.00000000000E+00 0.  1.
          6    1    1    2  502    0 -0.10519658552E+03 -0.77090787384E+01  0.88456470239E+03  0.90747422234E+03  0.17300000000E+03 0. -1.
         -6    1    1    2    0  501  0.10519658552E+03  0.77090787384E+01  0.76606945638E+03  0.79241224340E+03  0.17300000000E+03 0.  1.
<mgrwt>
<rscale>  2 0.20261972E+03</rscale>
<asrwt>0</asrwt>
<pdfrwt beam="1">  1        2 0.25773227E+00 0.20261972E+03</pdfrwt>
<pdfrwt beam="2">  1       -2 0.37886403E-02 0.20261972E+03</pdfrwt>
<totfact> 0.32806287E+03</totfact>
</mgrwt>
</event>
<event>
 4    1  0.7368504E-001  0.2688156E+03  0.7546771E-02  0.1101959E+00
         -2   -1    0    0    0  501 -0.00000000000E+00  0.00000000000E+00  0.73958570636E+02  0.73958570636E+02  0.00000000000E+00 0.  1.
          2   -1    0    0  502    0  0.00000000000E+00 -0.00000000000E+00 -0.10303748349E+04  0.10303748349E+04  0.00000000000E+00 0. -1.
          6    1    1    2  502    0 -0.55893905498E+02  0.19801183101E+03 -0.35260376803E+03  0.44338609712E+03  0.17300000000E+03 0.  1.
         -6    1    1    2    0  501  0.55893905498E+02 -0.19801183101E+03 -0.60381249621E+03  0.66094730839E+03  0.17300000000E+03 0. -1.
<mgrwt>
<rscale>  2 0.26881558E+03</rscale>
<asrwt>0</asrwt>
<pdfrwt beam="1">  1        2 0.15851921E+00 0.26881558E+03</pdfrwt>
<pdfrwt beam="2">  1       -2 0.11378241E-01 0.26881558E+03</pdfrwt>
<totfact> 0.13565906E+03</totfact>
</mgrwt>
</event>
<event>
 4    1  0.7368504E-001  0.1787038E+03  0.7546771E-02  0.1169063E+00
         -2   -1    0    0    0  501 -0.00000000000E+00  0.00000000000E+00  0.12551408451E+03  0.12551408451E+03  0.00000000000E+00 0.  1.
          2   -1    0    0  502    0  0.00000000000E+00 -0.00000000000E+00 -0.25444443773E+03  0.25444443773E+03  0.00000000000E+00 0. -1.
          6    1    1    2  502    0 -0.43644537476E+02  0.10059677057E+02 -0.65685587008E+02  0.19039337986E+03  0.17300000000E+03 0. -1.
         -6    1    1    2    0  501  0.43644537476E+02 -0.10059677057E+02 -0.63244766207E+02  0.18956514238E+03  0.17300000000E+03 0.  1.
<mgrwt>
<rscale>  2 0.17870378E+03</rscale>
<asrwt>0</asrwt>
<pdfrwt beam="1">  1        2 0.39145298E-01 0.17870378E+03</pdfrwt>
<pdfrwt beam="2">  1       -2 0.19309859E-01 0.17870378E+03</pdfrwt>
<totfact> 0.28637095E+03</totfact>
</mgrwt>
</event>
<event>
 4    1  0.7368504E-001  0.1783745E+03  0.7546771E-02  0.1169386E+00
         -1   -1    0    0    0  501 -0.00000000000E+00  0.00000000000E+00  0.64659199561E+02  0.64659199561E+02  0.00000000000E+00 0.  1.
          1   -1    0    0  502    0  0.00000000000E+00 -0.00000000000E+00 -0.58532752082E+03  0.58532752082E+03  0.00000000000E+00 0. -1.
          6    1    1    2  502    0  0.22817605515E+02 -0.36984147958E+02 -0.13061781863E+03  0.22108479112E+03  0.17300000000E+03 0.  1.
         -6    1    1    2    0  501 -0.22817605515E+02  0.36984147958E+02 -0.39005050263E+03  0.42890192926E+03  0.17300000000E+03 0. -1.
<mgrwt>
<rscale>  2 0.17837452E+03</rscale>
<asrwt>0</asrwt>
<pdfrwt beam="1">  1        1 0.90050387E-01 0.17837452E+03</pdfrwt>
<pdfrwt beam="2">  1       -1 0.99475692E-02 0.17837452E+03</pdfrwt>
<totfact> 0.22135400E+03</totfact>
</mgrwt>
</event>
<event>
 4    1  0.7368504E-001  0.1959120E+03  0.7546771E-02  0.1153235E+00
          1   -1    0    0  502    0  0.00000000000E+00  0.00000000000E+00  0.23873737786E+03  0.23873737786E+03  0.00000000000E+00 0. -1.
         -1   -1    0    0    0  501 -0.00000000000E+00 -0.00000000000E+00 -0.19641728975E+03  0.19641728975E+03  0.00000000000E+00 0.  1.
          6    1    1    2  502    0 -0.36570862246E+00  0.91936911101E+02 -0.71532364494E+02  0.20856272087E+03  0.17300000000E+03 0.  1.
         -6    1    1    2    0  501  0.36570862246E+00 -0.91936911101E+02  0.11385245261E+03  0.22659194675E+03  0.17300000000E+03 0. -1.
<mgrwt>
<rscale>  2 0.19591204E+03</rscale>
<asrwt>0</asrwt>
<pdfrwt beam="1">  1        1 0.36728827E-01 0.19591204E+03</pdfrwt>
<pdfrwt beam="2">  1       -1 0.30218045E-01 0.19591204E+03</pdfrwt>
<totfact> 0.11763721E+03</totfact>
</mgrwt>
</event>
<event>
 4    1  0.7368504E-001  0.1785191E+03  0.7546771E-02  0.1169244E+00
          2   -1    0    0  502    0  0.00000000000E+00  0.00000000000E+00  0.14611154346E+04  0.14611154346E+04  0.00000000000E+00 0.  1.
         -2   -1    0    0    0  501 -0.00000000000E+00 -0.00000000000E+00 -0.23970700158E+02  0.23970700158E+02  0.00000000000E+00 0. -1.
          6    1    1    2  502    0  0.10892015567E+02 -0.42678158129E+02  0.49571256551E+03  0.52687760324E+03  0.17300000000E+03 0. -1.
         -6    1    1    2    0  501 -0.10892015567E+02  0.42678158129E+02  0.94143216891E+03  0.95820853150E+03  0.17300000000E+03 0.  1.
<mgrwt>
<rscale>  2 0.17851908E+03</rscale>
<asrwt>0</asrwt>
<pdfrwt beam="1">  1        2 0.22478692E+00 0.17851908E+03</pdfrwt>
<pdfrwt beam="2">  1       -2 0.36878012E-02 0.17851908E+03</pdfrwt>
<totfact> 0.44187463E+03</totfact>
</mgrwt>
</event>
<event>
 4    1  0.7368504E-001  0.1771290E+03  0.7546771E-02  0.1170611E+00
         -3   -1    0    0    0  501 -0.00000000000E+00  0.00000000000E+00  0.23672712425E+03  0.23672712425E+03  0.00000000000E+00 0.  1.
          3   -1    0    0  502    0  0.00000000000E+00 -0.00000000000E+00 -0.16034585287E+03  0.16034585287E+03  0.00000000000E+00 0. -1.
          6    1    1    2  502    0 -0.38011807950E+02 -0.87875052385E+00  0.12087383902E+03  0.21444149483E+03  0.17300000000E+03 0.  1.
         -6    1    1    2    0  501  0.38011807950E+02  0.87875052385E+00 -0.44492567648E+02  0.18263148229E+03  0.17300000000E+03 0. -1.
<mgrwt>
<rscale>  2 0.17712896E+03</rscale>
<asrwt>0</asrwt>
<pdfrwt beam="1">  1        3 0.24668593E-01 0.17712896E+03</pdfrwt>
<pdfrwt beam="2">  1       -3 0.36419558E-01 0.17712896E+03</pdfrwt>
<totfact> 0.27590721E+02</totfact>
</mgrwt>
</event>
<event>
 4    1  0.7368504E-001  0.2785640E+03  0.7546771E-02  0.1096476E+00
         -1   -1    0    0    0  501 -0.00000000000E+00  0.00000000000E+00  0.42182232497E+03  0.42182232497E+03  0.00000000000E+00 0. -1.
          1   -1    0    0  502    0  0.00000000000E+00 -0.00000000000E+00 -0.37114252542E+03  0.37114252542E+03  0.00000000000E+00 0.  1.
          6    1    1    2  502    0  0.21531906414E+03 -0.36147249153E+02 -0.25623091717E+03  0.37848673150E+03  0.17300000000E+03 0.  1.
         -6    1    1    2    0  501 -0.21531906414E+03  0.36147249153E+02  0.30691071672E+03  0.41447811889E+03  0.17300000000E+03 0. -1.
<mgrwt>
<rscale>  2 0.27856404E+03</rscale>
<asrwt>0</asrwt>
<pdfrwt beam="1">  1        1 0.57098850E-01 0.27856404E+03</pdfrwt>
<pdfrwt beam="2">  1       -1 0.64895743E-01 0.27856404E+03</pdfrwt>
<totfact> 0.16784339E+02</totfact>
</mgrwt>
</event>
<event>
 4    1  0.7368504E-001  0.2030358E+03  0.7546771E-02  0.1147203E+00
          1   -1    0    0  502    0  0.00000000000E+00  0.00000000000E+00  0.49278382534E+03  0.49278382534E+03  0.00000000000E+00 0. -1.
         -1   -1    0    0    0  501 -0.00000000000E+00 -0.00000000000E+00 -0.85613121388E+02  0.85613121388E+02  0.00000000000E+00 0.  1.
          6    1    1    2  502    0 -0.10623567126E+03 -0.29202868532E+01  0.24732847230E+03  0.31999206105E+03  0.17300000000E+03 0.  1.
         -6    1    1    2    0  501  0.10623567126E+03  0.29202868532E+01  0.15984223165E+03  0.25840488568E+03  0.17300000000E+03 0.  1.
<mgrwt>
<rscale>  2 0.20303582E+03</rscale>
<asrwt>0</asrwt>
<pdfrwt beam="1">  1        1 0.75812895E-01 0.20303582E+03</pdfrwt>
<pdfrwt beam="2">  1       -1 0.13171250E-01 0.20303582E+03</pdfrwt>
<totfact> 0.18087644E+03</totfact>
</mgrwt>
</event>
<event>
 4    1  0.7368504E-001  0.2707323E+03  0.7546771E-02  0.1100861E+00
         -2   -1    0    0    0  501 -0.00000000000E+00  0.00000000000E+00  0.16246187103E+03  0.16246187103E+03  0.00000000000E+00 0.  1.
          2   -1    0    0  502    0  0.00000000000E+00 -0.00000000000E+00 -0.45859084952E+03  0.45859084952E+03  0.00000000000E+00 0. -1.
          6    1    1    2  502    0  0.16059267311E+03 -0.13257818724E+03 -0.10853131124E+03  0.29167623816E+03  0.17300000000E+03 0. -1.
         -6    1    1    2    0  501 -0.16059267311E+03  0.13257818724E+03 -0.18759766725E+03  0.32937648239E+03  0.17300000000E+03 0. -1.
<mgrwt>
<rscale>  2 0.27073231E+03</rscale>
<asrwt>0</asrwt>
<pdfrwt beam="1">  1        2 0.70552438E-01 0.27073231E+03</pdfrwt>
<pdfrwt beam="2">  1       -2 0.24994134E-01 0.27073231E+03</pdfrwt>
<totfact> 0.97738215E+02</totfact>
</mgrwt>
</event>
<event>
 4    1  0.7368504E-001  0.1882717E+03  0.7546771E-02  0.1160029E+00
          2   -1    0    0  502    0  0.00000000000E+00  0.00000000000E+00  0.48593417721E+03  0.48593417721E+03  0.00000000000E+00 0.  1.
         -2   -1    0    0    0  501 -0.00000000000E+00 -0.00000000000E+00 -0.76116383528E+02  0.76116383528E+02  0.00000000000E+00 0. -1.
          6    1    1    2  502    0 -0.73840564969E+02  0.80508032859E+01  0.26227591453E+03  0.32285430121E+03  0.17300000000E+03 0.  1.
         -6    1    1    2    0  501  0.73840564969E+02 -0.80508032859E+01  0.14754187916E+03  0.23919625953E+03  0.17300000000E+03 0. -1.
<mgrwt>
<rscale>  2 0.18827173E+03</rscale>
<asrwt>0</asrwt>
<pdfrwt beam="1">  1        2 0.74759102E-01 0.18827173E+03</pdfrwt>
<pdfrwt beam="2">  1       -2 0.11710213E-01 0.18827173E+03</pdfrwt>
<totfact> 0.32555841E+03</totfact>
</mgrwt>
</event>
<event>
 4    1  0.7368504E-001  0.1976765E+03  0.7546771E-02  0.1151714E+00
         -2   -1    0    0    0  501 -0.00000000000E+00  0.00000000000E+00  0.31832027378E+02  0.31832027378E+02  0.00000000000E+00 0. -1.
          2   -1    0    0  502    0  0.00000000000E+00 -0.00000000000E+00 -0.13775864660E+04  0.13775864660E+04  0.00000000000E+00 0.  1.
          6    1    1    2  502    0  0.90688361414E+02  0.30374647391E+02 -0.44032419551E+03  0.48266074550E+03  0.17300000000E+03 0. -1.
         -6    1    1    2    0  501 -0.90688361414E+02 -0.30374647391E+02 -0.90543024307E+03  0.92675774783E+03  0.17300000000E+03 0.  1.
<mgrwt>
<rscale>  2 0.19767650E+03</rscale>
<asrwt>0</asrwt>
<pdfrwt beam="1">  1        2 0.21193637E+00 0.19767650E+03</pdfrwt>
<pdfrwt beam="2">  1       -2 0.48972352E-02 0.19767650E+03</pdfrwt>
<totfact> 0.32029339E+03</totfact>
</mgrwt>
</event>
<event>
 4    1  0.7368504E-001  0.2081920E+03  0.7546771E-02  0.1143006E+00
         -1   -1    0    0    0  501 -0.00000000000E+00  0.00000000000E+00  0.58944332704E+02  0.58944332704E+02  0.00000000000E+00 0.  1.
          1   -1    0    0  502    0  0.00000000000E+00 -0.00000000000E+00 -0.99404406343E+03  0.99404406343E+03  0.00000000000E+00 0. -1.
          6    1    1    2  502    0 -0.10755423642E+03 -0.42976909497E+02 -0.19895654793E+03  0.28797158972E+03  0.17300000000E+03 0.  1.
         -6    1    1    2    0  501  0.10755423642E+03  0.42976909497E+02 -0.73614318280E+03  0.76501680642E+03  0.17300000000E+03 0. -1.
<mgrwt>
<rscale>  2 0.20819205E+03</rscale>
<asrwt>0</asrwt>
<pdfrwt beam="1">  1        1 0.15292984E+00 0.20819205E+03</pdfrwt>
<pdfrwt beam="2">  1       -1 0.90683598E-02 0.20819205E+03</pdfrwt>
<totfact> 0.11490182E+03</totfact>
</mgrwt>
</event>
<event>
 4    1  0.7368504E-001  0.1944712E+03  0.7546771E-02  0.1154489E+00
          1   -1    0    0  502    0  0.00000000000E+00  0.00000000000E+00  0.35162693247E+03  0.35162693247E+03  0.00000000000E+00 0.  1.
         -1   -1    0    0    0  501 -0.00000000000E+00 -0.00000000000E+00 -0.10770560683E+03  0.10770560683E+03  0.00000000000E+00 0. -1.
          6    1    1    2  502    0  0.63931767204E+01  0.88595505829E+02  0.13056489736E+03  0.23423541317E+03  0.17300000000E+03 0. -1.
         -6    1    1    2    0  501 -0.63931767204E+01 -0.88595505829E+02  0.11335642828E+03  0.22509712614E+03  0.17300000000E+03 0.  1.
<mgrwt>
<rscale>  2 0.19447117E+03</rscale>
<asrwt>0</asrwt>
<pdfrwt beam="1">  1        1 0.54096451E-01 0.19447117E+03</pdfrwt>
<pdfrwt beam="2">  1       -1 0.16570094E-01 0.19447117E+03</pdfrwt>
<totfact> 0.19401099E+03</totfact>
</mgrwt>
</event>
<event>
 4    1  0.7368504E-001  0.1730612E+03  0.7546771E-02  0.1174693E+00
          2   -1    0    0  502    0  0.00000000000E+00  0.00000000000E+00  0.10805081055E+03  0.10805081055E+03  0.00000000000E+00 0.  1.
         -2   -1    0    0    0  501 -0.00000000000E+00 -0.00000000000E+00 -0.27863704405E+03  0.27863704405E+03  0.00000000000E+00 0. -1.
          6    1    1    2  502    0  0.39693805781E+01 -0.23304023406E+01 -0.71341294632E+02  0.18718912115E+03  0.17300000000E+03 0.  1.
         -6    1    1    2    0  501 -0.39693805781E+01  0.23304023406E+01 -0.99244938868E+02  0.19949873345E+03  0.17300000000E+03 0. -1.
<mgrwt>
<rscale>  2 0.17306122E+03</rscale>
<asrwt>0</asrwt>
<pdfrwt beam="1">  1        2 0.16623202E-01 0.17306122E+03</pdfrwt>
<pdfrwt beam="2">  1       -2 0.42867237E-01 0.17306122E+03</pdfrwt>
<totfact> 0.17639029E+03</totfact>
</mgrwt>
</event>
<event>
 4    1  0.7368504E-001  0.3394677E+03  0.7546771E-02  0.1067023E+00
          1   -1    0    0  502    0  0.00000000000E+00  0.00000000000E+00  0.85765925341E+03  0.85765925341E+03  0.00000000000E+00 0. -1.
         -1   -1    0    0    0  501 -0.00000000000E+00 -0.00000000000E+00 -0.13545612642E+03  0.13545612642E+03  0.00000000000E+00 0.  1.
          6    1    1    2  502    0  0.28304922073E+03 -0.72058605901E+02  0.40569374712E+03  0.52898555792E+03  0.17300000000E+03 0.  1.
         -6    1    1    2    0  501 -0.28304922073E+03  0.72058605901E+02  0.31650937986E+03  0.46412982191E+03  0.17300000000E+03 0.  1.
<mgrwt>
<rscale>  2 0.33946768E+03</rscale>
<asrwt>0</asrwt>
<pdfrwt beam="1">  1        1 0.13194757E+00 0.33946768E+03</pdfrwt>
<pdfrwt beam="2">  1       -1 0.20839405E-01 0.33946768E+03</pdfrwt>
<totfact> 0.38919408E+02</totfact>
</mgrwt>
</event>
<event>
 4    1  0.7368504E-001  0.1743823E+03  0.7546771E-02  0.1173353E+00
          2   -1    0    0  502    0  0.00000000000E+00  0.00000000000E+00  0.32433884714E+04  0.32433884714E+04  0.00000000000E+00 0.  1.
         -2   -1    0    0    0  501 -0.00000000000E+00 -0.00000000000E+00 -0.15389207815E+02  0.15389207815E+02  0.00000000000E+00 0. -1.
          6    1    1    2  502    0  0.71225860381E+01  0.20723286726E+02  0.59545775130E+03  0.62046685603E+03  0.17300000000E+03 0. -1.
         -6    1    1    2    0  501 -0.71225860381E+01 -0.20723286726E+02  0.26325415123E+04  0.26383108232E+04  0.17300000000E+03 0.  1.
<mgrwt>
<rscale>  2 0.17438230E+03</rscale>
<asrwt>0</asrwt>
<pdfrwt beam="1">  1        2 0.49898230E+00 0.17438230E+03</pdfrwt>
<pdfrwt beam="2">  1       -2 0.23675730E-02 0.17438230E+03</pdfrwt>
<totfact> 0.91465356E+02</totfact>
</mgrwt>
</event>
<event>
 4    1  0.7368504E-001  0.1818657E+03  0.7546771E-02  0.1166010E+00
          1   -1    0    0  502    0  0.00000000000E+00  0.00000000000E+00  0.31756707308E+03  0.31756707308E+03  0.00000000000E+00 0.  1.
         -1   -1    0    0    0  501 -0.00000000000E+00 -0.00000000000E+00 -0.10555027525E+03  0.10555027525E+03  0.00000000000E+00 0. -1.
          6    1    1    2  502    0 -0.73697080727E+01  0.55604040118E+02  0.81655084377E+02  0.19935564873E+03  0.17300000000E+03 0. -1.
         -6    1    1    2    0  501  0.73697080727E+01 -0.55604040118E+02  0.13036171346E+03  0.22376169961E+03  0.17300000000E+03 0. -1.
<mgrwt>
<rscale>  2 0.18186567E+03</rscale>
<asrwt>0</asrwt>
<pdfrwt beam="1">  1        1 0.48856472E-01 0.18186567E+03</pdfrwt>
<pdfrwt beam="2">  1       -1 0.16238504E-01 0.18186567E+03</pdfrwt>
<totfact> 0.22727552E+03</totfact>
</mgrwt>
</event>
<event>
 4    1  0.7368504E-001  0.3270822E+03  0.7546771E-02  0.1072435E+00
          4   -1    0    0  502    0  0.00000000000E+00  0.00000000000E+00  0.31593364595E+03  0.31593364595E+03  0.00000000000E+00 0. -1.
         -4   -1    0    0    0  501 -0.00000000000E+00 -0.00000000000E+00 -0.46101762723E+03  0.46101762723E+03  0.00000000000E+00 0.  1.
          6    1    1    2  502    0 -0.27177349066E+03  0.56506281869E+02 -0.27270508306E+03  0.42585308786E+03  0.17300000000E+03 0.  1.
         -6    1    1    2    0  501  0.27177349066E+03 -0.56506281869E+02  0.12762110178E+03  0.35109818532E+03  0.17300000000E+03 0. -1.
<mgrwt>
<rscale>  2 0.32708224E+03</rscale>
<asrwt>0</asrwt>
<pdfrwt beam="1">  1        4 0.48605177E-01 0.32708224E+03</pdfrwt>
<pdfrwt beam="2">  1       -4 0.70925788E-01 0.32708224E+03</pdfrwt>
<totfact> 0.14079601E+01</totfact>
</mgrwt>
</event>
<event>
 4    1  0.7368504E-001  0.4038413E+03  0.7546771E-02  0.1042458E+00
         -2   -1    0    0    0  501 -0.00000000000E+00  0.00000000000E+00  0.49937140870E+03  0.49937140870E+03  0.00000000000E+00 0.  1.
          2   -1    0    0  502    0  0.00000000000E+00 -0.00000000000E+00 -0.33294870716E+03  0.33294870716E+03  0.00000000000E+00 0. -1.
          6    1    1    2  502    0 -0.35086554817E+03  0.10026058934E+03  0.25682548745E+02  0.40465715362E+03  0.17300000000E+03 0. -1.
         -6    1    1    2    0  501  0.35086554817E+03 -0.10026058934E+03  0.14074015279E+03  0.42766296224E+03  0.17300000000E+03 0.  1.
<mgrwt>
<rscale>  2 0.40384133E+03</rscale>
<asrwt>0</asrwt>
<pdfrwt beam="1">  1        2 0.51222878E-01 0.40384133E+03</pdfrwt>
<pdfrwt beam="2">  1       -2 0.76826371E-01 0.40384133E+03</pdfrwt>
<totfact> 0.15184895E+02</totfact>
</mgrwt>
</event>
<event>
 4    1  0.7368504E-001  0.1800915E+03  0.7546771E-02  0.1167714E+00
          2   -1    0    0  502    0  0.00000000000E+00  0.00000000000E+00  0.18653722356E+03  0.18653722356E+03  0.00000000000E+00 0. -1.
         -2   -1    0    0    0  501 -0.00000000000E+00 -0.00000000000E+00 -0.19909753159E+03  0.19909753159E+03  0.00000000000E+00 0.  1.
          6    1    1    2  502    0 -0.27431353986E+02  0.41850687072E+02 -0.74917893757E+02  0.19505294152E+03  0.17300000000E+03 0.  1.
         -6    1    1    2    0  501  0.27431353986E+02 -0.41850687072E+02  0.62357585731E+02  0.19058181363E+03  0.17300000000E+03 0. -1.
<mgrwt>
<rscale>  2 0.18009153E+03</rscale>
<asrwt>0</asrwt>
<pdfrwt beam="1">  1        2 0.28698035E-01 0.18009153E+03</pdfrwt>
<pdfrwt beam="2">  1       -2 0.30630389E-01 0.18009153E+03</pdfrwt>
<totfact> 0.17874551E+03</totfact>
</mgrwt>
</event>
<event>
 4    1  0.7368504E-001  0.1889943E+03  0.7546771E-02  0.1159372E+00
         -1   -1    0    0    0  501 -0.00000000000E+00  0.00000000000E+00  0.98387263745E+01  0.98387263745E+01  0.00000000000E+00 0. -1.
          1   -1    0    0  502    0  0.00000000000E+00 -0.00000000000E+00 -0.40426860499E+04  0.40426860499E+04  0.00000000000E+00 0.  1.
          6    1    1    2  502    0  0.67738156606E+02  0.34661224269E+02 -0.13693682602E+04  0.13823488310E+04  0.17300000000E+03 0. -1.
         -6    1    1    2    0  501 -0.67738156606E+02 -0.34661224269E+02 -0.26634790633E+04  0.26701759453E+04  0.17300000000E+03 0.  1.
<mgrwt>
<rscale>  2 0.18899433E+03</rscale>
<asrwt>0</asrwt>
<pdfrwt beam="1">  1        1 0.62195200E+00 0.18899433E+03</pdfrwt>
<pdfrwt beam="2">  1       -1 0.15136495E-02 0.18899433E+03</pdfrwt>
<totfact> 0.12249454E+02</totfact>
</mgrwt>
</event>
<event>
 4    1  0.7368504E-001  0.2177410E+03  0.7546771E-02  0.1135579E+00
         -2   -1    0    0    0  501 -0.00000000000E+00  0.00000000000E+00  0.36365706262E+02  0.36365706262E+02  0.00000000000E+00 0. -1.
          2   -1    0    0  502    0  0.00000000000E+00 -0.00000000000E+00 -0.16829634875E+04  0.16829634875E+04  0.00000000000E+00 0.  1.
          6    1    1    2  502    0  0.42505131263E+02 -0.12520159173E+03 -0.41522007484E+03  0.46884841400E+03  0.17300000000E+03 0. -1.
         -6    1    1    2    0  501 -0.42505131263E+02  0.12520159173E+03 -0.12313777063E+04  0.12504807797E+04  0.17300000000E+03 0.  1.
<mgrwt>
<rscale>  2 0.21774096E+03</rscale>
<asrwt>0</asrwt>
<pdfrwt beam="1">  1        2 0.25891738E+00 0.21774096E+03</pdfrwt>
<pdfrwt beam="2">  1       -2 0.55947257E-02 0.21774096E+03</pdfrwt>
<totfact> 0.18025997E+03</totfact>
</mgrwt>
</event>
<event>
 4    1  0.7368504E-001  0.1740021E+03  0.7546771E-02  0.1173737E+00
         -1   -1    0    0    0  501 -0.00000000000E+00  0.00000000000E+00  0.52606324864E+02  0.52606324864E+02  0.00000000000E+00 0.  1.
          1   -1    0    0  502    0  0.00000000000E+00 -0.00000000000E+00 -0.59206195557E+03  0.59206195557E+03  0.00000000000E+00 0. -1.
          6    1    1    2  502    0 -0.16509980360E+02  0.86685445638E+01 -0.21587186917E+03  0.27726771723E+03  0.17300000000E+03 0.  1.
         -6    1    1    2    0  501  0.16509980360E+02 -0.86685445638E+01 -0.32358376153E+03  0.36740056321E+03  0.17300000000E+03 0. -1.
<mgrwt>
<rscale>  2 0.17400208E+03</rscale>
<asrwt>0</asrwt>
<pdfrwt beam="1">  1        1 0.91086451E-01 0.17400208E+03</pdfrwt>
<pdfrwt beam="2">  1       -1 0.80932810E-02 0.17400208E+03</pdfrwt>
<totfact> 0.29842066E+03</totfact>
</mgrwt>
</event>
<event>
 4    1  0.7368504E-001  0.2329393E+03  0.7546771E-02  0.1124588E+00
          1   -1    0    0  502    0  0.00000000000E+00  0.00000000000E+00  0.26211455493E+04  0.26211455493E+04  0.00000000000E+00 0. -1.
         -1   -1    0    0    0  501 -0.00000000000E+00 -0.00000000000E+00 -0.29370520764E+02  0.29370520764E+02  0.00000000000E+00 0.  1.
          6    1    1    2  502    0 -0.28545984472E+02 -0.15335208688E+03  0.20158971837E+04  0.20293107675E+04  0.17300000000E+03 0. -1.
         -6    1    1    2    0  501  0.28545984472E+02  0.15335208688E+03  0.57587784485E+03  0.62120530260E+03  0.17300000000E+03 0.  1.
<mgrwt>
<rscale>  2 0.23293934E+03</rscale>
<asrwt>0</asrwt>
<pdfrwt beam="1">  1        1 0.40325297E+00 0.23293934E+03</pdfrwt>
<pdfrwt beam="2">  1       -1 0.45185438E-02 0.23293934E+03</pdfrwt>
<totfact> 0.27197027E+02</totfact>
</mgrwt>
</event>
<event>
 4    1  0.7368504E-001  0.1969781E+03  0.7546771E-02  0.1152314E+00
         -1   -1    0    0    0  501 -0.00000000000E+00  0.00000000000E+00  0.25161452721E+02  0.25161452721E+02  0.00000000000E+00 0.  1.
          1   -1    0    0  502    0  0.00000000000E+00 -0.00000000000E+00 -0.15433300826E+04  0.15433300826E+04  0.00000000000E+00 0. -1.
          6    1    1    2  502    0 -0.94150915354E+02 -0.26388849852E+01 -0.78162115822E+03  0.80605954715E+03  0.17300000000E+03 0.  1.
         -6    1    1    2    0  501  0.94150915354E+02  0.26388849852E+01 -0.73654747161E+03  0.76243198812E+03  0.17300000000E+03 0.  1.
<mgrwt>
<rscale>  2 0.19697807E+03</rscale>
<asrwt>0</asrwt>
<pdfrwt beam="1">  1        1 0.23743545E+00 0.19697807E+03</pdfrwt>
<pdfrwt beam="2">  1       -1 0.38709918E-02 0.19697807E+03</pdfrwt>
<totfact> 0.17325773E+03</totfact>
</mgrwt>
</event>
<event>
 4    1  0.7368504E-001  0.1954292E+03  0.7546771E-02  0.1153654E+00
         -2   -1    0    0    0  501 -0.00000000000E+00  0.00000000000E+00  0.18958450959E+03  0.18958450959E+03  0.00000000000E+00 0. -1.
          2   -1    0    0  502    0  0.00000000000E+00 -0.00000000000E+00 -0.28905321179E+03  0.28905321179E+03  0.00000000000E+00 0.  1.
          6    1    1    2  502    0 -0.90810977113E+02 -0.41134721516E+01  0.82011871776E+02  0.21193985309E+03  0.17300000000E+03 0. -1.
         -6    1    1    2    0  501  0.90810977113E+02  0.41134721516E+01 -0.18148057397E+03  0.26669786828E+03  0.17300000000E+03 0.  1.
<mgrwt>
<rscale>  2 0.19542915E+03</rscale>
<asrwt>0</asrwt>
<pdfrwt beam="1">  1        2 0.44469724E-01 0.19542915E+03</pdfrwt>
<pdfrwt beam="2">  1       -2 0.29166848E-01 0.19542915E+03</pdfrwt>
<totfact> 0.12189109E+03</totfact>
</mgrwt>
</event>
<event>
 4    1  0.7368504E-001  0.1872621E+03  0.7546771E-02  0.1160954E+00
         -1   -1    0    0    0  501 -0.00000000000E+00  0.00000000000E+00  0.22441930638E+02  0.22441930638E+02  0.00000000000E+00 0.  1.
          1   -1    0    0  502    0  0.00000000000E+00 -0.00000000000E+00 -0.16994475670E+04  0.16994475670E+04  0.00000000000E+00 0. -1.
          6    1    1    2  502    0 -0.69718884715E+02 -0.16653997352E+02 -0.10828392201E+04  0.10989121235E+04  0.17300000000E+03 0. -1.
         -6    1    1    2    0  501  0.69718884715E+02  0.16653997352E+02 -0.59416641620E+03  0.62297737411E+03  0.17300000000E+03 0.  1.
<mgrwt>
<rscale>  2 0.18726206E+03</rscale>
<asrwt>0</asrwt>
<pdfrwt beam="1">  1        1 0.26145353E+00 0.18726206E+03</pdfrwt>
<pdfrwt beam="2">  1       -1 0.34526040E-02 0.18726206E+03</pdfrwt>
<totfact> 0.16247966E+03</totfact>
</mgrwt>
</event>
<event>
 4    1  0.7368504E-001  0.2211540E+03  0.7546771E-02  0.1133026E+00
          1   -1    0    0  502    0  0.00000000000E+00  0.00000000000E+00  0.27995925593E+03  0.27995925593E+03  0.00000000000E+00 0. -1.
         -1   -1    0    0    0  501 -0.00000000000E+00 -0.00000000000E+00 -0.31231661852E+03  0.31231661852E+03  0.00000000000E+00 0.  1.
          6    1    1    2  502    0  0.10099938826E+03  0.93697455713E+02  0.18039744421E+03  0.28539854154E+03  0.17300000000E+03 0. -1.
         -6    1    1    2    0  501 -0.10099938826E+03 -0.93697455713E+02 -0.21275480681E+03  0.30687733291E+03  0.17300000000E+03 0.  1.
<mgrwt>
<rscale>  2 0.22115400E+03</rscale>
<asrwt>0</asrwt>
<pdfrwt beam="1">  1        1 0.43070654E-01 0.22115400E+03</pdfrwt>
<pdfrwt beam="2">  1       -1 0.48048711E-01 0.22115400E+03</pdfrwt>
<totfact> 0.42629210E+02</totfact>
</mgrwt>
</event>
<event>
 4    1  0.7368504E-001  0.1857142E+03  0.7546771E-02  0.1162385E+00
          2   -1    0    0  502    0  0.00000000000E+00  0.00000000000E+00  0.27774324043E+03  0.27774324043E+03  0.00000000000E+00 0. -1.
         -2   -1    0    0    0  501 -0.00000000000E+00 -0.00000000000E+00 -0.13837735358E+03  0.13837735358E+03  0.00000000000E+00 0.  1.
          6    1    1    2  502    0 -0.54922560877E+02 -0.39297487323E+02  0.13633001543E+03  0.23038153857E+03  0.17300000000E+03 0.  1.
         -6    1    1    2    0  501  0.54922560877E+02  0.39297487323E+02  0.30358714202E+01  0.18573905545E+03  0.17300000000E+03 0. -1.
<mgrwt>
<rscale>  2 0.18571424E+03</rscale>
<asrwt>0</asrwt>
<pdfrwt beam="1">  1        2 0.42729729E-01 0.18571424E+03</pdfrwt>
<pdfrwt beam="2">  1       -2 0.21288824E-01 0.18571424E+03</pdfrwt>
<totfact> 0.22104186E+03</totfact>
</mgrwt>
</event>
<event>
 4    1  0.7368504E-001  0.2854583E+03  0.7546771E-02  0.1092745E+00
          2   -1    0    0  502    0  0.00000000000E+00  0.00000000000E+00  0.18156789973E+04  0.18156789973E+04  0.00000000000E+00 0. -1.
         -2   -1    0    0    0  501 -0.00000000000E+00 -0.00000000000E+00 -0.45577033194E+02  0.45577033194E+02  0.00000000000E+00 0.  1.
          6    1    1    2  502    0 -0.13684602607E+03  0.18119223474E+03  0.10001940470E+04  0.10401320073E+04  0.17300000000E+03 0.  1.
         -6    1    1    2    0  501  0.13684602607E+03 -0.18119223474E+03  0.76990791706E+03  0.82112402323E+03  0.17300000000E+03 0.  1.
<mgrwt>
<rscale>  2 0.28545833E+03</rscale>
<asrwt>0</asrwt>
<pdfrwt beam="1">  1        2 0.27933517E+00 0.28545833E+03</pdfrwt>
<pdfrwt beam="2">  1       -2 0.70118527E-02 0.28545833E+03</pdfrwt>
<totfact> 0.10783646E+03</totfact>
</mgrwt>
</event>
<event>
 4    1  0.7368504E-001  0.1882704E+03  0.7546771E-02  0.1160031E+00
         -2   -1    0    0    0  501 -0.00000000000E+00  0.00000000000E+00  0.26164922499E+02  0.26164922499E+02  0.00000000000E+00 0.  1.
          2   -1    0    0  502    0  0.00000000000E+00 -0.00000000000E+00 -0.14069020158E+04  0.14069020158E+04  0.00000000000E+00 0. -1.
          6    1    1    2  502    0 -0.67444539778E+02  0.31112429607E+02 -0.55235308957E+03  0.58355778187E+03  0.17300000000E+03 0.  1.
         -6    1    1    2    0  501  0.67444539778E+02 -0.31112429607E+02 -0.82838400373E+03  0.84950915643E+03  0.17300000000E+03 0.  1.
<mgrwt>
<rscale>  2 0.18827042E+03</rscale>
<asrwt>0</asrwt>
<pdfrwt beam="1">  1        2 0.21644652E+00 0.18827042E+03</pdfrwt>
<pdfrwt beam="2">  1       -2 0.40253717E-02 0.18827042E+03</pdfrwt>
<totfact> 0.41469118E+03</totfact>
</mgrwt>
</event>
<event>
 4    1  0.7368504E-001  0.2317878E+03  0.7546771E-02  0.1125388E+00
         -2   -1    0    0    0  501 -0.00000000000E+00  0.00000000000E+00  0.19214705512E+03  0.19214705512E+03  0.00000000000E+00 0.  1.
          2   -1    0    0  502    0  0.00000000000E+00 -0.00000000000E+00 -0.27963218017E+03  0.27963218017E+03  0.00000000000E+00 0. -1.
          6    1    1    2  502    0  0.77809161510E+02 -0.13320034057E+03 -0.45996052164E+02  0.23630749704E+03  0.17300000000E+03 0. -1.
         -6    1    1    2    0  501 -0.77809161510E+02  0.13320034057E+03 -0.41489072879E+02  0.23547173825E+03  0.17300000000E+03 0.  1.
<mgrwt>
<rscale>  2 0.23178783E+03</rscale>
<asrwt>0</asrwt>
<pdfrwt beam="1">  1        2 0.43020336E-01 0.23178783E+03</pdfrwt>
<pdfrwt beam="2">  1       -2 0.29561085E-01 0.23178783E+03</pdfrwt>
<totfact> 0.12368266E+03</totfact>
</mgrwt>
</event>
<event>
 4    1  0.7368504E-001  0.1759688E+03  0.7546771E-02  0.1171763E+00
          1   -1    0    0  502    0  0.00000000000E+00  0.00000000000E+00  0.15518938363E+03  0.15518938363E+03  0.00000000000E+00 0. -1.
         -1   -1    0    0    0  501 -0.00000000000E+00 -0.00000000000E+00 -0.20107188555E+03  0.20107188555E+03  0.00000000000E+00 0.  1.
          6    1    1    2  502    0  0.27885773005E+02 -0.16074385717E+02 -0.38537870241E+02  0.18013930625E+03  0.17300000000E+03 0.  1.
         -6    1    1    2    0  501 -0.27885773005E+02  0.16074385717E+02 -0.73446316857E+01  0.17612196293E+03  0.17300000000E+03 0. -1.
<mgrwt>
<rscale>  2 0.17596875E+03</rscale>
<asrwt>0</asrwt>
<pdfrwt beam="1">  1        1 0.23875290E-01 0.17596875E+03</pdfrwt>
<pdfrwt beam="2">  1       -1 0.30934136E-01 0.17596875E+03</pdfrwt>
<totfact> 0.19376724E+03</totfact>
</mgrwt>
</event>
<event>
 4    1  0.7368504E-001  0.2546674E+03  0.7546771E-02  0.1110390E+00
         -2   -1    0    0    0  501 -0.00000000000E+00  0.00000000000E+00  0.33009063345E+02  0.33009063345E+02  0.00000000000E+00 0. -1.
          2   -1    0    0  502    0  0.00000000000E+00 -0.00000000000E+00 -0.21666075898E+04  0.21666075898E+04  0.00000000000E+00 0.  1.
          6    1    1    2  502    0 -0.72394386235E+02 -0.17229487477E+03 -0.73112377284E+03  0.77420762218E+03  0.17300000000E+03 0.  1.
         -6    1    1    2    0  501  0.72394386235E+02  0.17229487477E+03 -0.14024747536E+04  0.14254090310E+04  0.17300000000E+03 0.  1.
<mgrwt>
<rscale>  2 0.25466737E+03</rscale>
<asrwt>0</asrwt>
<pdfrwt beam="1">  1        2 0.33332435E+00 0.25466737E+03</pdfrwt>
<pdfrwt beam="2">  1       -2 0.50783158E-02 0.25466737E+03</pdfrwt>
<totfact> 0.11620465E+03</totfact>
</mgrwt>
</event>
<event>
 4    1  0.7368504E-001  0.1811075E+03  0.7546771E-02  0.1166735E+00
         -1   -1    0    0    0  501 -0.00000000000E+00  0.00000000000E+00  0.55095094915E+02  0.55095094915E+02  0.00000000000E+00 0. -1.
          1   -1    0    0  502    0  0.00000000000E+00 -0.00000000000E+00 -0.60185686863E+03  0.60185686863E+03  0.00000000000E+00 0.  1.
          6    1    1    2  502    0  0.37490939586E+02  0.38280031479E+02 -0.23918233887E+03  0.30001353735E+03  0.17300000000E+03 0. -1.
         -6    1    1    2    0  501 -0.37490939586E+02 -0.38280031479E+02 -0.30757943485E+03  0.35693842620E+03  0.17300000000E+03 0.  1.
<mgrwt>
<rscale>  2 0.18110751E+03</rscale>
<asrwt>0</asrwt>
<pdfrwt beam="1">  1        1 0.92593367E-01 0.18110751E+03</pdfrwt>
<pdfrwt beam="2">  1       -1 0.84761682E-02 0.18110751E+03</pdfrwt>
<totfact> 0.27229186E+03</totfact>
</mgrwt>
</event>
<event>
 4    1  0.7368504E-001  0.2294391E+03  0.7546771E-02  0.1127035E+00
          1   -1    0    0  502    0  0.00000000000E+00  0.00000000000E+00  0.63290426097E+02  0.63290426097E+02  0.00000000000E+00 0. -1.
         -1   -1    0    0    0  501 -0.00000000000E+00 -0.00000000000E+00 -0.11734273766E+04  0.11734273766E+04  0.00000000000E+00 0.  1.
          6    1    1    2  502    0  0.15049694021E+03 -0.79971601199E+01 -0.22139945640E+03  0.31884165800E+03  0.17300000000E+03 0. -1.
         -6    1    1    2    0  501 -0.15049694021E+03  0.79971601199E+01 -0.88873749415E+03  0.91787614474E+03  0.17300000000E+03 0.  1.
<mgrwt>
<rscale>  2 0.22943906E+03</rscale>
<asrwt>0</asrwt>
<pdfrwt beam="1">  1        1 0.97369889E-02 0.22943906E+03</pdfrwt>
<pdfrwt beam="2">  1       -1 0.18052728E+00 0.22943906E+03</pdfrwt>
<totfact> 0.15173598E+02</totfact>
</mgrwt>
</event>
<event>
 4    1  0.7368504E-001  0.1996325E+03  0.7546771E-02  0.1150049E+00
          2   -1    0    0  502    0  0.00000000000E+00  0.00000000000E+00  0.74013021438E+02  0.74013021438E+02  0.00000000000E+00 0.  1.
         -2   -1    0    0    0  501 -0.00000000000E+00 -0.00000000000E+00 -0.10295424189E+04  0.10295424189E+04  0.00000000000E+00 0. -1.
          6    1    1    2  502    0 -0.62798268479E+01  0.99421832866E+02 -0.96682449377E+02  0.22181215723E+03  0.17300000000E+03 0.  1.
         -6    1    1    2    0  501  0.62798268479E+01 -0.99421832866E+02 -0.85884694805E+03  0.88174328308E+03  0.17300000000E+03 0. -1.
<mgrwt>
<rscale>  2 0.19963251E+03</rscale>
<asrwt>0</asrwt>
<pdfrwt beam="1">  1        2 0.11386619E-01 0.19963251E+03</pdfrwt>
<pdfrwt beam="2">  1       -2 0.15839114E+00 0.19963251E+03</pdfrwt>
<totfact> 0.15040943E+02</totfact>
</mgrwt>
</event>
<event>
 4    1  0.7368504E-001  0.2648189E+03  0.7546771E-02  0.1104282E+00
          2   -1    0    0  502    0  0.00000000000E+00  0.00000000000E+00  0.25371804915E+04  0.25371804915E+04  0.00000000000E+00 0.  1.
         -2   -1    0    0    0  501 -0.00000000000E+00 -0.00000000000E+00 -0.30109833383E+02  0.30109833383E+02  0.00000000000E+00 0. -1.
          6    1    1    2  502    0 -0.15767691058E+03  0.12384682901E+03  0.88593411296E+03  0.92466658731E+03  0.17300000000E+03 0.  1.
         -6    1    1    2    0  501  0.15767691058E+03 -0.12384682901E+03  0.16211365452E+04  0.16426237376E+04  0.17300000000E+03 0.  1.
<mgrwt>
<rscale>  2 0.26481889E+03</rscale>
<asrwt>0</asrwt>
<pdfrwt beam="1">  1        2 0.39033529E+00 0.26481889E+03</pdfrwt>
<pdfrwt beam="2">  1       -2 0.46322841E-02 0.26481889E+03</pdfrwt>
<totfact> 0.84263301E+02</totfact>
</mgrwt>
</event>
<event>
 4    1  0.7368504E-001  0.2213445E+03  0.7546771E-02  0.1132885E+00
          1   -1    0    0  502    0  0.00000000000E+00  0.00000000000E+00  0.18338417083E+03  0.18338417083E+03  0.00000000000E+00 0. -1.
         -1   -1    0    0    0  501 -0.00000000000E+00 -0.00000000000E+00 -0.43263487528E+03  0.43263487528E+03  0.00000000000E+00 0.  1.
          6    1    1    2  502    0 -0.13060985884E+03  0.44782177303E+02 -0.31511268269E+03  0.38508360316E+03  0.17300000000E+03 0.  1.
         -6    1    1    2    0  501  0.13060985884E+03 -0.44782177303E+02  0.65861978240E+02  0.23093544295E+03  0.17300000000E+03 0. -1.
<mgrwt>
<rscale>  2 0.22134448E+03</rscale>
<asrwt>0</asrwt>
<pdfrwt beam="1">  1        1 0.28212950E-01 0.22134448E+03</pdfrwt>
<pdfrwt beam="2">  1       -1 0.66559210E-01 0.22134448E+03</pdfrwt>
<totfact> 0.39097978E+02</totfact>
</mgrwt>
</event>
<event>
 4    1  0.7368504E-001  0.3651534E+03  0.7546771E-02  0.1056562E+00
         -2   -1    0    0    0  501 -0.00000000000E+00  0.00000000000E+00  0.86140376296E+02  0.86140376296E+02  0.00000000000E+00 0. -1.
          2   -1    0    0  502    0  0.00000000000E+00 -0.00000000000E+00 -0.16178815611E+04  0.16178815611E+04  0.00000000000E+00 0.  1.
          6    1    1    2  502    0  0.27148881853E+03  0.17234227843E+03 -0.94306539964E+03  0.10112909510E+04  0.17300000000E+03 0.  1.
         -6    1    1    2    0  501 -0.27148881853E+03 -0.17234227843E+03 -0.58867578521E+03  0.69273098647E+03  0.17300000000E+03 0. -1.
<mgrwt>
<rscale>  2 0.36515345E+03</rscale>
<asrwt>0</asrwt>
<pdfrwt beam="1">  1        2 0.24890486E+00 0.36515345E+03</pdfrwt>
<pdfrwt beam="2">  1       -2 0.13252365E-01 0.36515345E+03</pdfrwt>
<totfact> 0.49205444E+02</totfact>
</mgrwt>
</event>
<event>
 4    1  0.7368504E-001  0.1742852E+03  0.7546771E-02  0.1173451E+00
         -1   -1    0    0    0  501 -0.00000000000E+00  0.00000000000E+00  0.13643664533E+03  0.13643664533E+03  0.00000000000E+00 0. -1.
          1   -1    0    0  502    0  0.00000000000E+00 -0.00000000000E+00 -0.38435645155E+03  0.38435645155E+03  0.00000000000E+00 0.  1.
          6    1    1    2  502    0  0.76841913284E+01 -0.19679249357E+02  0.44949738241E+02  0.17998832912E+03  0.17300000000E+03 0. -1.
         -6    1    1    2    0  501 -0.76841913284E+01  0.19679249357E+02 -0.29286954446E+03  0.34080476775E+03  0.17300000000E+03 0.  1.
<mgrwt>
<rscale>  2 0.17428517E+03</rscale>
<asrwt>0</asrwt>
<pdfrwt beam="1">  1        1 0.59131762E-01 0.17428517E+03</pdfrwt>
<pdfrwt beam="2">  1       -1 0.20990253E-01 0.17428517E+03</pdfrwt>
<totfact> 0.11827428E+03</totfact>
</mgrwt>
</event>
<event>
 4    1  0.7368504E-001  0.2101426E+03  0.7546771E-02  0.1141453E+00
          2   -1    0    0  502    0  0.00000000000E+00  0.00000000000E+00  0.36682806971E+04  0.36682806971E+04  0.00000000000E+00 0. -1.
         -2   -1    0    0    0  501 -0.00000000000E+00 -0.00000000000E+00 -0.12093563983E+02  0.12093563983E+02  0.00000000000E+00 0.  1.
          6    1    1    2  502    0  0.11049268859E+03  0.44969530087E+02  0.17037067131E+04  0.17166177376E+04  0.17300000000E+03 0. -1.
         -6    1    1    2    0  501 -0.11049268859E+03 -0.44969530087E+02  0.19524804200E+04  0.19637565234E+04  0.17300000000E+03 0.  1.
<mgrwt>
<rscale>  2 0.21014255E+03</rscale>
<asrwt>0</asrwt>
<pdfrwt beam="1">  1        2 0.56434999E+00 0.21014255E+03</pdfrwt>
<pdfrwt beam="2">  1       -2 0.18605512E-02 0.21014255E+03</pdfrwt>
<totfact> 0.68271635E+02</totfact>
</mgrwt>
</event>
<event>
 4    1  0.7368504E-001  0.2441938E+03  0.7546771E-02  0.1117030E+00
          1   -1    0    0  502    0  0.00000000000E+00  0.00000000000E+00  0.17879003188E+04  0.17879003188E+04  0.00000000000E+00 0. -1.
         -1   -1    0    0    0  501 -0.00000000000E+00 -0.00000000000E+00 -0.35033994227E+02  0.35033994227E+02  0.00000000000E+00 0.  1.
          6    1    1    2  502    0 -0.26205279317E+02 -0.17033753502E+03  0.10761291662E+04  0.11034874602E+04  0.17300000000E+03 0.  1.
         -6    1    1    2    0  501  0.26205279317E+02  0.17033753502E+03  0.67673715837E+03  0.71944685281E+03  0.17300000000E+03 0.  1.
<mgrwt>
<rscale>  2 0.24419376E+03</rscale>
<asrwt>0</asrwt>
<pdfrwt beam="1">  1        1 0.27506152E+00 0.24419376E+03</pdfrwt>
<pdfrwt beam="2">  1       -1 0.53898467E-02 0.24419376E+03</pdfrwt>
<totfact> 0.73038565E+02</totfact>
</mgrwt>
</event>
<event>
 4    1  0.7368504E-001  0.2129745E+03  0.7546771E-02  0.1139232E+00
         -2   -1    0    0    0  501 -0.00000000000E+00  0.00000000000E+00  0.20496319864E+03  0.20496319864E+03  0.00000000000E+00 0.  1.
          2   -1    0    0  502    0  0.00000000000E+00 -0.00000000000E+00 -0.30136928940E+03  0.30136928940E+03  0.00000000000E+00 0. -1.
          6    1    1    2  502    0 -0.63999334394E+02  0.10645770167E+03 -0.17869745866E+03  0.27801247954E+03  0.17300000000E+03 0. -1.
         -6    1    1    2    0  501  0.63999334394E+02 -0.10645770167E+03  0.82291367905E+02  0.22832000850E+03  0.17300000000E+03 0.  1.
<mgrwt>
<rscale>  2 0.21297455E+03</rscale>
<asrwt>0</asrwt>
<pdfrwt beam="1">  1        2 0.46364506E-01 0.21297455E+03</pdfrwt>
<pdfrwt beam="2">  1       -2 0.31532800E-01 0.21297455E+03</pdfrwt>
<totfact> 0.10130062E+03</totfact>
</mgrwt>
</event>
<event>
 4    1  0.7368504E-001  0.1742450E+03  0.7546771E-02  0.1173492E+00
          1   -1    0    0  502    0  0.00000000000E+00  0.00000000000E+00  0.16515159849E+04  0.16515159849E+04  0.00000000000E+00 0. -1.
         -1   -1    0    0    0  501 -0.00000000000E+00 -0.00000000000E+00 -0.20361592109E+02  0.20361592109E+02  0.00000000000E+00 0.  1.
          6    1    1    2  502    0  0.10118693482E+02  0.18163737731E+02  0.55505325219E+03  0.58176062267E+03  0.17300000000E+03 0.  1.
         -6    1    1    2    0  501 -0.10118693482E+02 -0.18163737731E+02  0.10761011406E+04  0.10901169543E+04  0.17300000000E+03 0. -1.
<mgrwt>
<rscale>  2 0.17424497E+03</rscale>
<asrwt>0</asrwt>
<pdfrwt beam="1">  1        1 0.25407928E+00 0.17424497E+03</pdfrwt>
<pdfrwt beam="2">  1       -1 0.31325539E-02 0.17424497E+03</pdfrwt>
<totfact> 0.20135225E+03</totfact>
</mgrwt>
</event>
<event>
 4    1  0.7368504E-001  0.2086396E+03  0.7546771E-02  0.1142648E+00
          1   -1    0    0  502    0  0.00000000000E+00  0.00000000000E+00  0.21646576363E+03  0.21646576363E+03  0.00000000000E+00 0. -1.
         -1   -1    0    0    0  501 -0.00000000000E+00 -0.00000000000E+00 -0.26055388424E+03  0.26055388424E+03  0.00000000000E+00 0.  1.
          6    1    1    2  502    0 -0.17002353831E+02 -0.11537947578E+03 -0.13597992754E+03  0.24904024606E+03  0.17300000000E+03 0.  1.
         -6    1    1    2    0  501  0.17002353831E+02  0.11537947578E+03  0.91891806927E+02  0.22797940180E+03  0.17300000000E+03 0. -1.
<mgrwt>
<rscale>  2 0.20863965E+03</rscale>
<asrwt>0</asrwt>
<pdfrwt beam="1">  1        1 0.33302425E-01 0.20863965E+03</pdfrwt>
<pdfrwt beam="2">  1       -1 0.40085213E-01 0.20863965E+03</pdfrwt>
<totfact> 0.81580876E+02</totfact>
</mgrwt>
</event>
<event>
 4    1  0.7368504E-001  0.1797385E+03  0.7546771E-02  0.1168056E+00
         -2   -1    0    0    0  501 -0.00000000000E+00  0.00000000000E+00  0.32247619104E+02  0.32247619104E+02  0.00000000000E+00 0.  1.
          2   -1    0    0  502    0  0.00000000000E+00 -0.00000000000E+00 -0.13805761623E+04  0.13805761623E+04  0.00000000000E+00 0. -1.
          6    1    1    2  502    0  0.46683909579E+02  0.14054333021E+02 -0.30415317677E+03  0.35329175850E+03  0.17300000000E+03 0.  1.
         -6    1    1    2    0  501 -0.46683909579E+02 -0.14054333021E+02 -0.10441753664E+04  0.10595320229E+04  0.17300000000E+03 0. -1.
<mgrwt>
<rscale>  2 0.17973845E+03</rscale>
<asrwt>0</asrwt>
<pdfrwt beam="1">  1        2 0.21239627E+00 0.17973845E+03</pdfrwt>
<pdfrwt beam="2">  1       -2 0.49611736E-02 0.17973845E+03</pdfrwt>
<totfact> 0.31257646E+03</totfact>
</mgrwt>
</event>
<event>
 4    1  0.7368504E-001  0.2612766E+03  0.7546771E-02  0.1106379E+00
         -1   -1    0    0    0  501 -0.00000000000E+00  0.00000000000E+00  0.63373774623E+02  0.63373774623E+02  0.00000000000E+00 0.  1.
          1   -1    0    0  502    0  0.00000000000E+00 -0.00000000000E+00 -0.10907901448E+04  0.10907901448E+04  0.00000000000E+00 0. -1.
          6    1    1    2  502    0  0.19573463263E+03 -0.49397350099E+01 -0.57815124758E+03  0.63444803764E+03  0.17300000000E+03 0. -1.
         -6    1    1    2    0  501 -0.19573463263E+03  0.49397350099E+01 -0.44926512262E+03  0.51971588181E+03  0.17300000000E+03 0.  1.
<mgrwt>
<rscale>  2 0.26127657E+03</rscale>
<asrwt>0</asrwt>
<pdfrwt beam="1">  1        1 0.16781388E+00 0.26127657E+03</pdfrwt>
<pdfrwt beam="2">  1       -1 0.97498109E-02 0.26127657E+03</pdfrwt>
<totfact> 0.87082036E+02</totfact>
</mgrwt>
</event>
<event>
 4    1  0.7368504E-001  0.2059835E+03  0.7546771E-02  0.1144787E+00
         -1   -1    0    0    0  501 -0.00000000000E+00  0.00000000000E+00  0.46531502489E+02  0.46531502489E+02  0.00000000000E+00 0. -1.
          1   -1    0    0  502    0  0.00000000000E+00 -0.00000000000E+00 -0.99642505790E+03  0.99642505790E+03  0.00000000000E+00 0.  1.
          6    1    1    2  502    0 -0.94446912033E+02 -0.59833122454E+02 -0.32300953778E+03  0.38309839889E+03  0.17300000000E+03 0. -1.
         -6    1    1    2    0  501  0.94446912033E+02  0.59833122454E+02 -0.62688401763E+03  0.65985816149E+03  0.17300000000E+03 0.  1.
<mgrwt>
<rscale>  2 0.20598355E+03</rscale>
<asrwt>0</asrwt>
<pdfrwt beam="1">  1        1 0.15329616E+00 0.20598355E+03</pdfrwt>
<pdfrwt beam="2">  1       -1 0.71586926E-02 0.20598355E+03</pdfrwt>
<totfact> 0.16411826E+03</totfact>
</mgrwt>
</event>
<event>
 4    1  0.7368504E-001  0.2073903E+03  0.7546771E-02  0.1143649E+00
         -1   -1    0    0    0  501 -0.00000000000E+00  0.00000000000E+00  0.61084692034E+02  0.61084692034E+02  0.00000000000E+00 0.  1.
          1   -1    0    0  502    0  0.00000000000E+00 -0.00000000000E+00 -0.70656796533E+03  0.70656796533E+03  0.00000000000E+00 0. -1.
          6    1    1    2  502    0 -0.81248242543E+02  0.80501340534E+02 -0.34534983987E+03  0.40283651106E+03  0.17300000000E+03 0.  1.
         -6    1    1    2    0  501  0.81248242543E+02 -0.80501340534E+02 -0.30013343342E+03  0.36481614630E+03  0.17300000000E+03 0. -1.
<mgrwt>
<rscale>  2 0.20739031E+03</rscale>
<asrwt>0</asrwt>
<pdfrwt beam="1">  1        1 0.10870278E+00 0.20739031E+03</pdfrwt>
<pdfrwt beam="2">  1       -1 0.93976439E-02 0.20739031E+03</pdfrwt>
<totfact> 0.18584834E+03</totfact>
</mgrwt>
</event>
<event>
 4    1  0.7368504E-001  0.2420211E+03  0.7546771E-02  0.1118454E+00
          2   -1    0    0  502    0  0.00000000000E+00  0.00000000000E+00  0.21246981270E+04  0.21246981270E+04  0.00000000000E+00 0. -1.
         -2   -1    0    0    0  501 -0.00000000000E+00 -0.00000000000E+00 -0.33587547227E+02  0.33587547227E+02  0.00000000000E+00 0.  1.
          6    1    1    2  502    0  0.55627107418E+00  0.16924809841E+03  0.58871714710E+03  0.63652345404E+03  0.17300000000E+03 0.  1.
         -6    1    1    2    0  501 -0.55627107418E+00 -0.16924809841E+03  0.15023934327E+04  0.15217622202E+04  0.17300000000E+03 0. -1.
<mgrwt>
<rscale>  2 0.24202113E+03</rscale>
<asrwt>0</asrwt>
<pdfrwt beam="1">  1        2 0.32687653E+00 0.24202113E+03</pdfrwt>
<pdfrwt beam="2">  1       -2 0.51673166E-02 0.24202113E+03</pdfrwt>
<totfact> 0.11927507E+03</totfact>
</mgrwt>
</event>
<event>
 4    1  0.7368504E-001  0.1730335E+03  0.7546771E-02  0.1174721E+00
         -1   -1    0    0    0  501 -0.00000000000E+00  0.00000000000E+00  0.26357247591E+02  0.26357247591E+02  0.00000000000E+00 0. -1.
          1   -1    0    0  502    0  0.00000000000E+00 -0.00000000000E+00 -0.11621152295E+04  0.11621152295E+04  0.00000000000E+00 0.  1.
          6    1    1    2  502    0  0.10712305614E+01 -0.32297024744E+01 -0.65704040300E+03  0.67944291128E+03  0.17300000000E+03 0.  1.
         -6    1    1    2    0  501 -0.10712305614E+01  0.32297024744E+01 -0.47871757888E+03  0.50902956578E+03  0.17300000000E+03 0. -1.
<mgrwt>
<rscale>  2 0.17303346E+03</rscale>
<asrwt>0</asrwt>
<pdfrwt beam="1">  1        1 0.17878695E+00 0.17303346E+03</pdfrwt>
<pdfrwt beam="2">  1       -1 0.40549614E-02 0.17303346E+03</pdfrwt>
<totfact> 0.29134953E+03</totfact>
</mgrwt>
</event>
<event>
 4    1  0.7368504E-001  0.1818187E+03  0.7546771E-02  0.1166054E+00
          2   -1    0    0  502    0  0.00000000000E+00  0.00000000000E+00  0.78850019448E+03  0.78850019448E+03  0.00000000000E+00 0. -1.
         -2   -1    0    0    0  501 -0.00000000000E+00 -0.00000000000E+00 -0.55937130675E+02  0.55937130675E+02  0.00000000000E+00 0.  1.
          6    1    1    2  502    0  0.13351071918E+01  0.55921727229E+02  0.15496355402E+03  0.23889689232E+03  0.17300000000E+03 0.  1.
         -6    1    1    2    0  501 -0.13351071918E+01 -0.55921727229E+02  0.57759950979E+03  0.60554043283E+03  0.17300000000E+03 0. -1.
<mgrwt>
<rscale>  2 0.18181865E+03</rscale>
<asrwt>0</asrwt>
<pdfrwt beam="1">  1        2 0.12130771E+00 0.18181865E+03</pdfrwt>
<pdfrwt beam="2">  1       -2 0.86057130E-02 0.18181865E+03</pdfrwt>
<totfact> 0.30110664E+03</totfact>
</mgrwt>
</event>
<event>
 4    1  0.7368504E-001  0.2089433E+03  0.7546771E-02  0.1142406E+00
          1   -1    0    0  502    0  0.00000000000E+00  0.00000000000E+00  0.68850931908E+03  0.68850931908E+03  0.00000000000E+00 0. -1.
         -1   -1    0    0    0  501 -0.00000000000E+00 -0.00000000000E+00 -0.76823302714E+02  0.76823302714E+02  0.00000000000E+00 0.  1.
          6    1    1    2  502    0 -0.11405321277E+03 -0.26835772300E+02  0.14593616748E+03  0.25486203914E+03  0.17300000000E+03 0.  1.
         -6    1    1    2    0  501  0.11405321277E+03  0.26835772300E+02  0.46574984889E+03  0.51047058265E+03  0.17300000000E+03 0.  1.
<mgrwt>
<rscale>  2 0.20894328E+03</rscale>
<asrwt>0</asrwt>
<pdfrwt beam="1">  1        1 0.10592451E+00 0.20894328E+03</pdfrwt>
<pdfrwt beam="2">  1       -1 0.11818970E-01 0.20894328E+03</pdfrwt>
<totfact> 0.13535240E+03</totfact>
</mgrwt>
</event>
<event>
 4    1  0.7368504E-001  0.1824990E+03  0.7546771E-02  0.1165406E+00
          2   -1    0    0  502    0  0.00000000000E+00  0.00000000000E+00  0.66951168575E+03  0.66951168575E+03  0.00000000000E+00 0. -1.
         -2   -1    0    0    0  501 -0.00000000000E+00 -0.00000000000E+00 -0.50906846387E+02  0.50906846387E+02  0.00000000000E+00 0.  1.
          6    1    1    2  502    0 -0.38099338443E+02 -0.43878473458E+02  0.36368450708E+03  0.40690576392E+03  0.17300000000E+03 0. -1.
         -6    1    1    2    0  501  0.38099338443E+02  0.43878473458E+02  0.25492033229E+03  0.31351276822E+03  0.17300000000E+03 0. -1.
<mgrwt>
<rscale>  2 0.18249899E+03</rscale>
<asrwt>0</asrwt>
<pdfrwt beam="1">  1        2 0.10300179E+00 0.18249899E+03</pdfrwt>
<pdfrwt beam="2">  1       -2 0.78318230E-02 0.18249899E+03</pdfrwt>
<totfact> 0.42558640E+03</totfact>
</mgrwt>
</event>
<event>
 4    1  0.7368504E-001  0.1781990E+03  0.7546771E-02  0.1169558E+00
         -2   -1    0    0    0  501 -0.00000000000E+00  0.00000000000E+00  0.14581573324E+03  0.14581573324E+03  0.00000000000E+00 0.  1.
          2   -1    0    0  502    0  0.00000000000E+00 -0.00000000000E+00 -0.22022513934E+03  0.22022513934E+03  0.00000000000E+00 0. -1.
          6    1    1    2  502    0 -0.15700240431E+02 -0.39741390625E+02 -0.56513269248E+02  0.18694551420E+03  0.17300000000E+03 0.  1.
         -6    1    1    2    0  501  0.15700240431E+02  0.39741390625E+02 -0.17896136860E+02  0.17909535838E+03  0.17300000000E+03 0.  1.
<mgrwt>
<rscale>  2 0.17819898E+03</rscale>
<asrwt>0</asrwt>
<pdfrwt beam="1">  1        2 0.33880790E-01 0.17819898E+03</pdfrwt>
<pdfrwt beam="2">  1       -2 0.22433190E-01 0.17819898E+03</pdfrwt>
<totfact> 0.25883981E+03</totfact>
</mgrwt>
</event>
<event>
 4    1  0.7368504E-001  0.2798957E+03  0.7546771E-02  0.1095746E+00
          1   -1    0    0  502    0  0.00000000000E+00  0.00000000000E+00  0.90178080643E+02  0.90178080643E+02  0.00000000000E+00 0. -1.
         -1   -1    0    0    0  501 -0.00000000000E+00 -0.00000000000E+00 -0.89670743788E+03  0.89670743788E+03  0.00000000000E+00 0.  1.
          6    1    1    2  502    0  0.43441565222E+02  0.21569753287E+03 -0.49040372612E+03  0.56465689571E+03  0.17300000000E+03 0. -1.
         -6    1    1    2    0  501 -0.43441565222E+02 -0.21569753287E+03 -0.31612563112E+03  0.42222862282E+03  0.17300000000E+03 0.  1.
<mgrwt>
<rscale>  2 0.27989569E+03</rscale>
<asrwt>0</asrwt>
<pdfrwt beam="1">  1        1 0.13873551E-01 0.27989569E+03</pdfrwt>
<pdfrwt beam="2">  1       -1 0.13795499E+00 0.27989569E+03</pdfrwt>
<totfact> 0.19441028E+02</totfact>
</mgrwt>
</event>
<event>
 4    1  0.7368504E-001  0.2028573E+03  0.7546771E-02  0.1147350E+00
          1   -1    0    0  502    0  0.00000000000E+00  0.00000000000E+00  0.48322621786E+03  0.48322621786E+03  0.00000000000E+00 0. -1.
         -1   -1    0    0    0  501 -0.00000000000E+00 -0.00000000000E+00 -0.85588437365E+02  0.85588437365E+02  0.00000000000E+00 0.  1.
          6    1    1    2  502    0  0.72138571251E+02 -0.77576495465E+02  0.17867434912E+03  0.27032500651E+03  0.17300000000E+03 0. -1.
         -6    1    1    2    0  501 -0.72138571251E+02  0.77576495465E+02  0.21896343137E+03  0.29848964871E+03  0.17300000000E+03 0. -1.
<mgrwt>
<rscale>  2 0.20285730E+03</rscale>
<asrwt>0</asrwt>
<pdfrwt beam="1">  1        1 0.74342493E-01 0.20285730E+03</pdfrwt>
<pdfrwt beam="2">  1       -1 0.13167452E-01 0.20285730E+03</pdfrwt>
<totfact> 0.18568024E+03</totfact>
</mgrwt>
</event>
<event>
 4    1  0.7368504E-001  0.1914543E+03  0.7546771E-02  0.1157156E+00
         -2   -1    0    0    0  501 -0.00000000000E+00  0.00000000000E+00  0.25788755030E+03  0.25788755030E+03  0.00000000000E+00 0. -1.
          2   -1    0    0  502    0  0.00000000000E+00 -0.00000000000E+00 -0.14898751120E+03  0.14898751120E+03  0.00000000000E+00 0.  1.
          6    1    1    2  502    0  0.79002353493E+02 -0.22008393329E+02  0.98080903453E+02  0.21511532920E+03  0.17300000000E+03 0. -1.
         -6    1    1    2    0  501 -0.79002353493E+02  0.22008393329E+02  0.10819135643E+02  0.19175973230E+03  0.17300000000E+03 0.  1.
<mgrwt>
<rscale>  2 0.19145428E+03</rscale>
<asrwt>0</asrwt>
<pdfrwt beam="1">  1        2 0.22921156E-01 0.19145428E+03</pdfrwt>
<pdfrwt beam="2">  1       -2 0.39675008E-01 0.19145428E+03</pdfrwt>
<totfact> 0.14215752E+03</totfact>
</mgrwt>
</event>
<event>
 4    1  0.7368504E-001  0.1992910E+03  0.7546771E-02  0.1150339E+00
         -2   -1    0    0    0  501 -0.00000000000E+00  0.00000000000E+00  0.28502495895E+02  0.28502495895E+02  0.00000000000E+00 0.  1.
          2   -1    0    0  502    0  0.00000000000E+00 -0.00000000000E+00 -0.15920629465E+04  0.15920629465E+04  0.00000000000E+00 0. -1.
          6    1    1    2  502    0 -0.78468194641E+02  0.60254978540E+02 -0.49558937450E+03  0.53415891655E+03  0.17300000000E+03 0. -1.
         -6    1    1    2    0  501  0.78468194641E+02 -0.60254978540E+02 -0.10679710761E+04  0.10864065259E+04  0.17300000000E+03 0.  1.
<mgrwt>
<rscale>  2 0.19929104E+03</rscale>
<asrwt>0</asrwt>
<pdfrwt beam="1">  1        2 0.24493288E+00 0.19929104E+03</pdfrwt>
<pdfrwt beam="2">  1       -2 0.43849973E-02 0.19929104E+03</pdfrwt>
<totfact> 0.29115416E+03</totfact>
</mgrwt>
</event>
<event>
 4    1  0.7368504E-001  0.2742180E+03  0.7546771E-02  0.1098890E+00
          2   -1    0    0  502    0  0.00000000000E+00  0.00000000000E+00  0.32609204376E+03  0.32609204376E+03  0.00000000000E+00 0.  1.
         -2   -1    0    0    0  501 -0.00000000000E+00 -0.00000000000E+00 -0.23439326852E+03  0.23439326852E+03  0.00000000000E+00 0. -1.
          6    1    1    2  502    0 -0.20278844611E+03  0.64368903922E+02  0.81519074850E+02  0.28607843196E+03  0.17300000000E+03 0.  1.
         -6    1    1    2    0  501  0.20278844611E+03 -0.64368903922E+02  0.10179700389E+02  0.27440688032E+03  0.17300000000E+03 0. -1.
<mgrwt>
<rscale>  2 0.27421800E+03</rscale>
<asrwt>0</asrwt>
<pdfrwt beam="1">  1        2 0.50168007E-01 0.27421800E+03</pdfrwt>
<pdfrwt beam="2">  1       -2 0.36060503E-01 0.27421800E+03</pdfrwt>
<totfact> 0.72705860E+02</totfact>
</mgrwt>
</event>
<event>
 4    1  0.7368504E-001  0.1862628E+03  0.7546771E-02  0.1161876E+00
         -2   -1    0    0    0  501 -0.00000000000E+00  0.00000000000E+00  0.32220582482E+02  0.32220582482E+02  0.00000000000E+00 0.  1.
          2   -1    0    0  502    0  0.00000000000E+00 -0.00000000000E+00 -0.10895295365E+04  0.10895295365E+04  0.00000000000E+00 0. -1.
          6    1    1    2  502    0 -0.35762494232E+01 -0.68934969374E+02 -0.58937591084E+03  0.61810822988E+03  0.17300000000E+03 0. -1.
         -6    1    1    2    0  501  0.35762494232E+01  0.68934969374E+02 -0.46793304316E+03  0.50364188909E+03  0.17300000000E+03 0.  1.
<mgrwt>
<rscale>  2 0.18626277E+03</rscale>
<asrwt>0</asrwt>
<pdfrwt beam="1">  1        2 0.16761991E+00 0.18626277E+03</pdfrwt>
<pdfrwt beam="2">  1       -2 0.49570132E-02 0.18626277E+03</pdfrwt>
<totfact> 0.45482585E+03</totfact>
</mgrwt>
</event>
<event>
 4    1  0.7368504E-001  0.2104166E+03  0.7546771E-02  0.1141236E+00
          2   -1    0    0  502    0  0.00000000000E+00  0.00000000000E+00  0.10433886514E+04  0.10433886514E+04  0.00000000000E+00 0. -1.
         -2   -1    0    0    0  501 -0.00000000000E+00 -0.00000000000E+00 -0.61317859477E+02  0.61317859477E+02  0.00000000000E+00 0.  1.
          6    1    1    2  502    0 -0.11966958522E+03 -0.50351828640E+01  0.79756237826E+03  0.82485205335E+03  0.17300000000E+03 0.  1.
         -6    1    1    2    0  501  0.11966958522E+03  0.50351828640E+01  0.18450841370E+03  0.27985445756E+03  0.17300000000E+03 0.  1.
<mgrwt>
<rscale>  2 0.21041664E+03</rscale>
<asrwt>0</asrwt>
<pdfrwt beam="1">  1        2 0.16052132E+00 0.21041664E+03</pdfrwt>
<pdfrwt beam="2">  1       -2 0.94335176E-02 0.21041664E+03</pdfrwt>
<totfact> 0.17969893E+03</totfact>
</mgrwt>
</event>
<event>
 4    1  0.7368504E-001  0.2961973E+03  0.7546771E-02  0.1087157E+00
          2   -1    0    0  502    0  0.00000000000E+00  0.00000000000E+00  0.59840645199E+03  0.59840645199E+03  0.00000000000E+00 0.  1.
         -2   -1    0    0    0  501 -0.00000000000E+00 -0.00000000000E+00 -0.18363587639E+03  0.18363587639E+03  0.00000000000E+00 0. -1.
          6    1    1    2  502    0  0.22743692292E+03 -0.77950586572E+02  0.31807534349E+02  0.29790026367E+03  0.17300000000E+03 0. -1.
         -6    1    1    2    0  501 -0.22743692292E+03  0.77950586572E+02  0.38296304126E+03  0.48414206471E+03  0.17300000000E+03 0.  1.
<mgrwt>
<rscale>  2 0.29619731E+03</rscale>
<asrwt>0</asrwt>
<pdfrwt beam="1">  1        2 0.92062530E-01 0.29619731E+03</pdfrwt>
<pdfrwt beam="2">  1       -2 0.28251674E-01 0.29619731E+03</pdfrwt>
<totfact> 0.57977460E+02</totfact>
</mgrwt>
</event>
<event>
 4    1  0.7368504E-001  0.3203159E+03  0.7546771E-02  0.1075504E+00
         -2   -1    0    0    0  501 -0.00000000000E+00  0.00000000000E+00  0.47325877255E+02  0.47325877255E+02  0.00000000000E+00 0.  1.
          2   -1    0    0  502    0  0.00000000000E+00 -0.00000000000E+00 -0.23583836973E+04  0.23583836973E+04  0.00000000000E+00 0. -1.
          6    1    1    2  502    0  0.22028604794E+03  0.15539409401E+03 -0.81376476429E+03  0.87453722561E+03  0.17300000000E+03 0.  1.
         -6    1    1    2    0  501 -0.22028604794E+03 -0.15539409401E+03 -0.14972930557E+04  0.15311723489E+04  0.17300000000E+03 0. -1.
<mgrwt>
<rscale>  2 0.32031589E+03</rscale>
<asrwt>0</asrwt>
<pdfrwt beam="1">  1        2 0.36282831E+00 0.32031589E+03</pdfrwt>
<pdfrwt beam="2">  1       -2 0.72809031E-02 0.32031589E+03</pdfrwt>
<totfact> 0.52056128E+02</totfact>
</mgrwt>
</event>
<event>
 4    1  0.7368504E-001  0.1816010E+03  0.7546771E-02  0.1166262E+00
         -3   -1    0    0    0  501 -0.00000000000E+00  0.00000000000E+00  0.18265918565E+04  0.18265918565E+04  0.00000000000E+00 0.  1.
          3   -1    0    0  502    0  0.00000000000E+00 -0.00000000000E+00 -0.18162024629E+02  0.18162024629E+02  0.00000000000E+00 0. -1.
          6    1    1    2  502    0  0.12084486621E+01 -0.55212994146E+02  0.83337647101E+03  0.85293333708E+03  0.17300000000E+03 0. -1.
         -6    1    1    2    0  501 -0.12084486621E+01  0.55212994146E+02  0.97505336083E+03  0.99182054402E+03  0.17300000000E+03 0. -1.
<mgrwt>
<rscale>  2 0.18160103E+03</rscale>
<asrwt>0</asrwt>
<pdfrwt beam="1">  1        3 0.27941591E-02 0.18160103E+03</pdfrwt>
<pdfrwt beam="2">  1       -3 0.28101399E+00 0.18160103E+03</pdfrwt>
<totfact> 0.77611228E+01</totfact>
</mgrwt>
</event>
<event>
 4    1  0.7368504E-001  0.2006853E+03  0.7546771E-02  0.1149162E+00
          2   -1    0    0  502    0  0.00000000000E+00  0.00000000000E+00  0.52631404332E+03  0.52631404332E+03  0.00000000000E+00 0. -1.
         -2   -1    0    0    0  501 -0.00000000000E+00 -0.00000000000E+00 -0.78002858385E+02  0.78002858385E+02  0.00000000000E+00 0.  1.
          6    1    1    2  502    0 -0.49789398069E+01 -0.10159126572E+03  0.26578920373E+03  0.33304425521E+03  0.17300000000E+03 0.  1.
         -6    1    1    2    0  501  0.49789398069E+01  0.10159126572E+03  0.18252198121E+03  0.27127264649E+03  0.17300000000E+03 0. -1.
<mgrwt>
<rscale>  2 0.20068526E+03</rscale>
<asrwt>0</asrwt>
<pdfrwt beam="1">  1        2 0.80971389E-01 0.20068526E+03</pdfrwt>
<pdfrwt beam="2">  1       -2 0.12000440E-01 0.20068526E+03</pdfrwt>
<totfact> 0.28693414E+03</totfact>
</mgrwt>
</event>
<event>
 4    1  0.7368504E-001  0.3182762E+03  0.7546771E-02  0.1076445E+00
         -1   -1    0    0    0  501 -0.00000000000E+00  0.00000000000E+00  0.46717481732E+03  0.46717481732E+03  0.00000000000E+00 0.  1.
          1   -1    0    0  502    0  0.00000000000E+00 -0.00000000000E+00 -0.50925377294E+03  0.50925377294E+03  0.00000000000E+00 0. -1.
          6    1    1    2  502    0 -0.20845034743E+03 -0.16709043781E+03  0.34891316306E+03  0.47227127491E+03  0.17300000000E+03 0.  1.
         -6    1    1    2    0  501  0.20845034743E+03  0.16709043781E+03 -0.39099211868E+03  0.50415731535E+03  0.17300000000E+03 0. -1.
<mgrwt>
<rscale>  2 0.31827623E+03</rscale>
<asrwt>0</asrwt>
<pdfrwt beam="1">  1        1 0.78346735E-01 0.31827623E+03</pdfrwt>
<pdfrwt beam="2">  1       -1 0.71873049E-01 0.31827623E+03</pdfrwt>
<totfact> 0.89952548E+01</totfact>
</mgrwt>
</event>
<event>
 4    1  0.7368504E-001  0.2724043E+03  0.7546771E-02  0.1099911E+00
          2   -1    0    0  502    0  0.00000000000E+00  0.00000000000E+00  0.21666458073E+04  0.21666458073E+04  0.00000000000E+00 0. -1.
         -2   -1    0    0    0  501 -0.00000000000E+00 -0.00000000000E+00 -0.36713696141E+02  0.36713696141E+02  0.00000000000E+00 0.  1.
          6    1    1    2  502    0  0.31012670746E+02 -0.20811855049E+03  0.77948499444E+03  0.82571240354E+03  0.17300000000E+03 0. -1.
         -6    1    1    2    0  501 -0.31012670746E+02  0.20811855049E+03  0.13504471167E+04  0.13776470999E+04  0.17300000000E+03 0.  1.
<mgrwt>
<rscale>  2 0.27240433E+03</rscale>
<asrwt>0</asrwt>
<pdfrwt beam="1">  1        2 0.33333002E+00 0.27240433E+03</pdfrwt>
<pdfrwt beam="2">  1       -2 0.56482626E-02 0.27240433E+03</pdfrwt>
<totfact> 0.98512973E+02</totfact>
</mgrwt>
</event>
<event>
 4    1  0.7368504E-001  0.1970117E+03  0.7546771E-02  0.1152285E+00
         -1   -1    0    0    0  501 -0.00000000000E+00  0.00000000000E+00  0.79775866804E+02  0.79775866804E+02  0.00000000000E+00 0. -1.
          1   -1    0    0  502    0  0.00000000000E+00 -0.00000000000E+00 -0.53072173669E+03  0.53072173669E+03  0.00000000000E+00 0.  1.
          6    1    1    2  502    0  0.77087821188E+01  0.93942539828E+02 -0.13739356290E+03  0.24018871172E+03  0.17300000000E+03 0. -1.
         -6    1    1    2    0  501 -0.77087821188E+01 -0.93942539828E+02 -0.31355230698E+03  0.37030889177E+03  0.17300000000E+03 0.  1.
<mgrwt>
<rscale>  2 0.19701174E+03</rscale>
<asrwt>0</asrwt>
<pdfrwt beam="1">  1        1 0.81649497E-01 0.19701174E+03</pdfrwt>
<pdfrwt beam="2">  1       -1 0.12273210E-01 0.19701174E+03</pdfrwt>
<totfact> 0.18294359E+03</totfact>
</mgrwt>
</event>
<event>
 4    1  0.7368504E-001  0.1933441E+03  0.7546771E-02  0.1155479E+00
          2   -1    0    0  502    0  0.00000000000E+00  0.00000000000E+00  0.28991103622E+04  0.28991103622E+04  0.00000000000E+00 0. -1.
         -2   -1    0    0    0  501 -0.00000000000E+00 -0.00000000000E+00 -0.13139712319E+02  0.13139712319E+02  0.00000000000E+00 0.  1.
          6    1    1    2  502    0  0.81807338063E+02  0.27576959540E+02  0.12439752207E+04  0.12589107510E+04  0.17300000000E+03 0. -1.
         -6    1    1    2    0  501 -0.81807338063E+02 -0.27576959540E+02  0.16419954292E+04  0.16533393235E+04  0.17300000000E+03 0.  1.
<mgrwt>
<rscale>  2 0.19334407E+03</rscale>
<asrwt>0</asrwt>
<pdfrwt beam="1">  1        2 0.44601647E+00 0.19334407E+03</pdfrwt>
<pdfrwt beam="2">  1       -2 0.20214965E-02 0.19334407E+03</pdfrwt>
<totfact> 0.18377518E+03</totfact>
</mgrwt>
</event>
<event>
 4    1  0.7368504E-001  0.2314951E+03  0.7546771E-02  0.1125592E+00
          1   -1    0    0  502    0  0.00000000000E+00  0.00000000000E+00  0.56925027447E+03  0.56925027447E+03  0.00000000000E+00 0.  1.
         -1   -1    0    0    0  501 -0.00000000000E+00 -0.00000000000E+00 -0.13109318101E+03  0.13109318101E+03  0.00000000000E+00 0. -1.
          6    1    1    2  502    0  0.70927438405E+02  0.13649275246E+03  0.33165795323E+02  0.23385880991E+03  0.17300000000E+03 0. -1.
         -6    1    1    2    0  501 -0.70927438405E+02 -0.13649275246E+03  0.40499129814E+03  0.46648464558E+03  0.17300000000E+03 0.  1.
<mgrwt>
<rscale>  2 0.23149508E+03</rscale>
<asrwt>0</asrwt>
<pdfrwt beam="1">  1        1 0.87576964E-01 0.23149508E+03</pdfrwt>
<pdfrwt beam="2">  1       -1 0.20168182E-01 0.23149508E+03</pdfrwt>
<totfact> 0.75579211E+02</totfact>
</mgrwt>
</event>
<event>
 4    1  0.7368504E-001  0.1746383E+03  0.7546771E-02  0.1173095E+00
         -2   -1    0    0    0  501 -0.00000000000E+00  0.00000000000E+00  0.10136182151E+02  0.10136182151E+02  0.00000000000E+00 0.  1.
          2   -1    0    0  502    0  0.00000000000E+00 -0.00000000000E+00 -0.30121084581E+04  0.30121084581E+04  0.00000000000E+00 0. -1.
          6    1    1    2  502    0  0.23732210795E+02  0.25104836416E+01 -0.15504851602E+04  0.15602893169E+04  0.17300000000E+03 0. -1.
         -6    1    1    2    0  501 -0.23732210795E+02 -0.25104836416E+01 -0.14514871157E+04  0.14619553233E+04  0.17300000000E+03 0. -1.
<mgrwt>
<rscale>  2 0.17463826E+03</rscale>
<asrwt>0</asrwt>
<pdfrwt beam="1">  1        2 0.46340183E+00 0.17463826E+03</pdfrwt>
<pdfrwt beam="2">  1       -2 0.15594109E-02 0.17463826E+03</pdfrwt>
<totfact> 0.23145718E+03</totfact>
</mgrwt>
</event>
<event>
 4    1  0.7368504E-001  0.2197738E+03  0.7546771E-02  0.1134052E+00
          2   -1    0    0  502    0  0.00000000000E+00  0.00000000000E+00  0.97406514456E+02  0.97406514456E+02  0.00000000000E+00 0. -1.
         -2   -1    0    0    0  501 -0.00000000000E+00 -0.00000000000E+00 -0.50912703663E+03  0.50912703663E+03  0.00000000000E+00 0.  1.
          6    1    1    2  502    0  0.10340581517E+03 -0.87628589500E+02 -0.25480525612E+03  0.33649108585E+03  0.17300000000E+03 0.  1.
         -6    1    1    2    0  501 -0.10340581517E+03  0.87628589500E+02 -0.15691526605E+03  0.27004246524E+03  0.17300000000E+03 0. -1.
<mgrwt>
<rscale>  2 0.21977382E+03</rscale>
<asrwt>0</asrwt>
<pdfrwt beam="1">  1        2 0.14985617E-01 0.21977382E+03</pdfrwt>
<pdfrwt beam="2">  1       -2 0.78327238E-01 0.21977382E+03</pdfrwt>
<totfact> 0.58107224E+02</totfact>
</mgrwt>
</event>
<event>
 4    1  0.7368504E-001  0.2110581E+03  0.7546771E-02  0.1140731E+00
          2   -1    0    0  502    0  0.00000000000E+00  0.00000000000E+00  0.18797376822E+04  0.18797376822E+04  0.00000000000E+00 0. -1.
         -2   -1    0    0    0  501 -0.00000000000E+00 -0.00000000000E+00 -0.23782299854E+02  0.23782299854E+02  0.00000000000E+00 0.  1.
          6    1    1    2  502    0  0.89893242193E+02 -0.80843722457E+02  0.87121971485E+03  0.89642026639E+03  0.17300000000E+03 0.  1.
         -6    1    1    2    0  501 -0.89893242193E+02  0.80843722457E+02  0.98473566751E+03  0.10070997157E+04  0.17300000000E+03 0. -1.
<mgrwt>
<rscale>  2 0.21105805E+03</rscale>
<asrwt>0</asrwt>
<pdfrwt beam="1">  1        2 0.28919030E+00 0.21105805E+03</pdfrwt>
<pdfrwt beam="2">  1       -2 0.36588168E-02 0.21105805E+03</pdfrwt>
<totfact> 0.27051167E+03</totfact>
</mgrwt>
</event>
<event>
 4    1  0.7368504E-001  0.2205164E+03  0.7546771E-02  0.1133499E+00
         -2   -1    0    0    0  501 -0.00000000000E+00  0.00000000000E+00  0.35624376303E+03  0.35624376303E+03  0.00000000000E+00 0.  1.
          2   -1    0    0  502    0  0.00000000000E+00 -0.00000000000E+00 -0.19460761726E+03  0.19460761726E+03  0.00000000000E+00 0. -1.
          6    1    1    2  502    0  0.20632849617E+02 -0.13517683355E+03  0.23131886452E+03  0.31958708969E+03  0.17300000000E+03 0.  1.
         -6    1    1    2    0  501 -0.20632849617E+02  0.13517683355E+03 -0.69682718761E+02  0.23126429060E+03  0.17300000000E+03 0. -1.
<mgrwt>
<rscale>  2 0.22051642E+03</rscale>
<asrwt>0</asrwt>
<pdfrwt beam="1">  1        2 0.29939633E-01 0.22051642E+03</pdfrwt>
<pdfrwt beam="2">  1       -2 0.54806733E-01 0.22051642E+03</pdfrwt>
<totfact> 0.56125664E+02</totfact>
</mgrwt>
</event>
<event>
 4    1  0.7368504E-001  0.1830301E+03  0.7546771E-02  0.1164902E+00
         -1   -1    0    0    0  501 -0.00000000000E+00  0.00000000000E+00  0.11875390716E+04  0.11875390716E+04  0.00000000000E+00 0. -1.
          1   -1    0    0  502    0  0.00000000000E+00 -0.00000000000E+00 -0.38345823962E+02  0.38345823962E+02  0.00000000000E+00 0.  1.
          6    1    1    2  502    0  0.28468869443E+00 -0.59757441209E+02  0.25946048644E+03  0.31752130141E+03  0.17300000000E+03 0. -1.
         -6    1    1    2    0  501 -0.28468869443E+00  0.59757441209E+02  0.88973276122E+03  0.90836359417E+03  0.17300000000E+03 0. -1.
<mgrwt>
<rscale>  2 0.18303014E+03</rscale>
<asrwt>0</asrwt>
<pdfrwt beam="1">  1        1 0.58993584E-02 0.18303014E+03</pdfrwt>
<pdfrwt beam="2">  1       -1 0.18269829E+00 0.18303014E+03</pdfrwt>
<totfact> 0.29065878E+02</totfact>
</mgrwt>
</event>
<event>
 4    1  0.7368504E-001  0.1836618E+03  0.7546771E-02  0.1164305E+00
          2   -1    0    0  502    0  0.00000000000E+00  0.00000000000E+00  0.21375180654E+04  0.21375180654E+04  0.00000000000E+00 0. -1.
         -2   -1    0    0    0  501 -0.00000000000E+00 -0.00000000000E+00 -0.16963617879E+02  0.16963617879E+02  0.00000000000E+00 0.  1.
          6    1    1    2  502    0  0.57484839129E+02  0.22319233902E+02  0.13447366000E+04  0.13572207551E+04  0.17300000000E+03 0.  1.
         -6    1    1    2    0  501 -0.57484839129E+02 -0.22319233902E+02  0.77581784759E+03  0.79726092816E+03  0.17300000000E+03 0.  1.
<mgrwt>
<rscale>  2 0.18366179E+03</rscale>
<asrwt>0</asrwt>
<pdfrwt beam="1">  1        2 0.32884872E+00 0.18366179E+03</pdfrwt>
<pdfrwt beam="2">  1       -2 0.26097891E-02 0.18366179E+03</pdfrwt>
<totfact> 0.32824948E+03</totfact>
</mgrwt>
</event>
<event>
 4    1  0.7368504E-001  0.2222103E+03  0.7546771E-02  0.1132246E+00
         -2   -1    0    0    0  501 -0.00000000000E+00  0.00000000000E+00  0.44476119167E+02  0.44476119167E+02  0.00000000000E+00 0. -1.
          2   -1    0    0  502    0  0.00000000000E+00 -0.00000000000E+00 -0.11112159077E+04  0.11112159077E+04  0.00000000000E+00 0.  1.
          6    1    1    2  502    0 -0.32358284870E+02  0.13565158185E+03 -0.51590239982E+03  0.56172297122E+03  0.17300000000E+03 0.  1.
         -6    1    1    2    0  501  0.32358284870E+02 -0.13565158185E+03 -0.55083738871E+03  0.59396905564E+03  0.17300000000E+03 0.  1.
<mgrwt>
<rscale>  2 0.22221028E+03</rscale>
<asrwt>0</asrwt>
<pdfrwt beam="1">  1        2 0.17095628E+00 0.22221028E+03</pdfrwt>
<pdfrwt beam="2">  1       -2 0.68424802E-02 0.22221028E+03</pdfrwt>
<totfact> 0.27080680E+03</totfact>
</mgrwt>
</event>
<event>
 4    1  0.7368504E-001  0.4024843E+03  0.7546771E-02  0.1042923E+00
          2   -1    0    0  502    0  0.00000000000E+00  0.00000000000E+00  0.11241047881E+04  0.11241047881E+04  0.00000000000E+00 0.  1.
         -2   -1    0    0    0  501 -0.00000000000E+00 -0.00000000000E+00 -0.18887409339E+03  0.18887409339E+03  0.00000000000E+00 0. -1.
          6    1    1    2  502    0 -0.30421929947E+03  0.19878428172E+03  0.78721881772E+03  0.88414197943E+03  0.17300000000E+03 0.  1.
         -6    1    1    2    0  501  0.30421929947E+03 -0.19878428172E+03  0.14801187699E+03  0.42883690205E+03  0.17300000000E+03 0. -1.
<mgrwt>
<rscale>  2 0.40248425E+03</rscale>
<asrwt>0</asrwt>
<pdfrwt beam="1">  1        2 0.17293919E+00 0.40248425E+03</pdfrwt>
<pdfrwt beam="2">  1       -2 0.29057554E-01 0.40248425E+03</pdfrwt>
<totfact> 0.23781221E+02</totfact>
</mgrwt>
</event>
<event>
 4    1  0.7368504E-001  0.2312458E+03  0.7546771E-02  0.1125766E+00
          1   -1    0    0  502    0  0.00000000000E+00  0.00000000000E+00  0.10654993785E+03  0.10654993785E+03  0.00000000000E+00 0.  1.
         -1   -1    0    0    0  501 -0.00000000000E+00 -0.00000000000E+00 -0.51280708375E+03  0.51280708375E+03  0.00000000000E+00 0. -1.
          6    1    1    2  502    0 -0.50033635125E+02 -0.14505953612E+03 -0.24834614457E+03  0.33933824009E+03  0.17300000000E+03 0.  1.
         -6    1    1    2    0  501  0.50033635125E+02  0.14505953612E+03 -0.15791100133E+03  0.28001878152E+03  0.17300000000E+03 0.  1.
<mgrwt>
<rscale>  2 0.23124583E+03</rscale>
<asrwt>0</asrwt>
<pdfrwt beam="1">  1        1 0.16392298E-01 0.23124583E+03</pdfrwt>
<pdfrwt beam="2">  1       -1 0.78893397E-01 0.23124583E+03</pdfrwt>
<totfact> 0.55739173E+02</totfact>
</mgrwt>
</event>
<event>
 4    1  0.7368504E-001  0.1795804E+03  0.7546771E-02  0.1168210E+00
         -2   -1    0    0    0  501 -0.00000000000E+00  0.00000000000E+00  0.10969864030E+02  0.10969864030E+02  0.00000000000E+00 0. -1.
          2   -1    0    0  502    0  0.00000000000E+00 -0.00000000000E+00 -0.29762328974E+04  0.29762328974E+04  0.00000000000E+00 0.  1.
          6    1    1    2  502    0 -0.32654753670E+02  0.35408931131E+02 -0.13173622594E+04  0.13295459555E+04  0.17300000000E+03 0.  1.
         -6    1    1    2    0  501  0.32654753670E+02 -0.35408931131E+02 -0.16479007741E+04  0.16576568060E+04  0.17300000000E+03 0. -1.
<mgrwt>
<rscale>  2 0.17958041E+03</rscale>
<asrwt>0</asrwt>
<pdfrwt beam="1">  1        2 0.45788258E+00 0.17958041E+03</pdfrwt>
<pdfrwt beam="2">  1       -2 0.16876692E-02 0.17958041E+03</pdfrwt>
<totfact> 0.21634705E+03</totfact>
</mgrwt>
</event>
<event>
 4    1  0.7368504E-001  0.1778623E+03  0.7546771E-02  0.1169888E+00
         -1   -1    0    0    0  501 -0.00000000000E+00  0.00000000000E+00  0.52021106026E+03  0.52021106026E+03  0.00000000000E+00 0. -1.
          1   -1    0    0  502    0  0.00000000000E+00 -0.00000000000E+00 -0.68777739136E+02  0.68777739136E+02  0.00000000000E+00 0.  1.
          6    1    1    2  502    0 -0.81178132597E+00  0.41295762665E+02  0.32594028740E+03  0.37131128444E+03  0.17300000000E+03 0. -1.
         -6    1    1    2    0  501  0.81178132597E+00 -0.41295762665E+02  0.12549303372E+03  0.21767751495E+03  0.17300000000E+03 0.  1.
<mgrwt>
<rscale>  2 0.17786230E+03</rscale>
<asrwt>0</asrwt>
<pdfrwt beam="1">  1        1 0.10581191E-01 0.17786230E+03</pdfrwt>
<pdfrwt beam="2">  1       -1 0.80032468E-01 0.17786230E+03</pdfrwt>
<totfact> 0.96140904E+02</totfact>
</mgrwt>
</event>
<event>
 4    1  0.7368504E-001  0.1757470E+03  0.7546771E-02  0.1171984E+00
         -2   -1    0    0    0  501 -0.00000000000E+00  0.00000000000E+00  0.24758246743E+03  0.24758246743E+03  0.00000000000E+00 0. -1.
          2   -1    0    0  502    0  0.00000000000E+00 -0.00000000000E+00 -0.13318025420E+03  0.13318025420E+03  0.00000000000E+00 0.  1.
          6    1    1    2  502    0 -0.30542512872E+02 -0.50168260897E+01  0.10508729654E+03  0.20476902483E+03  0.17300000000E+03 0. -1.
         -6    1    1    2    0  501  0.30542512872E+02  0.50168260897E+01  0.93149166869E+01  0.17599369679E+03  0.17300000000E+03 0.  1.
<mgrwt>
<rscale>  2 0.17574702E+03</rscale>
<asrwt>0</asrwt>
<pdfrwt beam="1">  1        2 0.20489270E-01 0.17574702E+03</pdfrwt>
<pdfrwt beam="2">  1       -2 0.38089610E-01 0.17574702E+03</pdfrwt>
<totfact> 0.17381384E+03</totfact>
</mgrwt>
</event>
<event>
 4    1  0.7368504E-001  0.2574262E+03  0.7546771E-02  0.1108700E+00
          2   -1    0    0  502    0  0.00000000000E+00  0.00000000000E+00  0.13454583853E+04  0.13454583853E+04  0.00000000000E+00 0. -1.
         -2   -1    0    0    0  501 -0.00000000000E+00 -0.00000000000E+00 -0.62390510768E+02  0.62390510768E+02  0.00000000000E+00 0.  1.
          6    1    1    2  502    0 -0.17995358961E+03 -0.62896438872E+02  0.31852207366E+03  0.40954189999E+03  0.17300000000E+03 0.  1.
         -6    1    1    2    0  501  0.17995358961E+03  0.62896438872E+02  0.96454580085E+03  0.99830699605E+03  0.17300000000E+03 0. -1.
<mgrwt>
<rscale>  2 0.25742622E+03</rscale>
<asrwt>0</asrwt>
<pdfrwt beam="1">  1        2 0.20699358E+00 0.25742622E+03</pdfrwt>
<pdfrwt beam="2">  1       -2 0.95985412E-02 0.25742622E+03</pdfrwt>
<totfact> 0.11755480E+03</totfact>
</mgrwt>
</event>
<event>
 4    1  0.7368504E-001  0.2559334E+03  0.7546771E-02  0.1109611E+00
         -2   -1    0    0    0  501 -0.00000000000E+00  0.00000000000E+00  0.18276363410E+02  0.18276363410E+02  0.00000000000E+00 0.  1.
          2   -1    0    0  502    0  0.00000000000E+00 -0.00000000000E+00 -0.40141322546E+04  0.40141322546E+04  0.00000000000E+00 0. -1.
          6    1    1    2  502    0 -0.17558489885E+03 -0.68868384690E+02 -0.26579456681E+04  0.26702391439E+04  0.17300000000E+03 0. -1.
         -6    1    1    2    0  501  0.17558489885E+03  0.68868384690E+02 -0.13379102230E+04  0.13621694740E+04  0.17300000000E+03 0.  1.
<mgrwt>
<rscale>  2 0.25593341E+03</rscale>
<asrwt>0</asrwt>
<pdfrwt beam="1">  1        2 0.61755939E+00 0.25593341E+03</pdfrwt>
<pdfrwt beam="2">  1       -2 0.28117456E-02 0.25593341E+03</pdfrwt>
<totfact> 0.20473461E+02</totfact>
</mgrwt>
</event>
<event>
 4    1  0.7368504E-001  0.1732389E+03  0.7546771E-02  0.1174512E+00
          1   -1    0    0  502    0  0.00000000000E+00  0.00000000000E+00  0.45229678922E+02  0.45229678922E+02  0.00000000000E+00 0.  1.
         -1   -1    0    0    0  501 -0.00000000000E+00 -0.00000000000E+00 -0.66743413634E+03  0.66743413634E+03  0.00000000000E+00 0. -1.
          6    1    1    2  502    0 -0.66671173251E+00 -0.90710063214E+01 -0.28388628501E+03  0.33257051956E+03  0.17300000000E+03 0.  1.
         -6    1    1    2    0  501  0.66671173251E+00  0.90710063214E+01 -0.33831817240E+03  0.38009329570E+03  0.17300000000E+03 0. -1.
<mgrwt>
<rscale>  2 0.17323893E+03</rscale>
<asrwt>0</asrwt>
<pdfrwt beam="1">  1        1 0.69584127E-02 0.17323893E+03</pdfrwt>
<pdfrwt beam="2">  1       -1 0.10268217E+00 0.17323893E+03</pdfrwt>
<totfact> 0.99042997E+02</totfact>
</mgrwt>
</event>
<event>
 4    1  0.7368504E-001  0.2007442E+03  0.7546771E-02  0.1149113E+00
          2   -1    0    0  502    0  0.00000000000E+00  0.00000000000E+00  0.29356112957E+04  0.29356112957E+04  0.00000000000E+00 0. -1.
         -2   -1    0    0    0  501 -0.00000000000E+00 -0.00000000000E+00 -0.13739043554E+02  0.13739043554E+02  0.00000000000E+00 0.  1.
          6    1    1    2  502    0  0.25335742454E+02 -0.98627310693E+02  0.14179658016E+04  0.14321051850E+04  0.17300000000E+03 0. -1.
         -6    1    1    2    0  501 -0.25335742454E+02  0.98627310693E+02  0.15039064505E+04  0.15172451543E+04  0.17300000000E+03 0. -1.
<mgrwt>
<rscale>  2 0.20074423E+03</rscale>
<asrwt>0</asrwt>
<pdfrwt beam="1">  1        2 0.45163201E+00 0.20074423E+03</pdfrwt>
<pdfrwt beam="2">  1       -2 0.21137013E-02 0.20074423E+03</pdfrwt>
<totfact> 0.16378632E+03</totfact>
</mgrwt>
</event>
<event>
 4    1  0.7368504E-001  0.1889578E+03  0.7546771E-02  0.1159405E+00
          4   -1    0    0  502    0  0.00000000000E+00  0.00000000000E+00  0.10570009468E+03  0.10570009468E+03  0.00000000000E+00 0. -1.
         -4   -1    0    0    0  501 -0.00000000000E+00 -0.00000000000E+00 -0.46637315490E+03  0.46637315490E+03  0.00000000000E+00 0.  1.
          6    1    1    2  502    0  0.66646740198E+02  0.36527374010E+02 -0.33052524195E+03  0.38072558700E+03  0.17300000000E+03 0. -1.
         -6    1    1    2    0  501 -0.66646740198E+02 -0.36527374010E+02 -0.30147818269E+02  0.19134766259E+03  0.17300000000E+03 0.  1.
<mgrwt>
<rscale>  2 0.18895777E+03</rscale>
<asrwt>0</asrwt>
<pdfrwt beam="1">  1        4 0.16261553E-01 0.18895777E+03</pdfrwt>
<pdfrwt beam="2">  1       -4 0.71749717E-01 0.18895777E+03</pdfrwt>
<totfact> 0.10413104E+02</totfact>
</mgrwt>
</event>
<event>
 4    1  0.7368504E-001  0.3004685E+03  0.7546771E-02  0.1085007E+00
          1   -1    0    0  502    0  0.00000000000E+00  0.00000000000E+00  0.17694226995E+04  0.17694226995E+04  0.00000000000E+00 0.  1.
         -1   -1    0    0    0  501 -0.00000000000E+00 -0.00000000000E+00 -0.53619035113E+02  0.53619035113E+02  0.00000000000E+00 0. -1.
          6    1    1    2  502    0  0.68970402762E+02  0.23578680773E+03  0.10584684179E+04  0.11002893832E+04  0.17300000000E+03 0. -1.
         -6    1    1    2    0  501 -0.68970402762E+02 -0.23578680773E+03  0.65733524651E+03  0.72275235140E+03  0.17300000000E+03 0.  1.
<mgrwt>
<rscale>  2 0.30046853E+03</rscale>
<asrwt>0</asrwt>
<pdfrwt beam="1">  1        1 0.27221883E+00 0.30046853E+03</pdfrwt>
<pdfrwt beam="2">  1       -1 0.82490837E-02 0.30046853E+03</pdfrwt>
<totfact> 0.38999868E+02</totfact>
</mgrwt>
</event>
<event>
 4    1  0.7368504E-001  0.2260780E+03  0.7546771E-02  0.1129431E+00
         -1   -1    0    0    0  501 -0.00000000000E+00  0.00000000000E+00  0.22011637866E+03  0.22011637866E+03  0.00000000000E+00 0. -1.
          1   -1    0    0  502    0  0.00000000000E+00 -0.00000000000E+00 -0.24154855105E+03  0.24154855105E+03  0.00000000000E+00 0.  1.
          6    1    1    2  502    0 -0.51946144841E+02 -0.13595536615E+03  0.34692862812E+02  0.22872441557E+03  0.17300000000E+03 0. -1.
         -6    1    1    2    0  501  0.51946144841E+02  0.13595536615E+03 -0.56125035203E+02  0.23294051413E+03  0.17300000000E+03 0.  1.
<mgrwt>
<rscale>  2 0.22607800E+03</rscale>
<asrwt>0</asrwt>
<pdfrwt beam="1">  1        1 0.37161315E-01 0.22607800E+03</pdfrwt>
<pdfrwt beam="2">  1       -1 0.33864058E-01 0.22607800E+03</pdfrwt>
<totfact> 0.95557052E+02</totfact>
</mgrwt>
</event>
<event>
 4    1  0.7368504E-001  0.2730916E+03  0.7546771E-02  0.1099523E+00
          2   -1    0    0  502    0  0.00000000000E+00  0.00000000000E+00  0.50547674725E+03  0.50547674725E+03  0.00000000000E+00 0.  1.
         -2   -1    0    0    0  501 -0.00000000000E+00 -0.00000000000E+00 -0.15816150582E+03  0.15816150582E+03  0.00000000000E+00 0. -1.
          6    1    1    2  502    0 -0.87498204981E+02 -0.19233839879E+03  0.87676047466E+02  0.28682064923E+03  0.17300000000E+03 0. -1.
         -6    1    1    2    0  501  0.87498204981E+02  0.19233839879E+03  0.25963919396E+03  0.37681760384E+03  0.17300000000E+03 0.  1.
<mgrwt>
<rscale>  2 0.27309155E+03</rscale>
<asrwt>0</asrwt>
<pdfrwt beam="1">  1        2 0.77765652E-01 0.27309155E+03</pdfrwt>
<pdfrwt beam="2">  1       -2 0.24332540E-01 0.27309155E+03</pdfrwt>
<totfact> 0.91913092E+02</totfact>
</mgrwt>
</event>
<event>
 4    1  0.7368504E-001  0.1801331E+03  0.7546771E-02  0.1167674E+00
         -2   -1    0    0    0  501 -0.00000000000E+00  0.00000000000E+00  0.12948720168E+02  0.12948720168E+02  0.00000000000E+00 0.  1.
          2   -1    0    0  502    0  0.00000000000E+00 -0.00000000000E+00 -0.26022648231E+04  0.26022648231E+04  0.00000000000E+00 0. -1.
          6    1    1    2  502    0 -0.37236847340E+02 -0.33650471955E+02 -0.10430027629E+04  0.10584435273E+04  0.17300000000E+03 0.  1.
         -6    1    1    2    0  501  0.37236847340E+02  0.33650471955E+02 -0.15463133401E+04  0.15567700160E+04  0.17300000000E+03 0. -1.
<mgrwt>
<rscale>  2 0.18013311E+03</rscale>
<asrwt>0</asrwt>
<pdfrwt beam="1">  1        2 0.40034853E+00 0.18013311E+03</pdfrwt>
<pdfrwt beam="2">  1       -2 0.19921103E-02 0.18013311E+03</pdfrwt>
<totfact> 0.27590962E+03</totfact>
</mgrwt>
</event>
<event>
 4    1  0.7368504E-001  0.2699313E+03  0.7546771E-02  0.1101319E+00
          2   -1    0    0  502    0  0.00000000000E+00  0.00000000000E+00  0.55624330676E+03  0.55624330676E+03  0.00000000000E+00 0. -1.
         -2   -1    0    0    0  501 -0.00000000000E+00 -0.00000000000E+00 -0.13213252005E+03  0.13213252005E+03  0.00000000000E+00 0.  1.
          6    1    1    2  502    0 -0.16378839797E+03 -0.12691437564E+03  0.18006482863E+03  0.32447841309E+03  0.17300000000E+03 0.  1.
         -6    1    1    2    0  501  0.16378839797E+03  0.12691437564E+03  0.24404595808E+03  0.36389741371E+03  0.17300000000E+03 0. -1.
<mgrwt>
<rscale>  2 0.26993128E+03</rscale>
<asrwt>0</asrwt>
<pdfrwt beam="1">  1        2 0.85575892E-01 0.26993128E+03</pdfrwt>
<pdfrwt beam="2">  1       -2 0.20328080E-01 0.26993128E+03</pdfrwt>
<totfact> 0.11275840E+03</totfact>
</mgrwt>
</event>
<event>
 4    1  0.7368504E-001  0.1867146E+03  0.7546771E-02  0.1161458E+00
          4   -1    0    0  502    0  0.00000000000E+00  0.00000000000E+00  0.24857062377E+02  0.24857062377E+02  0.00000000000E+00 0. -1.
         -4   -1    0    0    0  501 -0.00000000000E+00 -0.00000000000E+00 -0.15490290219E+04  0.15490290219E+04  0.00000000000E+00 0.  1.
          6    1    1    2  502    0 -0.70054247294E+02 -0.50726112766E+01 -0.52006248749E+03  0.55256431286E+03  0.17300000000E+03 0. -1.
         -6    1    1    2    0  501  0.70054247294E+02  0.50726112766E+01 -0.10041094720E+04  0.10213217714E+04  0.17300000000E+03 0.  1.
<mgrwt>
<rscale>  2 0.18671457E+03</rscale>
<asrwt>0</asrwt>
<pdfrwt beam="1">  1        4 0.38241634E-02 0.18671457E+03</pdfrwt>
<pdfrwt beam="2">  1       -4 0.23831216E+00 0.18671457E+03</pdfrwt>
<totfact> 0.55151235E+01</totfact>
</mgrwt>
</event>
<event>
 4    1  0.7368504E-001  0.2451463E+03  0.7546771E-02  0.1116411E+00
         -1   -1    0    0    0  501 -0.00000000000E+00  0.00000000000E+00  0.93094731870E+03  0.93094731870E+03  0.00000000000E+00 0.  1.
          1   -1    0    0  502    0  0.00000000000E+00 -0.00000000000E+00 -0.79418046630E+02  0.79418046630E+02  0.00000000000E+00 0. -1.
          6    1    1    2  502    0  0.15721005797E+03  0.73842504727E+02  0.64431522231E+03  0.68937567664E+03  0.17300000000E+03 0.  1.
         -6    1    1    2    0  501 -0.15721005797E+03 -0.73842504727E+02  0.20721404976E+03  0.32098968870E+03  0.17300000000E+03 0. -1.
<mgrwt>
<rscale>  2 0.24514632E+03</rscale>
<asrwt>0</asrwt>
<pdfrwt beam="1">  1        1 0.12218162E-01 0.24514632E+03</pdfrwt>
<pdfrwt beam="2">  1       -1 0.14322266E+00 0.24514632E+03</pdfrwt>
<totfact> 0.20975122E+02</totfact>
</mgrwt>
</event>
<event>
 4    1  0.7368504E-001  0.1811216E+03  0.7546771E-02  0.1166722E+00
          2   -1    0    0  502    0  0.00000000000E+00  0.00000000000E+00  0.37261885769E+03  0.37261885769E+03  0.00000000000E+00 0. -1.
         -2   -1    0    0    0  501 -0.00000000000E+00 -0.00000000000E+00 -0.94550474589E+02  0.94550474589E+02  0.00000000000E+00 0.  1.
          6    1    1    2  502    0 -0.26327659093E+01 -0.53563967952E+02  0.77735853212E+02  0.19709868846E+03  0.17300000000E+03 0. -1.
         -6    1    1    2    0  501  0.26327659093E+01  0.53563967952E+02  0.20033252989E+03  0.27007064381E+03  0.17300000000E+03 0. -1.
<mgrwt>
<rscale>  2 0.18112159E+03</rscale>
<asrwt>0</asrwt>
<pdfrwt beam="1">  1        2 0.57325977E-01 0.18112159E+03</pdfrwt>
<pdfrwt beam="2">  1       -2 0.14546227E-01 0.18112159E+03</pdfrwt>
<totfact> 0.30527143E+03</totfact>
</mgrwt>
</event>
<event>
 4    1  0.7368504E-001  0.1730225E+03  0.7546771E-02  0.1174732E+00
          2   -1    0    0  502    0  0.00000000000E+00  0.00000000000E+00  0.12582232838E+04  0.12582232838E+04  0.00000000000E+00 0.  1.
         -2   -1    0    0    0  501 -0.00000000000E+00 -0.00000000000E+00 -0.25192558077E+02  0.25192558077E+02  0.00000000000E+00 0. -1.
          6    1    1    2  502    0 -0.18948200632E+01 -0.20452532065E+01  0.46525917474E+03  0.49638983983E+03  0.17300000000E+03 0. -1.
         -6    1    1    2    0  501  0.18948200632E+01  0.20452532065E+01  0.76777155098E+03  0.78702600204E+03  0.17300000000E+03 0.  1.
<mgrwt>
<rscale>  2 0.17302247E+03</rscale>
<asrwt>0</asrwt>
<pdfrwt beam="1">  1        2 0.19357276E+00 0.17302247E+03</pdfrwt>
<pdfrwt beam="2">  1       -2 0.38757791E-02 0.17302247E+03</pdfrwt>
<totfact> 0.52741139E+03</totfact>
</mgrwt>
</event>
<event>
 4    1  0.7368504E-001  0.2134097E+03  0.7546771E-02  0.1138894E+00
          2   -1    0    0  502    0  0.00000000000E+00  0.00000000000E+00  0.27517695176E+04  0.27517695176E+04  0.00000000000E+00 0. -1.
         -2   -1    0    0    0  501 -0.00000000000E+00 -0.00000000000E+00 -0.21922599179E+02  0.21922599179E+02  0.00000000000E+00 0.  1.
          6    1    1    2  502    0  0.11944370483E+03  0.36713920468E+02  0.67841454858E+03  0.71118915227E+03  0.17300000000E+03 0.  1.
         -6    1    1    2    0  501 -0.11944370483E+03 -0.36713920468E+02  0.20514323698E+04  0.20625029645E+04  0.17300000000E+03 0. -1.
<mgrwt>
<rscale>  2 0.21340972E+03</rscale>
<asrwt>0</asrwt>
<pdfrwt beam="1">  1        2 0.42334888E+00 0.21340972E+03</pdfrwt>
<pdfrwt beam="2">  1       -2 0.33727097E-02 0.21340972E+03</pdfrwt>
<totfact> 0.10422782E+03</totfact>
</mgrwt>
</event>
<event>
 4    1  0.7368504E-001  0.1861958E+03  0.7546771E-02  0.1161938E+00
          2   -1    0    0  502    0  0.00000000000E+00  0.00000000000E+00  0.20565926900E+04  0.20565926900E+04  0.00000000000E+00 0.  1.
         -2   -1    0    0    0  501 -0.00000000000E+00 -0.00000000000E+00 -0.30280044000E+02  0.30280044000E+02  0.00000000000E+00 0. -1.
          6    1    1    2  502    0  0.14888523725E+02  0.67217686875E+02  0.17078704417E+04  0.17179902012E+04  0.17300000000E+03 0.  1.
         -6    1    1    2    0  501 -0.14888523725E+02 -0.67217686875E+02  0.31844220425E+03  0.36888253281E+03  0.17300000000E+03 0. -1.
<mgrwt>
<rscale>  2 0.18619583E+03</rscale>
<asrwt>0</asrwt>
<pdfrwt beam="1">  1        2 0.31639877E+00 0.18619583E+03</pdfrwt>
<pdfrwt beam="2">  1       -2 0.46584699E-02 0.18619583E+03</pdfrwt>
<totfact> 0.15254829E+03</totfact>
</mgrwt>
</event>
<event>
 4    1  0.7368504E-001  0.1951917E+03  0.7546771E-02  0.1153860E+00
         -2   -1    0    0    0  501 -0.00000000000E+00  0.00000000000E+00  0.33449991757E+02  0.33449991757E+02  0.00000000000E+00 0.  1.
          2   -1    0    0  502    0  0.00000000000E+00 -0.00000000000E+00 -0.17255534582E+04  0.17255534582E+04  0.00000000000E+00 0. -1.
          6    1    1    2  502    0  0.86729427196E+02  0.25471449544E+02 -0.33328062746E+03  0.38623278593E+03  0.17300000000E+03 0.  1.
         -6    1    1    2    0  501 -0.86729427196E+02 -0.25471449544E+02 -0.13588228389E+04  0.13727706640E+04  0.17300000000E+03 0. -1.
<mgrwt>
<rscale>  2 0.19519167E+03</rscale>
<asrwt>0</asrwt>
<pdfrwt beam="1">  1        2 0.26546976E+00 0.19519167E+03</pdfrwt>
<pdfrwt beam="2">  1       -2 0.51461526E-02 0.19519167E+03</pdfrwt>
<totfact> 0.19471522E+03</totfact>
</mgrwt>
</event>
<event>
 4    1  0.7368504E-001  0.1997077E+03  0.7546771E-02  0.1149986E+00
         -2   -1    0    0    0  501 -0.00000000000E+00  0.00000000000E+00  0.49813643826E+02  0.49813643826E+02  0.00000000000E+00 0.  1.
          2   -1    0    0  502    0  0.00000000000E+00 -0.00000000000E+00 -0.10767319706E+04  0.10767319706E+04  0.00000000000E+00 0. -1.
          6    1    1    2  502    0  0.76943579330E+02  0.63512454213E+02 -0.79868334085E+03  0.82327287408E+03  0.17300000000E+03 0. -1.
         -6    1    1    2    0  501 -0.76943579330E+02 -0.63512454213E+02 -0.22823498594E+03  0.30327274036E+03  0.17300000000E+03 0.  1.
<mgrwt>
<rscale>  2 0.19970765E+03</rscale>
<asrwt>0</asrwt>
<pdfrwt beam="1">  1        2 0.16565107E+00 0.19970765E+03</pdfrwt>
<pdfrwt beam="2">  1       -2 0.76636376E-02 0.19970765E+03</pdfrwt>
<totfact> 0.23768392E+03</totfact>
</mgrwt>
</event>
<event>
 4    1  0.7368504E-001  0.2135247E+03  0.7546771E-02  0.1138805E+00
         -2   -1    0    0    0  501 -0.00000000000E+00  0.00000000000E+00  0.33486733171E+02  0.33486733171E+02  0.00000000000E+00 0.  1.
          2   -1    0    0  502    0  0.00000000000E+00 -0.00000000000E+00 -0.14047781775E+04  0.14047781775E+04  0.00000000000E+00 0. -1.
          6    1    1    2  502    0  0.11903992799E+03  0.38643247426E+02 -0.81184210457E+03  0.83945244522E+03  0.17300000000E+03 0. -1.
         -6    1    1    2    0  501 -0.11903992799E+03 -0.38643247426E+02 -0.55944933977E+03  0.59881246547E+03  0.17300000000E+03 0.  1.
<mgrwt>
<rscale>  2 0.21352472E+03</rscale>
<asrwt>0</asrwt>
<pdfrwt beam="1">  1        2 0.21611970E+00 0.21352472E+03</pdfrwt>
<pdfrwt beam="2">  1       -2 0.51518057E-02 0.21352472E+03</pdfrwt>
<totfact> 0.28693808E+03</totfact>
</mgrwt>
</event>
<event>
 4    1  0.7368504E-001  0.1738954E+03  0.7546771E-02  0.1173845E+00
          2   -1    0    0  502    0  0.00000000000E+00  0.00000000000E+00  0.71929022991E+03  0.71929022991E+03  0.00000000000E+00 0.  1.
         -2   -1    0    0    0  501 -0.00000000000E+00 -0.00000000000E+00 -0.83046350232E+02  0.83046350232E+02  0.00000000000E+00 0. -1.
          6    1    1    2  502    0 -0.43371320383E+01 -0.17081813038E+02  0.36227061799E+02  0.17762882384E+03  0.17300000000E+03 0. -1.
         -6    1    1    2    0  501  0.43371320383E+01  0.17081813038E+02  0.60001681788E+03  0.62470775630E+03  0.17300000000E+03 0.  1.
<mgrwt>
<rscale>  2 0.17389537E+03</rscale>
<asrwt>0</asrwt>
<pdfrwt beam="1">  1        2 0.11066003E+00 0.17389537E+03</pdfrwt>
<pdfrwt beam="2">  1       -2 0.12776362E-01 0.17389537E+03</pdfrwt>
<totfact> 0.17980746E+03</totfact>
</mgrwt>
</event>
<event>
 4    1  0.7368504E-001  0.3043534E+03  0.7546771E-02  0.1083084E+00
         -1   -1    0    0    0  501 -0.00000000000E+00  0.00000000000E+00  0.67695134188E+02  0.67695134188E+02  0.00000000000E+00 0. -1.
          1   -1    0    0  502    0  0.00000000000E+00 -0.00000000000E+00 -0.13767218939E+04  0.13767218939E+04  0.00000000000E+00 0.  1.
          6    1    1    2  502    0  0.69848566529E+02  0.24046454488E+03 -0.59821386413E+03  0.67118614916E+03  0.17300000000E+03 0. -1.
         -6    1    1    2    0  501 -0.69848566529E+02 -0.24046454488E+03 -0.71081289555E+03  0.77323087889E+03  0.17300000000E+03 0.  1.
<mgrwt>
<rscale>  2 0.30435345E+03</rscale>
<asrwt>0</asrwt>
<pdfrwt beam="1">  1        1 0.21180335E+00 0.30435345E+03</pdfrwt>
<pdfrwt beam="2">  1       -1 0.10414637E-01 0.30435345E+03</pdfrwt>
<totfact> 0.49466662E+02</totfact>
</mgrwt>
</event>
<event>
 4    1  0.7368504E-001  0.2159833E+03  0.7546771E-02  0.1136914E+00
         -2   -1    0    0    0  501 -0.00000000000E+00  0.00000000000E+00  0.31165354445E+02  0.31165354445E+02  0.00000000000E+00 0. -1.
          2   -1    0    0  502    0  0.00000000000E+00 -0.00000000000E+00 -0.14968159833E+04  0.14968159833E+04  0.00000000000E+00 0.  1.
          6    1    1    2  502    0  0.12894542355E+03 -0.96371133658E+01 -0.73306127722E+03  0.76421700607E+03  0.17300000000E+03 0. -1.
         -6    1    1    2    0  501 -0.12894542355E+03  0.96371133658E+01 -0.73258935164E+03  0.76376433168E+03  0.17300000000E+03 0. -1.
<mgrwt>
<rscale>  2 0.21598332E+03</rscale>
<asrwt>0</asrwt>
<pdfrwt beam="1">  1        2 0.23027936E+00 0.21598332E+03</pdfrwt>
<pdfrwt beam="2">  1       -2 0.47946704E-02 0.21598332E+03</pdfrwt>
<totfact> 0.28571694E+03</totfact>
</mgrwt>
</event>
<event>
 4    1  0.7368504E-001  0.1969499E+03  0.7546771E-02  0.1152338E+00
          2   -1    0    0  502    0  0.00000000000E+00  0.00000000000E+00  0.55520298239E+03  0.55520298239E+03  0.00000000000E+00 0.  1.
         -2   -1    0    0    0  501 -0.00000000000E+00 -0.00000000000E+00 -0.12049473283E+03  0.12049473283E+03  0.00000000000E+00 0. -1.
          6    1    1    2  502    0 -0.92059656774E+02  0.19628834663E+02 -0.16443668978E+01  0.19695678586E+03  0.17300000000E+03 0.  1.
         -6    1    1    2    0  501  0.92059656774E+02 -0.19628834663E+02  0.43635261645E+03  0.47874092936E+03  0.17300000000E+03 0. -1.
<mgrwt>
<rscale>  2 0.19694992E+03</rscale>
<asrwt>0</asrwt>
<pdfrwt beam="1">  1        2 0.85415843E-01 0.19694992E+03</pdfrwt>
<pdfrwt beam="2">  1       -2 0.18537651E-01 0.19694992E+03</pdfrwt>
<totfact> 0.13187217E+03</totfact>
</mgrwt>
</event>
<event>
 4    1  0.7368504E-001  0.2341327E+03  0.7546771E-02  0.1123764E+00
          2   -1    0    0  502    0  0.00000000000E+00  0.00000000000E+00  0.18140142959E+04  0.18140142959E+04  0.00000000000E+00 0. -1.
         -2   -1    0    0    0  501 -0.00000000000E+00 -0.00000000000E+00 -0.42822991192E+02  0.42822991192E+02  0.00000000000E+00 0.  1.
          6    1    1    2  502    0  0.13808078243E+02 -0.15715739405E+03  0.13892765615E+04  0.14088674437E+04  0.17300000000E+03 0. -1.
         -6    1    1    2    0  501 -0.13808078243E+02  0.15715739405E+03  0.38191474323E+03  0.44796984343E+03  0.17300000000E+03 0.  1.
<mgrwt>
<rscale>  2 0.23413268E+03</rscale>
<asrwt>0</asrwt>
<pdfrwt beam="1">  1        2 0.27907906E+00 0.23413268E+03</pdfrwt>
<pdfrwt beam="2">  1       -2 0.65881539E-02 0.23413268E+03</pdfrwt>
<totfact> 0.11962781E+03</totfact>
</mgrwt>
</event>
<event>
 4    1  0.7368504E-001  0.2146747E+03  0.7546771E-02  0.1137917E+00
          2   -1    0    0  502    0  0.00000000000E+00  0.00000000000E+00  0.29797782274E+04  0.29797782274E+04  0.00000000000E+00 0.  1.
         -2   -1    0    0    0  501 -0.00000000000E+00 -0.00000000000E+00 -0.20447457309E+02  0.20447457309E+02  0.00000000000E+00 0. -1.
          6    1    1    2  502    0  0.78542003048E+02  0.99936835142E+02  0.22200936009E+04  0.22304485679E+04  0.17300000000E+03 0.  1.
         -6    1    1    2    0  501 -0.78542003048E+02 -0.99936835142E+02  0.73923716924E+03  0.76977711686E+03  0.17300000000E+03 0. -1.
<mgrwt>
<rscale>  2 0.21467468E+03</rscale>
<asrwt>0</asrwt>
<pdfrwt beam="1">  1        2 0.45842708E+00 0.21467468E+03</pdfrwt>
<pdfrwt beam="2">  1       -2 0.31457650E-02 0.21467468E+03</pdfrwt>
<totfact> 0.85520019E+02</totfact>
</mgrwt>
</event>
<event>
 4    1  0.7368504E-001  0.2397820E+03  0.7546771E-02  0.1119938E+00
          2   -1    0    0  502    0  0.00000000000E+00  0.00000000000E+00  0.44313325609E+03  0.44313325609E+03  0.00000000000E+00 0. -1.
         -2   -1    0    0    0  501 -0.00000000000E+00 -0.00000000000E+00 -0.18671767392E+03  0.18671767392E+03  0.00000000000E+00 0.  1.
          6    1    1    2  502    0 -0.16558727748E+03 -0.12135769958E+02 -0.45748008791E+02  0.24410715615E+03  0.17300000000E+03 0.  1.
         -6    1    1    2    0  501  0.16558727748E+03  0.12135769958E+02  0.30216359096E+03  0.38574377387E+03  0.17300000000E+03 0. -1.
<mgrwt>
<rscale>  2 0.23978203E+03</rscale>
<asrwt>0</asrwt>
<pdfrwt beam="1">  1        2 0.68174347E-01 0.23978203E+03</pdfrwt>
<pdfrwt beam="2">  1       -2 0.28725796E-01 0.23978203E+03</pdfrwt>
<totfact> 0.79108804E+02</totfact>
</mgrwt>
</event>
<event>
 4    1  0.7368504E-001  0.1858152E+03  0.7546771E-02  0.1162291E+00
         -3   -1    0    0    0  501 -0.00000000000E+00  0.00000000000E+00  0.40449878852E+03  0.40449878852E+03  0.00000000000E+00 0. -1.
          3   -1    0    0  502    0  0.00000000000E+00 -0.00000000000E+00 -0.17307482204E+03  0.17307482204E+03  0.00000000000E+00 0.  1.
          6    1    1    2  502    0 -0.18065645893E+02 -0.65359918405E+02 -0.89877720656E+02  0.20641049190E+03  0.17300000000E+03 0.  1.
         -6    1    1    2    0  501  0.18065645893E+02  0.65359918405E+02  0.32130168713E+03  0.37116311866E+03  0.17300000000E+03 0. -1.
<mgrwt>
<rscale>  2 0.18581519E+03</rscale>
<asrwt>0</asrwt>
<pdfrwt beam="1">  1        3 0.26626896E-01 0.18581519E+03</pdfrwt>
<pdfrwt beam="2">  1       -3 0.62230583E-01 0.18581519E+03</pdfrwt>
<totfact> 0.82882220E+01</totfact>
</mgrwt>
</event>
<event>
 4    1  0.7368504E-001  0.1925730E+03  0.7546771E-02  0.1156161E+00
          2   -1    0    0  502    0  0.00000000000E+00  0.00000000000E+00  0.38043339042E+03  0.38043339042E+03  0.00000000000E+00 0. -1.
         -2   -1    0    0    0  501 -0.00000000000E+00 -0.00000000000E+00 -0.97837566451E+02  0.97837566451E+02  0.00000000000E+00 0.  1.
          6    1    1    2  502    0  0.54611229249E+02  0.64598624238E+02  0.15576940538E+03  0.24768624561E+03  0.17300000000E+03 0.  1.
         -6    1    1    2    0  501 -0.54611229249E+02 -0.64598624238E+02  0.12682641859E+03  0.23058471126E+03  0.17300000000E+03 0. -1.
<mgrwt>
<rscale>  2 0.19257302E+03</rscale>
<asrwt>0</asrwt>
<pdfrwt beam="1">  1        2 0.58528213E-01 0.19257302E+03</pdfrwt>
<pdfrwt beam="2">  1       -2 0.15051934E-01 0.19257302E+03</pdfrwt>
<totfact> 0.28287194E+03</totfact>
</mgrwt>
</event>
<event>
 4    1  0.7368504E-001  0.2502234E+03  0.7546771E-02  0.1113164E+00
         -2   -1    0    0    0  501 -0.00000000000E+00  0.00000000000E+00  0.12240451252E+03  0.12240451252E+03  0.00000000000E+00 0. -1.
          2   -1    0    0  502    0  0.00000000000E+00 -0.00000000000E+00 -0.53263488871E+03  0.53263488871E+03  0.00000000000E+00 0.  1.
          6    1    1    2  502    0  0.13383224207E+03 -0.12153881468E+03 -0.13989714838E+03  0.28667571334E+03  0.17300000000E+03 0.  1.
         -6    1    1    2    0  501 -0.13383224207E+03  0.12153881468E+03 -0.27033322782E+03  0.36836368789E+03  0.17300000000E+03 0. -1.
<mgrwt>
<rscale>  2 0.25022341E+03</rscale>
<asrwt>0</asrwt>
<pdfrwt beam="1">  1        2 0.81943829E-01 0.25022341E+03</pdfrwt>
<pdfrwt beam="2">  1       -2 0.18831463E-01 0.25022341E+03</pdfrwt>
<totfact> 0.13496268E+03</totfact>
</mgrwt>
</event>
<event>
 4    1  0.7368504E-001  0.3315766E+03  0.7546771E-02  0.1070441E+00
          2   -1    0    0  502    0  0.00000000000E+00  0.00000000000E+00  0.84149482758E+03  0.84149482758E+03  0.00000000000E+00 0.  1.
         -2   -1    0    0    0  501 -0.00000000000E+00 -0.00000000000E+00 -0.24130946560E+03  0.24130946560E+03  0.00000000000E+00 0. -1.
          6    1    1    2  502    0 -0.28168364552E+03 -0.25852739912E+02 -0.66533114734E+02  0.33818588922E+03  0.17300000000E+03 0. -1.
         -6    1    1    2    0  501  0.28168364552E+03  0.25852739912E+02  0.66671847672E+03  0.74461840396E+03  0.17300000000E+03 0.  1.
<mgrwt>
<rscale>  2 0.33157660E+03</rscale>
<asrwt>0</asrwt>
<pdfrwt beam="1">  1        2 0.12946074E+00 0.33157660E+03</pdfrwt>
<pdfrwt beam="2">  1       -2 0.37124534E-01 0.33157660E+03</pdfrwt>
<totfact> 0.22884263E+02</totfact>
</mgrwt>
</event>
<event>
 4    1  0.7368504E-001  0.1828947E+03  0.7546771E-02  0.1165031E+00
         -2   -1    0    0    0  501 -0.00000000000E+00  0.00000000000E+00  0.16687740062E+03  0.16687740062E+03  0.00000000000E+00 0. -1.
          2   -1    0    0  502    0  0.00000000000E+00 -0.00000000000E+00 -0.22467328692E+03  0.22467328692E+03  0.00000000000E+00 0.  1.
          6    1    1    2  502    0  0.47649239378E+02 -0.35369617242E+02 -0.93182254570E+02  0.20526420147E+03  0.17300000000E+03 0. -1.
         -6    1    1    2    0  501 -0.47649239378E+02  0.35369617242E+02  0.35386368271E+02  0.18628648608E+03  0.17300000000E+03 0. -1.
<mgrwt>
<rscale>  2 0.18289467E+03</rscale>
<asrwt>0</asrwt>
<pdfrwt beam="1">  1        2 0.34565121E-01 0.18289467E+03</pdfrwt>
<pdfrwt beam="2">  1       -2 0.25673446E-01 0.18289467E+03</pdfrwt>
<totfact> 0.20031708E+03</totfact>
</mgrwt>
</event>
<event>
 4    1  0.7368504E-001  0.4696572E+03  0.7546771E-02  0.1022017E+00
         -1   -1    0    0    0  501 -0.00000000000E+00  0.00000000000E+00  0.12918287653E+03  0.12918287653E+03  0.00000000000E+00 0.  1.
          1   -1    0    0  502    0  0.00000000000E+00 -0.00000000000E+00 -0.18714525823E+04  0.18714525823E+04  0.00000000000E+00 0. -1.
          6    1    1    2  502    0 -0.29321155263E+03 -0.32353654949E+03 -0.57504288179E+03  0.74246362157E+03  0.17300000000E+03 0.  1.
         -6    1    1    2    0  501  0.29321155263E+03  0.32353654949E+03 -0.11672268240E+04  0.12581718372E+04  0.17300000000E+03 0. -1.
<mgrwt>
<rscale>  2 0.46965723E+03</rscale>
<asrwt>0</asrwt>
<pdfrwt beam="1">  1        1 0.28791576E+00 0.46965723E+03</pdfrwt>
<pdfrwt beam="2">  1       -1 0.19874290E-01 0.46965723E+03</pdfrwt>
<totfact> 0.80368325E+01</totfact>
</mgrwt>
</event>
<event>
 4    1  0.7368504E-001  0.2079968E+03  0.7546771E-02  0.1143162E+00
          2   -1    0    0  502    0  0.00000000000E+00  0.00000000000E+00  0.17350127502E+03  0.17350127502E+03  0.00000000000E+00 0.  1.
         -2   -1    0    0    0  501 -0.00000000000E+00 -0.00000000000E+00 -0.36197929550E+03  0.36197929550E+03  0.00000000000E+00 0. -1.
          6    1    1    2  502    0 -0.82118485983E+02 -0.81180134994E+02  0.55107898825E+02  0.21517328034E+03  0.17300000000E+03 0.  1.
         -6    1    1    2    0  501  0.82118485983E+02  0.81180134994E+02 -0.24358591930E+03  0.32030729018E+03  0.17300000000E+03 0. -1.
<mgrwt>
<rscale>  2 0.20799678E+03</rscale>
<asrwt>0</asrwt>
<pdfrwt beam="1">  1        2 0.26692504E-01 0.20799678E+03</pdfrwt>
<pdfrwt beam="2">  1       -2 0.55689122E-01 0.20799678E+03</pdfrwt>
<totfact> 0.61630968E+02</totfact>
</mgrwt>
</event>
<event>
 4    1  0.7368504E-001  0.2774504E+03  0.7546771E-02  0.1097090E+00
          2   -1    0    0  502    0  0.00000000000E+00  0.00000000000E+00  0.81633752552E+03  0.81633752552E+03  0.00000000000E+00 0. -1.
         -2   -1    0    0    0  501 -0.00000000000E+00 -0.00000000000E+00 -0.11871683021E+03  0.11871683021E+03  0.00000000000E+00 0.  1.
          6    1    1    2  502    0 -0.94197043100E+02 -0.19538847741E+03  0.13677125777E+03  0.30933011005E+03  0.17300000000E+03 0.  1.
         -6    1    1    2    0  501  0.94197043100E+02  0.19538847741E+03  0.56084943754E+03  0.62572424568E+03  0.17300000000E+03 0. -1.
<mgrwt>
<rscale>  2 0.27745043E+03</rscale>
<asrwt>0</asrwt>
<pdfrwt beam="1">  1        2 0.12559038E+00 0.27745043E+03</pdfrwt>
<pdfrwt beam="2">  1       -2 0.18264128E-01 0.27745043E+03</pdfrwt>
<totfact> 0.85113631E+02</totfact>
</mgrwt>
</event>
<event>
 4    1  0.7368504E-001  0.1738707E+03  0.7546771E-02  0.1173870E+00
          3   -1    0    0  502    0  0.00000000000E+00  0.00000000000E+00  0.10805745552E+04  0.10805745552E+04  0.00000000000E+00 0. -1.
         -3   -1    0    0    0  501 -0.00000000000E+00 -0.00000000000E+00 -0.28029278837E+02  0.28029278837E+02  0.00000000000E+00 0.  1.
          6    1    1    2  502    0 -0.17085766915E+01  0.17294076681E+02  0.55026017813E+03  0.57707648363E+03  0.17300000000E+03 0. -1.
         -6    1    1    2    0  501  0.17085766915E+01 -0.17294076681E+02  0.50228509821E+03  0.53152735039E+03  0.17300000000E+03 0. -1.
<mgrwt>
<rscale>  2 0.17387065E+03</rscale>
<asrwt>0</asrwt>
<pdfrwt beam="1">  1        3 0.16624221E+00 0.17387065E+03</pdfrwt>
<pdfrwt beam="2">  1       -3 0.43121976E-02 0.17387065E+03</pdfrwt>
<totfact> 0.18383157E+02</totfact>
</mgrwt>
</event>
<event>
 4    1  0.7368504E-001  0.2377660E+03  0.7546771E-02  0.1121290E+00
          2   -1    0    0  502    0  0.00000000000E+00  0.00000000000E+00  0.12238205828E+04  0.12238205828E+04  0.00000000000E+00 0.  1.
         -2   -1    0    0    0  501 -0.00000000000E+00 -0.00000000000E+00 -0.12985979050E+03  0.12985979050E+03  0.00000000000E+00 0. -1.
          6    1    1    2  502    0  0.15151668590E+03 -0.60385131433E+02  0.10902605028E+04  0.11158855829E+04  0.17300000000E+03 0.  1.
         -6    1    1    2    0  501 -0.15151668590E+03  0.60385131433E+02  0.37002895252E+01  0.23779479041E+03  0.17300000000E+03 0. -1.
<mgrwt>
<rscale>  2 0.23776600E+03</rscale>
<asrwt>0</asrwt>
<pdfrwt beam="1">  1        2 0.18828008E+00 0.23776600E+03</pdfrwt>
<pdfrwt beam="2">  1       -2 0.19978430E-01 0.23776600E+03</pdfrwt>
<totfact> 0.41207589E+02</totfact>
</mgrwt>
</event>
<event>
 4    1  0.7368504E-001  0.2180802E+03  0.7546771E-02  0.1135322E+00
         -2   -1    0    0    0  501 -0.00000000000E+00  0.00000000000E+00  0.34120057186E+02  0.34120057186E+02  0.00000000000E+00 0. -1.
          2   -1    0    0  502    0  0.00000000000E+00 -0.00000000000E+00 -0.37350914235E+04  0.37350914235E+04  0.00000000000E+00 0.  1.
          6    1    1    2  502    0 -0.91212721834E+02 -0.96489400996E+02 -0.35840940897E+03  0.41954292935E+03  0.17300000000E+03 0. -1.
         -6    1    1    2    0  501  0.91212721834E+02  0.96489400996E+02 -0.33425619573E+04  0.33496685513E+04  0.17300000000E+03 0.  1.
<mgrwt>
<rscale>  2 0.21808018E+03</rscale>
<asrwt>0</asrwt>
<pdfrwt beam="1">  1        2 0.57462916E+00 0.21808018E+03</pdfrwt>
<pdfrwt beam="2">  1       -2 0.52492422E-02 0.21808018E+03</pdfrwt>
<totfact> 0.13039882E+02</totfact>
</mgrwt>
</event>
<event>
 4    1  0.7368504E-001  0.2081792E+03  0.7546771E-02  0.1143016E+00
         -2   -1    0    0    0  501 -0.00000000000E+00  0.00000000000E+00  0.11811903998E+04  0.11811903998E+04  0.00000000000E+00 0. -1.
          2   -1    0    0  502    0  0.00000000000E+00 -0.00000000000E+00 -0.40916567642E+02  0.40916567642E+02  0.00000000000E+00 0.  1.
          6    1    1    2  502    0  0.61212885047E+02 -0.98298238442E+02  0.37375850889E+03  0.42782471170E+03  0.17300000000E+03 0.  1.
         -6    1    1    2    0  501 -0.61212885047E+02  0.98298238442E+02  0.76651532326E+03  0.79428225573E+03  0.17300000000E+03 0. -1.
<mgrwt>
<rscale>  2 0.20817916E+03</rscale>
<asrwt>0</asrwt>
<pdfrwt beam="1">  1        2 0.62948574E-02 0.20817916E+03</pdfrwt>
<pdfrwt beam="2">  1       -2 0.18172157E+00 0.20817916E+03</pdfrwt>
<totfact> 0.21939040E+02</totfact>
</mgrwt>
</event>
<event>
 4    1  0.7368504E-001  0.1877307E+03  0.7546771E-02  0.1160524E+00
         -2   -1    0    0    0  501 -0.00000000000E+00  0.00000000000E+00  0.29002713284E+02  0.29002713284E+02  0.00000000000E+00 0. -1.
          2   -1    0    0  502    0  0.00000000000E+00 -0.00000000000E+00 -0.14438843273E+04  0.14438843273E+04  0.00000000000E+00 0.  1.
          6    1    1    2  502    0  0.15541021887E+02  0.71220095380E+02 -0.41432915656E+03  0.45487523050E+03  0.17300000000E+03 0. -1.
         -6    1    1    2    0  501 -0.15541021887E+02 -0.71220095380E+02 -0.10005524574E+04  0.10180118100E+04  0.17300000000E+03 0.  1.
<mgrwt>
<rscale>  2 0.18773073E+03</rscale>
<asrwt>0</asrwt>
<pdfrwt beam="1">  1        2 0.22213606E+00 0.18773073E+03</pdfrwt>
<pdfrwt beam="2">  1       -2 0.44619558E-02 0.18773073E+03</pdfrwt>
<totfact> 0.33947056E+03</totfact>
</mgrwt>
</event>
<event>
 4    1  0.7368504E-001  0.1928994E+03  0.7546771E-02  0.1155872E+00
          2   -1    0    0  502    0  0.00000000000E+00  0.00000000000E+00  0.28249989541E+04  0.28249989541E+04  0.00000000000E+00 0. -1.
         -2   -1    0    0    0  501 -0.00000000000E+00 -0.00000000000E+00 -0.13497476134E+02  0.13497476134E+02  0.00000000000E+00 0.  1.
          6    1    1    2  502    0  0.38143795490E+01 -0.85244596279E+02  0.16262239599E+04  0.16376246696E+04  0.17300000000E+03 0.  1.
         -6    1    1    2    0  501 -0.38143795490E+01  0.85244596279E+02  0.11852775180E+04  0.12008717606E+04  0.17300000000E+03 0. -1.
<mgrwt>
<rscale>  2 0.19289943E+03</rscale>
<asrwt>0</asrwt>
<pdfrwt beam="1">  1        2 0.43461475E+00 0.19289943E+03</pdfrwt>
<pdfrwt beam="2">  1       -2 0.20765370E-02 0.19289943E+03</pdfrwt>
<totfact> 0.19479073E+03</totfact>
</mgrwt>
</event>
<event>
 4    1  0.7368504E-001  0.2086674E+03  0.7546771E-02  0.1142626E+00
         -2   -1    0    0    0  501 -0.00000000000E+00  0.00000000000E+00  0.29083328366E+02  0.29083328366E+02  0.00000000000E+00 0. -1.
          2   -1    0    0  502    0  0.00000000000E+00 -0.00000000000E+00 -0.21856649124E+04  0.21856649124E+04  0.00000000000E+00 0.  1.
          6    1    1    2  502    0  0.49113159087E+02  0.10583467275E+03 -0.16998171098E+04  0.17125770894E+04  0.17300000000E+03 0.  1.
         -6    1    1    2    0  501 -0.49113159087E+02 -0.10583467275E+03 -0.45676447430E+03  0.50217115144E+03  0.17300000000E+03 0. -1.
<mgrwt>
<rscale>  2 0.20866739E+03</rscale>
<asrwt>0</asrwt>
<pdfrwt beam="1">  1        2 0.33625625E+00 0.20866739E+03</pdfrwt>
<pdfrwt beam="2">  1       -2 0.44743567E-02 0.20866739E+03</pdfrwt>
<totfact> 0.13840225E+03</totfact>
</mgrwt>
</event>
<event>
 4    1  0.7368504E-001  0.1846320E+03  0.7546771E-02  0.1163394E+00
          1   -1    0    0  502    0  0.00000000000E+00  0.00000000000E+00  0.34256245899E+03  0.34256245899E+03  0.00000000000E+00 0.  1.
         -1   -1    0    0    0  501 -0.00000000000E+00 -0.00000000000E+00 -0.14583885457E+03  0.14583885457E+03  0.00000000000E+00 0. -1.
          6    1    1    2  502    0  0.63960167606E+02  0.83099989432E+01 -0.39272981157E+02  0.18876261858E+03  0.17300000000E+03 0. -1.
         -6    1    1    2    0  501 -0.63960167606E+02 -0.83099989432E+01  0.23599658558E+03  0.29963869498E+03  0.17300000000E+03 0.  1.
<mgrwt>
<rscale>  2 0.18463196E+03</rscale>
<asrwt>0</asrwt>
<pdfrwt beam="1">  1        1 0.52701917E-01 0.18463196E+03</pdfrwt>
<pdfrwt beam="2">  1       -1 0.22436747E-01 0.18463196E+03</pdfrwt>
<totfact> 0.12280092E+03</totfact>
</mgrwt>
</event>
<event>
 4    1  0.7368504E-001  0.1830294E+03  0.7546771E-02  0.1164903E+00
          2   -1    0    0  502    0  0.00000000000E+00  0.00000000000E+00  0.16957381445E+04  0.16957381445E+04  0.00000000000E+00 0. -1.
         -2   -1    0    0    0  501 -0.00000000000E+00 -0.00000000000E+00 -0.26173176085E+02  0.26173176085E+02  0.00000000000E+00 0.  1.
          6    1    1    2  502    0 -0.58388375446E+02 -0.12710978668E+02  0.40844931573E+03  0.44758308155E+03  0.17300000000E+03 0.  1.
         -6    1    1    2    0  501  0.58388375446E+02  0.12710978668E+02  0.12611156527E+04  0.12743282391E+04  0.17300000000E+03 0. -1.
<mgrwt>
<rscale>  2 0.18302943E+03</rscale>
<asrwt>0</asrwt>
<pdfrwt beam="1">  1        2 0.26088271E+00 0.18302943E+03</pdfrwt>
<pdfrwt beam="2">  1       -2 0.40266438E-02 0.18302943E+03</pdfrwt>
<totfact> 0.29210365E+03</totfact>
</mgrwt>
</event>
<event>
 4    1  0.7368504E-001  0.3099354E+03  0.7546771E-02  0.1080377E+00
          1   -1    0    0  502    0  0.00000000000E+00  0.00000000000E+00  0.24978920614E+04  0.24978920614E+04  0.00000000000E+00 0. -1.
         -1   -1    0    0    0  501 -0.00000000000E+00 -0.00000000000E+00 -0.48092889918E+02  0.48092889918E+02  0.00000000000E+00 0.  1.
          6    1    1    2  502    0  0.12881076404E+03 -0.22257302499E+03  0.17947286298E+04  0.18212937212E+04  0.17300000000E+03 0. -1.
         -6    1    1    2    0  501 -0.12881076404E+03  0.22257302499E+03  0.65507054171E+03  0.72469123011E+03  0.17300000000E+03 0.  1.
<mgrwt>
<rscale>  2 0.30993542E+03</rscale>
<asrwt>0</asrwt>
<pdfrwt beam="1">  1        1 0.38429098E+00 0.30993542E+03</pdfrwt>
<pdfrwt beam="2">  1       -1 0.73989081E-02 0.30993542E+03</pdfrwt>
<totfact> 0.15305228E+02</totfact>
</mgrwt>
</event>
<event>
 4    1  0.7368504E-001  0.2712068E+03  0.7546771E-02  0.1100591E+00
         -2   -1    0    0    0  501 -0.00000000000E+00  0.00000000000E+00  0.11336251110E+03  0.11336251110E+03  0.00000000000E+00 0.  1.
          2   -1    0    0  502    0  0.00000000000E+00 -0.00000000000E+00 -0.65107220202E+03  0.65107220202E+03  0.00000000000E+00 0. -1.
          6    1    1    2  502    0 -0.19980931346E+02  0.20790595155E+03 -0.24643012475E+03  0.36644362280E+03  0.17300000000E+03 0. -1.
         -6    1    1    2    0  501  0.19980931346E+02 -0.20790595155E+03 -0.29127956617E+03  0.39799109032E+03  0.17300000000E+03 0.  1.
<mgrwt>
<rscale>  2 0.27120679E+03</rscale>
<asrwt>0</asrwt>
<pdfrwt beam="1">  1        2 0.10016495E+00 0.27120679E+03</pdfrwt>
<pdfrwt beam="2">  1       -2 0.17440387E-01 0.27120679E+03</pdfrwt>
<totfact> 0.12178895E+03</totfact>
</mgrwt>
</event>
<event>
 4    1  0.7368504E-001  0.1906345E+03  0.7546771E-02  0.1157890E+00
          2   -1    0    0  502    0  0.00000000000E+00  0.00000000000E+00  0.80946013105E+02  0.80946013105E+02  0.00000000000E+00 0. -1.
         -2   -1    0    0    0  501 -0.00000000000E+00 -0.00000000000E+00 -0.62128807560E+03  0.62128807560E+03  0.00000000000E+00 0.  1.
          6    1    1    2  502    0 -0.64181585745E+02 -0.47887755281E+02 -0.45509089380E+03  0.49340575055E+03  0.17300000000E+03 0.  1.
         -6    1    1    2    0  501  0.64181585745E+02  0.47887755281E+02 -0.85251168700E+02  0.20882833816E+03  0.17300000000E+03 0. -1.
<mgrwt>
<rscale>  2 0.19063450E+03</rscale>
<asrwt>0</asrwt>
<pdfrwt beam="1">  1        2 0.12453233E-01 0.19063450E+03</pdfrwt>
<pdfrwt beam="2">  1       -2 0.95582783E-01 0.19063450E+03</pdfrwt>
<totfact> 0.46307996E+02</totfact>
</mgrwt>
</event>
<event>
 4    1  0.7368504E-001  0.2146894E+03  0.7546771E-02  0.1137905E+00
          2   -1    0    0  502    0  0.00000000000E+00  0.00000000000E+00  0.18770739445E+03  0.18770739445E+03  0.00000000000E+00 0.  1.
         -2   -1    0    0    0  501 -0.00000000000E+00 -0.00000000000E+00 -0.25987014769E+03  0.25987014769E+03  0.00000000000E+00 0. -1.
          6    1    1    2  502    0  0.11494620977E+03 -0.54313037550E+02  0.16451953910E+02  0.21531884259E+03  0.17300000000E+03 0.  1.
         -6    1    1    2    0  501 -0.11494620977E+03  0.54313037550E+02 -0.88614707150E+02  0.23225869954E+03  0.17300000000E+03 0. -1.
<mgrwt>
<rscale>  2 0.21468940E+03</rscale>
<asrwt>0</asrwt>
<pdfrwt beam="1">  1        2 0.28878061E-01 0.21468940E+03</pdfrwt>
<pdfrwt beam="2">  1       -2 0.39980023E-01 0.21468940E+03</pdfrwt>
<totfact> 0.10865302E+03</totfact>
</mgrwt>
</event>
<event>
 4    1  0.7368504E-001  0.1821423E+03  0.7546771E-02  0.1165746E+00
          1   -1    0    0  502    0  0.00000000000E+00  0.00000000000E+00  0.40006486067E+03  0.40006486067E+03  0.00000000000E+00 0.  1.
         -1   -1    0    0    0  501 -0.00000000000E+00 -0.00000000000E+00 -0.12093812679E+03  0.12093812679E+03  0.00000000000E+00 0. -1.
          6    1    1    2  502    0 -0.20231944220E+02 -0.53268061960E+02 -0.64824497893E+01  0.18225762027E+03  0.17300000000E+03 0. -1.
         -6    1    1    2    0  501  0.20231944220E+02  0.53268061960E+02  0.28560918368E+03  0.33874536719E+03  0.17300000000E+03 0.  1.
<mgrwt>
<rscale>  2 0.18214230E+03</rscale>
<asrwt>0</asrwt>
<pdfrwt beam="1">  1        1 0.61548439E-01 0.18214230E+03</pdfrwt>
<pdfrwt beam="2">  1       -1 0.18605866E-01 0.18214230E+03</pdfrwt>
<totfact> 0.13667026E+03</totfact>
</mgrwt>
</event>
<event>
 4    1  0.7368504E-001  0.2030338E+03  0.7546771E-02  0.1147204E+00
          2   -1    0    0  502    0  0.00000000000E+00  0.00000000000E+00  0.33806477165E+03  0.33806477165E+03  0.00000000000E+00 0. -1.
         -2   -1    0    0    0  501 -0.00000000000E+00 -0.00000000000E+00 -0.12876365814E+03  0.12876365814E+03  0.00000000000E+00 0.  1.
          6    1    1    2  502    0 -0.10000085632E+03  0.35965849794E+02  0.15839386752E+03  0.25750986561E+03  0.17300000000E+03 0. -1.
         -6    1    1    2    0  501  0.10000085632E+03 -0.35965849794E+02  0.50907245993E+02  0.20931856418E+03  0.17300000000E+03 0.  1.
<mgrwt>
<rscale>  2 0.20303377E+03</rscale>
<asrwt>0</asrwt>
<pdfrwt beam="1">  1        2 0.52009965E-01 0.20303377E+03</pdfrwt>
<pdfrwt beam="2">  1       -2 0.19809794E-01 0.20303377E+03</pdfrwt>
<totfact> 0.20308685E+03</totfact>
</mgrwt>
</event>
<event>
 4    1  0.7368504E-001  0.1818263E+03  0.7546771E-02  0.1166047E+00
         -1   -1    0    0    0  501 -0.00000000000E+00  0.00000000000E+00  0.46381854619E+03  0.46381854619E+03  0.00000000000E+00 0. -1.
          1   -1    0    0  502    0  0.00000000000E+00 -0.00000000000E+00 -0.81247420319E+02  0.81247420319E+02  0.00000000000E+00 0.  1.
          6    1    1    2  502    0 -0.91580422244E+01  0.55208129669E+02  0.95827183459E+02  0.20553261641E+03  0.17300000000E+03 0. -1.
         -6    1    1    2    0  501  0.91580422244E+01 -0.55208129669E+02  0.28674394241E+03  0.33953335010E+03  0.17300000000E+03 0. -1.
<mgrwt>
<rscale>  2 0.18182631E+03</rscale>
<asrwt>0</asrwt>
<pdfrwt beam="1">  1        1 0.12499603E-01 0.18182631E+03</pdfrwt>
<pdfrwt beam="2">  1       -1 0.71356698E-01 0.18182631E+03</pdfrwt>
<totfact> 0.97319994E+02</totfact>
</mgrwt>
</event>
<event>
 4    1  0.7368504E-001  0.2155962E+03  0.7546771E-02  0.1137209E+00
         -2   -1    0    0    0  501 -0.00000000000E+00  0.00000000000E+00  0.14322005140E+03  0.14322005140E+03  0.00000000000E+00 0.  1.
          2   -1    0    0  502    0  0.00000000000E+00 -0.00000000000E+00 -0.42082327079E+03  0.42082327079E+03  0.00000000000E+00 0. -1.
          6    1    1    2  502    0  0.12013707619E+03 -0.46041299624E+02 -0.27369508925E+03  0.34841171080E+03  0.17300000000E+03 0. -1.
         -6    1    1    2    0  501 -0.12013707619E+03  0.46041299624E+02 -0.39081301434E+01  0.21563161138E+03  0.17300000000E+03 0.  1.
<mgrwt>
<rscale>  2 0.21559619E+03</rscale>
<asrwt>0</asrwt>
<pdfrwt beam="1">  1        2 0.64742042E-01 0.21559619E+03</pdfrwt>
<pdfrwt beam="2">  1       -2 0.22033854E-01 0.21559619E+03</pdfrwt>
<totfact> 0.13365310E+03</totfact>
</mgrwt>
</event>
<event>
 4    1  0.7368504E-001  0.1936474E+03  0.7546771E-02  0.1155212E+00
          2   -1    0    0  502    0  0.00000000000E+00  0.00000000000E+00  0.80945310577E+03  0.80945310577E+03  0.00000000000E+00 0. -1.
         -2   -1    0    0    0  501 -0.00000000000E+00 -0.00000000000E+00 -0.51095914369E+02  0.51095914369E+02  0.00000000000E+00 0.  1.
          6    1    1    2  502    0 -0.13949226760E+02  0.85882012034E+02  0.51063308010E+03  0.54611852506E+03  0.17300000000E+03 0.  1.
         -6    1    1    2    0  501  0.13949226760E+02 -0.85882012034E+02  0.24772411130E+03  0.31443049508E+03  0.17300000000E+03 0.  1.
<mgrwt>
<rscale>  2 0.19364736E+03</rscale>
<asrwt>0</asrwt>
<pdfrwt beam="1">  1        2 0.12453124E+00 0.19364736E+03</pdfrwt>
<pdfrwt beam="2">  1       -2 0.78609105E-02 0.19364736E+03</pdfrwt>
<totfact> 0.33605098E+03</totfact>
</mgrwt>
</event>
<event>
 4    1  0.7368504E-001  0.1957670E+03  0.7546771E-02  0.1153360E+00
         -1   -1    0    0    0  501 -0.00000000000E+00  0.00000000000E+00  0.87315295161E+02  0.87315295161E+02  0.00000000000E+00 0.  1.
          1   -1    0    0  502    0  0.00000000000E+00 -0.00000000000E+00 -0.43996081142E+03  0.43996081142E+03  0.00000000000E+00 0. -1.
          6    1    1    2  502    0  0.17571223645E+02  0.89927535786E+02 -0.18912589755E+03  0.27220087200E+03  0.17300000000E+03 0. -1.
         -6    1    1    2    0  501 -0.17571223645E+02 -0.89927535786E+02 -0.16351961870E+03  0.25507523457E+03  0.17300000000E+03 0.  1.
<mgrwt>
<rscale>  2 0.19576698E+03</rscale>
<asrwt>0</asrwt>
<pdfrwt beam="1">  1        1 0.67686278E-01 0.19576698E+03</pdfrwt>
<pdfrwt beam="2">  1       -1 0.13433122E-01 0.19576698E+03</pdfrwt>
<totfact> 0.20317965E+03</totfact>
</mgrwt>
</event>
<event>
 4    1  0.7368504E-001  0.1840106E+03  0.7546771E-02  0.1163977E+00
         -2   -1    0    0    0  501 -0.00000000000E+00  0.00000000000E+00  0.93399796036E+02  0.93399796036E+02  0.00000000000E+00 0. -1.
          2   -1    0    0  502    0  0.00000000000E+00 -0.00000000000E+00 -0.38070051418E+03  0.38070051418E+03  0.00000000000E+00 0.  1.
          6    1    1    2  502    0  0.44647347540E+02  0.44017207586E+02 -0.91857001560E+02  0.20566382507E+03  0.17300000000E+03 0. -1.
         -6    1    1    2    0  501 -0.44647347540E+02 -0.44017207586E+02 -0.19544371658E+03  0.26843648515E+03  0.17300000000E+03 0.  1.
<mgrwt>
<rscale>  2 0.18401060E+03</rscale>
<asrwt>0</asrwt>
<pdfrwt beam="1">  1        2 0.58569311E-01 0.18401060E+03</pdfrwt>
<pdfrwt beam="2">  1       -2 0.14369199E-01 0.18401060E+03</pdfrwt>
<totfact> 0.30453978E+03</totfact>
</mgrwt>
</event>
<event>
 4    1  0.7368504E-001  0.1732720E+03  0.7546771E-02  0.1174478E+00
          2   -1    0    0  502    0  0.00000000000E+00  0.00000000000E+00  0.39808824720E+03  0.39808824720E+03  0.00000000000E+00 0.  1.
         -2   -1    0    0    0  501 -0.00000000000E+00 -0.00000000000E+00 -0.92325921568E+02  0.92325921568E+02  0.00000000000E+00 0. -1.
          6    1    1    2  502    0 -0.85743727967E-01  0.97041331992E+01  0.47948378044E+02  0.17978382717E+03  0.17300000000E+03 0. -1.
         -6    1    1    2    0  501  0.85743727967E-01 -0.97041331992E+01  0.25781394759E+03  0.31063034160E+03  0.17300000000E+03 0.  1.
<mgrwt>
<rscale>  2 0.17327198E+03</rscale>
<asrwt>0</asrwt>
<pdfrwt beam="1">  1        2 0.61244345E-01 0.17327198E+03</pdfrwt>
<pdfrwt beam="2">  1       -2 0.14203988E-01 0.17327198E+03</pdfrwt>
<totfact> 0.29511706E+03</totfact>
</mgrwt>
</event>
<event>
 4    1  0.7368504E-001  0.1970978E+03  0.7546771E-02  0.1152211E+00
          2   -1    0    0  502    0  0.00000000000E+00  0.00000000000E+00  0.42936759541E+03  0.42936759541E+03  0.00000000000E+00 0.  1.
         -2   -1    0    0    0  501 -0.00000000000E+00 -0.00000000000E+00 -0.18729742615E+03  0.18729742615E+03  0.00000000000E+00 0. -1.
          6    1    1    2  502    0  0.39626261989E+02  0.85722196589E+02  0.34272134167E+03  0.39535484525E+03  0.17300000000E+03 0.  1.
         -6    1    1    2    0  501 -0.39626261989E+02 -0.85722196589E+02 -0.10065117241E+03  0.22131017630E+03  0.17300000000E+03 0. -1.
<mgrwt>
<rscale>  2 0.19709778E+03</rscale>
<asrwt>0</asrwt>
<pdfrwt beam="1">  1        2 0.66056553E-01 0.19709778E+03</pdfrwt>
<pdfrwt beam="2">  1       -2 0.28814989E-01 0.19709778E+03</pdfrwt>
<totfact> 0.81358842E+02</totfact>
</mgrwt>
</event>
<event>
 4    1  0.7368504E-001  0.1963246E+03  0.7546771E-02  0.1152878E+00
         -1   -1    0    0    0  501 -0.00000000000E+00  0.00000000000E+00  0.12421973264E+03  0.12421973264E+03  0.00000000000E+00 0.  1.
          1   -1    0    0  502    0  0.00000000000E+00 -0.00000000000E+00 -0.32887713452E+03  0.32887713452E+03  0.00000000000E+00 0. -1.
          6    1    1    2  502    0  0.80421181821E+02  0.46333380534E+02 -0.48461434472E+02  0.20221735650E+03  0.17300000000E+03 0.  1.
         -6    1    1    2    0  501 -0.80421181821E+02 -0.46333380534E+02 -0.15619596740E+03  0.25087951066E+03  0.17300000000E+03 0. -1.
<mgrwt>
<rscale>  2 0.19632460E+03</rscale>
<asrwt>0</asrwt>
<pdfrwt beam="1">  1        1 0.50596483E-01 0.19632460E+03</pdfrwt>
<pdfrwt beam="2">  1       -1 0.19110728E-01 0.19632460E+03</pdfrwt>
<totfact> 0.16795767E+03</totfact>
</mgrwt>
</event>
<event>
 4    1  0.7368504E-001  0.1866184E+03  0.7546771E-02  0.1161547E+00
         -2   -1    0    0    0  501 -0.00000000000E+00  0.00000000000E+00  0.39766714073E+03  0.39766714073E+03  0.00000000000E+00 0.  1.
          2   -1    0    0  502    0  0.00000000000E+00 -0.00000000000E+00 -0.89457707253E+02  0.89457707253E+02  0.00000000000E+00 0. -1.
          6    1    1    2  502    0 -0.42827841428E+02  0.55346197383E+02  0.18942158764E+03  0.26590781002E+03  0.17300000000E+03 0.  1.
         -6    1    1    2    0  501  0.42827841428E+02 -0.55346197383E+02  0.11878784584E+03  0.22121703796E+03  0.17300000000E+03 0.  1.
<mgrwt>
<rscale>  2 0.18661840E+03</rscale>
<asrwt>0</asrwt>
<pdfrwt beam="1">  1        2 0.13762724E-01 0.18661840E+03</pdfrwt>
<pdfrwt beam="2">  1       -2 0.61179559E-01 0.18661840E+03</pdfrwt>
<totfact> 0.10853057E+03</totfact>
</mgrwt>
</event>
<event>
 4    1  0.7368504E-001  0.2068897E+03  0.7546771E-02  0.1144053E+00
         -2   -1    0    0    0  501 -0.00000000000E+00  0.00000000000E+00  0.12866478167E+03  0.12866478167E+03  0.00000000000E+00 0.  1.
          2   -1    0    0  502    0  0.00000000000E+00 -0.00000000000E+00 -0.40352979698E+03  0.40352979698E+03  0.00000000000E+00 0. -1.
          6    1    1    2  502    0 -0.10483421166E+03  0.43406842924E+02 -0.24893685697E+03  0.32368646049E+03  0.17300000000E+03 0. -1.
         -6    1    1    2    0  501  0.10483421166E+03 -0.43406842924E+02 -0.25928158339E+02  0.20850811817E+03  0.17300000000E+03 0.  1.
<mgrwt>
<rscale>  2 0.20688974E+03</rscale>
<asrwt>0</asrwt>
<pdfrwt beam="1">  1        2 0.62081507E-01 0.20688974E+03</pdfrwt>
<pdfrwt beam="2">  1       -2 0.19794582E-01 0.20688974E+03</pdfrwt>
<totfact> 0.16806110E+03</totfact>
</mgrwt>
</event>
<event>
 4    1  0.7368504E-001  0.2745792E+03  0.7546771E-02  0.1098687E+00
          2   -1    0    0  502    0  0.00000000000E+00  0.00000000000E+00  0.50095540003E+03  0.50095540003E+03  0.00000000000E+00 0. -1.
         -2   -1    0    0    0  501 -0.00000000000E+00 -0.00000000000E+00 -0.15149570162E+03  0.15149570162E+03  0.00000000000E+00 0.  1.
          6    1    1    2  502    0  0.20954293732E+03  0.39452377271E+02  0.20117867462E+03  0.34039182096E+03  0.17300000000E+03 0.  1.
         -6    1    1    2    0  501 -0.20954293732E+03 -0.39452377271E+02  0.14828102378E+03  0.31205928069E+03  0.17300000000E+03 0. -1.
<mgrwt>
<rscale>  2 0.27457919E+03</rscale>
<asrwt>0</asrwt>
<pdfrwt beam="1">  1        2 0.77070060E-01 0.27457919E+03</pdfrwt>
<pdfrwt beam="2">  1       -2 0.23307031E-01 0.27457919E+03</pdfrwt>
<totfact> 0.10015831E+03</totfact>
</mgrwt>
</event>
<event>
 4    1  0.7368504E-001  0.1361508E+04  0.7546771E-02  0.8982162E-01
         -2   -1    0    0    0  501 -0.00000000000E+00  0.00000000000E+00  0.78066401035E+03  0.78066401035E+03  0.00000000000E+00 0. -1.
          2   -1    0    0  502    0  0.00000000000E+00 -0.00000000000E+00 -0.29198062022E+04  0.29198062022E+04  0.00000000000E+00 0.  1.
          6    1    1    2  502    0 -0.10693844193E+04 -0.82473831732E+03 -0.26999350109E+03  0.13880208280E+04  0.17300000000E+03 0.  1.
         -6    1    1    2    0  501  0.10693844193E+04  0.82473831732E+03 -0.18691486908E+04  0.23124493846E+04  0.17300000000E+03 0. -1.
<mgrwt>
<rscale>  2 0.13615085E+04</rscale>
<asrwt>0</asrwt>
<pdfrwt beam="1">  1        2 0.44920095E+00 0.13615085E+04</pdfrwt>
<pdfrwt beam="2">  1       -2 0.12010216E+00 0.13615085E+04</pdfrwt>
<totfact> 0.10006947E+00</totfact>
</mgrwt>
</event>
<event>
 4    1  0.7368504E-001  0.3189713E+03  0.7546771E-02  0.1076124E+00
          2   -1    0    0  502    0  0.00000000000E+00  0.00000000000E+00  0.10335138780E+04  0.10335138780E+04  0.00000000000E+00 0. -1.
         -2   -1    0    0    0  501 -0.00000000000E+00 -0.00000000000E+00 -0.10539602526E+03  0.10539602526E+03  0.00000000000E+00 0.  1.
          6    1    1    2  502    0 -0.19726550512E+03 -0.18138362999E+03  0.61031679189E+03  0.68864307678E+03  0.17300000000E+03 0. -1.
         -6    1    1    2    0  501  0.19726550512E+03  0.18138362999E+03  0.31780106082E+03  0.45026682645E+03  0.17300000000E+03 0.  1.
<mgrwt>
<rscale>  2 0.31897132E+03</rscale>
<asrwt>0</asrwt>
<pdfrwt beam="1">  1        2 0.15900213E+00 0.31897132E+03</pdfrwt>
<pdfrwt beam="2">  1       -2 0.16214774E-01 0.31897132E+03</pdfrwt>
<totfact> 0.75275038E+02</totfact>
</mgrwt>
</event>
<event>
 4    1  0.7368504E-001  0.2035000E+03  0.7546771E-02  0.1146819E+00
         -2   -1    0    0    0  501 -0.00000000000E+00  0.00000000000E+00  0.32822733175E+02  0.32822733175E+02  0.00000000000E+00 0. -1.
          2   -1    0    0  502    0  0.00000000000E+00 -0.00000000000E+00 -0.17654272831E+04  0.17654272831E+04  0.00000000000E+00 0.  1.
          6    1    1    2  502    0  0.75622235015E+02  0.75924489558E+02 -0.38602126236E+03  0.43637674724E+03  0.17300000000E+03 0. -1.
         -6    1    1    2    0  501 -0.75622235015E+02 -0.75924489558E+02 -0.13465832875E+04  0.13618732690E+04  0.17300000000E+03 0.  1.
<mgrwt>
<rscale>  2 0.20350000E+03</rscale>
<asrwt>0</asrwt>
<pdfrwt beam="1">  1        2 0.27160424E+00 0.20350000E+03</pdfrwt>
<pdfrwt beam="2">  1       -2 0.50496504E-02 0.20350000E+03</pdfrwt>
<totfact> 0.19097194E+03</totfact>
</mgrwt>
</event>
<event>
 4    1  0.7368504E-001  0.1750058E+03  0.7546771E-02  0.1172726E+00
         -4   -1    0    0    0  501 -0.00000000000E+00  0.00000000000E+00  0.17045772607E+03  0.17045772607E+03  0.00000000000E+00 0. -1.
          4   -1    0    0  502    0  0.00000000000E+00 -0.00000000000E+00 -0.18559101222E+03  0.18559101222E+03  0.00000000000E+00 0.  1.
          6    1    1    2  502    0 -0.10173759679E+02 -0.24382587437E+02 -0.39350774158E+02  0.17937530316E+03  0.17300000000E+03 0. -1.
         -6    1    1    2    0  501  0.10173759679E+02  0.24382587437E+02  0.24217488002E+02  0.17667343513E+03  0.17300000000E+03 0. -1.
<mgrwt>
<rscale>  2 0.17500576E+03</rscale>
<asrwt>0</asrwt>
<pdfrwt beam="1">  1        4 0.28552463E-01 0.17500576E+03</pdfrwt>
<pdfrwt beam="2">  1       -4 0.26224266E-01 0.17500576E+03</pdfrwt>
<totfact> 0.27856701E+02</totfact>
</mgrwt>
</event>
<event>
 4    1  0.7368504E-001  0.1851821E+03  0.7546771E-02  0.1162880E+00
         -1   -1    0    0    0  501 -0.00000000000E+00  0.00000000000E+00  0.62157316207E+03  0.62157316207E+03  0.00000000000E+00 0.  1.
          1   -1    0    0  502    0  0.00000000000E+00 -0.00000000000E+00 -0.65266984551E+02  0.65266984551E+02  0.00000000000E+00 0. -1.
          6    1    1    2  502    0  0.66027623115E+02  0.19431854792E+01  0.41322552526E+03  0.45282199340E+03  0.17300000000E+03 0.  1.
         -6    1    1    2    0  501 -0.66027623115E+02 -0.19431854792E+01  0.14308065226E+03  0.23401815322E+03  0.17300000000E+03 0. -1.
<mgrwt>
<rscale>  2 0.18518213E+03</rscale>
<asrwt>0</asrwt>
<pdfrwt beam="1">  1        1 0.10041075E-01 0.18518213E+03</pdfrwt>
<pdfrwt beam="2">  1       -1 0.95626636E-01 0.18518213E+03</pdfrwt>
<totfact> 0.70763540E+02</totfact>
</mgrwt>
</event>
<event>
 4    1  0.7368504E-001  0.1790474E+03  0.7546771E-02  0.1168728E+00
         -2   -1    0    0    0  501 -0.00000000000E+00  0.00000000000E+00  0.53738133446E+02  0.53738133446E+02  0.00000000000E+00 0.  1.
          2   -1    0    0  502    0  0.00000000000E+00 -0.00000000000E+00 -0.14240555982E+04  0.14240555982E+04  0.00000000000E+00 0. -1.
          6    1    1    2  502    0 -0.44626933279E+02  0.11721471510E+02 -0.12190573131E+03  0.21660785626E+03  0.17300000000E+03 0.  1.
         -6    1    1    2    0  501  0.44626933279E+02 -0.11721471510E+02 -0.12484117335E+04  0.12611858754E+04  0.17300000000E+03 0. -1.
<mgrwt>
<rscale>  2 0.17904736E+03</rscale>
<asrwt>0</asrwt>
<pdfrwt beam="1">  1        2 0.21908542E+00 0.17904736E+03</pdfrwt>
<pdfrwt beam="2">  1       -2 0.82674074E-02 0.17904736E+03</pdfrwt>
<totfact> 0.13541039E+03</totfact>
</mgrwt>
</event>
<event>
 4    1  0.7368504E-001  0.2244421E+03  0.7546771E-02  0.1130614E+00
         -2   -1    0    0    0  501 -0.00000000000E+00  0.00000000000E+00  0.25981403176E+03  0.25981403176E+03  0.00000000000E+00 0. -1.
          2   -1    0    0  502    0  0.00000000000E+00 -0.00000000000E+00 -0.20914460128E+03  0.20914460128E+03  0.00000000000E+00 0.  1.
          6    1    1    2  502    0  0.10928378966E+03 -0.92207907051E+02 -0.37999993840E+02  0.22763621051E+03  0.17300000000E+03 0. -1.
         -6    1    1    2    0  501 -0.10928378966E+03  0.92207907051E+02  0.88669424314E+02  0.24132242253E+03  0.17300000000E+03 0. -1.
<mgrwt>
<rscale>  2 0.22444207E+03</rscale>
<asrwt>0</asrwt>
<pdfrwt beam="1">  1        2 0.32176092E-01 0.22444207E+03</pdfrwt>
<pdfrwt beam="2">  1       -2 0.39971390E-01 0.22444207E+03</pdfrwt>
<totfact> 0.96621317E+02</totfact>
</mgrwt>
</event>
<event>
 4    1  0.7368504E-001  0.5887752E+03  0.7546771E-02  0.9928971E-01
         -1   -1    0    0    0  501 -0.00000000000E+00  0.00000000000E+00  0.26918437916E+03  0.26918437916E+03  0.00000000000E+00 0.  1.
          1   -1    0    0  502    0  0.00000000000E+00 -0.00000000000E+00 -0.12881846621E+04  0.12881846621E+04  0.00000000000E+00 0. -1.
          6    1    1    2  502    0 -0.26349904196E+03  0.49728817738E+03 -0.49608545173E+03  0.76990717096E+03  0.17300000000E+03 0. -1.
         -6    1    1    2    0  501  0.26349904196E+03 -0.49728817738E+03 -0.52291483117E+03  0.78746187027E+03  0.17300000000E+03 0.  1.
<mgrwt>
<rscale>  2 0.58877523E+03</rscale>
<asrwt>0</asrwt>
<pdfrwt beam="1">  1        1 0.19818226E+00 0.58877523E+03</pdfrwt>
<pdfrwt beam="2">  1       -1 0.41412981E-01 0.58877523E+03</pdfrwt>
<totfact> 0.55074731E+01</totfact>
</mgrwt>
</event>
<event>
 4    1  0.7368504E-001  0.2119669E+03  0.7546771E-02  0.1140018E+00
         -1   -1    0    0    0  501 -0.00000000000E+00  0.00000000000E+00  0.49370152039E+03  0.49370152039E+03  0.00000000000E+00 0.  1.
          1   -1    0    0  502    0  0.00000000000E+00 -0.00000000000E+00 -0.12486268226E+03  0.12486268226E+03  0.00000000000E+00 0. -1.
          6    1    1    2  502    0  0.10631482390E+03 -0.60812055216E+02  0.34546868252E+03  0.40531291423E+03  0.17300000000E+03 0.  1.
         -6    1    1    2    0  501 -0.10631482390E+03  0.60812055216E+02  0.23370155606E+02  0.21325128842E+03  0.17300000000E+03 0. -1.
<mgrwt>
<rscale>  2 0.21196686E+03</rscale>
<asrwt>0</asrwt>
<pdfrwt beam="1">  1        1 0.19209644E-01 0.21196686E+03</pdfrwt>
<pdfrwt beam="2">  1       -1 0.75954079E-01 0.21196686E+03</pdfrwt>
<totfact> 0.49036771E+02</totfact>
</mgrwt>
</event>
<event>
 4    1  0.7368504E-001  0.2331653E+03  0.7546771E-02  0.1124431E+00
          2   -1    0    0  502    0  0.00000000000E+00  0.00000000000E+00  0.31224823513E+03  0.31224823513E+03  0.00000000000E+00 0.  1.
         -2   -1    0    0    0  501 -0.00000000000E+00 -0.00000000000E+00 -0.22358463566E+03  0.22358463566E+03  0.00000000000E+00 0. -1.
          6    1    1    2  502    0  0.10150433414E+03  0.11888623457E+03 -0.81694818038E+02  0.24706296751E+03  0.17300000000E+03 0. -1.
         -6    1    1    2    0  501 -0.10150433414E+03 -0.11888623457E+03  0.17035841751E+03  0.28876990328E+03  0.17300000000E+03 0.  1.
<mgrwt>
<rscale>  2 0.23316532E+03</rscale>
<asrwt>0</asrwt>
<pdfrwt beam="1">  1        2 0.48038190E-01 0.23316532E+03</pdfrwt>
<pdfrwt beam="2">  1       -2 0.34397636E-01 0.23316532E+03</pdfrwt>
<totfact> 0.83145977E+02</totfact>
</mgrwt>
</event>
<event>
 4    1  0.7368504E-001  0.2164484E+03  0.7546771E-02  0.1136559E+00
         -2   -1    0    0    0  501 -0.00000000000E+00  0.00000000000E+00  0.16338606401E+03  0.16338606401E+03  0.00000000000E+00 0. -1.
          2   -1    0    0  502    0  0.00000000000E+00 -0.00000000000E+00 -0.28794412432E+03  0.28794412432E+03  0.00000000000E+00 0.  1.
          6    1    1    2  502    0  0.68081236578E+02 -0.11084153517E+03 -0.47707537165E+02  0.22164365498E+03  0.17300000000E+03 0.  1.
         -6    1    1    2    0  501 -0.68081236578E+02  0.11084153517E+03 -0.76850523144E+02  0.22968653334E+03  0.17300000000E+03 0.  1.
<mgrwt>
<rscale>  2 0.21644838E+03</rscale>
<asrwt>0</asrwt>
<pdfrwt beam="1">  1        2 0.44299096E-01 0.21644838E+03</pdfrwt>
<pdfrwt beam="2">  1       -2 0.25136318E-01 0.21644838E+03</pdfrwt>
<totfact> 0.15993151E+03</totfact>
</mgrwt>
</event>
<event>
 4    1  0.7368504E-001  0.1796618E+03  0.7546771E-02  0.1168131E+00
          1   -1    0    0  502    0  0.00000000000E+00  0.00000000000E+00  0.30781984878E+03  0.30781984878E+03  0.00000000000E+00 0. -1.
         -1   -1    0    0    0  501 -0.00000000000E+00 -0.00000000000E+00 -0.11782123736E+03  0.11782123736E+03  0.00000000000E+00 0.  1.
          6    1    1    2  502    0  0.14570029577E+02  0.46228579456E+02  0.24415606371E+02  0.18131323491E+03  0.17300000000E+03 0. -1.
         -6    1    1    2    0  501 -0.14570029577E+02 -0.46228579456E+02  0.16558300505E+03  0.24432785122E+03  0.17300000000E+03 0. -1.
<mgrwt>
<rscale>  2 0.17966181E+03</rscale>
<asrwt>0</asrwt>
<pdfrwt beam="1">  1        1 0.47356900E-01 0.17966181E+03</pdfrwt>
<pdfrwt beam="2">  1       -1 0.18126344E-01 0.17966181E+03</pdfrwt>
<totfact> 0.19821744E+03</totfact>
</mgrwt>
</event>
<event>
 4    1  0.7368504E-001  0.1953218E+03  0.7546771E-02  0.1153747E+00
         -2   -1    0    0    0  501 -0.00000000000E+00  0.00000000000E+00  0.28555492822E+02  0.28555492822E+02  0.00000000000E+00 0.  1.
          2   -1    0    0  502    0  0.00000000000E+00 -0.00000000000E+00 -0.29197595690E+04  0.29197595690E+04  0.00000000000E+00 0. -1.
          6    1    1    2  502    0 -0.78743791420E+02  0.44955933131E+02 -0.25313090955E+04  0.25388336608E+04  0.17300000000E+03 0. -1.
         -6    1    1    2    0  501  0.78743791420E+02 -0.44955933131E+02 -0.35989498071E+03  0.40948140098E+03  0.17300000000E+03 0.  1.
<mgrwt>
<rscale>  2 0.19532184E+03</rscale>
<asrwt>0</asrwt>
<pdfrwt beam="1">  1        2 0.44919385E+00 0.19532184E+03</pdfrwt>
<pdfrwt beam="2">  1       -2 0.43931520E-02 0.19532184E+03</pdfrwt>
<totfact> 0.56513192E+02</totfact>
</mgrwt>
</event>
<event>
 4    1  0.7368504E-001  0.2509842E+03  0.7546771E-02  0.1112684E+00
          2   -1    0    0  502    0  0.00000000000E+00  0.00000000000E+00  0.25642397510E+03  0.25642397510E+03  0.00000000000E+00 0.  1.
         -2   -1    0    0    0  501 -0.00000000000E+00 -0.00000000000E+00 -0.26088382387E+03  0.26088382387E+03  0.00000000000E+00 0. -1.
          6    1    1    2  502    0  0.98186271247E+02 -0.15304739472E+03  0.60252940803E+02  0.25811521801E+03  0.17300000000E+03 0.  1.
         -6    1    1    2    0  501 -0.98186271247E+02  0.15304739472E+03 -0.64712789570E+02  0.25919258096E+03  0.17300000000E+03 0. -1.
<mgrwt>
<rscale>  2 0.25098416E+03</rscale>
<asrwt>0</asrwt>
<pdfrwt beam="1">  1        2 0.39449842E-01 0.25098416E+03</pdfrwt>
<pdfrwt beam="2">  1       -2 0.40135973E-01 0.25098416E+03</pdfrwt>
<totfact> 0.76905918E+02</totfact>
</mgrwt>
</event>
<event>
 4    1  0.7368504E-001  0.2036826E+03  0.7546771E-02  0.1146669E+00
         -2   -1    0    0    0  501 -0.00000000000E+00  0.00000000000E+00  0.17392698034E+02  0.17392698034E+02  0.00000000000E+00 0. -1.
          2   -1    0    0  502    0  0.00000000000E+00 -0.00000000000E+00 -0.24780942212E+04  0.24780942212E+04  0.00000000000E+00 0.  1.
          6    1    1    2  502    0  0.58331546157E+01  0.10734794445E+03 -0.98888631415E+03  0.10096448629E+04  0.17300000000E+03 0. -1.
         -6    1    1    2    0  501 -0.58331546157E+01 -0.10734794445E+03 -0.14718152090E+04  0.14858420563E+04  0.17300000000E+03 0.  1.
<mgrwt>
<rscale>  2 0.20368261E+03</rscale>
<asrwt>0</asrwt>
<pdfrwt beam="1">  1        2 0.38124541E+00 0.20368261E+03</pdfrwt>
<pdfrwt beam="2">  1       -2 0.26757987E-02 0.20368261E+03</pdfrwt>
<totfact> 0.20839392E+03</totfact>
</mgrwt>
</event>
<event>
 4    1  0.7368504E-001  0.2525303E+03  0.7546771E-02  0.1111716E+00
          2   -1    0    0  502    0  0.00000000000E+00  0.00000000000E+00  0.23582331070E+04  0.23582331070E+04  0.00000000000E+00 0.  1.
         -2   -1    0    0    0  501 -0.00000000000E+00 -0.00000000000E+00 -0.28583791091E+02  0.28583791091E+02  0.00000000000E+00 0. -1.
          6    1    1    2  502    0 -0.16614476192E+03  0.78983892521E+02  0.88766490653E+03  0.92288705890E+03  0.17300000000E+03 0. -1.
         -6    1    1    2    0  501  0.16614476192E+03 -0.78983892521E+02  0.14419844094E+04  0.14639298392E+04  0.17300000000E+03 0.  1.
<mgrwt>
<rscale>  2 0.25253027E+03</rscale>
<asrwt>0</asrwt>
<pdfrwt beam="1">  1        2 0.36280494E+00 0.25253027E+03</pdfrwt>
<pdfrwt beam="2">  1       -2 0.43975082E-02 0.25253027E+03</pdfrwt>
<totfact> 0.11431512E+03</totfact>
</mgrwt>
</event>
<event>
 4    1  0.7368504E-001  0.1742050E+03  0.7546771E-02  0.1173532E+00
          1   -1    0    0  502    0  0.00000000000E+00  0.00000000000E+00  0.22439089281E+04  0.22439089281E+04  0.00000000000E+00 0.  1.
         -1   -1    0    0    0  501 -0.00000000000E+00 -0.00000000000E+00 -0.13806470209E+02  0.13806470209E+02  0.00000000000E+00 0. -1.
          6    1    1    2  502    0 -0.20410596773E+02 -0.13317916345E+01  0.12764238737E+04  0.12882566792E+04  0.17300000000E+03 0.  1.
         -6    1    1    2    0  501  0.20410596773E+02  0.13317916345E+01  0.95367858425E+03  0.96945871918E+03  0.17300000000E+03 0. -1.
<mgrwt>
<rscale>  2 0.17420495E+03</rscale>
<asrwt>0</asrwt>
<pdfrwt beam="1">  1        1 0.34521647E+00 0.17420495E+03</pdfrwt>
<pdfrwt beam="2">  1       -1 0.21240741E-02 0.17420495E+03</pdfrwt>
<totfact> 0.14783182E+03</totfact>
</mgrwt>
</event>
<event>
 4    1  0.7368504E-001  0.2021767E+03  0.7546771E-02  0.1147915E+00
         -2   -1    0    0    0  501 -0.00000000000E+00  0.00000000000E+00  0.12379226682E+03  0.12379226682E+03  0.00000000000E+00 0.  1.
          2   -1    0    0  502    0  0.00000000000E+00 -0.00000000000E+00 -0.43269390960E+03  0.43269390960E+03  0.00000000000E+00 0. -1.
          6    1    1    2  502    0  0.85717304724E+02  0.59991245835E+02 -0.19026482290E+02  0.20306997054E+03  0.17300000000E+03 0. -1.
         -6    1    1    2    0  501 -0.85717304724E+02 -0.59991245835E+02 -0.28987516050E+03  0.35341620588E+03  0.17300000000E+03 0.  1.
<mgrwt>
<rscale>  2 0.20217667E+03</rscale>
<asrwt>0</asrwt>
<pdfrwt beam="1">  1        2 0.66568295E-01 0.20217667E+03</pdfrwt>
<pdfrwt beam="2">  1       -2 0.19044964E-01 0.20217667E+03</pdfrwt>
<totfact> 0.16626215E+03</totfact>
</mgrwt>
</event>
<event>
 4    1  0.7368504E-001  0.1735463E+03  0.7546771E-02  0.1174199E+00
         -1   -1    0    0    0  501 -0.00000000000E+00  0.00000000000E+00  0.27287028945E+02  0.27287028945E+02  0.00000000000E+00 0.  1.
          1   -1    0    0  502    0  0.00000000000E+00 -0.00000000000E+00 -0.21537133565E+04  0.21537133565E+04  0.00000000000E+00 0. -1.
          6    1    1    2  502    0  0.87796831005E+01  0.10594435305E+02 -0.18246201299E+04  0.18328548615E+04  0.17300000000E+03 0. -1.
         -6    1    1    2    0  501 -0.87796831005E+01 -0.10594435305E+02 -0.30180619761E+03  0.34814552390E+03  0.17300000000E+03 0.  1.
<mgrwt>
<rscale>  2 0.17354632E+03</rscale>
<asrwt>0</asrwt>
<pdfrwt beam="1">  1        1 0.33134052E+00 0.17354632E+03</pdfrwt>
<pdfrwt beam="2">  1       -1 0.41980044E-02 0.17354632E+03</pdfrwt>
<totfact> 0.62277370E+02</totfact>
</mgrwt>
</event>
<event>
 4    1  0.7368504E-001  0.3395559E+03  0.7546771E-02  0.1066985E+00
          2   -1    0    0  502    0  0.00000000000E+00  0.00000000000E+00  0.65109520566E+03  0.65109520566E+03  0.00000000000E+00 0.  1.
         -2   -1    0    0    0  501 -0.00000000000E+00 -0.00000000000E+00 -0.24271561787E+03  0.24271561787E+03  0.00000000000E+00 0. -1.
          6    1    1    2  502    0 -0.28916605871E+03  0.41859205963E+02  0.43658386239E+03  0.55308559151E+03  0.17300000000E+03 0.  1.
         -6    1    1    2    0  501  0.28916605871E+03 -0.41859205963E+02 -0.28204274596E+02  0.34072523203E+03  0.17300000000E+03 0. -1.
<mgrwt>
<rscale>  2 0.33955589E+03</rscale>
<asrwt>0</asrwt>
<pdfrwt beam="1">  1        2 0.10016849E+00 0.33955589E+03</pdfrwt>
<pdfrwt beam="2">  1       -2 0.37340865E-01 0.33955589E+03</pdfrwt>
<totfact> 0.31205169E+02</totfact>
</mgrwt>
</event>
<event>
 4    1  0.7368504E-001  0.1734141E+03  0.7546771E-02  0.1174334E+00
          1   -1    0    0  502    0  0.00000000000E+00  0.00000000000E+00  0.38483743736E+04  0.38483743736E+04  0.00000000000E+00 0. -1.
         -1   -1    0    0    0  501 -0.00000000000E+00 -0.00000000000E+00 -0.98565673793E+01  0.98565673793E+01  0.00000000000E+00 0.  1.
          6    1    1    2  502    0 -0.28598754248E+01 -0.11631183428E+02  0.10411495615E+04  0.10554927156E+04  0.17300000000E+03 0.  1.
         -6    1    1    2    0  501  0.28598754248E+01  0.11631183428E+02  0.27973682448E+04  0.28027382254E+04  0.17300000000E+03 0. -1.
<mgrwt>
<rscale>  2 0.17341414E+03</rscale>
<asrwt>0</asrwt>
<pdfrwt beam="1">  1        1 0.59205640E+00 0.17341414E+03</pdfrwt>
<pdfrwt beam="2">  1       -1 0.15163980E-02 0.17341414E+03</pdfrwt>
<totfact> 0.17780907E+02</totfact>
</mgrwt>
</event>
<event>
 4    1  0.7368504E-001  0.2449709E+03  0.7546771E-02  0.1116525E+00
         -2   -1    0    0    0  501 -0.00000000000E+00  0.00000000000E+00  0.11849176481E+03  0.11849176481E+03  0.00000000000E+00 0.  1.
          2   -1    0    0  502    0  0.00000000000E+00 -0.00000000000E+00 -0.58460133865E+03  0.58460133865E+03  0.00000000000E+00 0. -1.
          6    1    1    2  502    0 -0.10401421129E+03 -0.13879046287E+03 -0.10452398698E+03  0.26633815459E+03  0.17300000000E+03 0.  1.
         -6    1    1    2    0  501  0.10401421129E+03  0.13879046287E+03 -0.36158558686E+03  0.43675494886E+03  0.17300000000E+03 0. -1.
<mgrwt>
<rscale>  2 0.24497091E+03</rscale>
<asrwt>0</asrwt>
<pdfrwt beam="1">  1        2 0.89938667E-01 0.24497091E+03</pdfrwt>
<pdfrwt beam="2">  1       -2 0.18229502E-01 0.24497091E+03</pdfrwt>
<totfact> 0.12816605E+03</totfact>
</mgrwt>
</event>
<event>
 4    1  0.7368504E-001  0.1812373E+03  0.7546771E-02  0.1166611E+00
          1   -1    0    0  502    0  0.00000000000E+00  0.00000000000E+00  0.44582030105E+02  0.44582030105E+02  0.00000000000E+00 0. -1.
         -1   -1    0    0    0  501 -0.00000000000E+00 -0.00000000000E+00 -0.79621889816E+03  0.79621889816E+03  0.00000000000E+00 0.  1.
          6    1    1    2  502    0  0.36322692154E+02 -0.39982669176E+02 -0.49068626221E+03  0.52308695235E+03  0.17300000000E+03 0.  1.
         -6    1    1    2    0  501 -0.36322692154E+02  0.39982669176E+02 -0.26095060585E+03  0.31771397591E+03  0.17300000000E+03 0. -1.
<mgrwt>
<rscale>  2 0.18123728E+03</rscale>
<asrwt>0</asrwt>
<pdfrwt beam="1">  1        1 0.68587748E-02 0.18123728E+03</pdfrwt>
<pdfrwt beam="2">  1       -1 0.12249520E+00 0.18123728E+03</pdfrwt>
<totfact> 0.67301703E+02</totfact>
</mgrwt>
</event>
<event>
 4    1  0.7368504E-001  0.1736355E+03  0.7546771E-02  0.1174109E+00
         -2   -1    0    0    0  501 -0.00000000000E+00  0.00000000000E+00  0.65066642684E+02  0.65066642684E+02  0.00000000000E+00 0.  1.
          2   -1    0    0  502    0  0.00000000000E+00 -0.00000000000E+00 -0.49504147522E+03  0.49504147522E+03  0.00000000000E+00 0. -1.
          6    1    1    2  502    0  0.18575137260E+01 -0.14725422927E+02 -0.28583464069E+03  0.33444092192E+03  0.17300000000E+03 0. -1.
         -6    1    1    2    0  501 -0.18575137260E+01  0.14725422927E+02 -0.14414019185E+03  0.22566719599E+03  0.17300000000E+03 0.  1.
<mgrwt>
<rscale>  2 0.17363550E+03</rscale>
<asrwt>0</asrwt>
<pdfrwt beam="1">  1        2 0.76160228E-01 0.17363550E+03</pdfrwt>
<pdfrwt beam="2">  1       -2 0.10010253E-01 0.17363550E+03</pdfrwt>
<totfact> 0.40816610E+03</totfact>
</mgrwt>
</event>
<event>
 4    1  0.7368504E-001  0.1744773E+03  0.7546771E-02  0.1173258E+00
          1   -1    0    0  502    0  0.00000000000E+00  0.00000000000E+00  0.14288885752E+04  0.14288885752E+04  0.00000000000E+00 0.  1.
         -1   -1    0    0    0  501 -0.00000000000E+00 -0.00000000000E+00 -0.24220903264E+02  0.24220903264E+02  0.00000000000E+00 0. -1.
          6    1    1    2  502    0 -0.22613086998E+02 -0.14092988887E+01  0.95443025345E+03  0.97024710591E+03  0.17300000000E+03 0.  1.
         -6    1    1    2    0  501  0.22613086998E+02  0.14092988887E+01  0.45023741853E+03  0.48286237260E+03  0.17300000000E+03 0. -1.
<mgrwt>
<rscale>  2 0.17447733E+03</rscale>
<asrwt>0</asrwt>
<pdfrwt beam="1">  1        1 0.21982895E+00 0.17447733E+03</pdfrwt>
<pdfrwt beam="2">  1       -1 0.37262939E-02 0.17447733E+03</pdfrwt>
<totfact> 0.21787921E+03</totfact>
</mgrwt>
</event>
<event>
 4    1  0.7368504E-001  0.2070646E+03  0.7546771E-02  0.1143912E+00
          3   -1    0    0  502    0  0.00000000000E+00  0.00000000000E+00  0.20567581353E+03  0.20567581353E+03  0.00000000000E+00 0. -1.
         -3   -1    0    0    0  501 -0.00000000000E+00 -0.00000000000E+00 -0.21197331641E+03  0.21197331641E+03  0.00000000000E+00 0.  1.
          6    1    1    2  502    0  0.45241594136E+01  0.11369376018E+03  0.23725202106E+02  0.20841934732E+03  0.17300000000E+03 0. -1.
         -6    1    1    2    0  501 -0.45241594136E+01 -0.11369376018E+03 -0.30022704988E+02  0.20922978262E+03  0.17300000000E+03 0.  1.
<mgrwt>
<rscale>  2 0.20706458E+03</rscale>
<asrwt>0</asrwt>
<pdfrwt beam="1">  1        3 0.31642433E-01 0.20706458E+03</pdfrwt>
<pdfrwt beam="2">  1       -3 0.32611279E-01 0.20706458E+03</pdfrwt>
<totfact> 0.21862418E+02</totfact>
</mgrwt>
</event>
<event>
 4    1  0.7368504E-001  0.1819590E+03  0.7546771E-02  0.1165920E+00
         -4   -1    0    0    0  501 -0.00000000000E+00  0.00000000000E+00  0.57535957490E+02  0.57535957490E+02  0.00000000000E+00 0.  1.
          4   -1    0    0  502    0  0.00000000000E+00 -0.00000000000E+00 -0.63241091585E+03  0.63241091585E+03  0.00000000000E+00 0. -1.
          6    1    1    2  502    0  0.42457843678E+02 -0.37113701020E+02 -0.39096899346E+03  0.43123757853E+03  0.17300000000E+03 0. -1.
         -6    1    1    2    0  501 -0.42457843678E+02  0.37113701020E+02 -0.18390596490E+03  0.25870929481E+03  0.17300000000E+03 0.  1.
<mgrwt>
<rscale>  2 0.18195905E+03</rscale>
<asrwt>0</asrwt>
<pdfrwt beam="1">  1        4 0.97293980E-01 0.18195905E+03</pdfrwt>
<pdfrwt beam="2">  1       -4 0.88516864E-02 0.18195905E+03</pdfrwt>
<totfact> 0.14905119E+02</totfact>
</mgrwt>
</event>
<event>
 4    1  0.7368504E-001  0.2259780E+03  0.7546771E-02  0.1129503E+00
         -2   -1    0    0    0  501 -0.00000000000E+00  0.00000000000E+00  0.10100746859E+03  0.10100746859E+03  0.00000000000E+00 0.  1.
          2   -1    0    0  502    0  0.00000000000E+00 -0.00000000000E+00 -0.63703542689E+03  0.63703542689E+03  0.00000000000E+00 0. -1.
          6    1    1    2  502    0  0.14537910279E+03 -0.13969202973E+01 -0.43565514758E+03  0.49077636713E+03  0.17300000000E+03 0.  1.
         -6    1    1    2    0  501 -0.14537910279E+03  0.13969202973E+01 -0.10037281071E+03  0.24726652836E+03  0.17300000000E+03 0.  1.
<mgrwt>
<rscale>  2 0.22597795E+03</rscale>
<asrwt>0</asrwt>
<pdfrwt beam="1">  1        2 0.98005451E-01 0.22597795E+03</pdfrwt>
<pdfrwt beam="2">  1       -2 0.15539610E-01 0.22597795E+03</pdfrwt>
<totfact> 0.15138871E+03</totfact>
</mgrwt>
</event>
<event>
 4    1  0.7368504E-001  0.2049975E+03  0.7546771E-02  0.1145590E+00
         -3   -1    0    0    0  501 -0.00000000000E+00  0.00000000000E+00  0.64637524540E+02  0.64637524540E+02  0.00000000000E+00 0. -1.
          3   -1    0    0  502    0  0.00000000000E+00 -0.00000000000E+00 -0.65029180412E+03  0.65029180412E+03  0.00000000000E+00 0.  1.
          6    1    1    2  502    0 -0.28323764831E+02 -0.10626724465E+03 -0.28751299996E+03  0.35311143862E+03  0.17300000000E+03 0.  1.
         -6    1    1    2    0  501  0.28323764831E+02  0.10626724465E+03 -0.29814127962E+03  0.36181789004E+03  0.17300000000E+03 0.  1.
<mgrwt>
<rscale>  2 0.20499747E+03</rscale>
<asrwt>0</asrwt>
<pdfrwt beam="1">  1        3 0.10004489E+00 0.20499747E+03</pdfrwt>
<pdfrwt beam="2">  1       -3 0.99442348E-02 0.20499747E+03</pdfrwt>
<totfact> 0.16516672E+02</totfact>
</mgrwt>
</event>
<event>
 4    1  0.7368504E-001  0.1796874E+03  0.7546771E-02  0.1168106E+00
         -2   -1    0    0    0  501 -0.00000000000E+00  0.00000000000E+00  0.39166542872E+02  0.39166542872E+02  0.00000000000E+00 0.  1.
          2   -1    0    0  502    0  0.00000000000E+00 -0.00000000000E+00 -0.82652551122E+03  0.82652551122E+03  0.00000000000E+00 0. -1.
          6    1    1    2  502    0 -0.20895748062E+02 -0.43839640191E+02 -0.41580707989E+03  0.45297138323E+03  0.17300000000E+03 0. -1.
         -6    1    1    2    0  501  0.20895748062E+02  0.43839640191E+02 -0.37155188846E+03  0.41272067086E+03  0.17300000000E+03 0.  1.
<mgrwt>
<rscale>  2 0.17968736E+03</rscale>
<asrwt>0</asrwt>
<pdfrwt beam="1">  1        2 0.12715777E+00 0.17968736E+03</pdfrwt>
<pdfrwt beam="2">  1       -2 0.60256221E-02 0.17968736E+03</pdfrwt>
<totfact> 0.49178671E+03</totfact>
</mgrwt>
</event>
<event>
 4    1  0.7368504E-001  0.1847657E+03  0.7546771E-02  0.1163269E+00
          2   -1    0    0  502    0  0.00000000000E+00  0.00000000000E+00  0.22768046978E+04  0.22768046978E+04  0.00000000000E+00 0. -1.
         -2   -1    0    0    0  501 -0.00000000000E+00 -0.00000000000E+00 -0.24476485011E+02  0.24476485011E+02  0.00000000000E+00 0.  1.
          6    1    1    2  502    0 -0.50042476105E+02  0.41293049977E+02  0.18423515342E+04  0.18515932439E+04  0.17300000000E+03 0. -1.
         -6    1    1    2    0  501  0.50042476105E+02 -0.41293049977E+02  0.40997667861E+03  0.44968793890E+03  0.17300000000E+03 0.  1.
<mgrwt>
<rscale>  2 0.18476570E+03</rscale>
<asrwt>0</asrwt>
<pdfrwt beam="1">  1        2 0.35027748E+00 0.18476570E+03</pdfrwt>
<pdfrwt beam="2">  1       -2 0.37656149E-02 0.18476570E+03</pdfrwt>
<totfact> 0.16102379E+03</totfact>
</mgrwt>
</event>
<event>
 4    1  0.7368504E-001  0.2724543E+03  0.7546771E-02  0.1099883E+00
         -2   -1    0    0    0  501 -0.00000000000E+00  0.00000000000E+00  0.23198849640E+03  0.23198849640E+03  0.00000000000E+00 0. -1.
          2   -1    0    0  502    0  0.00000000000E+00 -0.00000000000E+00 -0.42394800228E+03  0.42394800228E+03  0.00000000000E+00 0.  1.
          6    1    1    2  502    0 -0.46891902443E+02 -0.20519134515E+03  0.66436100901E+02  0.28043732658E+03  0.17300000000E+03 0. -1.
         -6    1    1    2    0  501  0.46891902443E+02  0.20519134515E+03 -0.25839560678E+03  0.37549917209E+03  0.17300000000E+03 0.  1.
<mgrwt>
<rscale>  2 0.27245429E+03</rscale>
<asrwt>0</asrwt>
<pdfrwt beam="1">  1        2 0.65222770E-01 0.27245429E+03</pdfrwt>
<pdfrwt beam="2">  1       -2 0.35690538E-01 0.27245429E+03</pdfrwt>
<totfact> 0.55684312E+02</totfact>
</mgrwt>
</event>
<event>
 4    1  0.7368504E-001  0.2647182E+03  0.7546771E-02  0.1104341E+00
          2   -1    0    0  502    0  0.00000000000E+00  0.00000000000E+00  0.33820576545E+03  0.33820576545E+03  0.00000000000E+00 0.  1.
         -2   -1    0    0    0  501 -0.00000000000E+00 -0.00000000000E+00 -0.20719994279E+03  0.20719994279E+03  0.00000000000E+00 0. -1.
          6    1    1    2  502    0 -0.19903021251E+03 -0.23101959984E+02  0.64782384671E+02  0.27252978445E+03  0.17300000000E+03 0.  1.
         -6    1    1    2    0  501  0.19903021251E+03  0.23101959984E+02  0.66223437986E+02  0.27287592379E+03  0.17300000000E+03 0. -1.
<mgrwt>
<rscale>  2 0.26471820E+03</rscale>
<asrwt>0</asrwt>
<pdfrwt beam="1">  1        2 0.52031656E-01 0.26471820E+03</pdfrwt>
<pdfrwt beam="2">  1       -2 0.31876914E-01 0.26471820E+03</pdfrwt>
<totfact> 0.87896622E+02</totfact>
</mgrwt>
</event>
<event>
 4    1  0.7368504E-001  0.3553584E+03  0.7546771E-02  0.1060437E+00
         -2   -1    0    0    0  501 -0.00000000000E+00  0.00000000000E+00  0.20732568550E+03  0.20732568550E+03  0.00000000000E+00 0.  1.
          2   -1    0    0  502    0  0.00000000000E+00 -0.00000000000E+00 -0.16149532127E+04  0.16149532127E+04  0.00000000000E+00 0. -1.
          6    1    1    2  502    0  0.30025865391E+02 -0.30894828630E+03  0.15262185074E+02  0.35568599985E+03  0.17300000000E+03 0.  1.
         -6    1    1    2    0  501 -0.30025865391E+02  0.30894828630E+03 -0.14228897122E+04  0.14665928983E+04  0.17300000000E+03 0. -1.
<mgrwt>
<rscale>  2 0.35535841E+03</rscale>
<asrwt>0</asrwt>
<pdfrwt beam="1">  1        2 0.24845435E+00 0.35535841E+03</pdfrwt>
<pdfrwt beam="2">  1       -2 0.31896258E-01 0.35535841E+03</pdfrwt>
<totfact> 0.10740953E+02</totfact>
</mgrwt>
</event>
<event>
 4    1  0.7368504E-001  0.2529060E+03  0.7546771E-02  0.1111482E+00
         -2   -1    0    0    0  501 -0.00000000000E+00  0.00000000000E+00  0.13084770672E+03  0.13084770672E+03  0.00000000000E+00 0. -1.
          2   -1    0    0  502    0  0.00000000000E+00 -0.00000000000E+00 -0.53636106848E+03  0.53636106848E+03  0.00000000000E+00 0.  1.
          6    1    1    2  502    0 -0.90959092647E+02 -0.16049573866E+03 -0.30207319048E+03  0.39396656085E+03  0.17300000000E+03 0.  1.
         -6    1    1    2    0  501  0.90959092647E+02  0.16049573866E+03 -0.10344017128E+03  0.27324221434E+03  0.17300000000E+03 0. -1.
<mgrwt>
<rscale>  2 0.25290599E+03</rscale>
<asrwt>0</asrwt>
<pdfrwt beam="1">  1        2 0.82517087E-01 0.25290599E+03</pdfrwt>
<pdfrwt beam="2">  1       -2 0.20130416E-01 0.25290599E+03</pdfrwt>
<totfact> 0.11948278E+03</totfact>
</mgrwt>
</event>
<event>
 4    1  0.7368504E-001  0.1816911E+03  0.7546771E-02  0.1166176E+00
          2   -1    0    0  502    0  0.00000000000E+00  0.00000000000E+00  0.48577425299E+03  0.48577425299E+03  0.00000000000E+00 0.  1.
         -2   -1    0    0    0  501 -0.00000000000E+00 -0.00000000000E+00 -0.83366100534E+02  0.83366100534E+02  0.00000000000E+00 0. -1.
          6    1    1    2  502    0 -0.41048695371E+02 -0.37385360422E+02  0.78859084750E+02  0.19806669537E+03  0.17300000000E+03 0. -1.
         -6    1    1    2    0  501  0.41048695371E+02  0.37385360422E+02  0.32354906770E+03  0.37107365815E+03  0.17300000000E+03 0.  1.
<mgrwt>
<rscale>  2 0.18169111E+03</rscale>
<asrwt>0</asrwt>
<pdfrwt beam="1">  1        2 0.74734499E-01 0.18169111E+03</pdfrwt>
<pdfrwt beam="2">  1       -2 0.12825554E-01 0.18169111E+03</pdfrwt>
<totfact> 0.28091786E+03</totfact>
</mgrwt>
</event>
<event>
 4    1  0.7368504E-001  0.1782408E+03  0.7546771E-02  0.1169516E+00
          1   -1    0    0  502    0  0.00000000000E+00  0.00000000000E+00  0.10091617847E+04  0.10091617847E+04  0.00000000000E+00 0. -1.
         -1   -1    0    0    0  501 -0.00000000000E+00 -0.00000000000E+00 -0.21615738290E+03  0.21615738290E+03  0.00000000000E+00 0.  1.
          6    1    1    2  502    0 -0.41660575084E+02  0.10256539103E+02 -0.16978850546E+03  0.24616648167E+03  0.17300000000E+03 0.  1.
         -6    1    1    2    0  501  0.41660575084E+02 -0.10256539103E+02  0.96279290728E+03  0.97915268596E+03  0.17300000000E+03 0. -1.
<mgrwt>
<rscale>  2 0.17824085E+03</rscale>
<asrwt>0</asrwt>
<pdfrwt beam="1">  1        1 0.15525566E+00 0.17824085E+03</pdfrwt>
<pdfrwt beam="2">  1       -1 0.33254983E-01 0.17824085E+03</pdfrwt>
<totfact> 0.13925790E+02</totfact>
</mgrwt>
</event>
<event>
 4    1  0.7368504E-001  0.2331583E+03  0.7546771E-02  0.1124436E+00
          2   -1    0    0  502    0  0.00000000000E+00  0.00000000000E+00  0.31489132904E+03  0.31489132904E+03  0.00000000000E+00 0. -1.
         -2   -1    0    0    0  501 -0.00000000000E+00 -0.00000000000E+00 -0.19657701117E+03  0.19657701117E+03  0.00000000000E+00 0.  1.
          6    1    1    2  502    0  0.97229200872E+01 -0.15601046106E+03 -0.30082624493E+02  0.23509096842E+03  0.17300000000E+03 0.  1.
         -6    1    1    2    0  501 -0.97229200872E+01  0.15601046106E+03  0.14839694236E+03  0.27637737179E+03  0.17300000000E+03 0. -1.
<mgrwt>
<rscale>  2 0.23315831E+03</rscale>
<asrwt>0</asrwt>
<pdfrwt beam="1">  1        2 0.48444820E-01 0.23315831E+03</pdfrwt>
<pdfrwt beam="2">  1       -2 0.30242617E-01 0.23315831E+03</pdfrwt>
<totfact> 0.10442070E+03</totfact>
</mgrwt>
</event>
<event>
 4    1  0.7368504E-001  0.2106363E+03  0.7546771E-02  0.1141063E+00
         -2   -1    0    0    0  501 -0.00000000000E+00  0.00000000000E+00  0.72723304464E+02  0.72723304464E+02  0.00000000000E+00 0.  1.
          2   -1    0    0  502    0  0.00000000000E+00 -0.00000000000E+00 -0.74506187646E+03  0.74506187646E+03  0.00000000000E+00 0. -1.
          6    1    1    2  502    0 -0.74279123226E+02  0.94452433939E+02 -0.51020450936E+03  0.55197490142E+03  0.17300000000E+03 0. -1.
         -6    1    1    2    0  501  0.74279123226E+02 -0.94452433939E+02 -0.16213406264E+03  0.26581027951E+03  0.17300000000E+03 0.  1.
<mgrwt>
<rscale>  2 0.21063630E+03</rscale>
<asrwt>0</asrwt>
<pdfrwt beam="1">  1        2 0.11462491E+00 0.21063630E+03</pdfrwt>
<pdfrwt beam="2">  1       -2 0.11188200E-01 0.21063630E+03</pdfrwt>
<totfact> 0.21392538E+03</totfact>
</mgrwt>
</event>
<event>
 4    1  0.7368504E-001  0.1777293E+03  0.7546771E-02  0.1170019E+00
         -4   -1    0    0    0  501 -0.00000000000E+00  0.00000000000E+00  0.53796989989E+02  0.53796989989E+02  0.00000000000E+00 0.  1.
          4   -1    0    0  502    0  0.00000000000E+00 -0.00000000000E+00 -0.70401797874E+03  0.70401797874E+03  0.00000000000E+00 0. -1.
          6    1    1    2  502    0 -0.40165077486E+02  0.67443387144E+01 -0.47947976766E+03  0.51135952827E+03  0.17300000000E+03 0. -1.
         -6    1    1    2    0  501  0.40165077486E+02 -0.67443387144E+01 -0.17074122110E+03  0.24645544047E+03  0.17300000000E+03 0.  1.
<mgrwt>
<rscale>  2 0.17772934E+03</rscale>
<asrwt>0</asrwt>
<pdfrwt beam="1">  1        4 0.10831046E+00 0.17772934E+03</pdfrwt>
<pdfrwt beam="2">  1       -4 0.82764600E-02 0.17772934E+03</pdfrwt>
<totfact> 0.12928673E+02</totfact>
</mgrwt>
</event>
<event>
 4    1  0.7368504E-001  0.1851760E+03  0.7546771E-02  0.1162886E+00
          1   -1    0    0  502    0  0.00000000000E+00  0.00000000000E+00  0.29044349212E+02  0.29044349212E+02  0.00000000000E+00 0.  1.
         -1   -1    0    0    0  501 -0.00000000000E+00 -0.00000000000E+00 -0.14598990634E+04  0.14598990634E+04  0.00000000000E+00 0. -1.
          6    1    1    2  502    0  0.26591025269E+02 -0.60448957416E+02 -0.10410471557E+04  0.10573879797E+04  0.17300000000E+03 0. -1.
         -6    1    1    2    0  501 -0.26591025269E+02  0.60448957416E+02 -0.38980755845E+03  0.43155543294E+03  0.17300000000E+03 0.  1.
<mgrwt>
<rscale>  2 0.18517602E+03</rscale>
<asrwt>0</asrwt>
<pdfrwt beam="1">  1        1 0.44683622E-02 0.18517602E+03</pdfrwt>
<pdfrwt beam="2">  1       -1 0.22459982E+00 0.18517602E+03</pdfrwt>
<totfact> 0.22536200E+02</totfact>
</mgrwt>
</event>
<event>
 4    1  0.7368504E-001  0.2174954E+03  0.7546771E-02  0.1135764E+00
         -1   -1    0    0    0  501 -0.00000000000E+00  0.00000000000E+00  0.16855746640E+03  0.16855746640E+03  0.00000000000E+00 0. -1.
          1   -1    0    0  502    0  0.00000000000E+00 -0.00000000000E+00 -0.30612485549E+03  0.30612485549E+03  0.00000000000E+00 0.  1.
          6    1    1    2  502    0  0.78215455162E+02  0.10610186227E+03 -0.30587412436E+00  0.21749564631E+03  0.17300000000E+03 0. -1.
         -6    1    1    2    0  501 -0.78215455162E+02 -0.10610186227E+03 -0.13726151497E+03  0.25718667558E+03  0.17300000000E+03 0. -1.
<mgrwt>
<rscale>  2 0.21749543E+03</rscale>
<asrwt>0</asrwt>
<pdfrwt beam="1">  1        1 0.47096131E-01 0.21749543E+03</pdfrwt>
<pdfrwt beam="2">  1       -1 0.25931918E-01 0.21749543E+03</pdfrwt>
<totfact> 0.11161427E+03</totfact>
</mgrwt>
</event>
<event>
 4    1  0.7368504E-001  0.1969746E+03  0.7546771E-02  0.1152317E+00
          1   -1    0    0  502    0  0.00000000000E+00  0.00000000000E+00  0.93842681068E+03  0.93842681068E+03  0.00000000000E+00 0. -1.
         -1   -1    0    0    0  501 -0.00000000000E+00 -0.00000000000E+00 -0.62250080675E+02  0.62250080675E+02  0.00000000000E+00 0.  1.
          6    1    1    2  502    0  0.75303915080E+02 -0.56562592295E+02  0.72803802716E+03  0.75421374653E+03  0.17300000000E+03 0. -1.
         -6    1    1    2    0  501 -0.75303915080E+02  0.56562592295E+02  0.14813870285E+03  0.24646314482E+03  0.17300000000E+03 0.  1.
<mgrwt>
<rscale>  2 0.19697463E+03</rscale>
<asrwt>0</asrwt>
<pdfrwt beam="1">  1        1 0.14437334E+00 0.19697463E+03</pdfrwt>
<pdfrwt beam="2">  1       -1 0.95769362E-02 0.19697463E+03</pdfrwt>
<totfact> 0.11640088E+03</totfact>
</mgrwt>
</event>
<event>
 4    1  0.7368504E-001  0.1855646E+03  0.7546771E-02  0.1162524E+00
         -1   -1    0    0    0  501 -0.00000000000E+00  0.00000000000E+00  0.27716746149E+02  0.27716746149E+02  0.00000000000E+00 0.  1.
          1   -1    0    0  502    0  0.00000000000E+00 -0.00000000000E+00 -0.13449349139E+04  0.13449349139E+04  0.00000000000E+00 0. -1.
          6    1    1    2  502    0 -0.66313608954E+02  0.10378370322E+02 -0.84814787627E+03  0.86821024258E+03  0.17300000000E+03 0. -1.
         -6    1    1    2    0  501  0.66313608954E+02 -0.10378370322E+02 -0.46907029144E+03  0.50444141743E+03  0.17300000000E+03 0.  1.
<mgrwt>
<rscale>  2 0.18556456E+03</rscale>
<asrwt>0</asrwt>
<pdfrwt beam="1">  1        1 0.20691309E+00 0.18556456E+03</pdfrwt>
<pdfrwt beam="2">  1       -1 0.42641143E-02 0.18556456E+03</pdfrwt>
<totfact> 0.20305805E+03</totfact>
</mgrwt>
</event>
<event>
 4    1  0.7368504E-001  0.2267821E+03  0.7546771E-02  0.1128925E+00
          1   -1    0    0  502    0  0.00000000000E+00  0.00000000000E+00  0.22694965006E+03  0.22694965006E+03  0.00000000000E+00 0. -1.
         -1   -1    0    0    0  501 -0.00000000000E+00 -0.00000000000E+00 -0.23097234547E+03  0.23097234547E+03  0.00000000000E+00 0.  1.
          6    1    1    2  502    0 -0.13397039631E+03  0.59607625235E+02  0.29437550970E+02  0.22868472944E+03  0.17300000000E+03 0. -1.
         -6    1    1    2    0  501  0.13397039631E+03 -0.59607625235E+02 -0.33460246384E+02  0.22923726608E+03  0.17300000000E+03 0.  1.
<mgrwt>
<rscale>  2 0.22678213E+03</rscale>
<asrwt>0</asrwt>
<pdfrwt beam="1">  1        1 0.34915331E-01 0.22678213E+03</pdfrwt>
<pdfrwt beam="2">  1       -1 0.35534207E-01 0.22678213E+03</pdfrwt>
<totfact> 0.95065237E+02</totfact>
</mgrwt>
</event>
<event>
 4    1  0.7368504E-001  0.1865114E+03  0.7546771E-02  0.1161646E+00
         -1   -1    0    0    0  501 -0.00000000000E+00  0.00000000000E+00  0.23429912848E+03  0.23429912848E+03  0.00000000000E+00 0. -1.
          1   -1    0    0  502    0  0.00000000000E+00 -0.00000000000E+00 -0.14927805180E+03  0.14927805180E+03  0.00000000000E+00 0.  1.
          6    1    1    2  502    0 -0.69686951620E+02 -0.11154145483E+01  0.28404586906E+02  0.18866196207E+03  0.17300000000E+03 0.  1.
         -6    1    1    2    0  501  0.69686951620E+02  0.11154145483E+01  0.56616489765E+02  0.19491521821E+03  0.17300000000E+03 0.  1.
<mgrwt>
<rscale>  2 0.18651143E+03</rscale>
<asrwt>0</asrwt>
<pdfrwt beam="1">  1        1 0.22965854E-01 0.18651143E+03</pdfrwt>
<pdfrwt beam="2">  1       -1 0.36046020E-01 0.18651143E+03</pdfrwt>
<totfact> 0.15683318E+03</totfact>
</mgrwt>
</event>
<event>
 4    1  0.7368504E-001  0.3568162E+03  0.7546771E-02  0.1059852E+00
         -2   -1    0    0    0  501 -0.00000000000E+00  0.00000000000E+00  0.81118088568E+02  0.81118088568E+02  0.00000000000E+00 0.  1.
          2   -1    0    0  502    0  0.00000000000E+00 -0.00000000000E+00 -0.16433575180E+04  0.16433575180E+04  0.00000000000E+00 0. -1.
          6    1    1    2  502    0  0.30037650419E+03  0.84632875040E+02 -0.59837187832E+03  0.69668261968E+03  0.17300000000E+03 0.  1.
         -6    1    1    2    0  501 -0.30037650419E+03 -0.84632875040E+02 -0.96386755111E+03  0.10277929869E+04  0.17300000000E+03 0. -1.
<mgrwt>
<rscale>  2 0.35681615E+03</rscale>
<asrwt>0</asrwt>
<pdfrwt beam="1">  1        2 0.25282421E+00 0.35681615E+03</pdfrwt>
<pdfrwt beam="2">  1       -2 0.12479707E-01 0.35681615E+03</pdfrwt>
<totfact> 0.52677677E+02</totfact>
</mgrwt>
</event>
<event>
 4    1  0.7368504E-001  0.1971225E+03  0.7546771E-02  0.1152190E+00
         -1   -1    0    0    0  501 -0.00000000000E+00  0.00000000000E+00  0.26125932158E+02  0.26125932158E+02  0.00000000000E+00 0.  1.
          1   -1    0    0  502    0  0.00000000000E+00 -0.00000000000E+00 -0.18773037832E+04  0.18773037832E+04  0.00000000000E+00 0. -1.
          6    1    1    2  502    0 -0.21583147823E+02 -0.91991465900E+02 -0.13593699042E+04  0.13735879289E+04  0.17300000000E+03 0.  1.
         -6    1    1    2    0  501  0.21583147823E+02  0.91991465900E+02 -0.49180794689E+03  0.52984178647E+03  0.17300000000E+03 0.  1.
<mgrwt>
<rscale>  2 0.19712245E+03</rscale>
<asrwt>0</asrwt>
<pdfrwt beam="1">  1        1 0.28881604E+00 0.19712245E+03</pdfrwt>
<pdfrwt beam="2">  1       -1 0.40193732E-02 0.19712245E+03</pdfrwt>
<totfact> 0.99631231E+02</totfact>
</mgrwt>
</event>
<event>
 4    1  0.7368504E-001  0.1826582E+03  0.7546771E-02  0.1165255E+00
         -1   -1    0    0    0  501 -0.00000000000E+00  0.00000000000E+00  0.31644472980E+02  0.31644472980E+02  0.00000000000E+00 0.  1.
          1   -1    0    0  502    0  0.00000000000E+00 -0.00000000000E+00 -0.14372248399E+04  0.14372248399E+04  0.00000000000E+00 0. -1.
          6    1    1    2  502    0  0.58378445832E+02 -0.51953211296E+01 -0.32371541485E+03  0.37169302403E+03  0.17300000000E+03 0.  1.
         -6    1    1    2    0  501 -0.58378445832E+02  0.51953211296E+01 -0.10818649520E+04  0.10971762888E+04  0.17300000000E+03 0. -1.
<mgrwt>
<rscale>  2 0.18265824E+03</rscale>
<asrwt>0</asrwt>
<pdfrwt beam="1">  1        1 0.22111150E+00 0.18265824E+03</pdfrwt>
<pdfrwt beam="2">  1       -1 0.48683807E-02 0.18265824E+03</pdfrwt>
<totfact> 0.14478085E+03</totfact>
</mgrwt>
</event>
<event>
 4    1  0.7368504E-001  0.1948370E+03  0.7546771E-02  0.1154170E+00
         -2   -1    0    0    0  501 -0.00000000000E+00  0.00000000000E+00  0.16915265521E+02  0.16915265521E+02  0.00000000000E+00 0.  1.
          2   -1    0    0  502    0  0.00000000000E+00 -0.00000000000E+00 -0.25113214820E+04  0.25113214820E+04  0.00000000000E+00 0. -1.
          6    1    1    2  502    0 -0.53861545387E+02 -0.71633679382E+02 -0.83493395136E+03  0.85736582229E+03  0.17300000000E+03 0.  1.
         -6    1    1    2    0  501  0.53861545387E+02  0.71633679382E+02 -0.16594722651E+04  0.16708709253E+04  0.17300000000E+03 0. -1.
<mgrwt>
<rscale>  2 0.19483698E+03</rscale>
<asrwt>0</asrwt>
<pdfrwt beam="1">  1        2 0.38635675E+00 0.19483698E+03</pdfrwt>
<pdfrwt beam="2">  1       -2 0.26023512E-02 0.19483698E+03</pdfrwt>
<totfact> 0.20852705E+03</totfact>
</mgrwt>
</event>
<event>
 4    1  0.7368504E-001  0.2842570E+03  0.7546771E-02  0.1093386E+00
          1   -1    0    0  502    0  0.00000000000E+00  0.00000000000E+00  0.65315165369E+03  0.65315165369E+03  0.00000000000E+00 0.  1.
         -1   -1    0    0    0  501 -0.00000000000E+00 -0.00000000000E+00 -0.20285856308E+03  0.20285856308E+03  0.00000000000E+00 0. -1.
          6    1    1    2  502    0  0.21714999020E+03 -0.60983115967E+02 -0.42197794196E+02  0.28737208026E+03  0.17300000000E+03 0. -1.
         -6    1    1    2    0  501 -0.21714999020E+03  0.60983115967E+02  0.49249088480E+03  0.56863813651E+03  0.17300000000E+03 0.  1.
<mgrwt>
<rscale>  2 0.28425703E+03</rscale>
<asrwt>0</asrwt>
<pdfrwt beam="1">  1        1 0.10048487E+00 0.28425703E+03</pdfrwt>
<pdfrwt beam="2">  1       -1 0.31209010E-01 0.28425703E+03</pdfrwt>
<totfact> 0.29969298E+02</totfact>
</mgrwt>
</event>
<event>
 4    1  0.7368504E-001  0.1902571E+03  0.7546771E-02  0.1158230E+00
         -2   -1    0    0    0  501 -0.00000000000E+00  0.00000000000E+00  0.18012799210E+02  0.18012799210E+02  0.00000000000E+00 0. -1.
          2   -1    0    0  502    0  0.00000000000E+00 -0.00000000000E+00 -0.21727101211E+04  0.21727101211E+04  0.00000000000E+00 0.  1.
          6    1    1    2  502    0  0.67077374407E+02 -0.42064341509E+02 -0.13775078048E+04  0.13905846020E+04  0.17300000000E+03 0.  1.
         -6    1    1    2    0  501 -0.67077374407E+02  0.42064341509E+02 -0.77718951711E+03  0.80013831834E+03  0.17300000000E+03 0.  1.
<mgrwt>
<rscale>  2 0.19025715E+03</rscale>
<asrwt>0</asrwt>
<pdfrwt beam="1">  1        2 0.33426295E+00 0.19025715E+03</pdfrwt>
<pdfrwt beam="2">  1       -2 0.27712011E-02 0.19025715E+03</pdfrwt>
<totfact> 0.28789197E+03</totfact>
</mgrwt>
</event>
<event>
 4    1  0.7368504E-001  0.1802108E+03  0.7546771E-02  0.1167599E+00
         -2   -1    0    0    0  501 -0.00000000000E+00  0.00000000000E+00  0.72882106720E+02  0.72882106720E+02  0.00000000000E+00 0.  1.
          2   -1    0    0  502    0  0.00000000000E+00 -0.00000000000E+00 -0.54717853838E+03  0.54717853838E+03  0.00000000000E+00 0. -1.
          6    1    1    2  502    0  0.49429256070E+02  0.10182328920E+02 -0.37073099266E+03  0.41221038329E+03  0.17300000000E+03 0. -1.
         -6    1    1    2    0  501 -0.49429256070E+02 -0.10182328920E+02 -0.10356543900E+03  0.20785026181E+03  0.17300000000E+03 0.  1.
<mgrwt>
<rscale>  2 0.18021080E+03</rscale>
<asrwt>0</asrwt>
<pdfrwt beam="1">  1        2 0.84181308E-01 0.18021080E+03</pdfrwt>
<pdfrwt beam="2">  1       -2 0.11212632E-01 0.18021080E+03</pdfrwt>
<totfact> 0.30521484E+03</totfact>
</mgrwt>
</event>
<event>
 4    1  0.7368504E-001  0.2334536E+03  0.7546771E-02  0.1124232E+00
          1   -1    0    0  502    0  0.00000000000E+00  0.00000000000E+00  0.46367293296E+03  0.46367293296E+03  0.00000000000E+00 0.  1.
         -1   -1    0    0    0  501 -0.00000000000E+00 -0.00000000000E+00 -0.11802511086E+03  0.11802511086E+03  0.00000000000E+00 0. -1.
          6    1    1    2  502    0  0.98624882299E+02  0.12183883214E+03  0.19145182463E+03  0.30191781925E+03  0.17300000000E+03 0. -1.
         -6    1    1    2    0  501 -0.98624882299E+02 -0.12183883214E+03  0.15419599747E+03  0.27978022457E+03  0.17300000000E+03 0. -1.
<mgrwt>
<rscale>  2 0.23345357E+03</rscale>
<asrwt>0</asrwt>
<pdfrwt beam="1">  1        1 0.71334297E-01 0.23345357E+03</pdfrwt>
<pdfrwt beam="2">  1       -1 0.18157710E-01 0.23345357E+03</pdfrwt>
<totfact> 0.11786885E+03</totfact>
</mgrwt>
</event>
<event>
 4    1  0.7368504E-001  0.2279925E+03  0.7546771E-02  0.1128061E+00
         -2   -1    0    0    0  501 -0.00000000000E+00  0.00000000000E+00  0.43397120795E+03  0.43397120795E+03  0.00000000000E+00 0. -1.
          2   -1    0    0  502    0  0.00000000000E+00 -0.00000000000E+00 -0.93447307661E+03  0.93447307661E+03  0.00000000000E+00 0.  1.
          6    1    1    2  502    0 -0.50017614456E+02  0.13982062113E+03  0.38861693957E+03  0.45055931193E+03  0.17300000000E+03 0. -1.
         -6    1    1    2    0  501  0.50017614456E+02 -0.13982062113E+03 -0.88911880823E+03  0.91788497264E+03  0.17300000000E+03 0.  1.
<mgrwt>
<rscale>  2 0.22799247E+03</rscale>
<asrwt>0</asrwt>
<pdfrwt beam="1">  1        2 0.14376509E+00 0.22799247E+03</pdfrwt>
<pdfrwt beam="2">  1       -2 0.66764802E-01 0.22799247E+03</pdfrwt>
<totfact> 0.62454263E+01</totfact>
</mgrwt>
</event>
<event>
 4    1  0.7368504E-001  0.2016207E+03  0.7546771E-02  0.1148379E+00
         -2   -1    0    0    0  501 -0.00000000000E+00  0.00000000000E+00  0.84209222743E+03  0.84209222743E+03  0.00000000000E+00 0.  1.
          2   -1    0    0  502    0  0.00000000000E+00 -0.00000000000E+00 -0.53512506659E+02  0.53512506659E+02  0.00000000000E+00 0. -1.
          6    1    1    2  502    0  0.79686266130E+02 -0.66121066191E+02  0.53440190542E+03  0.57117098396E+03  0.17300000000E+03 0.  1.
         -6    1    1    2    0  501 -0.79686266130E+02  0.66121066191E+02  0.25417781535E+03  0.32443375012E+03  0.17300000000E+03 0. -1.
<mgrwt>
<rscale>  2 0.20162067E+03</rscale>
<asrwt>0</asrwt>
<pdfrwt beam="1">  1        2 0.82326940E-02 0.20162067E+03</pdfrwt>
<pdfrwt beam="2">  1       -2 0.12955264E+00 0.20162067E+03</pdfrwt>
<totfact> 0.37537064E+02</totfact>
</mgrwt>
</event>
<event>
 4    1  0.7368504E-001  0.1916873E+03  0.7546771E-02  0.1156948E+00
         -4   -1    0    0    0  501 -0.00000000000E+00  0.00000000000E+00  0.19693380433E+04  0.19693380433E+04  0.00000000000E+00 0.  1.
          4   -1    0    0  502    0  0.00000000000E+00 -0.00000000000E+00 -0.20604748141E+02  0.20604748141E+02  0.00000000000E+00 0. -1.
          6    1    1    2  502    0  0.82542136616E+02  0.13542110822E+01  0.12801927278E+04  0.12944641588E+04  0.17300000000E+03 0.  1.
         -6    1    1    2    0  501 -0.82542136616E+02 -0.13542110822E+01  0.66854056743E+03  0.69547863267E+03  0.17300000000E+03 0. -1.
<mgrwt>
<rscale>  2 0.19168734E+03</rscale>
<asrwt>0</asrwt>
<pdfrwt beam="1">  1        4 0.31699628E-02 0.19168734E+03</pdfrwt>
<pdfrwt beam="2">  1       -4 0.30297493E+00 0.19168734E+03</pdfrwt>
<totfact> 0.31212198E+01</totfact>
</mgrwt>
</event>
<event>
 4    1  0.7368504E-001  0.2505726E+03  0.7546771E-02  0.1112943E+00
          2   -1    0    0  502    0  0.00000000000E+00  0.00000000000E+00  0.63619708478E+03  0.63619708478E+03  0.00000000000E+00 0. -1.
         -2   -1    0    0    0  501 -0.00000000000E+00 -0.00000000000E+00 -0.11200367856E+03  0.11200367856E+03  0.00000000000E+00 0.  1.
          6    1    1    2  502    0  0.13236384704E+03  0.12384449549E+03  0.13311981480E+03  0.28373849256E+03  0.17300000000E+03 0.  1.
         -6    1    1    2    0  501 -0.13236384704E+03 -0.12384449549E+03  0.39107359143E+03  0.46446227078E+03  0.17300000000E+03 0. -1.
<mgrwt>
<rscale>  2 0.25057264E+03</rscale>
<asrwt>0</asrwt>
<pdfrwt beam="1">  1        2 0.97876473E-01 0.25057264E+03</pdfrwt>
<pdfrwt beam="2">  1       -2 0.17231335E-01 0.25057264E+03</pdfrwt>
<totfact> 0.12769491E+03</totfact>
</mgrwt>
</event>
<event>
 4    1  0.7368504E-001  0.2282692E+03  0.7546771E-02  0.1127864E+00
         -1   -1    0    0    0  501 -0.00000000000E+00  0.00000000000E+00  0.19882246353E+02  0.19882246353E+02  0.00000000000E+00 0. -1.
          1   -1    0    0  502    0  0.00000000000E+00 -0.00000000000E+00 -0.27614674556E+04  0.27614674556E+04  0.00000000000E+00 0.  1.
          6    1    1    2  502    0  0.11119599893E+03 -0.99061967705E+02 -0.16846963653E+04  0.17000907819E+04  0.17300000000E+03 0.  1.
         -6    1    1    2    0  501 -0.11119599893E+03  0.99061967705E+02 -0.10568888440E+04  0.10812589201E+04  0.17300000000E+03 0. -1.
<mgrwt>
<rscale>  2 0.22826919E+03</rscale>
<asrwt>0</asrwt>
<pdfrwt beam="1">  1        1 0.42484095E+00 0.22826919E+03</pdfrwt>
<pdfrwt beam="2">  1       -1 0.30588085E-02 0.22826919E+03</pdfrwt>
<totfact> 0.39085744E+02</totfact>
</mgrwt>
</event>
<event>
 4    1  0.7368504E-001  0.3852192E+03  0.7546771E-02  0.1049021E+00
         -1   -1    0    0    0  501 -0.00000000000E+00  0.00000000000E+00  0.81211165879E+03  0.81211165879E+03  0.00000000000E+00 0. -1.
          1   -1    0    0  502    0  0.00000000000E+00 -0.00000000000E+00 -0.34877596077E+03  0.34877596077E+03  0.00000000000E+00 0.  1.
          6    1    1    2  502    0  0.27095573868E+03 -0.21224466116E+03  0.63217149327E+03  0.74029359407E+03  0.17300000000E+03 0. -1.
         -6    1    1    2    0  501 -0.27095573868E+03  0.21224466116E+03 -0.16883579525E+03  0.42059402548E+03  0.17300000000E+03 0.  1.
<mgrwt>
<rscale>  2 0.38521917E+03</rscale>
<asrwt>0</asrwt>
<pdfrwt beam="1">  1        1 0.53657840E-01 0.38521917E+03</pdfrwt>
<pdfrwt beam="2">  1       -1 0.12494025E+00 0.38521917E+03</pdfrwt>
<totfact> 0.42948819E+01</totfact>
</mgrwt>
</event>
<event>
 4    1  0.7368504E-001  0.1737354E+03  0.7546771E-02  0.1174007E+00
          2   -1    0    0  502    0  0.00000000000E+00  0.00000000000E+00  0.12855202830E+04  0.12855202830E+04  0.00000000000E+00 0. -1.
         -2   -1    0    0    0  501 -0.00000000000E+00 -0.00000000000E+00 -0.23708323857E+02  0.23708323857E+02  0.00000000000E+00 0.  1.
          6    1    1    2  502    0 -0.15770233035E+02 -0.25082603261E+01  0.69514944048E+03  0.71653104344E+03  0.17300000000E+03 0. -1.
         -6    1    1    2    0  501  0.15770233035E+02  0.25082603261E+01  0.56666251870E+03  0.59269756345E+03  0.17300000000E+03 0.  1.
<mgrwt>
<rscale>  2 0.17373541E+03</rscale>
<asrwt>0</asrwt>
<pdfrwt beam="1">  1        2 0.19777230E+00 0.17373541E+03</pdfrwt>
<pdfrwt beam="2">  1       -2 0.36474354E-02 0.17373541E+03</pdfrwt>
<totfact> 0.55788896E+03</totfact>
</mgrwt>
</event>
<event>
 4    1  0.7368504E-001  0.2007462E+03  0.7546771E-02  0.1149111E+00
          1   -1    0    0  502    0  0.00000000000E+00  0.00000000000E+00  0.96322674547E+03  0.96322674547E+03  0.00000000000E+00 0. -1.
         -1   -1    0    0    0  501 -0.00000000000E+00 -0.00000000000E+00 -0.55987401231E+02  0.55987401231E+02  0.00000000000E+00 0.  1.
          6    1    1    2  502    0  0.80221734534E+02  0.62725828465E+02  0.70981197898E+03  0.73765310394E+03  0.17300000000E+03 0. -1.
         -6    1    1    2    0  501 -0.80221734534E+02 -0.62725828465E+02  0.19742736526E+03  0.28156104276E+03  0.17300000000E+03 0.  1.
<mgrwt>
<rscale>  2 0.20074625E+03</rscale>
<asrwt>0</asrwt>
<pdfrwt beam="1">  1        1 0.14818872E+00 0.20074625E+03</pdfrwt>
<pdfrwt beam="2">  1       -1 0.86134471E-02 0.20074625E+03</pdfrwt>
<totfact> 0.13112957E+03</totfact>
</mgrwt>
</event>
<event>
 4    1  0.7368504E-001  0.1949925E+03  0.7546771E-02  0.1154034E+00
         -1   -1    0    0    0  501 -0.00000000000E+00  0.00000000000E+00  0.79267256325E+02  0.79267256325E+02  0.00000000000E+00 0. -1.
          1   -1    0    0  502    0  0.00000000000E+00 -0.00000000000E+00 -0.14566869466E+04  0.14566869466E+04  0.00000000000E+00 0.  1.
          6    1    1    2  502    0 -0.74641690444E+02  0.50216651981E+02 -0.59759599128E+02  0.20394436441E+03  0.17300000000E+03 0. -1.
         -6    1    1    2    0  501  0.74641690444E+02 -0.50216651981E+02 -0.13176600911E+04  0.13320098385E+04  0.17300000000E+03 0.  1.
<mgrwt>
<rscale>  2 0.19499255E+03</rscale>
<asrwt>0</asrwt>
<pdfrwt beam="1">  1        1 0.22410568E+00 0.19499255E+03</pdfrwt>
<pdfrwt beam="2">  1       -1 0.12194963E-01 0.19499255E+03</pdfrwt>
<totfact> 0.34755563E+02</totfact>
</mgrwt>
</event>
<event>
 4    1  0.7368504E-001  0.1773870E+03  0.7546771E-02  0.1170356E+00
          1   -1    0    0  502    0  0.00000000000E+00  0.00000000000E+00  0.27221001578E+03  0.27221001578E+03  0.00000000000E+00 0.  1.
         -1   -1    0    0    0  501 -0.00000000000E+00 -0.00000000000E+00 -0.25715914685E+03  0.25715914685E+03  0.00000000000E+00 0. -1.
          6    1    1    2  502    0 -0.77053343079E+01 -0.38441761308E+02 -0.18885768545E+03  0.25910107399E+03  0.17300000000E+03 0. -1.
         -6    1    1    2    0  501  0.77053343079E+01  0.38441761308E+02  0.20390855438E+03  0.27026808864E+03  0.17300000000E+03 0.  1.
<mgrwt>
<rscale>  2 0.17738698E+03</rscale>
<asrwt>0</asrwt>
<pdfrwt beam="1">  1        1 0.41878464E-01 0.17738698E+03</pdfrwt>
<pdfrwt beam="2">  1       -1 0.39562946E-01 0.17738698E+03</pdfrwt>
<totfact> 0.62645639E+02</totfact>
</mgrwt>
</event>
<event>
 4    1  0.7368504E-001  0.1742526E+03  0.7546771E-02  0.1173484E+00
          2   -1    0    0  502    0  0.00000000000E+00  0.00000000000E+00  0.12981929347E+04  0.12981929347E+04  0.00000000000E+00 0. -1.
         -2   -1    0    0    0  501 -0.00000000000E+00 -0.00000000000E+00 -0.67963274153E+02  0.67963274153E+02  0.00000000000E+00 0.  1.
          6    1    1    2  502    0  0.41005262549E+00 -0.20851733627E+02  0.61926034761E+02  0.18492916676E+03  0.17300000000E+03 0.  1.
         -6    1    1    2    0  501 -0.41005262549E+00  0.20851733627E+02  0.11683036258E+04  0.11812270421E+04  0.17300000000E+03 0. -1.
<mgrwt>
<rscale>  2 0.17425258E+03</rscale>
<asrwt>0</asrwt>
<pdfrwt beam="1">  1        2 0.19972197E+00 0.17425258E+03</pdfrwt>
<pdfrwt beam="2">  1       -2 0.10455889E-01 0.17425258E+03</pdfrwt>
<totfact> 0.10945605E+03</totfact>
</mgrwt>
</event>
<event>
 4    1  0.7368504E-001  0.2191931E+03  0.7546771E-02  0.1134486E+00
         -1   -1    0    0    0  501 -0.00000000000E+00  0.00000000000E+00  0.23824163645E+02  0.23824163645E+02  0.00000000000E+00 0.  1.
          1   -1    0    0  502    0  0.00000000000E+00 -0.00000000000E+00 -0.20242877371E+04  0.20242877371E+04  0.00000000000E+00 0. -1.
          6    1    1    2  502    0 -0.48616906621E+02 -0.12551092152E+03 -0.93743199444E+03  0.96271716471E+03  0.17300000000E+03 0.  1.
         -6    1    1    2    0  501  0.48616906621E+02  0.12551092152E+03 -0.10630315790E+04  0.10853947361E+04  0.17300000000E+03 0.  1.
<mgrwt>
<rscale>  2 0.21919305E+03</rscale>
<asrwt>0</asrwt>
<pdfrwt beam="1">  1        1 0.31142882E+00 0.21919305E+03</pdfrwt>
<pdfrwt beam="2">  1       -1 0.36652567E-02 0.21919305E+03</pdfrwt>
<totfact> 0.91616319E+02</totfact>
</mgrwt>
</event>
<event>
 4    1  0.7368504E-001  0.1907910E+03  0.7546771E-02  0.1157750E+00
          2   -1    0    0  502    0  0.00000000000E+00  0.00000000000E+00  0.10436448275E+04  0.10436448275E+04  0.00000000000E+00 0.  1.
         -2   -1    0    0    0  501 -0.00000000000E+00 -0.00000000000E+00 -0.34879986005E+02  0.34879986005E+02  0.00000000000E+00 0. -1.
          6    1    1    2  502    0 -0.77448612887E+02  0.21769354300E+02  0.50138515111E+03  0.53645900326E+03  0.17300000000E+03 0.  1.
         -6    1    1    2    0  501  0.77448612887E+02 -0.21769354300E+02  0.50737969043E+03  0.54206581029E+03  0.17300000000E+03 0. -1.
<mgrwt>
<rscale>  2 0.19079097E+03</rscale>
<asrwt>0</asrwt>
<pdfrwt beam="1">  1        2 0.16056072E+00 0.19079097E+03</pdfrwt>
<pdfrwt beam="2">  1       -2 0.53661525E-02 0.19079097E+03</pdfrwt>
<totfact> 0.42944986E+03</totfact>
</mgrwt>
</event>
<event>
 4    1  0.7368504E-001  0.2502936E+03  0.7546771E-02  0.1113119E+00
         -2   -1    0    0    0  501 -0.00000000000E+00  0.00000000000E+00  0.56837060182E+02  0.56837060182E+02  0.00000000000E+00 0. -1.
          2   -1    0    0  502    0  0.00000000000E+00 -0.00000000000E+00 -0.13110725427E+04  0.13110725427E+04  0.00000000000E+00 0.  1.
          6    1    1    2  502    0 -0.15262443629E+03 -0.97075675604E+02 -0.90010013692E+03  0.93425219391E+03  0.17300000000E+03 0. -1.
         -6    1    1    2    0  501  0.15262443629E+03  0.97075675604E+02 -0.35413534555E+03  0.43365740892E+03  0.17300000000E+03 0. -1.
<mgrwt>
<rscale>  2 0.25029364E+03</rscale>
<asrwt>0</asrwt>
<pdfrwt beam="1">  1        2 0.20170345E+00 0.25029364E+03</pdfrwt>
<pdfrwt beam="2">  1       -2 0.87441638E-02 0.25029364E+03</pdfrwt>
<totfact> 0.14236499E+03</totfact>
</mgrwt>
</event>
<event>
 4    1  0.7368504E-001  0.2140300E+03  0.7546771E-02  0.1138414E+00
         -2   -1    0    0    0  501 -0.00000000000E+00  0.00000000000E+00  0.40433498309E+02  0.40433498309E+02  0.00000000000E+00 0. -1.
          2   -1    0    0  502    0  0.00000000000E+00 -0.00000000000E+00 -0.11696626732E+04  0.11696626732E+04  0.00000000000E+00 0.  1.
          6    1    1    2  502    0 -0.50613445706E+02  0.11540422053E+03 -0.67181786997E+03  0.70508730340E+03  0.17300000000E+03 0.  1.
         -6    1    1    2    0  501  0.50613445706E+02 -0.11540422053E+03 -0.45741130495E+03  0.50500886813E+03  0.17300000000E+03 0. -1.
<mgrwt>
<rscale>  2 0.21403003E+03</rscale>
<asrwt>0</asrwt>
<pdfrwt beam="1">  1        2 0.17994811E+00 0.21403003E+03</pdfrwt>
<pdfrwt beam="2">  1       -2 0.62205381E-02 0.21403003E+03</pdfrwt>
<totfact> 0.29013137E+03</totfact>
</mgrwt>
</event>
<event>
 4    1  0.7368504E-001  0.2814999E+03  0.7546771E-02  0.1094873E+00
          2   -1    0    0  502    0  0.00000000000E+00  0.00000000000E+00  0.28282245562E+04  0.28282245562E+04  0.00000000000E+00 0. -1.
         -2   -1    0    0    0  501 -0.00000000000E+00 -0.00000000000E+00 -0.32308735145E+02  0.32308735145E+02  0.00000000000E+00 0.  1.
          6    1    1    2  502    0  0.21998210525E+03 -0.30348793568E+02  0.19191590357E+04  0.19396941976E+04  0.17300000000E+03 0.  1.
         -6    1    1    2    0  501 -0.21998210525E+03  0.30348793568E+02  0.87675678538E+03  0.92083909377E+03  0.17300000000E+03 0.  1.
<mgrwt>
<rscale>  2 0.28149987E+03</rscale>
<asrwt>0</asrwt>
<pdfrwt beam="1">  1        2 0.43511127E+00 0.28149987E+03</pdfrwt>
<pdfrwt beam="2">  1       -2 0.49705769E-02 0.28149987E+03</pdfrwt>
<totfact> 0.51745773E+02</totfact>
</mgrwt>
</event>
<event>
 4    1  0.7368504E-001  0.1828444E+03  0.7546771E-02  0.1165078E+00
          2   -1    0    0  502    0  0.00000000000E+00  0.00000000000E+00  0.42511102042E+03  0.42511102042E+03  0.00000000000E+00 0. -1.
         -2   -1    0    0    0  501 -0.00000000000E+00 -0.00000000000E+00 -0.12570159343E+03  0.12570159343E+03  0.00000000000E+00 0.  1.
          6    1    1    2  502    0  0.57357193279E+02  0.14602578600E+02 -0.18803908042E+02  0.18380878619E+03  0.17300000000E+03 0.  1.
         -6    1    1    2    0  501 -0.57357193279E+02 -0.14602578600E+02  0.31821333504E+03  0.36700382766E+03  0.17300000000E+03 0. -1.
<mgrwt>
<rscale>  2 0.18284442E+03</rscale>
<asrwt>0</asrwt>
<pdfrwt beam="1">  1        2 0.65401695E-01 0.18284442E+03</pdfrwt>
<pdfrwt beam="2">  1       -2 0.19338707E-01 0.18284442E+03</pdfrwt>
<totfact> 0.16478963E+03</totfact>
</mgrwt>
</event>
<event>
 4    1  0.7368504E-001  0.2810575E+03  0.7546771E-02  0.1095113E+00
         -1   -1    0    0    0  501 -0.00000000000E+00  0.00000000000E+00  0.40821168273E+02  0.40821168273E+02  0.00000000000E+00 0.  1.
          1   -1    0    0  502    0  0.00000000000E+00 -0.00000000000E+00 -0.19822511400E+04  0.19822511400E+04  0.00000000000E+00 0. -1.
          6    1    1    2  502    0 -0.18901291962E+03  0.11549206982E+03 -0.81471702535E+03  0.86183358798E+03  0.17300000000E+03 0.  1.
         -6    1    1    2    0  501  0.18901291962E+03 -0.11549206982E+03 -0.11267129464E+04  0.11612387203E+04  0.17300000000E+03 0.  1.
<mgrwt>
<rscale>  2 0.28105747E+03</rscale>
<asrwt>0</asrwt>
<pdfrwt beam="1">  1        1 0.30496182E+00 0.28105747E+03</pdfrwt>
<pdfrwt beam="2">  1       -1 0.62801775E-02 0.28105747E+03</pdfrwt>
<totfact> 0.43127599E+02</totfact>
</mgrwt>
</event>
<event>
 4    1  0.7368504E-001  0.1799026E+03  0.7546771E-02  0.1167897E+00
         -2   -1    0    0    0  501 -0.00000000000E+00  0.00000000000E+00  0.27244669936E+02  0.27244669936E+02  0.00000000000E+00 0. -1.
          2   -1    0    0  502    0  0.00000000000E+00 -0.00000000000E+00 -0.12035917931E+04  0.12035917931E+04  0.00000000000E+00 0.  1.
          6    1    1    2  502    0 -0.43225963709E+02  0.23821410778E+02 -0.65836084721E+03  0.68249831405E+03  0.17300000000E+03 0.  1.
         -6    1    1    2    0  501  0.43225963709E+02 -0.23821410778E+02 -0.51798627594E+03  0.54833814896E+03  0.17300000000E+03 0. -1.
<mgrwt>
<rscale>  2 0.17990259E+03</rscale>
<asrwt>0</asrwt>
<pdfrwt beam="1">  1        2 0.18516793E+00 0.17990259E+03</pdfrwt>
<pdfrwt beam="2">  1       -2 0.41914886E-02 0.17990259E+03</pdfrwt>
<totfact> 0.50356460E+03</totfact>
</mgrwt>
</event>
<event>
 4    1  0.7368504E-001  0.2258499E+03  0.7546771E-02  0.1129595E+00
         -1   -1    0    0    0  501 -0.00000000000E+00  0.00000000000E+00  0.30321013291E+03  0.30321013291E+03  0.00000000000E+00 0. -1.
          1   -1    0    0  502    0  0.00000000000E+00 -0.00000000000E+00 -0.27327924668E+03  0.27327924668E+03  0.00000000000E+00 0.  1.
          6    1    1    2  502    0  0.13823454113E+03  0.44388884099E+02  0.19368021648E+03  0.29752342370E+03  0.17300000000E+03 0. -1.
         -6    1    1    2    0  501 -0.13823454113E+03 -0.44388884099E+02 -0.16374933024E+03  0.27896595589E+03  0.17300000000E+03 0.  1.
<mgrwt>
<rscale>  2 0.22584986E+03</rscale>
<asrwt>0</asrwt>
<pdfrwt beam="1">  1        1 0.42042961E-01 0.22584986E+03</pdfrwt>
<pdfrwt beam="2">  1       -1 0.46647713E-01 0.22584986E+03</pdfrwt>
<totfact> 0.46374921E+02</totfact>
</mgrwt>
</event>
<event>
 4    1  0.7368504E-001  0.2428867E+03  0.7546771E-02  0.1117885E+00
          2   -1    0    0  502    0  0.00000000000E+00  0.00000000000E+00  0.95156726888E+03  0.95156726888E+03  0.00000000000E+00 0. -1.
         -2   -1    0    0    0  501 -0.00000000000E+00 -0.00000000000E+00 -0.86828704387E+02  0.86828704387E+02  0.00000000000E+00 0.  1.
          6    1    1    2  502    0  0.16751722696E+03 -0.31669095770E+02  0.71002584310E+03  0.75042031611E+03  0.17300000000E+03 0. -1.
         -6    1    1    2    0  501 -0.16751722696E+03  0.31669095770E+02  0.15471272139E+03  0.28797565716E+03  0.17300000000E+03 0.  1.
<mgrwt>
<rscale>  2 0.24288671E+03</rscale>
<asrwt>0</asrwt>
<pdfrwt beam="1">  1        2 0.14639496E+00 0.24288671E+03</pdfrwt>
<pdfrwt beam="2">  1       -2 0.13358263E-01 0.24288671E+03</pdfrwt>
<totfact> 0.11695932E+03</totfact>
</mgrwt>
</event>
<event>
 4    1  0.7368504E-001  0.1792407E+03  0.7546771E-02  0.1168540E+00
         -4   -1    0    0    0  501 -0.00000000000E+00  0.00000000000E+00  0.61228218440E+03  0.61228218440E+03  0.00000000000E+00 0.  1.
          4   -1    0    0  502    0  0.00000000000E+00 -0.00000000000E+00 -0.73967405531E+02  0.73967405531E+02  0.00000000000E+00 0. -1.
          6    1    1    2  502    0 -0.43483408203E+02 -0.17533807179E+02  0.84182907919E+02  0.19802525892E+03  0.17300000000E+03 0. -1.
         -6    1    1    2    0  501  0.43483408203E+02  0.17533807179E+02  0.45413187095E+03  0.48822433102E+03  0.17300000000E+03 0.  1.
<mgrwt>
<rscale>  2 0.17924074E+03</rscale>
<asrwt>0</asrwt>
<pdfrwt beam="1">  1        4 0.11379601E-01 0.17924074E+03</pdfrwt>
<pdfrwt beam="2">  1       -4 0.94197255E-01 0.17924074E+03</pdfrwt>
<totfact> 0.10465442E+02</totfact>
</mgrwt>
</event>
<event>
 4    1  0.7368504E-001  0.2584805E+03  0.7546771E-02  0.1108060E+00
          1   -1    0    0  502    0  0.00000000000E+00  0.00000000000E+00  0.10024837918E+03  0.10024837918E+03  0.00000000000E+00 0. -1.
         -1   -1    0    0    0  501 -0.00000000000E+00 -0.00000000000E+00 -0.75274868860E+03  0.75274868860E+03  0.00000000000E+00 0.  1.
          6    1    1    2  502    0  0.13260881958E+03  0.13891747602E+03 -0.18185464993E+03  0.31604315825E+03  0.17300000000E+03 0. -1.
         -6    1    1    2    0  501 -0.13260881958E+03 -0.13891747602E+03 -0.47064565949E+03  0.53695390954E+03  0.17300000000E+03 0. -1.
<mgrwt>
<rscale>  2 0.25848049E+03</rscale>
<asrwt>0</asrwt>
<pdfrwt beam="1">  1        1 0.15422827E-01 0.25848049E+03</pdfrwt>
<pdfrwt beam="2">  1       -1 0.11580749E+00 0.25848049E+03</pdfrwt>
<totfact> 0.25942616E+02</totfact>
</mgrwt>
</event>
<event>
 4    1  0.7368504E-001  0.2698106E+03  0.7546771E-02  0.1101388E+00
         -1   -1    0    0    0  501 -0.00000000000E+00  0.00000000000E+00  0.21974713298E+03  0.21974713298E+03  0.00000000000E+00 0. -1.
          1   -1    0    0  502    0  0.00000000000E+00 -0.00000000000E+00 -0.36670543752E+03  0.36670543752E+03  0.00000000000E+00 0.  1.
          6    1    1    2  502    0  0.13640909736E+03  0.15576041677E+03 -0.16461811737E+03  0.31606466718E+03  0.17300000000E+03 0.  1.
         -6    1    1    2    0  501 -0.13640909736E+03 -0.15576041677E+03  0.17659812822E+02  0.27038790332E+03  0.17300000000E+03 0. -1.
<mgrwt>
<rscale>  2 0.26981058E+03</rscale>
<asrwt>0</asrwt>
<pdfrwt beam="1">  1        1 0.56416220E-01 0.26981058E+03</pdfrwt>
<pdfrwt beam="2">  1       -1 0.33807252E-01 0.26981058E+03</pdfrwt>
<totfact> 0.56582258E+02</totfact>
</mgrwt>
</event>
<event>
 4    1  0.7368504E-001  0.1788324E+03  0.7546771E-02  0.1168938E+00
          2   -1    0    0  502    0  0.00000000000E+00  0.00000000000E+00  0.14909455933E+04  0.14909455933E+04  0.00000000000E+00 0.  1.
         -2   -1    0    0    0  501 -0.00000000000E+00 -0.00000000000E+00 -0.23031307787E+02  0.23031307787E+02  0.00000000000E+00 0. -1.
          6    1    1    2  502    0 -0.31073548398E+02 -0.32961358894E+02  0.53561425095E+03  0.56468012397E+03  0.17300000000E+03 0. -1.
         -6    1    1    2    0  501  0.31073548398E+02  0.32961358894E+02  0.93230003456E+03  0.94929677711E+03  0.17300000000E+03 0.  1.
<mgrwt>
<rscale>  2 0.17883237E+03</rscale>
<asrwt>0</asrwt>
<pdfrwt beam="1">  1        2 0.22937617E+00 0.17883237E+03</pdfrwt>
<pdfrwt beam="2">  1       -2 0.35432793E-02 0.17883237E+03</pdfrwt>
<totfact> 0.45227965E+03</totfact>
</mgrwt>
</event>
<event>
 4    1  0.7368504E-001  0.1924609E+03  0.7546771E-02  0.1156260E+00
         -1   -1    0    0    0  501 -0.00000000000E+00  0.00000000000E+00  0.23220035400E+03  0.23220035400E+03  0.00000000000E+00 0. -1.
          1   -1    0    0  502    0  0.00000000000E+00 -0.00000000000E+00 -0.15971267756E+03  0.15971267756E+03  0.00000000000E+00 0.  1.
          6    1    1    2  502    0  0.38224090843E+02  0.75173954480E+02  0.43003946516E+02  0.19720685579E+03  0.17300000000E+03 0.  1.
         -6    1    1    2    0  501 -0.38224090843E+02 -0.75173954480E+02  0.29483729931E+02  0.19470617577E+03  0.17300000000E+03 0. -1.
<mgrwt>
<rscale>  2 0.19246092E+03</rscale>
<asrwt>0</asrwt>
<pdfrwt beam="1">  1        1 0.24571181E-01 0.19246092E+03</pdfrwt>
<pdfrwt beam="2">  1       -1 0.35723131E-01 0.19246092E+03</pdfrwt>
<totfact> 0.14631996E+03</totfact>
</mgrwt>
</event>
<event>
 4    1  0.7368504E-001  0.1821564E+03  0.7546771E-02  0.1165732E+00
          2   -1    0    0  502    0  0.00000000000E+00  0.00000000000E+00  0.60446513431E+03  0.60446513431E+03  0.00000000000E+00 0.  1.
         -2   -1    0    0    0  501 -0.00000000000E+00 -0.00000000000E+00 -0.67319255072E+02  0.67319255072E+02  0.00000000000E+00 0. -1.
          6    1    1    2  502    0  0.57023907347E+02  0.48290446270E+00  0.12426214597E+03  0.22050405921E+03  0.17300000000E+03 0. -1.
         -6    1    1    2    0  501 -0.57023907347E+02 -0.48290446270E+00  0.41288373327E+03  0.45128033018E+03  0.17300000000E+03 0.  1.
<mgrwt>
<rscale>  2 0.18215641E+03</rscale>
<asrwt>0</asrwt>
<pdfrwt beam="1">  1        2 0.92994632E-01 0.18215641E+03</pdfrwt>
<pdfrwt beam="2">  1       -2 0.10356809E-01 0.18215641E+03</pdfrwt>
<totfact> 0.30929501E+03</totfact>
</mgrwt>
</event>
<event>
 4    1  0.7368504E-001  0.2768224E+03  0.7546771E-02  0.1097437E+00
         -2   -1    0    0    0  501 -0.00000000000E+00  0.00000000000E+00  0.20748028318E+03  0.20748028318E+03  0.00000000000E+00 0. -1.
          2   -1    0    0  502    0  0.00000000000E+00 -0.00000000000E+00 -0.45286874670E+03  0.45286874670E+03  0.00000000000E+00 0.  1.
          6    1    1    2  502    0  0.18417851575E+03 -0.11304828207E+03  0.19106006423E+02  0.27748095290E+03  0.17300000000E+03 0. -1.
         -6    1    1    2    0  501 -0.18417851575E+03  0.11304828207E+03 -0.26449446994E+03  0.38286807698E+03  0.17300000000E+03 0.  1.
<mgrwt>
<rscale>  2 0.27682240E+03</rscale>
<asrwt>0</asrwt>
<pdfrwt beam="1">  1        2 0.69672115E-01 0.27682240E+03</pdfrwt>
<pdfrwt beam="2">  1       -2 0.31920044E-01 0.27682240E+03</pdfrwt>
<totfact> 0.63717429E+02</totfact>
</mgrwt>
</event>
<event>
 4    1  0.7368504E-001  0.1982857E+03  0.7546771E-02  0.1151193E+00
         -2   -1    0    0    0  501 -0.00000000000E+00  0.00000000000E+00  0.68056658792E+02  0.68056658792E+02  0.00000000000E+00 0.  1.
          2   -1    0    0  502    0  0.00000000000E+00 -0.00000000000E+00 -0.59357240187E+03  0.59357240187E+03  0.00000000000E+00 0. -1.
          6    1    1    2  502    0 -0.19463448869E+02  0.94917782001E+02 -0.20868341009E+03  0.28786451123E+03  0.17300000000E+03 0.  1.
         -6    1    1    2    0  501  0.19463448869E+02 -0.94917782001E+02 -0.31683233299E+03  0.37376454943E+03  0.17300000000E+03 0.  1.
<mgrwt>
<rscale>  2 0.19828568E+03</rscale>
<asrwt>0</asrwt>
<pdfrwt beam="1">  1        2 0.91318835E-01 0.19828568E+03</pdfrwt>
<pdfrwt beam="2">  1       -2 0.10470255E-01 0.19828568E+03</pdfrwt>
<totfact> 0.31124320E+03</totfact>
</mgrwt>
</event>
<event>
 4    1  0.7368504E-001  0.2216569E+03  0.7546771E-02  0.1132654E+00
         -1   -1    0    0    0  501 -0.00000000000E+00  0.00000000000E+00  0.12287340466E+03  0.12287340466E+03  0.00000000000E+00 0. -1.
          1   -1    0    0  502    0  0.00000000000E+00 -0.00000000000E+00 -0.46266864348E+03  0.46266864348E+03  0.00000000000E+00 0.  1.
          6    1    1    2  502    0  0.25096686145E+02 -0.13628257432E+03 -0.62024474387E+02  0.23017128218E+03  0.17300000000E+03 0.  1.
         -6    1    1    2    0  501 -0.25096686145E+02  0.13628257432E+03 -0.27777076443E+03  0.35537076595E+03  0.17300000000E+03 0.  1.
<mgrwt>
<rscale>  2 0.22165691E+03</rscale>
<asrwt>0</asrwt>
<pdfrwt beam="1">  1        1 0.71179792E-01 0.22165691E+03</pdfrwt>
<pdfrwt beam="2">  1       -1 0.18903600E-01 0.22165691E+03</pdfrwt>
<totfact> 0.11071533E+03</totfact>
</mgrwt>
</event>
<event>
 4    1  0.7368504E-001  0.2620035E+03  0.7546771E-02  0.1105945E+00
          2   -1    0    0  502    0  0.00000000000E+00  0.00000000000E+00  0.10748421323E+04  0.10748421323E+04  0.00000000000E+00 0.  1.
         -2   -1    0    0    0  501 -0.00000000000E+00 -0.00000000000E+00 -0.64053771593E+02  0.64053771593E+02  0.00000000000E+00 0. -1.
          6    1    1    2  502    0  0.81260335136E+02  0.17920266506E+03  0.53622814185E+03  0.59681358676E+03  0.17300000000E+03 0.  1.
         -6    1    1    2    0  501 -0.81260335136E+02 -0.17920266506E+03  0.47456021890E+03  0.54208231717E+03  0.17300000000E+03 0. -1.
<mgrwt>
<rscale>  2 0.26200351E+03</rscale>
<asrwt>0</asrwt>
<pdfrwt beam="1">  1        2 0.16536031E+00 0.26200351E+03</pdfrwt>
<pdfrwt beam="2">  1       -2 0.98544272E-02 0.26200351E+03</pdfrwt>
<totfact> 0.16065922E+03</totfact>
</mgrwt>
</event>
<event>
 4    1  0.7368504E-001  0.2108286E+03  0.7546771E-02  0.1140911E+00
         -4   -1    0    0    0  501 -0.00000000000E+00  0.00000000000E+00  0.13534800188E+03  0.13534800188E+03  0.00000000000E+00 0.  1.
          4   -1    0    0  502    0  0.00000000000E+00 -0.00000000000E+00 -0.61336988770E+03  0.61336988770E+03  0.00000000000E+00 0. -1.
          6    1    1    2  502    0  0.65834151240E+01 -0.12031774427E+03  0.16155832896E+02  0.21144671167E+03  0.17300000000E+03 0.  1.
         -6    1    1    2    0  501 -0.65834151240E+01  0.12031774427E+03 -0.49417771871E+03  0.53727117791E+03  0.17300000000E+03 0. -1.
<mgrwt>
<rscale>  2 0.21082861E+03</rscale>
<asrwt>0</asrwt>
<pdfrwt beam="1">  1        4 0.94364597E-01 0.21082861E+03</pdfrwt>
<pdfrwt beam="2">  1       -4 0.20822770E-01 0.21082861E+03</pdfrwt>
<totfact> 0.36625291E+01</totfact>
</mgrwt>
</event>
<event>
 4    1  0.7368504E-001  0.1770676E+03  0.7546771E-02  0.1170672E+00
          1   -1    0    0  502    0  0.00000000000E+00  0.00000000000E+00  0.10522360798E+03  0.10522360798E+03  0.00000000000E+00 0. -1.
         -1   -1    0    0    0  501 -0.00000000000E+00 -0.00000000000E+00 -0.29942569401E+03  0.29942569401E+03  0.00000000000E+00 0.  1.
          6    1    1    2  502    0  0.71260153071E+01 -0.37056338474E+02 -0.11123240245E+03  0.20910667055E+03  0.17300000000E+03 0. -1.
         -6    1    1    2    0  501 -0.71260153071E+01  0.37056338474E+02 -0.82969683580E+02  0.19554263144E+03  0.17300000000E+03 0. -1.
<mgrwt>
<rscale>  2 0.17706765E+03</rscale>
<asrwt>0</asrwt>
<pdfrwt beam="1">  1        1 0.16188247E-01 0.17706765E+03</pdfrwt>
<pdfrwt beam="2">  1       -1 0.46065491E-01 0.17706765E+03</pdfrwt>
<totfact> 0.15893782E+03</totfact>
</mgrwt>
</event>
<event>
 4    1  0.7368504E-001  0.1832735E+03  0.7546771E-02  0.1164672E+00
         -2   -1    0    0    0  501 -0.00000000000E+00  0.00000000000E+00  0.12408066622E+02  0.12408066622E+02  0.00000000000E+00 0. -1.
          2   -1    0    0  502    0  0.00000000000E+00 -0.00000000000E+00 -0.35425493796E+04  0.35425493796E+04  0.00000000000E+00 0.  1.
          6    1    1    2  502    0 -0.27429507846E+02  0.53923933591E+02 -0.90185090580E+03  0.92028486068E+03  0.17300000000E+03 0. -1.
         -6    1    1    2    0  501  0.27429507846E+02 -0.53923933591E+02 -0.26282904072E+04  0.26346725855E+04  0.17300000000E+03 0.  1.
<mgrwt>
<rscale>  2 0.18327348E+03</rscale>
<asrwt>0</asrwt>
<pdfrwt beam="1">  1        2 0.54500873E+00 0.18327348E+03</pdfrwt>
<pdfrwt beam="2">  1       -2 0.19089294E-02 0.18327348E+03</pdfrwt>
<totfact> 0.80625257E+02</totfact>
</mgrwt>
</event>
<event>
 4    1  0.7368504E-001  0.2172476E+03  0.7546771E-02  0.1135952E+00
          1   -1    0    0  502    0  0.00000000000E+00  0.00000000000E+00  0.20273333034E+03  0.20273333034E+03  0.00000000000E+00 0. -1.
         -1   -1    0    0    0  501 -0.00000000000E+00 -0.00000000000E+00 -0.30159327840E+03  0.30159327840E+03  0.00000000000E+00 0.  1.
          6    1    1    2  502    0 -0.10113492054E+03  0.83900133923E+02 -0.16986177353E+03  0.27577078658E+03  0.17300000000E+03 0.  1.
         -6    1    1    2    0  501  0.10113492054E+03 -0.83900133923E+02  0.71001825460E+02  0.22855582216E+03  0.17300000000E+03 0. -1.
<mgrwt>
<rscale>  2 0.21724757E+03</rscale>
<asrwt>0</asrwt>
<pdfrwt beam="1">  1        1 0.31189743E-01 0.21724757E+03</pdfrwt>
<pdfrwt beam="2">  1       -1 0.46398966E-01 0.21724757E+03</pdfrwt>
<totfact> 0.68142399E+02</totfact>
</mgrwt>
</event>
<event>
 4    1  0.7368504E-001  0.2345815E+03  0.7546771E-02  0.1123456E+00
          2   -1    0    0  502    0  0.00000000000E+00  0.00000000000E+00  0.38166676513E+04  0.38166676513E+04  0.00000000000E+00 0.  1.
         -2   -1    0    0    0  501 -0.00000000000E+00 -0.00000000000E+00 -0.22893424769E+02  0.22893424769E+02  0.00000000000E+00 0. -1.
          6    1    1    2  502    0 -0.11714794842E+03  0.10665747453E+03  0.72879079981E+03  0.76561379858E+03  0.17300000000E+03 0. -1.
         -6    1    1    2    0  501  0.11714794842E+03 -0.10665747453E+03  0.30649834267E+04  0.30739472774E+04  0.17300000000E+03 0.  1.
<mgrwt>
<rscale>  2 0.23458145E+03</rscale>
<asrwt>0</asrwt>
<pdfrwt beam="1">  1        2 0.58717913E+00 0.23458145E+03</pdfrwt>
<pdfrwt beam="2">  1       -2 0.35220684E-02 0.23458145E+03</pdfrwt>
<totfact> 0.20683896E+02</totfact>
</mgrwt>
</event>
<event>
 4    1  0.7368504E-001  0.2382056E+03  0.7546771E-02  0.1120994E+00
          2   -1    0    0  502    0  0.00000000000E+00  0.00000000000E+00  0.16987528339E+04  0.16987528339E+04  0.00000000000E+00 0.  1.
         -2   -1    0    0    0  501 -0.00000000000E+00 -0.00000000000E+00 -0.37083773975E+02  0.37083773975E+02  0.00000000000E+00 0. -1.
          6    1    1    2  502    0 -0.15907293400E+03 -0.38842117489E+02  0.11043045194E+04  0.11297036691E+04  0.17300000000E+03 0. -1.
         -6    1    1    2    0  501  0.15907293400E+03  0.38842117489E+02  0.55736454046E+03  0.60613293871E+03  0.17300000000E+03 0.  1.
<mgrwt>
<rscale>  2 0.23820560E+03</rscale>
<asrwt>0</asrwt>
<pdfrwt beam="1">  1        2 0.26134653E+00 0.23820560E+03</pdfrwt>
<pdfrwt beam="2">  1       -2 0.57051973E-02 0.23820560E+03</pdfrwt>
<totfact> 0.17146015E+03</totfact>
</mgrwt>
</event>
<event>
 4    1  0.7368504E-001  0.1937194E+03  0.7546771E-02  0.1155149E+00
          1   -1    0    0  502    0  0.00000000000E+00  0.00000000000E+00  0.48970977028E+03  0.48970977028E+03  0.00000000000E+00 0.  1.
         -1   -1    0    0    0  501 -0.00000000000E+00 -0.00000000000E+00 -0.79564331774E+02  0.79564331774E+02  0.00000000000E+00 0. -1.
          6    1    1    2  502    0 -0.36297817626E+02 -0.79250759054E+02  0.15042490996E+03  0.24526489336E+03  0.17300000000E+03 0.  1.
         -6    1    1    2    0  501  0.36297817626E+02  0.79250759054E+02  0.25972052854E+03  0.32400920870E+03  0.17300000000E+03 0.  1.
<mgrwt>
<rscale>  2 0.19371942E+03</rscale>
<asrwt>0</asrwt>
<pdfrwt beam="1">  1        1 0.75339963E-01 0.19371942E+03</pdfrwt>
<pdfrwt beam="2">  1       -1 0.12240667E-01 0.19371942E+03</pdfrwt>
<totfact> 0.20430528E+03</totfact>
</mgrwt>
</event>
<event>
 4    1  0.7368504E-001  0.1807760E+03  0.7546771E-02  0.1167054E+00
          2   -1    0    0  502    0  0.00000000000E+00  0.00000000000E+00  0.11237394550E+03  0.11237394550E+03  0.00000000000E+00 0. -1.
         -2   -1    0    0    0  501 -0.00000000000E+00 -0.00000000000E+00 -0.31225157822E+03  0.31225157822E+03  0.00000000000E+00 0.  1.
          6    1    1    2  502    0  0.42919958428E+02  0.30146964668E+02 -0.44309013836E+02  0.18612697552E+03  0.17300000000E+03 0. -1.
         -6    1    1    2    0  501 -0.42919958428E+02 -0.30146964668E+02 -0.15556861888E+03  0.23849854820E+03  0.17300000000E+03 0.  1.
<mgrwt>
<rscale>  2 0.18077600E+03</rscale>
<asrwt>0</asrwt>
<pdfrwt beam="1">  1        2 0.17288300E-01 0.18077600E+03</pdfrwt>
<pdfrwt beam="2">  1       -2 0.48038704E-01 0.18077600E+03</pdfrwt>
<totfact> 0.13518597E+03</totfact>
</mgrwt>
</event>
<event>
 4    1  0.7368504E-001  0.2850035E+03  0.7546771E-02  0.1092987E+00
         -2   -1    0    0    0  501 -0.00000000000E+00  0.00000000000E+00  0.22886613271E+02  0.22886613271E+02  0.00000000000E+00 0. -1.
          2   -1    0    0  502    0  0.00000000000E+00 -0.00000000000E+00 -0.39973539819E+04  0.39973539819E+04  0.00000000000E+00 0.  1.
          6    1    1    2  502    0 -0.20480117491E+03  0.96718588127E+02 -0.26603577637E+04  0.26755803926E+04  0.17300000000E+03 0.  1.
         -6    1    1    2    0  501  0.20480117491E+03 -0.96718588127E+02 -0.13141096049E+04  0.13446602025E+04  0.17300000000E+03 0. -1.
<mgrwt>
<rscale>  2 0.28500352E+03</rscale>
<asrwt>0</asrwt>
<pdfrwt beam="1">  1        2 0.61497726E+00 0.28500352E+03</pdfrwt>
<pdfrwt beam="2">  1       -2 0.35210190E-02 0.28500352E+03</pdfrwt>
<totfact> 0.14893389E+02</totfact>
</mgrwt>
</event>
<event>
 4    1  0.7368504E-001  0.1825462E+03  0.7546771E-02  0.1165361E+00
          1   -1    0    0  502    0  0.00000000000E+00  0.00000000000E+00  0.11649440293E+03  0.11649440293E+03  0.00000000000E+00 0.  1.
         -1   -1    0    0    0  501 -0.00000000000E+00 -0.00000000000E+00 -0.38702591578E+03  0.38702591578E+03  0.00000000000E+00 0. -1.
          6    1    1    2  502    0 -0.33422980940E+02 -0.47718277727E+02 -0.26386180437E+03  0.32085227362E+03  0.17300000000E+03 0. -1.
         -6    1    1    2    0  501  0.33422980940E+02  0.47718277727E+02 -0.66697084863E+01  0.18266804509E+03  0.17300000000E+03 0.  1.
<mgrwt>
<rscale>  2 0.18254624E+03</rscale>
<asrwt>0</asrwt>
<pdfrwt beam="1">  1        1 0.17922216E-01 0.18254624E+03</pdfrwt>
<pdfrwt beam="2">  1       -1 0.59542449E-01 0.18254624E+03</pdfrwt>
<totfact> 0.86578057E+02</totfact>
</mgrwt>
</event>
<event>
 4    1  0.7368504E-001  0.2790824E+03  0.7546771E-02  0.1096191E+00
          1   -1    0    0  502    0  0.00000000000E+00  0.00000000000E+00  0.19701932944E+03  0.19701932944E+03  0.00000000000E+00 0. -1.
         -1   -1    0    0    0  501 -0.00000000000E+00 -0.00000000000E+00 -0.82983744677E+03  0.82983744677E+03  0.00000000000E+00 0.  1.
          6    1    1    2  502    0 -0.21898403523E+03 -0.19882732948E+01 -0.68793036668E+03  0.74238477242E+03  0.17300000000E+03 0.  1.
         -6    1    1    2    0  501  0.21898403523E+03  0.19882732948E+01  0.55112249345E+02  0.28447200380E+03  0.17300000000E+03 0. -1.
<mgrwt>
<rscale>  2 0.27908236E+03</rscale>
<asrwt>0</asrwt>
<pdfrwt beam="1">  1        1 0.30310666E-01 0.27908236E+03</pdfrwt>
<pdfrwt beam="2">  1       -1 0.12766730E+00 0.27908236E+03</pdfrwt>
<totfact> 0.85662631E+01</totfact>
</mgrwt>
</event>
<event>
 4    1  0.7368504E-001  0.2706291E+03  0.7546771E-02  0.1100920E+00
         -2   -1    0    0    0  501 -0.00000000000E+00  0.00000000000E+00  0.67401452729E+03  0.67401452729E+03  0.00000000000E+00 0. -1.
          2   -1    0    0  502    0  0.00000000000E+00 -0.00000000000E+00 -0.11805732403E+03  0.11805732403E+03  0.00000000000E+00 0.  1.
          6    1    1    2  502    0 -0.39166541790E+02 -0.20439448398E+03  0.16625838415E+03  0.31761922703E+03  0.17300000000E+03 0.  1.
         -6    1    1    2    0  501  0.39166541790E+02  0.20439448398E+03  0.38969881912E+03  0.47445262429E+03  0.17300000000E+03 0. -1.
<mgrwt>
<rscale>  2 0.27062912E+03</rscale>
<asrwt>0</asrwt>
<pdfrwt beam="1">  1        2 0.18162666E-01 0.27062912E+03</pdfrwt>
<pdfrwt beam="2">  1       -2 0.10369454E+00 0.27062912E+03</pdfrwt>
<totfact> 0.24546763E+02</totfact>
</mgrwt>
</event>
<event>
 4    1  0.7368504E-001  0.1818479E+03  0.7546771E-02  0.1166027E+00
         -2   -1    0    0    0  501 -0.00000000000E+00  0.00000000000E+00  0.47615905140E+02  0.47615905140E+02  0.00000000000E+00 0.  1.
          2   -1    0    0  502    0  0.00000000000E+00 -0.00000000000E+00 -0.71978581645E+03  0.71978581645E+03  0.00000000000E+00 0. -1.
          6    1    1    2  502    0 -0.26025009488E+02 -0.49622231156E+02 -0.26415098171E+03  0.32069363586E+03  0.17300000000E+03 0.  1.
         -6    1    1    2    0  501  0.26025009488E+02  0.49622231156E+02 -0.40801892960E+03  0.44670808573E+03  0.17300000000E+03 0.  1.
<mgrwt>
<rscale>  2 0.18184792E+03</rscale>
<asrwt>0</asrwt>
<pdfrwt beam="1">  1        2 0.11073627E+00 0.18184792E+03</pdfrwt>
<pdfrwt beam="2">  1       -2 0.73255243E-02 0.18184792E+03</pdfrwt>
<totfact> 0.43273060E+03</totfact>
</mgrwt>
</event>
<event>
 4    1  0.7368504E-001  0.1916919E+03  0.7546771E-02  0.1156944E+00
          1   -1    0    0  502    0  0.00000000000E+00  0.00000000000E+00  0.21066818345E+04  0.21066818345E+04  0.00000000000E+00 0. -1.
         -1   -1    0    0    0  501 -0.00000000000E+00 -0.00000000000E+00 -0.18583366988E+02  0.18583366988E+02  0.00000000000E+00 0.  1.
          6    1    1    2  502    0 -0.80891760679E+02  0.16531526364E+02  0.13073433256E+04  0.13213221936E+04  0.17300000000E+03 0. -1.
         -6    1    1    2    0  501  0.80891760679E+02 -0.16531526364E+02  0.78075514192E+03  0.80394300790E+03  0.17300000000E+03 0.  1.
<mgrwt>
<rscale>  2 0.19169186E+03</rscale>
<asrwt>0</asrwt>
<pdfrwt beam="1">  1        1 0.32410471E+00 0.19169186E+03</pdfrwt>
<pdfrwt beam="2">  1       -1 0.28589812E-02 0.19169186E+03</pdfrwt>
<totfact> 0.11726841E+03</totfact>
</mgrwt>
</event>
<event>
 4    1  0.7368504E-001  0.3065626E+03  0.7546771E-02  0.1082005E+00
         -2   -1    0    0    0  501 -0.00000000000E+00  0.00000000000E+00  0.34869165494E+02  0.34869165494E+02  0.00000000000E+00 0.  1.
          2   -1    0    0  502    0  0.00000000000E+00 -0.00000000000E+00 -0.27349026299E+04  0.27349026299E+04  0.00000000000E+00 0. -1.
          6    1    1    2  502    0  0.22735221491E+03 -0.11118719105E+03 -0.15168017867E+04  0.15474715768E+04  0.17300000000E+03 0.  1.
         -6    1    1    2    0  501 -0.22735221491E+03  0.11118719105E+03 -0.11832316777E+04  0.12223002185E+04  0.17300000000E+03 0. -1.
<mgrwt>
<rscale>  2 0.30656259E+03</rscale>
<asrwt>0</asrwt>
<pdfrwt beam="1">  1        2 0.42075424E+00 0.30656259E+03</pdfrwt>
<pdfrwt beam="2">  1       -2 0.53644871E-02 0.30656259E+03</pdfrwt>
<totfact> 0.51797086E+02</totfact>
</mgrwt>
</event>
<event>
 4    1  0.7368504E-001  0.2023070E+03  0.7546771E-02  0.1147807E+00
          1   -1    0    0  502    0  0.00000000000E+00  0.00000000000E+00  0.54992429444E+02  0.54992429444E+02  0.00000000000E+00 0. -1.
         -1   -1    0    0    0  501 -0.00000000000E+00 -0.00000000000E+00 -0.84895927725E+03  0.84895927725E+03  0.00000000000E+00 0.  1.
          6    1    1    2  502    0  0.74782179699E+02  0.73530713328E+02 -0.23825180057E+03  0.31255729183E+03  0.17300000000E+03 0. -1.
         -6    1    1    2    0  501 -0.74782179699E+02 -0.73530713328E+02 -0.55571504724E+03  0.59139441486E+03  0.17300000000E+03 0.  1.
<mgrwt>
<rscale>  2 0.20230704E+03</rscale>
<asrwt>0</asrwt>
<pdfrwt beam="1">  1        1 0.84603744E-02 0.20230704E+03</pdfrwt>
<pdfrwt beam="2">  1       -1 0.13060911E+00 0.20230704E+03</pdfrwt>
<totfact> 0.43377669E+02</totfact>
</mgrwt>
</event>
<event>
 4    1  0.7368504E-001  0.1815586E+03  0.7546771E-02  0.1166303E+00
         -1   -1    0    0    0  501 -0.00000000000E+00  0.00000000000E+00  0.18871619735E+02  0.18871619735E+02  0.00000000000E+00 0. -1.
          1   -1    0    0  502    0  0.00000000000E+00 -0.00000000000E+00 -0.17596223367E+04  0.17596223367E+04  0.00000000000E+00 0.  1.
          6    1    1    2  502    0  0.54694442619E+02  0.65597101890E+01 -0.79424132136E+03  0.81472865937E+03  0.17300000000E+03 0. -1.
         -6    1    1    2    0  501 -0.54694442619E+02 -0.65597101890E+01 -0.94650939564E+03  0.96376529710E+03  0.17300000000E+03 0.  1.
<mgrwt>
<rscale>  2 0.18155856E+03</rscale>
<asrwt>0</asrwt>
<pdfrwt beam="1">  1        1 0.27071103E+00 0.18155856E+03</pdfrwt>
<pdfrwt beam="2">  1       -1 0.29033272E-02 0.18155856E+03</pdfrwt>
<totfact> 0.19172884E+03</totfact>
</mgrwt>
</event>
<event>
 4    1  0.7368504E-001  0.2090559E+03  0.7546771E-02  0.1142316E+00
          2   -1    0    0  502    0  0.00000000000E+00  0.00000000000E+00  0.23100049026E+04  0.23100049026E+04  0.00000000000E+00 0.  1.
         -2   -1    0    0    0  501 -0.00000000000E+00 -0.00000000000E+00 -0.22761838530E+02  0.22761838530E+02  0.00000000000E+00 0. -1.
          6    1    1    2  502    0  0.10214350973E+03 -0.57810843068E+02  0.16228353010E+04  0.16362453375E+04  0.17300000000E+03 0.  1.
         -6    1    1    2    0  501 -0.10214350973E+03  0.57810843068E+02  0.66440776307E+03  0.69652140368E+03  0.17300000000E+03 0. -1.
<mgrwt>
<rscale>  2 0.20905595E+03</rscale>
<asrwt>0</asrwt>
<pdfrwt beam="1">  1        2 0.35538518E+00 0.20905595E+03</pdfrwt>
<pdfrwt beam="2">  1       -2 0.35018231E-02 0.20905595E+03</pdfrwt>
<totfact> 0.17184197E+03</totfact>
</mgrwt>
</event>
<event>
 4    1  0.7368504E-001  0.1831412E+03  0.7546771E-02  0.1164797E+00
         -2   -1    0    0    0  501 -0.00000000000E+00  0.00000000000E+00  0.33270711769E+02  0.33270711769E+02  0.00000000000E+00 0.  1.
          2   -1    0    0  502    0  0.00000000000E+00 -0.00000000000E+00 -0.13783381386E+04  0.13783381386E+04  0.00000000000E+00 0. -1.
          6    1    1    2  502    0  0.47519048685E+02 -0.36791836565E+02 -0.10383292032E+04  0.10543567866E+04  0.17300000000E+03 0. -1.
         -6    1    1    2    0  501 -0.47519048685E+02  0.36791836565E+02 -0.30673822355E+03  0.35725206369E+03  0.17300000000E+03 0.  1.
<mgrwt>
<rscale>  2 0.18314120E+03</rscale>
<asrwt>0</asrwt>
<pdfrwt beam="1">  1        2 0.21205199E+00 0.18314120E+03</pdfrwt>
<pdfrwt beam="2">  1       -2 0.51185718E-02 0.18314120E+03</pdfrwt>
<totfact> 0.29903870E+03</totfact>
</mgrwt>
</event>
<event>
 4    1  0.7368504E-001  0.1951209E+03  0.7546771E-02  0.1153922E+00
         -2   -1    0    0    0  501 -0.00000000000E+00  0.00000000000E+00  0.66629685321E+03  0.66629685321E+03  0.00000000000E+00 0.  1.
          2   -1    0    0  502    0  0.00000000000E+00 -0.00000000000E+00 -0.59074361112E+02  0.59074361112E+02  0.00000000000E+00 0. -1.
          6    1    1    2  502    0 -0.55999290845E+01  0.90065515643E+02  0.36924198746E+03  0.41762638999E+03  0.17300000000E+03 0.  1.
         -6    1    1    2    0  501  0.55999290845E+01 -0.90065515643E+02  0.23798050464E+03  0.30774482433E+03  0.17300000000E+03 0.  1.
<mgrwt>
<rscale>  2 0.19512088E+03</rscale>
<asrwt>0</asrwt>
<pdfrwt beam="1">  1        2 0.90883637E-02 0.19512088E+03</pdfrwt>
<pdfrwt beam="2">  1       -2 0.10250720E+00 0.19512088E+03</pdfrwt>
<totfact> 0.58070868E+02</totfact>
</mgrwt>
</event>
<event>
 4    1  0.7368504E-001  0.2243343E+03  0.7546771E-02  0.1130692E+00
         -1   -1    0    0    0  501 -0.00000000000E+00  0.00000000000E+00  0.15785582117E+03  0.15785582117E+03  0.00000000000E+00 0.  1.
          1   -1    0    0  502    0  0.00000000000E+00 -0.00000000000E+00 -0.32470830918E+03  0.32470830918E+03  0.00000000000E+00 0. -1.
          6    1    1    2  502    0  0.34611801466E+02 -0.13856005270E+03 -0.50904267310E+02  0.23003719142E+03  0.17300000000E+03 0. -1.
         -6    1    1    2    0  501 -0.34611801466E+02  0.13856005270E+03 -0.11594822069E+03  0.25252693893E+03  0.17300000000E+03 0.  1.
<mgrwt>
<rscale>  2 0.22433427E+03</rscale>
<asrwt>0</asrwt>
<pdfrwt beam="1">  1        1 0.49955125E-01 0.22433427E+03</pdfrwt>
<pdfrwt beam="2">  1       -1 0.24285511E-01 0.22433427E+03</pdfrwt>
<totfact> 0.11562118E+03</totfact>
</mgrwt>
</event>
<event>
 4    1  0.7368504E-001  0.2523793E+03  0.7546771E-02  0.1111810E+00
         -2   -1    0    0    0  501 -0.00000000000E+00  0.00000000000E+00  0.59842075872E+02  0.59842075872E+02  0.00000000000E+00 0. -1.
          2   -1    0    0  502    0  0.00000000000E+00 -0.00000000000E+00 -0.15508259232E+04  0.15508259232E+04  0.00000000000E+00 0.  1.
          6    1    1    2  502    0 -0.78400013399E+02 -0.16619196784E+03 -0.11965237009E+04  0.12228508900E+04  0.17300000000E+03 0.  1.
         -6    1    1    2    0  501  0.78400013399E+02  0.16619196784E+03 -0.29446014641E+03  0.38781710908E+03  0.17300000000E+03 0. -1.
<mgrwt>
<rscale>  2 0.25237934E+03</rscale>
<asrwt>0</asrwt>
<pdfrwt beam="1">  1        2 0.23858856E+00 0.25237934E+03</pdfrwt>
<pdfrwt beam="2">  1       -2 0.92064748E-02 0.25237934E+03</pdfrwt>
<totfact> 0.97359170E+02</totfact>
</mgrwt>
</event>
<event>
 4    1  0.7368504E-001  0.2506604E+03  0.7546771E-02  0.1112888E+00
         -2   -1    0    0    0  501 -0.00000000000E+00  0.00000000000E+00  0.54699773378E+02  0.54699773378E+02  0.00000000000E+00 0.  1.
          2   -1    0    0  502    0  0.00000000000E+00 -0.00000000000E+00 -0.13206635322E+04  0.13206635322E+04  0.00000000000E+00 0. -1.
          6    1    1    2  502    0  0.10739236466E+03 -0.14617972093E+03 -0.88116871503E+03  0.91612713918E+03  0.17300000000E+03 0.  1.
         -6    1    1    2    0  501 -0.10739236466E+03  0.14617972093E+03 -0.38479504378E+03  0.45923616639E+03  0.17300000000E+03 0. -1.
<mgrwt>
<rscale>  2 0.25066039E+03</rscale>
<asrwt>0</asrwt>
<pdfrwt beam="1">  1        2 0.20317898E+00 0.25066039E+03</pdfrwt>
<pdfrwt beam="2">  1       -2 0.84153508E-02 0.25066039E+03</pdfrwt>
<totfact> 0.14938737E+03</totfact>
</mgrwt>
</event>
<event>
 4    1  0.7368504E-001  0.2203921E+03  0.7546771E-02  0.1133591E+00
         -1   -1    0    0    0  501 -0.00000000000E+00  0.00000000000E+00  0.85922194511E+02  0.85922194511E+02  0.00000000000E+00 0. -1.
          1   -1    0    0  502    0  0.00000000000E+00 -0.00000000000E+00 -0.63584612893E+03  0.63584612893E+03  0.00000000000E+00 0.  1.
          6    1    1    2  502    0 -0.13608691924E+03 -0.11136449356E+02 -0.15476380675E+03  0.26930374296E+03  0.17300000000E+03 0. -1.
         -6    1    1    2    0  501  0.13608691924E+03  0.11136449356E+02 -0.39516012767E+03  0.45246458048E+03  0.17300000000E+03 0.  1.
<mgrwt>
<rscale>  2 0.22039208E+03</rscale>
<asrwt>0</asrwt>
<pdfrwt beam="1">  1        1 0.97822477E-01 0.22039208E+03</pdfrwt>
<pdfrwt beam="2">  1       -1 0.13218800E-01 0.22039208E+03</pdfrwt>
<totfact> 0.12731026E+03</totfact>
</mgrwt>
</event>
<event>
 4    1  0.7368504E-001  0.1791181E+03  0.7546771E-02  0.1168659E+00
         -2   -1    0    0    0  501 -0.00000000000E+00  0.00000000000E+00  0.75584537108E+02  0.75584537108E+02  0.00000000000E+00 0.  1.
          2   -1    0    0  502    0  0.00000000000E+00 -0.00000000000E+00 -0.42578952950E+03  0.42578952950E+03  0.00000000000E+00 0. -1.
          6    1    1    2  502    0  0.46352592291E+02 -0.23931790727E+01 -0.18906342935E+03  0.26043861164E+03  0.17300000000E+03 0. -1.
         -6    1    1    2    0  501 -0.46352592291E+02  0.23931790727E+01 -0.16114156305E+03  0.24093545496E+03  0.17300000000E+03 0. -1.
<mgrwt>
<rscale>  2 0.17911809E+03</rscale>
<asrwt>0</asrwt>
<pdfrwt beam="1">  1        2 0.65506081E-01 0.17911809E+03</pdfrwt>
<pdfrwt beam="2">  1       -2 0.11628390E-01 0.17911809E+03</pdfrwt>
<totfact> 0.37977000E+03</totfact>
</mgrwt>
</event>
<event>
 4    1  0.7368504E-001  0.1737735E+03  0.7546771E-02  0.1173969E+00
          2   -1    0    0  502    0  0.00000000000E+00  0.00000000000E+00  0.15323180814E+04  0.15323180814E+04  0.00000000000E+00 0. -1.
         -2   -1    0    0    0  501 -0.00000000000E+00 -0.00000000000E+00 -0.22040493496E+02  0.22040493496E+02  0.00000000000E+00 0.  1.
          6    1    1    2  502    0 -0.14561779923E+02  0.74958913189E+01  0.10080240386E+04  0.10228928078E+04  0.17300000000E+03 0. -1.
         -6    1    1    2    0  501  0.14561779923E+02 -0.74958913189E+01  0.50225354926E+03  0.53146576707E+03  0.17300000000E+03 0.  1.
<mgrwt>
<rscale>  2 0.17377351E+03</rscale>
<asrwt>0</asrwt>
<pdfrwt beam="1">  1        2 0.23574116E+00 0.17377351E+03</pdfrwt>
<pdfrwt beam="2">  1       -2 0.33908463E-02 0.17377351E+03</pdfrwt>
<totfact> 0.45900522E+03</totfact>
</mgrwt>
</event>
<event>
 4    1  0.7368504E-001  0.2025970E+03  0.7546771E-02  0.1147566E+00
          1   -1    0    0  502    0  0.00000000000E+00  0.00000000000E+00  0.16521966463E+04  0.16521966463E+04  0.00000000000E+00 0.  1.
         -1   -1    0    0    0  501 -0.00000000000E+00 -0.00000000000E+00 -0.26420883943E+02  0.26420883943E+02  0.00000000000E+00 0. -1.
          6    1    1    2  502    0 -0.18583567608E+02 -0.10378442390E+03  0.10179959541E+04  0.10379601718E+04  0.17300000000E+03 0. -1.
         -6    1    1    2    0  501  0.18583567608E+02  0.10378442390E+03  0.60777980823E+03  0.64065735844E+03  0.17300000000E+03 0.  1.
<mgrwt>
<rscale>  2 0.20259703E+03</rscale>
<asrwt>0</asrwt>
<pdfrwt beam="1">  1        1 0.25418402E+00 0.20259703E+03</pdfrwt>
<pdfrwt beam="2">  1       -1 0.40647527E-02 0.20259703E+03</pdfrwt>
<totfact> 0.13686095E+03</totfact>
</mgrwt>
</event>
<event>
 4    1  0.7368504E-001  0.2200366E+03  0.7546771E-02  0.1133856E+00
         -1   -1    0    0    0  501 -0.00000000000E+00  0.00000000000E+00  0.10778286343E+04  0.10778286343E+04  0.00000000000E+00 0. -1.
          1   -1    0    0  502    0  0.00000000000E+00 -0.00000000000E+00 -0.68106129809E+02  0.68106129809E+02  0.00000000000E+00 0.  1.
          6    1    1    2  502    0  0.10761496376E+03  0.83102990301E+02  0.17055021810E+03  0.27839444017E+03  0.17300000000E+03 0.  1.
         -6    1    1    2    0  501 -0.10761496376E+03 -0.83102990301E+02  0.83917228638E+03  0.86754032393E+03  0.17300000000E+03 0. -1.
<mgrwt>
<rscale>  2 0.22003656E+03</rscale>
<asrwt>0</asrwt>
<pdfrwt beam="1">  1        1 0.10477867E-01 0.22003656E+03</pdfrwt>
<pdfrwt beam="2">  1       -1 0.16581978E+00 0.22003656E+03</pdfrwt>
<totfact> 0.17487598E+02</totfact>
</mgrwt>
</event>
<event>
 4    1  0.7368504E-001  0.1764967E+03  0.7546771E-02  0.1171237E+00
         -1   -1    0    0    0  501 -0.00000000000E+00  0.00000000000E+00  0.61687372463E+02  0.61687372463E+02  0.00000000000E+00 0.  1.
          1   -1    0    0  502    0  0.00000000000E+00 -0.00000000000E+00 -0.79959717618E+03  0.79959717618E+03  0.00000000000E+00 0. -1.
          6    1    1    2  502    0 -0.31514207134E+02 -0.15130309394E+02 -0.10755351385E+03  0.20668534020E+03  0.17300000000E+03 0.  1.
         -6    1    1    2    0  501  0.31514207134E+02  0.15130309394E+02 -0.63035628987E+03  0.65459920844E+03  0.17300000000E+03 0. -1.
<mgrwt>
<rscale>  2 0.17649666E+03</rscale>
<asrwt>0</asrwt>
<pdfrwt beam="1">  1        1 0.12301495E+00 0.17649666E+03</pdfrwt>
<pdfrwt beam="2">  1       -1 0.94903648E-02 0.17649666E+03</pdfrwt>
<totfact> 0.15200218E+03</totfact>
</mgrwt>
</event>
<event>
 4    1  0.7368504E-001  0.1885379E+03  0.7546771E-02  0.1159787E+00
         -1   -1    0    0    0  501 -0.00000000000E+00  0.00000000000E+00  0.15564837155E+03  0.15564837155E+03  0.00000000000E+00 0.  1.
          1   -1    0    0  502    0  0.00000000000E+00 -0.00000000000E+00 -0.23192801980E+03  0.23192801980E+03  0.00000000000E+00 0. -1.
          6    1    1    2  502    0  0.55659762319E+02 -0.50195087017E+02 -0.14162070446E+02  0.18906908828E+03  0.17300000000E+03 0. -1.
         -6    1    1    2    0  501 -0.55659762319E+02  0.50195087017E+02 -0.62117577799E+02  0.19850730307E+03  0.17300000000E+03 0. -1.
<mgrwt>
<rscale>  2 0.18853794E+03</rscale>
<asrwt>0</asrwt>
<pdfrwt beam="1">  1        1 0.35681234E-01 0.18853794E+03</pdfrwt>
<pdfrwt beam="2">  1       -1 0.23945903E-01 0.18853794E+03</pdfrwt>
<totfact> 0.17979318E+03</totfact>
</mgrwt>
</event>
<event>
 4    1  0.7368504E-001  0.2177650E+03  0.7546771E-02  0.1135560E+00
         -4   -1    0    0    0  501 -0.00000000000E+00  0.00000000000E+00  0.36364013096E+03  0.36364013096E+03  0.00000000000E+00 0.  1.
          4   -1    0    0  502    0  0.00000000000E+00 -0.00000000000E+00 -0.26502993183E+03  0.26502993183E+03  0.00000000000E+00 0. -1.
          6    1    1    2  502    0  0.11582362868E+03  0.63855008504E+02 -0.17472339603E+03  0.27919498597E+03  0.17300000000E+03 0. -1.
         -6    1    1    2    0  501 -0.11582362868E+03 -0.63855008504E+02  0.27333359516E+03  0.34947507682E+03  0.17300000000E+03 0.  1.
<mgrwt>
<rscale>  2 0.21776495E+03</rscale>
<asrwt>0</asrwt>
<pdfrwt beam="1">  1        4 0.40773836E-01 0.21776495E+03</pdfrwt>
<pdfrwt beam="2">  1       -4 0.55944635E-01 0.21776495E+03</pdfrwt>
<totfact> 0.32252411E+01</totfact>
</mgrwt>
</event>
<event>
 4    1  0.7368504E-001  0.1812558E+03  0.7546771E-02  0.1166593E+00
          1   -1    0    0  502    0  0.00000000000E+00  0.00000000000E+00  0.10578209338E+04  0.10578209338E+04  0.00000000000E+00 0. -1.
         -1   -1    0    0    0  501 -0.00000000000E+00 -0.00000000000E+00 -0.40079292454E+02  0.40079292454E+02  0.00000000000E+00 0.  1.
          6    1    1    2  502    0  0.44962844744E+02  0.30050379221E+02  0.76931218661E+03  0.79037644396E+03  0.17300000000E+03 0. -1.
         -6    1    1    2    0  501 -0.44962844744E+02 -0.30050379221E+02  0.24842945475E+03  0.30752378231E+03  0.17300000000E+03 0.  1.
<mgrwt>
<rscale>  2 0.18125585E+03</rscale>
<asrwt>0</asrwt>
<pdfrwt beam="1">  1        1 0.16274166E+00 0.18125585E+03</pdfrwt>
<pdfrwt beam="2">  1       -1 0.61660458E-02 0.18125585E+03</pdfrwt>
<totfact> 0.18517279E+03</totfact>
</mgrwt>
</event>
<event>
 4    1  0.7368504E-001  0.1744252E+03  0.7546771E-02  0.1173310E+00
          2   -1    0    0  502    0  0.00000000000E+00  0.00000000000E+00  0.11619537646E+04  0.11619537646E+04  0.00000000000E+00 0.  1.
         -2   -1    0    0    0  501 -0.00000000000E+00 -0.00000000000E+00 -0.47613409258E+02  0.47613409258E+02  0.00000000000E+00 0. -1.
          6    1    1    2  502    0 -0.16244512262E+01 -0.22192907622E+02  0.15143353084E+03  0.23098977954E+03  0.17300000000E+03 0. -1.
         -6    1    1    2    0  501  0.16244512262E+01  0.22192907622E+02  0.96290682452E+03  0.97857739433E+03  0.17300000000E+03 0.  1.
<mgrwt>
<rscale>  2 0.17442524E+03</rscale>
<asrwt>0</asrwt>
<pdfrwt beam="1">  1        2 0.17876210E+00 0.17442524E+03</pdfrwt>
<pdfrwt beam="2">  1       -2 0.73251407E-02 0.17442524E+03</pdfrwt>
<totfact> 0.22732839E+03</totfact>
</mgrwt>
</event>
<event>
 4    1  0.7368504E-001  0.2751354E+03  0.7546771E-02  0.1098376E+00
          2   -1    0    0  502    0  0.00000000000E+00  0.00000000000E+00  0.21927765437E+04  0.21927765437E+04  0.00000000000E+00 0.  1.
         -2   -1    0    0    0  501 -0.00000000000E+00 -0.00000000000E+00 -0.35594433243E+02  0.35594433243E+02  0.00000000000E+00 0. -1.
          6    1    1    2  502    0 -0.18065080414E+03  0.11461143442E+03  0.12719698801E+04  0.13013865182E+04  0.17300000000E+03 0.  1.
         -6    1    1    2    0  501  0.18065080414E+03 -0.11461143442E+03  0.88521223040E+03  0.92698445876E+03  0.17300000000E+03 0. -1.
<mgrwt>
<rscale>  2 0.27513541E+03</rscale>
<asrwt>0</asrwt>
<pdfrwt beam="1">  1        2 0.33735013E+00 0.27513541E+03</pdfrwt>
<pdfrwt beam="2">  1       -2 0.54760684E-02 0.27513541E+03</pdfrwt>
<totfact> 0.10001812E+03</totfact>
</mgrwt>
</event>
<event>
 4    1  0.7368504E-001  0.1815700E+03  0.7546771E-02  0.1166292E+00
          2   -1    0    0  502    0  0.00000000000E+00  0.00000000000E+00  0.14056449915E+04  0.14056449915E+04  0.00000000000E+00 0. -1.
         -2   -1    0    0    0  501 -0.00000000000E+00 -0.00000000000E+00 -0.23456844606E+02  0.23456844606E+02  0.00000000000E+00 0.  1.
          6    1    1    2  502    0  0.52676379811E+02  0.16243423938E+02  0.68289014802E+03  0.70661630612E+03  0.17300000000E+03 0.  1.
         -6    1    1    2    0  501 -0.52676379811E+02 -0.16243423938E+02  0.69929799891E+03  0.72248553002E+03  0.17300000000E+03 0.  1.
<mgrwt>
<rscale>  2 0.18156996E+03</rscale>
<asrwt>0</asrwt>
<pdfrwt beam="1">  1        2 0.21625301E+00 0.18156996E+03</pdfrwt>
<pdfrwt beam="2">  1       -2 0.36087464E-02 0.18156996E+03</pdfrwt>
<totfact> 0.48865286E+03</totfact>
</mgrwt>
</event>
<event>
 4    1  0.7368504E-001  0.1789609E+03  0.7546771E-02  0.1168812E+00
         -1   -1    0    0    0  501 -0.00000000000E+00  0.00000000000E+00  0.39227764701E+03  0.39227764701E+03  0.00000000000E+00 0.  1.
          1   -1    0    0  502    0  0.00000000000E+00 -0.00000000000E+00 -0.90823683900E+02  0.90823683900E+02  0.00000000000E+00 0. -1.
          6    1    1    2  502    0 -0.27483415036E+02 -0.36642612135E+02  0.73932785291E+02  0.19363128845E+03  0.17300000000E+03 0. -1.
         -6    1    1    2    0  501  0.27483415036E+02  0.36642612135E+02  0.22752117782E+03  0.28947004246E+03  0.17300000000E+03 0.  1.
<mgrwt>
<rscale>  2 0.17896094E+03</rscale>
<asrwt>0</asrwt>
<pdfrwt beam="1">  1        1 0.13972875E-01 0.17896094E+03</pdfrwt>
<pdfrwt beam="2">  1       -1 0.60350406E-01 0.17896094E+03</pdfrwt>
<totfact> 0.11658576E+03</totfact>
</mgrwt>
</event>
<event>
 4    1  0.7368504E-001  0.2037302E+03  0.7546771E-02  0.1146629E+00
         -2   -1    0    0    0  501 -0.00000000000E+00  0.00000000000E+00  0.34089129439E+02  0.34089129439E+02  0.00000000000E+00 0. -1.
          2   -1    0    0  502    0  0.00000000000E+00 -0.00000000000E+00 -0.15325470085E+04  0.15325470085E+04  0.00000000000E+00 0.  1.
          6    1    1    2  502    0 -0.51745689816E+02  0.94336546558E+02 -0.39411422747E+03  0.44365755344E+03  0.17300000000E+03 0.  1.
         -6    1    1    2    0  501  0.51745689816E+02 -0.94336546558E+02 -0.11043436516E+04  0.11229785845E+04  0.17300000000E+03 0.  1.
<mgrwt>
<rscale>  2 0.20373021E+03</rscale>
<asrwt>0</asrwt>
<pdfrwt beam="1">  1        2 0.23577644E+00 0.20373021E+03</pdfrwt>
<pdfrwt beam="2">  1       -2 0.52444821E-02 0.20373021E+03</pdfrwt>
<totfact> 0.23870005E+03</totfact>
</mgrwt>
</event>
<event>
 4    1  0.7368504E-001  0.1863159E+03  0.7546771E-02  0.1161827E+00
         -2   -1    0    0    0  501 -0.00000000000E+00  0.00000000000E+00  0.31224059535E+02  0.31224059535E+02  0.00000000000E+00 0.  1.
          2   -1    0    0  502    0  0.00000000000E+00 -0.00000000000E+00 -0.11255055445E+04  0.11255055445E+04  0.00000000000E+00 0. -1.
          6    1    1    2  502    0  0.64291834587E+02  0.25518165231E+02 -0.61105990954E+03  0.63883317838E+03  0.17300000000E+03 0.  1.
         -6    1    1    2    0  501 -0.64291834587E+02 -0.25518165231E+02 -0.48322157544E+03  0.51789642567E+03  0.17300000000E+03 0. -1.
<mgrwt>
<rscale>  2 0.18631591E+03</rscale>
<asrwt>0</asrwt>
<pdfrwt beam="1">  1        2 0.17315470E+00 0.18631591E+03</pdfrwt>
<pdfrwt beam="2">  1       -2 0.48037014E-02 0.18631591E+03</pdfrwt>
<totfact> 0.45461967E+03</totfact>
</mgrwt>
</event>
<event>
 4    1  0.7368504E-001  0.3226350E+03  0.7546771E-02  0.1074443E+00
          2   -1    0    0  502    0  0.00000000000E+00  0.00000000000E+00  0.19493572539E+04  0.19493572539E+04  0.00000000000E+00 0.  1.
         -2   -1    0    0    0  501 -0.00000000000E+00 -0.00000000000E+00 -0.90427281840E+02  0.90427281840E+02  0.00000000000E+00 0. -1.
          6    1    1    2  502    0  0.11072757925E+03  0.24880462754E+03  0.27682675606E+03  0.42511926839E+03  0.17300000000E+03 0. -1.
         -6    1    1    2    0  501 -0.11072757925E+03 -0.24880462754E+03  0.15821032160E+04  0.16146652674E+04  0.17300000000E+03 0.  1.
<mgrwt>
<rscale>  2 0.32263499E+03</rscale>
<asrwt>0</asrwt>
<pdfrwt beam="1">  1        2 0.29990109E+00 0.32263499E+03</pdfrwt>
<pdfrwt beam="2">  1       -2 0.13911891E-01 0.32263499E+03</pdfrwt>
<totfact> 0.30459712E+02</totfact>
</mgrwt>
</event>
<event>
 4    1  0.7368504E-001  0.2022018E+03  0.7546771E-02  0.1147895E+00
          2   -1    0    0  502    0  0.00000000000E+00  0.00000000000E+00  0.81319159181E+02  0.81319159181E+02  0.00000000000E+00 0.  1.
         -2   -1    0    0    0  501 -0.00000000000E+00 -0.00000000000E+00 -0.80371189334E+03  0.80371189334E+03  0.00000000000E+00 0. -1.
          6    1    1    2  502    0 -0.53464776739E+02 -0.89989284826E+02 -0.63197428881E+03  0.66353376361E+03  0.17300000000E+03 0. -1.
         -6    1    1    2    0  501  0.53464776739E+02  0.89989284826E+02 -0.90418445350E+02  0.22149728891E+03  0.17300000000E+03 0.  1.
<mgrwt>
<rscale>  2 0.20220176E+03</rscale>
<asrwt>0</asrwt>
<pdfrwt beam="1">  1        2 0.12510640E-01 0.20220176E+03</pdfrwt>
<pdfrwt beam="2">  1       -2 0.12364798E+00 0.20220176E+03</pdfrwt>
<totfact> 0.25072874E+02</totfact>
</mgrwt>
</event>
<event>
 4    1  0.7368504E-001  0.1757801E+03  0.7546771E-02  0.1171951E+00
         -3   -1    0    0    0  501 -0.00000000000E+00  0.00000000000E+00  0.17679447128E+04  0.17679447128E+04  0.00000000000E+00 0.  1.
          3   -1    0    0  502    0  0.00000000000E+00 -0.00000000000E+00 -0.22520786820E+02  0.22520786820E+02  0.00000000000E+00 0. -1.
          6    1    1    2  502    0  0.30131965597E+02  0.78544106469E+01  0.12963708054E+04  0.13082338828E+04  0.17300000000E+03 0.  1.
         -6    1    1    2    0  501 -0.30131965597E+02 -0.78544106469E+01  0.44905312054E+03  0.48223161674E+03  0.17300000000E+03 0. -1.
<mgrwt>
<rscale>  2 0.17578005E+03</rscale>
<asrwt>0</asrwt>
<pdfrwt beam="1">  1        3 0.34647378E-02 0.17578005E+03</pdfrwt>
<pdfrwt beam="2">  1       -3 0.27199138E+00 0.17578005E+03</pdfrwt>
<totfact> 0.61924321E+01</totfact>
</mgrwt>
</event>
<event>
 4    1  0.7368504E-001  0.1988758E+03  0.7546771E-02  0.1150691E+00
         -1   -1    0    0    0  501 -0.00000000000E+00  0.00000000000E+00  0.46437397839E+03  0.46437397839E+03  0.00000000000E+00 0. -1.
          1   -1    0    0  502    0  0.00000000000E+00 -0.00000000000E+00 -0.17480877936E+03  0.17480877936E+03  0.00000000000E+00 0.  1.
          6    1    1    2  502    0 -0.43546279342E+02  0.87899416092E+02  0.37363577716E+03  0.42326738567E+03  0.17300000000E+03 0. -1.
         -6    1    1    2    0  501  0.43546279342E+02 -0.87899416092E+02 -0.84070578131E+02  0.21591537208E+03  0.17300000000E+03 0. -1.
<mgrwt>
<rscale>  2 0.19887580E+03</rscale>
<asrwt>0</asrwt>
<pdfrwt beam="1">  1        1 0.26893658E-01 0.19887580E+03</pdfrwt>
<pdfrwt beam="2">  1       -1 0.71442150E-01 0.19887580E+03</pdfrwt>
<totfact> 0.36125643E+02</totfact>
</mgrwt>
</event>
<event>
 4    1  0.7368504E-001  0.3135054E+03  0.7546771E-02  0.1078678E+00
          2   -1    0    0  502    0  0.00000000000E+00  0.00000000000E+00  0.11470882907E+04  0.11470882907E+04  0.00000000000E+00 0.  1.
         -2   -1    0    0    0  501 -0.00000000000E+00 -0.00000000000E+00 -0.11617744329E+03  0.11617744329E+03  0.00000000000E+00 0. -1.
          6    1    1    2  502    0  0.26100074014E+03  0.15338814818E+02  0.19184982061E+03  0.36754866244E+03  0.17300000000E+03 0.  1.
         -6    1    1    2    0  501 -0.26100074014E+03 -0.15338814818E+02  0.83906102682E+03  0.89571707158E+03  0.17300000000E+03 0.  1.
<mgrwt>
<rscale>  2 0.31350545E+03</rscale>
<asrwt>0</asrwt>
<pdfrwt beam="1">  1        2 0.17647511E+00 0.31350545E+03</pdfrwt>
<pdfrwt beam="2">  1       -2 0.17873454E-01 0.31350545E+03</pdfrwt>
<totfact> 0.54673649E+02</totfact>
</mgrwt>
</event>
<event>
 4    1  0.7368504E-001  0.2177097E+03  0.7546771E-02  0.1135602E+00
         -2   -1    0    0    0  501 -0.00000000000E+00  0.00000000000E+00  0.28373495929E+02  0.28373495929E+02  0.00000000000E+00 0. -1.
          2   -1    0    0  502    0  0.00000000000E+00 -0.00000000000E+00 -0.24623435910E+04  0.24623435910E+04  0.00000000000E+00 0.  1.
          6    1    1    2  502    0  0.29903149821E+02  0.12874123014E+03 -0.19232113067E+04  0.19354945707E+04  0.17300000000E+03 0.  1.
         -6    1    1    2    0  501 -0.29903149821E+02 -0.12874123014E+03 -0.51075878831E+03  0.55522251624E+03  0.17300000000E+03 0.  1.
<mgrwt>
<rscale>  2 0.21770968E+03</rscale>
<asrwt>0</asrwt>
<pdfrwt beam="1">  1        2 0.37882201E+00 0.21770968E+03</pdfrwt>
<pdfrwt beam="2">  1       -2 0.43651541E-02 0.21770968E+03</pdfrwt>
<totfact> 0.10213918E+03</totfact>
</mgrwt>
</event>
<event>
 4    1  0.7368504E-001  0.1860556E+03  0.7546771E-02  0.1162068E+00
          2   -1    0    0  502    0  0.00000000000E+00  0.00000000000E+00  0.17112245589E+04  0.17112245589E+04  0.00000000000E+00 0. -1.
         -2   -1    0    0    0  501 -0.00000000000E+00 -0.00000000000E+00 -0.20229449035E+02  0.20229449035E+02  0.00000000000E+00 0.  1.
          6    1    1    2  502    0  0.63760182092E+02  0.24946651872E+02  0.84243312004E+03  0.86273417574E+03  0.17300000000E+03 0. -1.
         -6    1    1    2    0  501 -0.63760182092E+02 -0.24946651872E+02  0.84856198978E+03  0.86871983214E+03  0.17300000000E+03 0.  1.
<mgrwt>
<rscale>  2 0.18605563E+03</rscale>
<asrwt>0</asrwt>
<pdfrwt beam="1">  1        2 0.26326520E+00 0.18605563E+03</pdfrwt>
<pdfrwt beam="2">  1       -2 0.31122243E-02 0.18605563E+03</pdfrwt>
<totfact> 0.42095738E+03</totfact>
</mgrwt>
</event>
<event>
 4    1  0.7368504E-001  0.2001915E+03  0.7546771E-02  0.1149578E+00
          2   -1    0    0  502    0  0.00000000000E+00  0.00000000000E+00  0.29457142979E+03  0.29457142979E+03  0.00000000000E+00 0.  1.
         -2   -1    0    0    0  501 -0.00000000000E+00 -0.00000000000E+00 -0.13639969541E+03  0.13639969541E+03  0.00000000000E+00 0. -1.
          6    1    1    2  502    0 -0.74239295378E+02  0.68089266582E+02  0.68184511463E+02  0.21148463019E+03  0.17300000000E+03 0. -1.
         -6    1    1    2    0  501  0.74239295378E+02 -0.68089266582E+02  0.89987222915E+02  0.21948649501E+03  0.17300000000E+03 0.  1.
<mgrwt>
<rscale>  2 0.20019146E+03</rscale>
<asrwt>0</asrwt>
<pdfrwt beam="1">  1        2 0.45318681E-01 0.20019146E+03</pdfrwt>
<pdfrwt beam="2">  1       -2 0.20984569E-01 0.20019146E+03</pdfrwt>
<totfact> 0.21325041E+03</totfact>
</mgrwt>
</event>
<event>
 4    1  0.7368504E-001  0.2505877E+03  0.7546771E-02  0.1112934E+00
          2   -1    0    0  502    0  0.00000000000E+00  0.00000000000E+00  0.16087735366E+04  0.16087735366E+04  0.00000000000E+00 0. -1.
         -2   -1    0    0    0  501 -0.00000000000E+00 -0.00000000000E+00 -0.51456401813E+02  0.51456401813E+02  0.00000000000E+00 0.  1.
          6    1    1    2  502    0 -0.13220528672E+03 -0.12404421704E+03  0.11865553052E+04  0.12127273798E+04  0.17300000000E+03 0. -1.
         -6    1    1    2    0  501  0.13220528672E+03  0.12404421704E+03  0.37076182962E+03  0.44750255856E+03  0.17300000000E+03 0.  1.
<mgrwt>
<rscale>  2 0.25058772E+03</rscale>
<asrwt>0</asrwt>
<pdfrwt beam="1">  1        2 0.24750358E+00 0.25058772E+03</pdfrwt>
<pdfrwt beam="2">  1       -2 0.79163707E-02 0.25058772E+03</pdfrwt>
<totfact> 0.11506115E+03</totfact>
</mgrwt>
</event>
<event>
 4    1  0.7368504E-001  0.1978649E+03  0.7546771E-02  0.1151553E+00
         -1   -1    0    0    0  501 -0.00000000000E+00  0.00000000000E+00  0.23064306164E+02  0.23064306164E+02  0.00000000000E+00 0.  1.
          1   -1    0    0  502    0  0.00000000000E+00 -0.00000000000E+00 -0.19602986120E+04  0.19602986120E+04  0.00000000000E+00 0. -1.
          6    1    1    2  502    0 -0.76024210129E+02 -0.58667187853E+02 -0.13317482629E+04  0.13463669467E+04  0.17300000000E+03 0. -1.
         -6    1    1    2    0  501  0.76024210129E+02  0.58667187853E+02 -0.60548604290E+03  0.63699597142E+03  0.17300000000E+03 0.  1.
<mgrwt>
<rscale>  2 0.19786490E+03</rscale>
<asrwt>0</asrwt>
<pdfrwt beam="1">  1        1 0.30158445E+00 0.19786490E+03</pdfrwt>
<pdfrwt beam="2">  1       -1 0.35483542E-02 0.19786490E+03</pdfrwt>
<totfact> 0.10593970E+03</totfact>
</mgrwt>
</event>
<event>
 4    1  0.7368504E-001  0.1783797E+03  0.7546771E-02  0.1169380E+00
         -2   -1    0    0    0  501 -0.00000000000E+00  0.00000000000E+00  0.98835018454E+02  0.98835018454E+02  0.00000000000E+00 0.  1.
          2   -1    0    0  502    0  0.00000000000E+00 -0.00000000000E+00 -0.34434457752E+03  0.34434457752E+03  0.00000000000E+00 0. -1.
          6    1    1    2  502    0  0.31744600193E+02 -0.29708574918E+02 -0.66237023017E+02  0.19028048319E+03  0.17300000000E+03 0.  1.
         -6    1    1    2    0  501 -0.31744600193E+02  0.29708574918E+02 -0.17927253605E+03  0.25289911278E+03  0.17300000000E+03 0. -1.
<mgrwt>
<rscale>  2 0.17837970E+03</rscale>
<asrwt>0</asrwt>
<pdfrwt beam="1">  1        2 0.52976088E-01 0.17837970E+03</pdfrwt>
<pdfrwt beam="2">  1       -2 0.15205388E-01 0.17837970E+03</pdfrwt>
<totfact> 0.30874515E+03</totfact>
</mgrwt>
</event>
<event>
 4    1  0.7368504E-001  0.2810027E+03  0.7546771E-02  0.1095143E+00
         -2   -1    0    0    0  501 -0.00000000000E+00  0.00000000000E+00  0.12408313488E+03  0.12408313488E+03  0.00000000000E+00 0.  1.
          2   -1    0    0  502    0  0.00000000000E+00 -0.00000000000E+00 -0.82313770267E+03  0.82313770267E+03  0.00000000000E+00 0. -1.
          6    1    1    2  502    0 -0.18279614078E+03  0.12497628686E+03 -0.57512699664E+03  0.64010433808E+03  0.17300000000E+03 0. -1.
         -6    1    1    2    0  501  0.18279614078E+03 -0.12497628686E+03 -0.12392757115E+03  0.30711649948E+03  0.17300000000E+03 0.  1.
<mgrwt>
<rscale>  2 0.28100267E+03</rscale>
<asrwt>0</asrwt>
<pdfrwt beam="1">  1        2 0.12663657E+00 0.28100267E+03</pdfrwt>
<pdfrwt beam="2">  1       -2 0.19089713E-01 0.28100267E+03</pdfrwt>
<totfact> 0.78089456E+02</totfact>
</mgrwt>
</event>
<event>
 4    1  0.7368504E-001  0.1750310E+03  0.7546771E-02  0.1172701E+00
          2   -1    0    0  502    0  0.00000000000E+00  0.00000000000E+00  0.76825729796E+03  0.76825729796E+03  0.00000000000E+00 0.  1.
         -2   -1    0    0    0  501 -0.00000000000E+00 -0.00000000000E+00 -0.88650858767E+02  0.88650858767E+02  0.00000000000E+00 0. -1.
          6    1    1    2  502    0 -0.48157363200E+01 -0.26146650937E+02  0.65760484941E+03  0.68049979915E+03  0.17300000000E+03 0.  1.
         -6    1    1    2    0  501  0.48157363200E+01  0.26146650937E+02  0.22001589785E+02  0.17640835758E+03  0.17300000000E+03 0. -1.
<mgrwt>
<rscale>  2 0.17503096E+03</rscale>
<asrwt>0</asrwt>
<pdfrwt beam="1">  1        2 0.11819343E+00 0.17503096E+03</pdfrwt>
<pdfrwt beam="2">  1       -2 0.13638594E-01 0.17503096E+03</pdfrwt>
<totfact> 0.14923135E+03</totfact>
</mgrwt>
</event>
<event>
 4    1  0.7368504E-001  0.1743018E+03  0.7546771E-02  0.1173435E+00
         -1   -1    0    0    0  501 -0.00000000000E+00  0.00000000000E+00  0.14837595033E+03  0.14837595033E+03  0.00000000000E+00 0.  1.
          1   -1    0    0  502    0  0.00000000000E+00 -0.00000000000E+00 -0.33444348697E+03  0.33444348697E+03  0.00000000000E+00 0. -1.
          6    1    1    2  502    0 -0.21208054425E+02  0.15261926782E+01 -0.24336169021E+03  0.29934265165E+03  0.17300000000E+03 0. -1.
         -6    1    1    2    0  501  0.21208054425E+02 -0.15261926782E+01  0.57294153580E+02  0.18347678565E+03  0.17300000000E+03 0.  1.
<mgrwt>
<rscale>  2 0.17430178E+03</rscale>
<asrwt>0</asrwt>
<pdfrwt beam="1">  1        1 0.51452844E-01 0.17430178E+03</pdfrwt>
<pdfrwt beam="2">  1       -1 0.22827069E-01 0.17430178E+03</pdfrwt>
<totfact> 0.12291718E+03</totfact>
</mgrwt>
</event>
<event>
 4    1  0.7368504E-001  0.1744627E+03  0.7546771E-02  0.1173272E+00
          2   -1    0    0  502    0  0.00000000000E+00  0.00000000000E+00  0.12865824125E+04  0.12865824125E+04  0.00000000000E+00 0.  1.
         -2   -1    0    0    0  501 -0.00000000000E+00 -0.00000000000E+00 -0.55212901117E+02  0.55212901117E+02  0.00000000000E+00 0. -1.
          6    1    1    2  502    0  0.18138808013E+00 -0.22542946533E+02  0.11228779429E+04  0.11363503386E+04  0.17300000000E+03 0.  1.
         -6    1    1    2    0  501 -0.18138808013E+00  0.22542946533E+02  0.10849156850E+03  0.20544497506E+03  0.17300000000E+03 0. -1.
<mgrwt>
<rscale>  2 0.17446265E+03</rscale>
<asrwt>0</asrwt>
<pdfrwt beam="1">  1        2 0.19793573E+00 0.17446265E+03</pdfrwt>
<pdfrwt beam="2">  1       -2 0.84942935E-02 0.17446265E+03</pdfrwt>
<totfact> 0.15400504E+03</totfact>
</mgrwt>
</event>
<event>
 4    1  0.7368504E-001  0.2049205E+03  0.7546771E-02  0.1145653E+00
          2   -1    0    0  502    0  0.00000000000E+00  0.00000000000E+00  0.10898699899E+04  0.10898699899E+04  0.00000000000E+00 0.  1.
         -2   -1    0    0    0  501 -0.00000000000E+00 -0.00000000000E+00 -0.41018160708E+02  0.41018160708E+02  0.00000000000E+00 0. -1.
          6    1    1    2  502    0  0.70621685541E+02  0.84118868721E+02  0.66369782548E+03  0.69461299303E+03  0.17300000000E+03 0. -1.
         -6    1    1    2    0  501 -0.70621685541E+02 -0.84118868721E+02  0.38515400374E+03  0.43627515760E+03  0.17300000000E+03 0. -1.
<mgrwt>
<rscale>  2 0.20492049E+03</rscale>
<asrwt>0</asrwt>
<pdfrwt beam="1">  1        2 0.16767228E+00 0.20492049E+03</pdfrwt>
<pdfrwt beam="2">  1       -2 0.63104871E-02 0.20492049E+03</pdfrwt>
<totfact> 0.31534734E+03</totfact>
</mgrwt>
</event>
<event>
 4    1  0.7368504E-001  0.1759674E+03  0.7546771E-02  0.1171764E+00
         -1   -1    0    0    0  501 -0.00000000000E+00  0.00000000000E+00  0.47349960016E+02  0.47349960016E+02  0.00000000000E+00 0. -1.
          1   -1    0    0  502    0  0.00000000000E+00 -0.00000000000E+00 -0.12447760615E+04  0.12447760615E+04  0.00000000000E+00 0.  1.
          6    1    1    2  502    0 -0.19703308857E+02  0.25441871855E+02 -0.10438145558E+04  0.10585430251E+04  0.17300000000E+03 0.  1.
         -6    1    1    2    0  501  0.19703308857E+02 -0.25441871855E+02 -0.15361154572E+03  0.23358299639E+03  0.17300000000E+03 0. -1.
<mgrwt>
<rscale>  2 0.17596735E+03</rscale>
<asrwt>0</asrwt>
<pdfrwt beam="1">  1        1 0.19150401E+00 0.17596735E+03</pdfrwt>
<pdfrwt beam="2">  1       -1 0.72846091E-02 0.17596735E+03</pdfrwt>
<totfact> 0.10650223E+03</totfact>
</mgrwt>
</event>
<event>
 4    1  0.7368504E-001  0.1839844E+03  0.7546771E-02  0.1164002E+00
         -2   -1    0    0    0  501 -0.00000000000E+00  0.00000000000E+00  0.20922177693E+03  0.20922177693E+03  0.00000000000E+00 0. -1.
          2   -1    0    0  502    0  0.00000000000E+00 -0.00000000000E+00 -0.27271527936E+03  0.27271527936E+03  0.00000000000E+00 0.  1.
          6    1    1    2  502    0  0.23978071420E+02  0.57847346258E+02 -0.18542709002E+03  0.26121536917E+03  0.17300000000E+03 0.  1.
         -6    1    1    2    0  501 -0.23978071420E+02 -0.57847346258E+02  0.12193358760E+03  0.22072168711E+03  0.17300000000E+03 0. -1.
<mgrwt>
<rscale>  2 0.18398441E+03</rscale>
<asrwt>0</asrwt>
<pdfrwt beam="1">  1        2 0.41956197E-01 0.18398441E+03</pdfrwt>
<pdfrwt beam="2">  1       -2 0.32187966E-01 0.18398441E+03</pdfrwt>
<totfact> 0.10832726E+03</totfact>
</mgrwt>
</event>
<event>
 4    1  0.7368504E-001  0.3154584E+03  0.7546771E-02  0.1077759E+00
          2   -1    0    0  502    0  0.00000000000E+00  0.00000000000E+00  0.42427647038E+03  0.42427647038E+03  0.00000000000E+00 0. -1.
         -2   -1    0    0    0  501 -0.00000000000E+00 -0.00000000000E+00 -0.23973115289E+03  0.23973115289E+03  0.00000000000E+00 0.  1.
          6    1    1    2  502    0  0.64247989368E+01  0.26371141120E+03  0.14108166136E+03  0.34556912711E+03  0.17300000000E+03 0.  1.
         -6    1    1    2    0  501 -0.64247989368E+01 -0.26371141120E+03  0.43463656126E+02  0.31843849617E+03  0.17300000000E+03 0. -1.
<mgrwt>
<rscale>  2 0.31545838E+03</rscale>
<asrwt>0</asrwt>
<pdfrwt beam="1">  1        2 0.65273303E-01 0.31545838E+03</pdfrwt>
<pdfrwt beam="2">  1       -2 0.36881716E-01 0.31545838E+03</pdfrwt>
<totfact> 0.52253721E+02</totfact>
</mgrwt>
</event>
<event>
 4    1  0.7368504E-001  0.1971375E+03  0.7546771E-02  0.1152177E+00
          2   -1    0    0  502    0  0.00000000000E+00  0.00000000000E+00  0.12117386665E+04  0.12117386665E+04  0.00000000000E+00 0.  1.
         -2   -1    0    0    0  501 -0.00000000000E+00 -0.00000000000E+00 -0.37342977963E+02  0.37342977963E+02  0.00000000000E+00 0. -1.
          6    1    1    2  502    0  0.87558483384E+02 -0.35604685511E+02  0.35256338924E+03  0.40393579326E+03  0.17300000000E+03 0.  1.
         -6    1    1    2    0  501 -0.87558483384E+02  0.35604685511E+02  0.82183229932E+03  0.84514585123E+03  0.17300000000E+03 0.  1.
<mgrwt>
<rscale>  2 0.19713747E+03</rscale>
<asrwt>0</asrwt>
<pdfrwt beam="1">  1        2 0.18642130E+00 0.19713747E+03</pdfrwt>
<pdfrwt beam="2">  1       -2 0.57450745E-02 0.19713747E+03</pdfrwt>
<totfact> 0.30990202E+03</totfact>
</mgrwt>
</event>
<event>
 4    1  0.7368504E-001  0.3206155E+03  0.7546771E-02  0.1075366E+00
         -2   -1    0    0    0  501 -0.00000000000E+00  0.00000000000E+00  0.11695188235E+03  0.11695188235E+03  0.00000000000E+00 0. -1.
          2   -1    0    0  502    0  0.00000000000E+00 -0.00000000000E+00 -0.94487174259E+03  0.94487174259E+03  0.00000000000E+00 0.  1.
          6    1    1    2  502    0  0.19133957325E+03 -0.19040603038E+03 -0.27372173849E+03  0.42156598394E+03  0.17300000000E+03 0. -1.
         -6    1    1    2    0  501 -0.19133957325E+03  0.19040603038E+03 -0.55419812176E+03  0.64025764100E+03  0.17300000000E+03 0.  1.
<mgrwt>
<rscale>  2 0.32061548E+03</rscale>
<asrwt>0</asrwt>
<pdfrwt beam="1">  1        2 0.14536488E+00 0.32061548E+03</pdfrwt>
<pdfrwt beam="2">  1       -2 0.17992598E-01 0.32061548E+03</pdfrwt>
<totfact> 0.71690098E+02</totfact>
</mgrwt>
</event>
<event>
 4    1  0.7368504E-001  0.2263116E+03  0.7546771E-02  0.1129263E+00
          1   -1    0    0  502    0  0.00000000000E+00  0.00000000000E+00  0.87011067649E+02  0.87011067649E+02  0.00000000000E+00 0. -1.
         -1   -1    0    0    0  501 -0.00000000000E+00 -0.00000000000E+00 -0.58879075312E+03  0.58879075312E+03  0.00000000000E+00 0.  1.
          6    1    1    2  502    0  0.13603493167E+03 -0.52748851620E+02 -0.25654859668E+03  0.34210250867E+03  0.17300000000E+03 0. -1.
         -6    1    1    2    0  501 -0.13603493167E+03  0.52748851620E+02 -0.24523108879E+03  0.33369931210E+03  0.17300000000E+03 0.  1.
<mgrwt>
<rscale>  2 0.22631161E+03</rscale>
<asrwt>0</asrwt>
<pdfrwt beam="1">  1        1 0.13386318E-01 0.22631161E+03</pdfrwt>
<pdfrwt beam="2">  1       -1 0.90583195E-01 0.22631161E+03</pdfrwt>
<totfact> 0.54367859E+02</totfact>
</mgrwt>
</event>
<event>
 4    1  0.7368504E-001  0.1820110E+03  0.7546771E-02  0.1165871E+00
          2   -1    0    0  502    0  0.00000000000E+00  0.00000000000E+00  0.67176106300E+02  0.67176106300E+02  0.00000000000E+00 0. -1.
         -2   -1    0    0    0  501 -0.00000000000E+00 -0.00000000000E+00 -0.53359280156E+03  0.53359280156E+03  0.00000000000E+00 0.  1.
          6    1    1    2  502    0  0.46320100673E+02  0.32457100295E+02 -0.15051251298E+03  0.23618220011E+03  0.17300000000E+03 0. -1.
         -6    1    1    2    0  501 -0.46320100673E+02 -0.32457100295E+02 -0.31590418229E+03  0.36458670775E+03  0.17300000000E+03 0.  1.
<mgrwt>
<rscale>  2 0.18201103E+03</rscale>
<asrwt>0</asrwt>
<pdfrwt beam="1">  1        2 0.10334785E-01 0.18201103E+03</pdfrwt>
<pdfrwt beam="2">  1       -2 0.82091202E-01 0.18201103E+03</pdfrwt>
<totfact> 0.81779979E+02</totfact>
</mgrwt>
</event>
<event>
 4    1  0.7368504E-001  0.2288622E+03  0.7546771E-02  0.1127443E+00
         -1   -1    0    0    0  501 -0.00000000000E+00  0.00000000000E+00  0.64988433919E+02  0.64988433919E+02  0.00000000000E+00 0.  1.
          1   -1    0    0  502    0  0.00000000000E+00 -0.00000000000E+00 -0.84251269375E+03  0.84251269375E+03  0.00000000000E+00 0. -1.
          6    1    1    2  502    0  0.31364982144E+01 -0.14979671512E+03 -0.48327817264E+03  0.53472954438E+03  0.17300000000E+03 0. -1.
         -6    1    1    2    0  501 -0.31364982144E+01  0.14979671512E+03 -0.29424608719E+03  0.37277158329E+03  0.17300000000E+03 0. -1.
<mgrwt>
<rscale>  2 0.22886217E+03</rscale>
<asrwt>0</asrwt>
<pdfrwt beam="1">  1        1 0.12961733E+00 0.22886217E+03</pdfrwt>
<pdfrwt beam="2">  1       -1 0.99982212E-02 0.22886217E+03</pdfrwt>
<totfact> 0.12958443E+03</totfact>
</mgrwt>
</event>
<event>
 4    1  0.7368504E-001  0.1764291E+03  0.7546771E-02  0.1171304E+00
         -1   -1    0    0    0  501 -0.00000000000E+00  0.00000000000E+00  0.49591617380E+02  0.49591617380E+02  0.00000000000E+00 0.  1.
          1   -1    0    0  502    0  0.00000000000E+00 -0.00000000000E+00 -0.76481990622E+03  0.76481990622E+03  0.00000000000E+00 0. -1.
          6    1    1    2  502    0  0.32800465017E+02 -0.11062032448E+02 -0.53005091898E+03  0.55864229681E+03  0.17300000000E+03 0. -1.
         -6    1    1    2    0  501 -0.32800465017E+02  0.11062032448E+02 -0.18517736985E+03  0.25576922679E+03  0.17300000000E+03 0. -1.
<mgrwt>
<rscale>  2 0.17642913E+03</rscale>
<asrwt>0</asrwt>
<pdfrwt beam="1">  1        1 0.11766461E+00 0.17642913E+03</pdfrwt>
<pdfrwt beam="2">  1       -1 0.76294792E-02 0.17642913E+03</pdfrwt>
<totfact> 0.22664064E+03</totfact>
</mgrwt>
</event>
<event>
 4    1  0.7368504E-001  0.1836710E+03  0.7546771E-02  0.1164297E+00
         -2   -1    0    0    0  501 -0.00000000000E+00  0.00000000000E+00  0.21376701923E+02  0.21376701923E+02  0.00000000000E+00 0. -1.
          2   -1    0    0  502    0  0.00000000000E+00 -0.00000000000E+00 -0.17012539454E+04  0.17012539454E+04  0.00000000000E+00 0.  1.
          6    1    1    2  502    0 -0.13158530024E+02 -0.60273318192E+02 -0.10716593765E+04  0.10872850772E+04  0.17300000000E+03 0. -1.
         -6    1    1    2    0  501  0.13158530024E+02  0.60273318192E+02 -0.60821786691E+03  0.63534557008E+03  0.17300000000E+03 0. -1.
<mgrwt>
<rscale>  2 0.18367096E+03</rscale>
<asrwt>0</asrwt>
<pdfrwt beam="1">  1        2 0.26173140E+00 0.18367096E+03</pdfrwt>
<pdfrwt beam="2">  1       -2 0.32887231E-02 0.18367096E+03</pdfrwt>
<totfact> 0.39246118E+03</totfact>
</mgrwt>
</event>
<event>
 4    1  0.7368504E-001  0.1771272E+03  0.7546771E-02  0.1170613E+00
          2   -1    0    0  502    0  0.00000000000E+00  0.00000000000E+00  0.11468587109E+04  0.11468587109E+04  0.00000000000E+00 0.  1.
         -2   -1    0    0    0  501 -0.00000000000E+00 -0.00000000000E+00 -0.53980213715E+02  0.53980213715E+02  0.00000000000E+00 0. -1.
          6    1    1    2  502    0  0.31251430551E+02  0.21642725559E+02  0.96810821801E+03  0.98417863280E+03  0.17300000000E+03 0.  1.
         -6    1    1    2    0  501 -0.31251430551E+02 -0.21642725559E+02  0.12477027916E+03  0.21666029180E+03  0.17300000000E+03 0. -1.
<mgrwt>
<rscale>  2 0.17712724E+03</rscale>
<asrwt>0</asrwt>
<pdfrwt beam="1">  1        2 0.17643978E+00 0.17712724E+03</pdfrwt>
<pdfrwt beam="2">  1       -2 0.83046491E-02 0.17712724E+03</pdfrwt>
<totfact> 0.19086397E+03</totfact>
</mgrwt>
</event>
<event>
 4    1  0.7368504E-001  0.1756705E+03  0.7546771E-02  0.1172060E+00
          2   -1    0    0  502    0  0.00000000000E+00  0.00000000000E+00  0.75751248011E+03  0.75751248011E+03  0.00000000000E+00 0.  1.
         -2   -1    0    0    0  501 -0.00000000000E+00 -0.00000000000E+00 -0.42757185945E+02  0.42757185945E+02  0.00000000000E+00 0. -1.
          6    1    1    2  502    0 -0.12684351073E+02 -0.27752993430E+02  0.27043999874E+03  0.32248707622E+03  0.17300000000E+03 0. -1.
         -6    1    1    2    0  501  0.12684351073E+02  0.27752993430E+02  0.44431529542E+03  0.47778258983E+03  0.17300000000E+03 0.  1.
<mgrwt>
<rscale>  2 0.17567049E+03</rscale>
<asrwt>0</asrwt>
<pdfrwt beam="1">  1        2 0.11654037E+00 0.17567049E+03</pdfrwt>
<pdfrwt beam="2">  1       -2 0.65780292E-02 0.17567049E+03</pdfrwt>
<totfact> 0.47922571E+03</totfact>
</mgrwt>
</event>
<event>
 4    1  0.7368504E-001  0.2163728E+03  0.7546771E-02  0.1136616E+00
          2   -1    0    0  502    0  0.00000000000E+00  0.00000000000E+00  0.11965015419E+04  0.11965015419E+04  0.00000000000E+00 0. -1.
         -2   -1    0    0    0  501 -0.00000000000E+00 -0.00000000000E+00 -0.39200985138E+02  0.39200985138E+02  0.00000000000E+00 0.  1.
          6    1    1    2  502    0  0.55136736496E+02  0.11767815814E+03  0.60523395764E+03  0.64274828050E+03  0.17300000000E+03 0. -1.
         -6    1    1    2    0  501 -0.55136736496E+02 -0.11767815814E+03  0.55206659917E+03  0.59295424658E+03  0.17300000000E+03 0.  1.
<mgrwt>
<rscale>  2 0.21637285E+03</rscale>
<asrwt>0</asrwt>
<pdfrwt beam="1">  1        2 0.18407713E+00 0.21637285E+03</pdfrwt>
<pdfrwt beam="2">  1       -2 0.60309217E-02 0.21637285E+03</pdfrwt>
<totfact> 0.29380274E+03</totfact>
</mgrwt>
</event>
<event>
 4    1  0.7368504E-001  0.2015165E+03  0.7546771E-02  0.1148466E+00
          2   -1    0    0  502    0  0.00000000000E+00  0.00000000000E+00  0.28206866086E+04  0.28206866086E+04  0.00000000000E+00 0. -1.
         -2   -1    0    0    0  501 -0.00000000000E+00 -0.00000000000E+00 -0.15708915274E+02  0.15708915274E+02  0.00000000000E+00 0.  1.
          6    1    1    2  502    0 -0.28054325654E+02 -0.99462866262E+02  0.99261803245E+03  0.10128669534E+04  0.17300000000E+03 0.  1.
         -6    1    1    2    0  501  0.28054325654E+02  0.99462866262E+02  0.18123596609E+04  0.18235285704E+04  0.17300000000E+03 0. -1.
<mgrwt>
<rscale>  2 0.20151652E+03</rscale>
<asrwt>0</asrwt>
<pdfrwt beam="1">  1        2 0.43395138E+00 0.20151652E+03</pdfrwt>
<pdfrwt beam="2">  1       -2 0.24167584E-02 0.20151652E+03</pdfrwt>
<totfact> 0.15652467E+03</totfact>
</mgrwt>
</event>
<event>
 4    1  0.7368504E-001  0.1836047E+03  0.7546771E-02  0.1164359E+00
          2   -1    0    0  502    0  0.00000000000E+00  0.00000000000E+00  0.91148894502E+02  0.91148894502E+02  0.00000000000E+00 0.  1.
         -2   -1    0    0    0  501 -0.00000000000E+00 -0.00000000000E+00 -0.57920640815E+03  0.57920640815E+03  0.00000000000E+00 0. -1.
          6    1    1    2  502    0  0.11254159708E+02 -0.60456809626E+02 -0.42512593233E+02  0.18846220450E+03  0.17300000000E+03 0.  1.
         -6    1    1    2    0  501 -0.11254159708E+02  0.60456809626E+02 -0.44554492041E+03  0.48189309815E+03  0.17300000000E+03 0. -1.
<mgrwt>
<rscale>  2 0.18360469E+03</rscale>
<asrwt>0</asrwt>
<pdfrwt beam="1">  1        2 0.14022907E-01 0.18360469E+03</pdfrwt>
<pdfrwt beam="2">  1       -2 0.89108679E-01 0.18360469E+03</pdfrwt>
<totfact> 0.47065022E+02</totfact>
</mgrwt>
</event>
<event>
 4    1  0.7368504E-001  0.2287951E+03  0.7546771E-02  0.1127491E+00
         -2   -1    0    0    0  501 -0.00000000000E+00  0.00000000000E+00  0.33520488662E+02  0.33520488662E+02  0.00000000000E+00 0. -1.
          2   -1    0    0  502    0  0.00000000000E+00 -0.00000000000E+00 -0.19507253130E+04  0.19507253130E+04  0.00000000000E+00 0.  1.
          6    1    1    2  502    0  0.14716894308E+03  0.27559382590E+02 -0.14016854731E+04  0.14202356786E+04  0.17300000000E+03 0.  1.
         -6    1    1    2    0  501 -0.14716894308E+03 -0.27559382590E+02 -0.51551935128E+03  0.56401012307E+03  0.17300000000E+03 0.  1.
<mgrwt>
<rscale>  2 0.22879514E+03</rscale>
<asrwt>0</asrwt>
<pdfrwt beam="1">  1        2 0.30011164E+00 0.22879514E+03</pdfrwt>
<pdfrwt beam="2">  1       -2 0.51569973E-02 0.22879514E+03</pdfrwt>
<totfact> 0.14782789E+03</totfact>
</mgrwt>
</event>
<event>
 4    1  0.7368504E-001  0.1760562E+03  0.7546771E-02  0.1171675E+00
         -2   -1    0    0    0  501 -0.00000000000E+00  0.00000000000E+00  0.20251506639E+03  0.20251506639E+03  0.00000000000E+00 0. -1.
          2   -1    0    0  502    0  0.00000000000E+00 -0.00000000000E+00 -0.44474695086E+03  0.44474695086E+03  0.00000000000E+00 0.  1.
          6    1    1    2  502    0 -0.31301045703E+02 -0.93299103900E+01 -0.38320951874E+03  0.42171713024E+03  0.17300000000E+03 0.  1.
         -6    1    1    2    0  501  0.31301045703E+02  0.93299103900E+01  0.14097763427E+03  0.22554488701E+03  0.17300000000E+03 0. -1.
<mgrwt>
<rscale>  2 0.17605625E+03</rscale>
<asrwt>0</asrwt>
<pdfrwt beam="1">  1        2 0.68422608E-01 0.17605625E+03</pdfrwt>
<pdfrwt beam="2">  1       -2 0.31156164E-01 0.17605625E+03</pdfrwt>
<totfact> 0.67933193E+02</totfact>
</mgrwt>
</event>
<event>
 4    1  0.7368504E-001  0.2801621E+03  0.7546771E-02  0.1095600E+00
          2   -1    0    0  502    0  0.00000000000E+00  0.00000000000E+00  0.15946877551E+04  0.15946877551E+04  0.00000000000E+00 0.  1.
         -2   -1    0    0    0  501 -0.00000000000E+00 -0.00000000000E+00 -0.61458574412E+02  0.61458574412E+02  0.00000000000E+00 0. -1.
          6    1    1    2  502    0 -0.19610579569E+03 -0.10052017163E+03  0.11361363606E+04  0.11701694826E+04  0.17300000000E+03 0.  1.
         -6    1    1    2    0  501  0.19610579569E+03  0.10052017163E+03  0.39709282001E+03  0.48597684689E+03  0.17300000000E+03 0. -1.
<mgrwt>
<rscale>  2 0.28016207E+03</rscale>
<asrwt>0</asrwt>
<pdfrwt beam="1">  1        2 0.24533655E+00 0.28016207E+03</pdfrwt>
<pdfrwt beam="2">  1       -2 0.94551665E-02 0.28016207E+03</pdfrwt>
<totfact> 0.88215289E+02</totfact>
</mgrwt>
</event>
<event>
 4    1  0.7368504E-001  0.1811818E+03  0.7546771E-02  0.1166664E+00
         -1   -1    0    0    0  501 -0.00000000000E+00  0.00000000000E+00  0.10047426561E+03  0.10047426561E+03  0.00000000000E+00 0.  1.
          1   -1    0    0  502    0  0.00000000000E+00 -0.00000000000E+00 -0.35290272700E+03  0.35290272700E+03  0.00000000000E+00 0. -1.
          6    1    1    2  502    0 -0.34618989824E+02  0.41223516060E+02 -0.64466981906E+02  0.19230924182E+03  0.17300000000E+03 0.  1.
         -6    1    1    2    0  501  0.34618989824E+02 -0.41223516060E+02 -0.18796147948E+03  0.26106775079E+03  0.17300000000E+03 0. -1.
<mgrwt>
<rscale>  2 0.18118182E+03</rscale>
<asrwt>0</asrwt>
<pdfrwt beam="1">  1        1 0.54292727E-01 0.18118182E+03</pdfrwt>
<pdfrwt beam="2">  1       -1 0.15457579E-01 0.18118182E+03</pdfrwt>
<totfact> 0.21522624E+03</totfact>
</mgrwt>
</event>
<event>
 4    1  0.7368504E-001  0.2665457E+03  0.7546771E-02  0.1103273E+00
          1   -1    0    0  502    0  0.00000000000E+00  0.00000000000E+00  0.25004261378E+03  0.25004261378E+03  0.00000000000E+00 0. -1.
         -1   -1    0    0    0  501 -0.00000000000E+00 -0.00000000000E+00 -0.33317321859E+03  0.33317321859E+03  0.00000000000E+00 0.  1.
          6    1    1    2  502    0  0.19452168106E+03  0.57261762894E+02 -0.15343657501E+03  0.30755385942E+03  0.17300000000E+03 0.  1.
         -6    1    1    2    0  501 -0.19452168106E+03 -0.57261762894E+02  0.70305970197E+02  0.27566197296E+03  0.17300000000E+03 0. -1.
<mgrwt>
<rscale>  2 0.26654567E+03</rscale>
<asrwt>0</asrwt>
<pdfrwt beam="1">  1        1 0.38468095E-01 0.26654567E+03</pdfrwt>
<pdfrwt beam="2">  1       -1 0.51257418E-01 0.26654567E+03</pdfrwt>
<totfact> 0.43525362E+02</totfact>
</mgrwt>
</event>
<event>
 4    1  0.7368504E-001  0.3958881E+03  0.7546771E-02  0.1045213E+00
         -2   -1    0    0    0  501 -0.00000000000E+00  0.00000000000E+00  0.16812947595E+03  0.16812947595E+03  0.00000000000E+00 0. -1.
          2   -1    0    0  502    0  0.00000000000E+00 -0.00000000000E+00 -0.15448940845E+04  0.15448940845E+04  0.00000000000E+00 0.  1.
          6    1    1    2  502    0  0.31882397467E+03  0.15858655291E+03 -0.14898112541E+03  0.42299266816E+03  0.17300000000E+03 0. -1.
         -6    1    1    2    0  501 -0.31882397467E+03 -0.15858655291E+03 -0.12277834831E+04  0.12900308923E+04  0.17300000000E+03 0.  1.
<mgrwt>
<rscale>  2 0.39588814E+03</rscale>
<asrwt>0</asrwt>
<pdfrwt beam="1">  1        2 0.23767601E+00 0.39588814E+03</pdfrwt>
<pdfrwt beam="2">  1       -2 0.25866073E-01 0.39588814E+03</pdfrwt>
<totfact> 0.17042339E+02</totfact>
</mgrwt>
</event>
<event>
 4    1  0.7368504E-001  0.2443525E+03  0.7546771E-02  0.1116927E+00
          2   -1    0    0  502    0  0.00000000000E+00  0.00000000000E+00  0.11522022052E+04  0.11522022052E+04  0.00000000000E+00 0. -1.
         -2   -1    0    0    0  501 -0.00000000000E+00 -0.00000000000E+00 -0.60680574001E+02  0.60680574001E+02  0.00000000000E+00 0.  1.
          6    1    1    2  502    0 -0.13689294880E+03 -0.10506881816E+03  0.31403561058E+03  0.39790262716E+03  0.17300000000E+03 0. -1.
         -6    1    1    2    0  501  0.13689294880E+03  0.10506881816E+03  0.77748602066E+03  0.81498015209E+03  0.17300000000E+03 0. -1.
<mgrwt>
<rscale>  2 0.24435248E+03</rscale>
<asrwt>0</asrwt>
<pdfrwt beam="1">  1        2 0.17726186E+00 0.24435248E+03</pdfrwt>
<pdfrwt beam="2">  1       -2 0.93354738E-02 0.24435248E+03</pdfrwt>
<totfact> 0.15777506E+03</totfact>
</mgrwt>
</event>
<event>
 4    1  0.7368504E-001  0.2502724E+03  0.7546771E-02  0.1113133E+00
          2   -1    0    0  502    0  0.00000000000E+00  0.00000000000E+00  0.76755909889E+03  0.76755909889E+03  0.00000000000E+00 0. -1.
         -2   -1    0    0    0  501 -0.00000000000E+00 -0.00000000000E+00 -0.12376115311E+03  0.12376115311E+03  0.00000000000E+00 0.  1.
          6    1    1    2  502    0 -0.14834655759E+03 -0.10344359887E+03  0.58200154590E+03  0.63353143468E+03  0.17300000000E+03 0. -1.
         -6    1    1    2    0  501  0.14834655759E+03  0.10344359887E+03  0.61796399872E+02  0.25778881732E+03  0.17300000000E+03 0.  1.
<mgrwt>
<rscale>  2 0.25027241E+03</rscale>
<asrwt>0</asrwt>
<pdfrwt beam="1">  1        2 0.11808601E+00 0.25027241E+03</pdfrwt>
<pdfrwt beam="2">  1       -2 0.19040178E-01 0.25027241E+03</pdfrwt>
<totfact> 0.85824385E+02</totfact>
</mgrwt>
</event>
<event>
 4    1  0.7368504E-001  0.1750033E+03  0.7546771E-02  0.1172728E+00
          2   -1    0    0  502    0  0.00000000000E+00  0.00000000000E+00  0.63246682861E+03  0.63246682861E+03  0.00000000000E+00 0.  1.
         -2   -1    0    0    0  501 -0.00000000000E+00 -0.00000000000E+00 -0.50279256582E+02  0.50279256582E+02  0.00000000000E+00 0. -1.
          6    1    1    2  502    0 -0.19314508816E+02  0.18002703035E+02  0.22550710760E+03  0.28544632270E+03  0.17300000000E+03 0. -1.
         -6    1    1    2    0  501  0.19314508816E+02 -0.18002703035E+02  0.35668046443E+03  0.39729976249E+03  0.17300000000E+03 0.  1.
<mgrwt>
<rscale>  2 0.17500328E+03</rscale>
<asrwt>0</asrwt>
<pdfrwt beam="1">  1        2 0.97302583E-01 0.17500328E+03</pdfrwt>
<pdfrwt beam="2">  1       -2 0.77352707E-02 0.17500328E+03</pdfrwt>
<totfact> 0.46310678E+03</totfact>
</mgrwt>
</event>
<event>
 4    1  0.7368504E-001  0.2108358E+03  0.7546771E-02  0.1140906E+00
          1   -1    0    0  502    0  0.00000000000E+00  0.00000000000E+00  0.90762092760E+03  0.90762092760E+03  0.00000000000E+00 0.  1.
         -1   -1    0    0    0  501 -0.00000000000E+00 -0.00000000000E+00 -0.56960323102E+02  0.56960323102E+02  0.00000000000E+00 0. -1.
          6    1    1    2  502    0 -0.10803911674E+03 -0.53388064644E+02  0.24476311048E+03  0.32304909293E+03  0.17300000000E+03 0.  1.
         -6    1    1    2    0  501  0.10803911674E+03  0.53388064644E+02  0.60589749402E+03  0.64153215777E+03  0.17300000000E+03 0.  1.
<mgrwt>
<rscale>  2 0.21083580E+03</rscale>
<asrwt>0</asrwt>
<pdfrwt beam="1">  1        1 0.13963398E+00 0.21083580E+03</pdfrwt>
<pdfrwt beam="2">  1       -1 0.87631273E-02 0.21083580E+03</pdfrwt>
<totfact> 0.14089681E+03</totfact>
</mgrwt>
</event>
<event>
 4    1  0.7368504E-001  0.3174623E+03  0.7546771E-02  0.1076823E+00
          1   -1    0    0  502    0  0.00000000000E+00  0.00000000000E+00  0.11636450495E+03  0.11636450495E+03  0.00000000000E+00 0. -1.
         -1   -1    0    0    0  501 -0.00000000000E+00 -0.00000000000E+00 -0.89271267197E+03  0.89271267197E+03  0.00000000000E+00 0.  1.
          6    1    1    2  502    0 -0.99825114958E+01 -0.26599564237E+03 -0.47530062304E+03  0.57157065579E+03  0.17300000000E+03 0.  1.
         -6    1    1    2    0  501  0.99825114958E+01  0.26599564237E+03 -0.30104754397E+03  0.43750652113E+03  0.17300000000E+03 0. -1.
<mgrwt>
<rscale>  2 0.31746233E+03</rscale>
<asrwt>0</asrwt>
<pdfrwt beam="1">  1        1 0.17902232E-01 0.31746233E+03</pdfrwt>
<pdfrwt beam="2">  1       -1 0.13734041E+00 0.31746233E+03</pdfrwt>
<totfact> 0.14003540E+02</totfact>
</mgrwt>
</event>
<event>
 4    1  0.7368504E-001  0.2273584E+03  0.7546771E-02  0.1128513E+00
          2   -1    0    0  502    0  0.00000000000E+00  0.00000000000E+00  0.19641077474E+03  0.19641077474E+03  0.00000000000E+00 0. -1.
         -2   -1    0    0    0  501 -0.00000000000E+00 -0.00000000000E+00 -0.26321567313E+03  0.26321567313E+03  0.00000000000E+00 0.  1.
          6    1    1    2  502    0  0.63420921240E+02 -0.13319390750E+03 -0.35991985278E+02  0.23018960283E+03  0.17300000000E+03 0. -1.
         -6    1    1    2    0  501 -0.63420921240E+02  0.13319390750E+03 -0.30812913118E+02  0.22943684504E+03  0.17300000000E+03 0.  1.
<mgrwt>
<rscale>  2 0.22735837E+03</rscale>
<asrwt>0</asrwt>
<pdfrwt beam="1">  1        2 0.30217042E-01 0.22735837E+03</pdfrwt>
<pdfrwt beam="2">  1       -2 0.40494719E-01 0.22735837E+03</pdfrwt>
<totfact> 0.10098709E+03</totfact>
</mgrwt>
</event>
<event>
 4    1  0.7368504E-001  0.1743620E+03  0.7546771E-02  0.1173374E+00
         -1   -1    0    0    0  501 -0.00000000000E+00  0.00000000000E+00  0.56956575499E+02  0.56956575499E+02  0.00000000000E+00 0.  1.
          1   -1    0    0  502    0  0.00000000000E+00 -0.00000000000E+00 -0.54740844009E+03  0.54740844009E+03  0.00000000000E+00 0. -1.
          6    1    1    2  502    0  0.25436449338E+01 -0.21601449107E+02 -0.29291175452E+03  0.34088031429E+03  0.17300000000E+03 0. -1.
         -6    1    1    2    0  501 -0.25436449338E+01  0.21601449107E+02 -0.19754011008E+03  0.26348470131E+03  0.17300000000E+03 0.  1.
<mgrwt>
<rscale>  2 0.17436196E+03</rscale>
<asrwt>0</asrwt>
<pdfrwt beam="1">  1        1 0.84216682E-01 0.17436196E+03</pdfrwt>
<pdfrwt beam="2">  1       -1 0.87625502E-02 0.17436196E+03</pdfrwt>
<totfact> 0.29409516E+03</totfact>
</mgrwt>
</event>
<event>
 4    1  0.7368504E-001  0.1914485E+03  0.7546771E-02  0.1157161E+00
         -2   -1    0    0    0  501 -0.00000000000E+00  0.00000000000E+00  0.31431525360E+03  0.31431525360E+03  0.00000000000E+00 0.  1.
          2   -1    0    0  502    0  0.00000000000E+00 -0.00000000000E+00 -0.11890630513E+03  0.11890630513E+03  0.00000000000E+00 0. -1.
          6    1    1    2  502    0  0.81307084306E+02  0.10614845701E+02  0.67607164934E+02  0.20303508480E+03  0.17300000000E+03 0. -1.
         -6    1    1    2    0  501 -0.81307084306E+02 -0.10614845701E+02  0.12780178354E+03  0.23018647394E+03  0.17300000000E+03 0.  1.
<mgrwt>
<rscale>  2 0.19144847E+03</rscale>
<asrwt>0</asrwt>
<pdfrwt beam="1">  1        2 0.18293278E-01 0.19144847E+03</pdfrwt>
<pdfrwt beam="2">  1       -2 0.48356193E-01 0.19144847E+03</pdfrwt>
<totfact> 0.12522308E+03</totfact>
</mgrwt>
</event>
<event>
 4    1  0.7368504E-001  0.2376941E+03  0.7546771E-02  0.1121339E+00
         -2   -1    0    0    0  501 -0.00000000000E+00  0.00000000000E+00  0.32209930119E+03  0.32209930119E+03  0.00000000000E+00 0.  1.
          2   -1    0    0  502    0  0.00000000000E+00 -0.00000000000E+00 -0.37483703423E+03  0.37483703423E+03  0.00000000000E+00 0. -1.
          6    1    1    2  502    0 -0.79188511563E+02  0.14247337651E+03  0.22780863659E+03  0.32923435162E+03  0.17300000000E+03 0.  1.
         -6    1    1    2    0  501  0.79188511563E+02 -0.14247337651E+03 -0.28054636964E+03  0.36770198380E+03  0.17300000000E+03 0. -1.
<mgrwt>
<rscale>  2 0.23769410E+03</rscale>
<asrwt>0</asrwt>
<pdfrwt beam="1">  1        2 0.57667236E-01 0.23769410E+03</pdfrwt>
<pdfrwt beam="2">  1       -2 0.49553739E-01 0.23769410E+03</pdfrwt>
<totfact> 0.33793098E+02</totfact>
</mgrwt>
</event>
<event>
 4    1  0.7368504E-001  0.3138928E+03  0.7546771E-02  0.1078495E+00
         -2   -1    0    0    0  501 -0.00000000000E+00  0.00000000000E+00  0.57591068714E+02  0.57591068714E+02  0.00000000000E+00 0. -1.
          2   -1    0    0  502    0  0.00000000000E+00 -0.00000000000E+00 -0.19478267641E+04  0.19478267641E+04  0.00000000000E+00 0.  1.
          6    1    1    2  502    0  0.17889583840E+03 -0.19130071860E+03 -0.12948764537E+04  0.13323789687E+04  0.17300000000E+03 0.  1.
         -6    1    1    2    0  501 -0.17889583840E+03  0.19130071860E+03 -0.59535924177E+03  0.67303886418E+03  0.17300000000E+03 0. -1.
<mgrwt>
<rscale>  2 0.31389279E+03</rscale>
<asrwt>0</asrwt>
<pdfrwt beam="1">  1        2 0.29966560E+00 0.31389279E+03</pdfrwt>
<pdfrwt beam="2">  1       -2 0.88601662E-02 0.31389279E+03</pdfrwt>
<totfact> 0.63383612E+02</totfact>
</mgrwt>
</event>
<event>
 4    1  0.7368504E-001  0.2488701E+03  0.7546771E-02  0.1114021E+00
          2   -1    0    0  502    0  0.00000000000E+00  0.00000000000E+00  0.17697512968E+03  0.17697512968E+03  0.00000000000E+00 0.  1.
         -2   -1    0    0    0  501 -0.00000000000E+00 -0.00000000000E+00 -0.37413135686E+03  0.37413135686E+03  0.00000000000E+00 0. -1.
          6    1    1    2  502    0 -0.17883782461E+03  0.49344033725E+01 -0.28555649759E+02  0.25050297599E+03  0.17300000000E+03 0. -1.
         -6    1    1    2    0  501  0.17883782461E+03 -0.49344033725E+01 -0.16860057742E+03  0.30060351054E+03  0.17300000000E+03 0.  1.
<mgrwt>
<rscale>  2 0.24887008E+03</rscale>
<asrwt>0</asrwt>
<pdfrwt beam="1">  1        2 0.27226944E-01 0.24887008E+03</pdfrwt>
<pdfrwt beam="2">  1       -2 0.57558669E-01 0.24887008E+03</pdfrwt>
<totfact> 0.56445050E+02</totfact>
</mgrwt>
</event>
<event>
 4    1  0.7368504E-001  0.1910410E+03  0.7546771E-02  0.1157526E+00
         -1   -1    0    0    0  501 -0.00000000000E+00  0.00000000000E+00  0.45540469096E+02  0.45540469096E+02  0.00000000000E+00 0.  1.
          1   -1    0    0  502    0  0.00000000000E+00 -0.00000000000E+00 -0.81216984256E+03  0.81216984256E+03  0.00000000000E+00 0. -1.
          6    1    1    2  502    0  0.80178723023E+02 -0.11790976917E+02 -0.33395637651E+03  0.38473824371E+03  0.17300000000E+03 0.  1.
         -6    1    1    2    0  501 -0.80178723023E+02  0.11790976917E+02 -0.43267299696E+03  0.47297206795E+03  0.17300000000E+03 0.  1.
<mgrwt>
<rscale>  2 0.19104098E+03</rscale>
<asrwt>0</asrwt>
<pdfrwt beam="1">  1        1 0.12494920E+00 0.19104098E+03</pdfrwt>
<pdfrwt beam="2">  1       -1 0.70062266E-02 0.19104098E+03</pdfrwt>
<totfact> 0.23579995E+03</totfact>
</mgrwt>
</event>
<event>
 4    1  0.7368504E-001  0.2093564E+03  0.7546771E-02  0.1142077E+00
         -3   -1    0    0    0  501 -0.00000000000E+00  0.00000000000E+00  0.23420413147E+04  0.23420413147E+04  0.00000000000E+00 0. -1.
          3   -1    0    0  502    0  0.00000000000E+00 -0.00000000000E+00 -0.37014970372E+02  0.37014970372E+02  0.00000000000E+00 0.  1.
          6    1    1    2  502    0  0.41454310670E+02  0.11037499134E+03  0.31610683498E+03  0.37914855889E+03  0.17300000000E+03 0.  1.
         -6    1    1    2    0  501 -0.41454310670E+02 -0.11037499134E+03  0.19889195094E+04  0.19999077262E+04  0.17300000000E+03 0. -1.
<mgrwt>
<rscale>  2 0.20935639E+03</rscale>
<asrwt>0</asrwt>
<pdfrwt beam="1">  1        3 0.56946127E-02 0.20935639E+03</pdfrwt>
<pdfrwt beam="2">  1       -3 0.36031393E+00 0.20935639E+03</pdfrwt>
<totfact> 0.96489173E+00</totfact>
</mgrwt>
</event>
<event>
 4    1  0.7368504E-001  0.2190578E+03  0.7546771E-02  0.1134587E+00
         -2   -1    0    0    0  501 -0.00000000000E+00  0.00000000000E+00  0.59351672506E+03  0.59351672506E+03  0.00000000000E+00 0.  1.
          2   -1    0    0  502    0  0.00000000000E+00 -0.00000000000E+00 -0.93310866388E+02  0.93310866388E+02  0.00000000000E+00 0. -1.
          6    1    1    2  502    0  0.12448268649E+03  0.50610029451E+02  0.12461225750E+03  0.25202089008E+03  0.17300000000E+03 0. -1.
         -6    1    1    2    0  501 -0.12448268649E+03 -0.50610029451E+02  0.37559360117E+03  0.43480670137E+03  0.17300000000E+03 0.  1.
<mgrwt>
<rscale>  2 0.21905779E+03</rscale>
<asrwt>0</asrwt>
<pdfrwt beam="1">  1        2 0.14355518E-01 0.21905779E+03</pdfrwt>
<pdfrwt beam="2">  1       -2 0.91310263E-01 0.21905779E+03</pdfrwt>
<totfact> 0.43420772E+02</totfact>
</mgrwt>
</event>
<event>
 4    1  0.7368504E-001  0.2370710E+03  0.7546771E-02  0.1121760E+00
          1   -1    0    0  502    0  0.00000000000E+00  0.00000000000E+00  0.16207732974E+03  0.16207732974E+03  0.00000000000E+00 0.  1.
         -1   -1    0    0    0  501 -0.00000000000E+00 -0.00000000000E+00 -0.38235834620E+03  0.38235834620E+03  0.00000000000E+00 0. -1.
          6    1    1    2  502    0 -0.59765993613E+02 -0.15067075633E+03 -0.19319617276E+03  0.30582251711E+03  0.17300000000E+03 0. -1.
         -6    1    1    2    0  501  0.59765993613E+02  0.15067075633E+03 -0.27084843699E+02  0.23861315882E+03  0.17300000000E+03 0.  1.
<mgrwt>
<rscale>  2 0.23707098E+03</rscale>
<asrwt>0</asrwt>
<pdfrwt beam="1">  1        1 0.24934974E-01 0.23707098E+03</pdfrwt>
<pdfrwt beam="2">  1       -1 0.58824361E-01 0.23707098E+03</pdfrwt>
<totfact> 0.58127945E+02</totfact>
</mgrwt>
</event>
<event>
 4    1  0.7368504E-001  0.3055215E+03  0.7546771E-02  0.1082513E+00
          1   -1    0    0  502    0  0.00000000000E+00  0.00000000000E+00  0.33942761101E+03  0.33942761101E+03  0.00000000000E+00 0. -1.
         -1   -1    0    0    0  501 -0.00000000000E+00 -0.00000000000E+00 -0.27729569450E+03  0.27729569450E+03  0.00000000000E+00 0.  1.
          6    1    1    2  502    0 -0.13781858385E+03 -0.21076155447E+03  0.59108816392E+02  0.31118683628E+03  0.17300000000E+03 0.  1.
         -6    1    1    2    0  501  0.13781858385E+03  0.21076155447E+03  0.30231001105E+01  0.30553646923E+03  0.17300000000E+03 0. -1.
<mgrwt>
<rscale>  2 0.30552151E+03</rscale>
<asrwt>0</asrwt>
<pdfrwt beam="1">  1        1 0.52219632E-01 0.30552151E+03</pdfrwt>
<pdfrwt beam="2">  1       -1 0.42660876E-01 0.30552151E+03</pdfrwt>
<totfact> 0.41326234E+02</totfact>
</mgrwt>
</event>
<event>
 4    1  0.7368504E-001  0.1818491E+03  0.7546771E-02  0.1166025E+00
          1   -1    0    0  502    0  0.00000000000E+00  0.00000000000E+00  0.13400499120E+04  0.13400499120E+04  0.00000000000E+00 0. -1.
         -1   -1    0    0    0  501 -0.00000000000E+00 -0.00000000000E+00 -0.30720418663E+02  0.30720418663E+02  0.00000000000E+00 0.  1.
          6    1    1    2  502    0  0.50427256971E+02  0.24437729087E+02  0.95864384891E+03  0.97573927865E+03  0.17300000000E+03 0. -1.
         -6    1    1    2    0  501 -0.50427256971E+02 -0.24437729087E+02  0.35068564444E+03  0.39503105202E+03  0.17300000000E+03 0.  1.
<mgrwt>
<rscale>  2 0.18184914E+03</rscale>
<asrwt>0</asrwt>
<pdfrwt beam="1">  1        1 0.20616148E+00 0.18184914E+03</pdfrwt>
<pdfrwt beam="2">  1       -1 0.47262193E-02 0.18184914E+03</pdfrwt>
<totfact> 0.17559112E+03</totfact>
</mgrwt>
</event>
<event>
 4    1  0.7368504E-001  0.2364299E+03  0.7546771E-02  0.1122194E+00
          2   -1    0    0  502    0  0.00000000000E+00  0.00000000000E+00  0.56468202264E+03  0.56468202264E+03  0.00000000000E+00 0.  1.
         -2   -1    0    0    0  501 -0.00000000000E+00 -0.00000000000E+00 -0.29551616502E+03  0.29551616502E+03  0.00000000000E+00 0. -1.
          6    1    1    2  502    0 -0.10874666277E+03  0.11892968474E+03 -0.21615738259E+03  0.32034843628E+03  0.17300000000E+03 0. -1.
         -6    1    1    2    0  501  0.10874666277E+03 -0.11892968474E+03  0.48532324021E+03  0.53984975138E+03  0.17300000000E+03 0.  1.
<mgrwt>
<rscale>  2 0.23642992E+03</rscale>
<asrwt>0</asrwt>
<pdfrwt beam="1">  1        2 0.86874157E-01 0.23642992E+03</pdfrwt>
<pdfrwt beam="2">  1       -2 0.45464025E-01 0.23642992E+03</pdfrwt>
<totfact> 0.25434807E+02</totfact>
</mgrwt>
</event>
<event>
 4    1  0.7368504E-001  0.2463607E+03  0.7546771E-02  0.1115627E+00
          2   -1    0    0  502    0  0.00000000000E+00  0.00000000000E+00  0.38789601003E+03  0.38789601003E+03  0.00000000000E+00 0. -1.
         -2   -1    0    0    0  501 -0.00000000000E+00 -0.00000000000E+00 -0.16299256000E+03  0.16299256000E+03  0.00000000000E+00 0.  1.
          6    1    1    2  502    0 -0.62231787228E+02  0.16398723998E+03  0.57345586640E+02  0.25294688479E+03  0.17300000000E+03 0.  1.
         -6    1    1    2    0  501  0.62231787228E+02 -0.16398723998E+03  0.16755786340E+03  0.29794168524E+03  0.17300000000E+03 0. -1.
<mgrwt>
<rscale>  2 0.24636073E+03</rscale>
<asrwt>0</asrwt>
<pdfrwt beam="1">  1        2 0.59676309E-01 0.24636073E+03</pdfrwt>
<pdfrwt beam="2">  1       -2 0.25075779E-01 0.24636073E+03</pdfrwt>
<totfact> 0.11669326E+03</totfact>
</mgrwt>
</event>
<event>
 4    1  0.7368504E-001  0.2344033E+03  0.7546771E-02  0.1123578E+00
          2   -1    0    0  502    0  0.00000000000E+00  0.00000000000E+00  0.44469107952E+03  0.44469107952E+03  0.00000000000E+00 0. -1.
         -2   -1    0    0    0  501 -0.00000000000E+00 -0.00000000000E+00 -0.12431834409E+03  0.12431834409E+03  0.00000000000E+00 0.  1.
          6    1    1    2  502    0 -0.20220402973E+02 -0.15686629782E+03  0.18244411592E+03  0.29703662320E+03  0.17300000000E+03 0.  1.
         -6    1    1    2    0  501  0.20220402973E+02  0.15686629782E+03  0.13792861950E+03  0.27197280041E+03  0.17300000000E+03 0.  1.
<mgrwt>
<rscale>  2 0.23440329E+03</rscale>
<asrwt>0</asrwt>
<pdfrwt beam="1">  1        2 0.68414012E-01 0.23440329E+03</pdfrwt>
<pdfrwt beam="2">  1       -2 0.19125899E-01 0.23440329E+03</pdfrwt>
<totfact> 0.16065539E+03</totfact>
</mgrwt>
</event>
<event>
 4    1  0.7368504E-001  0.1856353E+03  0.7546771E-02  0.1162458E+00
          1   -1    0    0  502    0  0.00000000000E+00  0.00000000000E+00  0.76887774372E+03  0.76887774372E+03  0.00000000000E+00 0.  1.
         -1   -1    0    0    0  501 -0.00000000000E+00 -0.00000000000E+00 -0.46250310178E+02  0.46250310178E+02  0.00000000000E+00 0. -1.
          6    1    1    2  502    0 -0.65116633623E+02 -0.17066721752E+02  0.28961981123E+03  0.34400593602E+03  0.17300000000E+03 0. -1.
         -6    1    1    2    0  501  0.65116633623E+02  0.17066721752E+02  0.43300762232E+03  0.47112211788E+03  0.17300000000E+03 0.  1.
<mgrwt>
<rscale>  2 0.18563526E+03</rscale>
<asrwt>0</asrwt>
<pdfrwt beam="1">  1        1 0.11828887E+00 0.18563526E+03</pdfrwt>
<pdfrwt beam="2">  1       -1 0.71154329E-02 0.18563526E+03</pdfrwt>
<totfact> 0.25016668E+03</totfact>
</mgrwt>
</event>
<event>
 4    1  0.7368504E-001  0.1734164E+03  0.7546771E-02  0.1174331E+00
          2   -1    0    0  502    0  0.00000000000E+00  0.00000000000E+00  0.17112036665E+03  0.17112036665E+03  0.00000000000E+00 0. -1.
         -2   -1    0    0    0  501 -0.00000000000E+00 -0.00000000000E+00 -0.21134449180E+03  0.21134449180E+03  0.00000000000E+00 0.  1.
          6    1    1    2  502    0 -0.11978223000E+02 -0.86891022367E+00 -0.98599335270E+02  0.19948699644E+03  0.17300000000E+03 0.  1.
         -6    1    1    2    0  501  0.11978223000E+02  0.86891022367E+00  0.58375210112E+02  0.18297786201E+03  0.17300000000E+03 0. -1.
<mgrwt>
<rscale>  2 0.17341636E+03</rscale>
<asrwt>0</asrwt>
<pdfrwt beam="1">  1        2 0.26326210E-01 0.17341636E+03</pdfrwt>
<pdfrwt beam="2">  1       -2 0.32514537E-01 0.17341636E+03</pdfrwt>
<totfact> 0.17604947E+03</totfact>
</mgrwt>
</event>
<event>
 4    1  0.7368504E-001  0.1784853E+03  0.7546771E-02  0.1169277E+00
          1   -1    0    0  502    0  0.00000000000E+00  0.00000000000E+00  0.34074262303E+02  0.34074262303E+02  0.00000000000E+00 0.  1.
         -1   -1    0    0    0  501 -0.00000000000E+00 -0.00000000000E+00 -0.10621983039E+04  0.10621983039E+04  0.00000000000E+00 0. -1.
          6    1    1    2  502    0 -0.75126013531E+01 -0.43261600204E+02 -0.70379731337E+03  0.72607689919E+03  0.17300000000E+03 0. -1.
         -6    1    1    2    0  501  0.75126013531E+01  0.43261600204E+02 -0.32432672821E+03  0.37019566700E+03  0.17300000000E+03 0.  1.
<mgrwt>
<rscale>  2 0.17848531E+03</rscale>
<asrwt>0</asrwt>
<pdfrwt beam="1">  1        1 0.52421944E-02 0.17848531E+03</pdfrwt>
<pdfrwt beam="2">  1       -1 0.16341512E+00 0.17848531E+03</pdfrwt>
<totfact> 0.46723230E+02</totfact>
</mgrwt>
</event>
<event>
 4    1  0.7368504E-001  0.1930491E+03  0.7546771E-02  0.1155740E+00
         -2   -1    0    0    0  501 -0.00000000000E+00  0.00000000000E+00  0.31474999367E+02  0.31474999367E+02  0.00000000000E+00 0. -1.
          2   -1    0    0  502    0  0.00000000000E+00 -0.00000000000E+00 -0.12154652402E+04  0.12154652402E+04  0.00000000000E+00 0.  1.
          6    1    1    2  502    0  0.84256729038E+02 -0.15484113094E+02 -0.49176027947E+03  0.52829549176E+03  0.17300000000E+03 0. -1.
         -6    1    1    2    0  501 -0.84256729038E+02  0.15484113094E+02 -0.69222996137E+03  0.71864474782E+03  0.17300000000E+03 0. -1.
<mgrwt>
<rscale>  2 0.19304910E+03</rscale>
<asrwt>0</asrwt>
<pdfrwt beam="1">  1        2 0.18699463E+00 0.19304910E+03</pdfrwt>
<pdfrwt beam="2">  1       -2 0.48423082E-02 0.19304910E+03</pdfrwt>
<totfact> 0.39972321E+03</totfact>
</mgrwt>
</event>
<event>
 4    1  0.7368504E-001  0.2979243E+03  0.7546771E-02  0.1086283E+00
         -2   -1    0    0    0  501 -0.00000000000E+00  0.00000000000E+00  0.18171621312E+03  0.18171621312E+03  0.00000000000E+00 0. -1.
          2   -1    0    0  502    0  0.00000000000E+00 -0.00000000000E+00 -0.49277270278E+03  0.49277270278E+03  0.00000000000E+00 0.  1.
          6    1    1    2  502    0 -0.13843335950E+03  0.19916342822E+03 -0.18712298209E+03  0.35181511706E+03  0.17300000000E+03 0. -1.
         -6    1    1    2    0  501  0.13843335950E+03 -0.19916342822E+03 -0.12393350757E+03  0.32267379884E+03  0.17300000000E+03 0.  1.
<mgrwt>
<rscale>  2 0.29792426E+03</rscale>
<asrwt>0</asrwt>
<pdfrwt beam="1">  1        2 0.75811184E-01 0.29792426E+03</pdfrwt>
<pdfrwt beam="2">  1       -2 0.27956341E-01 0.29792426E+03</pdfrwt>
<totfact> 0.73829312E+02</totfact>
</mgrwt>
</event>
<event>
 4    1  0.7368504E-001  0.1812753E+03  0.7546771E-02  0.1166574E+00
         -2   -1    0    0    0  501 -0.00000000000E+00  0.00000000000E+00  0.15341583877E+02  0.15341583877E+02  0.00000000000E+00 0.  1.
          2   -1    0    0  502    0  0.00000000000E+00 -0.00000000000E+00 -0.29110273876E+04  0.29110273876E+04  0.00000000000E+00 0. -1.
          6    1    1    2  502    0  0.37107326210E+01 -0.54018290168E+02 -0.21999226854E+04  0.22073786641E+04  0.17300000000E+03 0. -1.
         -6    1    1    2    0  501 -0.37107326210E+01  0.54018290168E+02 -0.69576311829E+03  0.71899030729E+03  0.17300000000E+03 0.  1.
<mgrwt>
<rscale>  2 0.18127533E+03</rscale>
<asrwt>0</asrwt>
<pdfrwt beam="1">  1        2 0.44785041E+00 0.18127533E+03</pdfrwt>
<pdfrwt beam="2">  1       -2 0.23602435E-02 0.18127533E+03</pdfrwt>
<totfact> 0.14445661E+03</totfact>
</mgrwt>
</event>
<event>
 4    1  0.7368504E-001  0.1956772E+03  0.7546771E-02  0.1153438E+00
         -1   -1    0    0    0  501 -0.00000000000E+00  0.00000000000E+00  0.29337094226E+03  0.29337094226E+03  0.00000000000E+00 0.  1.
          1   -1    0    0  502    0  0.00000000000E+00 -0.00000000000E+00 -0.25438732173E+03  0.25438732173E+03  0.00000000000E+00 0. -1.
          6    1    1    2  502    0 -0.75566602834E+02 -0.51480635201E+02  0.21060770329E+03  0.28748073318E+03  0.17300000000E+03 0.  1.
         -6    1    1    2    0  501  0.75566602834E+02  0.51480635201E+02 -0.17162408276E+03  0.26027753082E+03  0.17300000000E+03 0. -1.
<mgrwt>
<rscale>  2 0.19567720E+03</rscale>
<asrwt>0</asrwt>
<pdfrwt beam="1">  1        1 0.39136511E-01 0.19567720E+03</pdfrwt>
<pdfrwt beam="2">  1       -1 0.45133991E-01 0.19567720E+03</pdfrwt>
<totfact> 0.53894441E+02</totfact>
</mgrwt>
</event>
<event>
 4    1  0.7368504E-001  0.1786279E+03  0.7546771E-02  0.1169138E+00
          1   -1    0    0  502    0  0.00000000000E+00  0.00000000000E+00  0.45344683017E+03  0.45344683017E+03  0.00000000000E+00 0.  1.
         -1   -1    0    0    0  501 -0.00000000000E+00 -0.00000000000E+00 -0.72889817240E+02  0.72889817240E+02  0.00000000000E+00 0. -1.
          6    1    1    2  502    0 -0.29308072468E+02 -0.33465772264E+02  0.23923381694E+03  0.29856446572E+03  0.17300000000E+03 0.  1.
         -6    1    1    2    0  501  0.29308072468E+02  0.33465772264E+02  0.14132319599E+03  0.22777218168E+03  0.17300000000E+03 0. -1.
<mgrwt>
<rscale>  2 0.17862788E+03</rscale>
<asrwt>0</asrwt>
<pdfrwt beam="1">  1        1 0.69761049E-01 0.17862788E+03</pdfrwt>
<pdfrwt beam="2">  1       -1 0.11213818E-01 0.17862788E+03</pdfrwt>
<totfact> 0.25819672E+03</totfact>
</mgrwt>
</event>
<event>
 4    1  0.7368504E-001  0.2184295E+03  0.7546771E-02  0.1135059E+00
          1   -1    0    0  502    0  0.00000000000E+00  0.00000000000E+00  0.15577288871E+04  0.15577288871E+04  0.00000000000E+00 0.  1.
         -1   -1    0    0    0  501 -0.00000000000E+00 -0.00000000000E+00 -0.35284542948E+02  0.35284542948E+02  0.00000000000E+00 0. -1.
          6    1    1    2  502    0 -0.11757584616E+03  0.62915476737E+02  0.47189475748E+03  0.51999624898E+03  0.17300000000E+03 0. -1.
         -6    1    1    2    0  501  0.11757584616E+03 -0.62915476737E+02  0.10505495867E+04  0.10730171811E+04  0.17300000000E+03 0. -1.
<mgrwt>
<rscale>  2 0.21842948E+03</rscale>
<asrwt>0</asrwt>
<pdfrwt beam="1">  1        1 0.23965054E+00 0.21842948E+03</pdfrwt>
<pdfrwt beam="2">  1       -1 0.54283924E-02 0.21842948E+03</pdfrwt>
<totfact> 0.10231292E+03</totfact>
</mgrwt>
</event>
<event>
 4    1  0.7368504E-001  0.1926269E+03  0.7546771E-02  0.1156113E+00
          2   -1    0    0  502    0  0.00000000000E+00  0.00000000000E+00  0.12840021293E+04  0.12840021293E+04  0.00000000000E+00 0.  1.
         -2   -1    0    0    0  501 -0.00000000000E+00 -0.00000000000E+00 -0.40551622188E+02  0.40551622188E+02  0.00000000000E+00 0. -1.
          6    1    1    2  502    0 -0.67199599281E+02  0.51578383418E+02  0.26669478995E+03  0.32898514673E+03  0.17300000000E+03 0. -1.
         -6    1    1    2    0  501  0.67199599281E+02 -0.51578383418E+02  0.97675571713E+03  0.99556860473E+03  0.17300000000E+03 0.  1.
<mgrwt>
<rscale>  2 0.19262688E+03</rscale>
<asrwt>0</asrwt>
<pdfrwt beam="1">  1        2 0.19753876E+00 0.19262688E+03</pdfrwt>
<pdfrwt beam="2">  1       -2 0.62387121E-02 0.19262688E+03</pdfrwt>
<totfact> 0.24904064E+03</totfact>
</mgrwt>
</event>
<event>
 4    1  0.7368504E-001  0.2177536E+03  0.7546771E-02  0.1135569E+00
          2   -1    0    0  502    0  0.00000000000E+00  0.00000000000E+00  0.11227745921E+04  0.11227745921E+04  0.00000000000E+00 0.  1.
         -2   -1    0    0    0  501 -0.00000000000E+00 -0.00000000000E+00 -0.43414355027E+02  0.43414355027E+02  0.00000000000E+00 0. -1.
          6    1    1    2  502    0  0.37136899883E+02  0.12691923135E+03  0.63592057797E+03  0.67216934035E+03  0.17300000000E+03 0.  1.
         -6    1    1    2    0  501 -0.37136899883E+02 -0.12691923135E+03  0.44343965914E+03  0.49401960681E+03  0.17300000000E+03 0.  1.
<mgrwt>
<rscale>  2 0.21775362E+03</rscale>
<asrwt>0</asrwt>
<pdfrwt beam="1">  1        2 0.17273453E+00 0.21775362E+03</pdfrwt>
<pdfrwt beam="2">  1       -2 0.66791324E-02 0.21775362E+03</pdfrwt>
<totfact> 0.27672723E+03</totfact>
</mgrwt>
</event>
<event>
 4    1  0.7368504E-001  0.2072717E+03  0.7546771E-02  0.1143745E+00
          2   -1    0    0  502    0  0.00000000000E+00  0.00000000000E+00  0.34697710183E+03  0.34697710183E+03  0.00000000000E+00 0.  1.
         -2   -1    0    0    0  501 -0.00000000000E+00 -0.00000000000E+00 -0.12607432749E+03  0.12607432749E+03  0.00000000000E+00 0. -1.
          6    1    1    2  502    0 -0.11304190543E+03 -0.15940004880E+02  0.78800042195E+02  0.22174535573E+03  0.17300000000E+03 0. -1.
         -6    1    1    2    0  501  0.11304190543E+03  0.15940004880E+02  0.14210273215E+03  0.25130607359E+03  0.17300000000E+03 0.  1.
<mgrwt>
<rscale>  2 0.20727170E+03</rscale>
<asrwt>0</asrwt>
<pdfrwt beam="1">  1        2 0.53381092E-01 0.20727170E+03</pdfrwt>
<pdfrwt beam="2">  1       -2 0.19396051E-01 0.20727170E+03</pdfrwt>
<totfact> 0.20482381E+03</totfact>
</mgrwt>
</event>
<event>
 4    1  0.7368504E-001  0.2395185E+03  0.7546771E-02  0.1120114E+00
          1   -1    0    0  502    0  0.00000000000E+00  0.00000000000E+00  0.31055178236E+03  0.31055178236E+03  0.00000000000E+00 0.  1.
         -1   -1    0    0    0  501 -0.00000000000E+00 -0.00000000000E+00 -0.19002108010E+03  0.19002108010E+03  0.00000000000E+00 0. -1.
          6    1    1    2  502    0  0.93534468331E+02  0.13671651427E+03  0.10201890146E+03  0.26034008200E+03  0.17300000000E+03 0. -1.
         -6    1    1    2    0  501 -0.93534468331E+02 -0.13671651427E+03  0.18511800804E+02  0.24023278046E+03  0.17300000000E+03 0.  1.
<mgrwt>
<rscale>  2 0.23951848E+03</rscale>
<asrwt>0</asrwt>
<pdfrwt beam="1">  1        1 0.47777197E-01 0.23951848E+03</pdfrwt>
<pdfrwt beam="2">  1       -1 0.29234012E-01 0.23951848E+03</pdfrwt>
<totfact> 0.89673398E+02</totfact>
</mgrwt>
</event>
<event>
 4    1  0.7368504E-001  0.3177042E+03  0.7546771E-02  0.1076711E+00
          2   -1    0    0  502    0  0.00000000000E+00  0.00000000000E+00  0.35933740573E+04  0.35933740573E+04  0.00000000000E+00 0. -1.
         -2   -1    0    0    0  501 -0.00000000000E+00 -0.00000000000E+00 -0.42206284587E+02  0.42206284587E+02  0.00000000000E+00 0.  1.
          6    1    1    2  502    0  0.87684861427E+02 -0.25163134341E+03  0.28268763848E+04  0.28446732787E+04  0.17300000000E+03 0.  1.
         -6    1    1    2    0  501 -0.87684861427E+02  0.25163134341E+03  0.72429138790E+03  0.79090706312E+03  0.17300000000E+03 0. -1.
<mgrwt>
<rscale>  2 0.31770421E+03</rscale>
<asrwt>0</asrwt>
<pdfrwt beam="1">  1        2 0.55282654E+00 0.31770421E+03</pdfrwt>
<pdfrwt beam="2">  1       -2 0.64932774E-02 0.31770421E+03</pdfrwt>
<totfact> 0.11319141E+02</totfact>
</mgrwt>
</event>
<event>
 4    1  0.7368504E-001  0.1759995E+03  0.7546771E-02  0.1171732E+00
         -2   -1    0    0    0  501 -0.00000000000E+00  0.00000000000E+00  0.89286267122E+02  0.89286267122E+02  0.00000000000E+00 0.  1.
          2   -1    0    0  502    0  0.00000000000E+00 -0.00000000000E+00 -0.34810234433E+03  0.34810234433E+03  0.00000000000E+00 0. -1.
          6    1    1    2  502    0 -0.28630194311E+02  0.15071613780E+02 -0.11670185022E+03  0.21117566956E+03  0.17300000000E+03 0.  1.
         -6    1    1    2    0  501  0.28630194311E+02 -0.15071613780E+02 -0.14211422699E+03  0.22621294190E+03  0.17300000000E+03 0.  1.
<mgrwt>
<rscale>  2 0.17599955E+03</rscale>
<asrwt>0</asrwt>
<pdfrwt beam="1">  1        2 0.53554207E-01 0.17599955E+03</pdfrwt>
<pdfrwt beam="2">  1       -2 0.13736349E-01 0.17599955E+03</pdfrwt>
<totfact> 0.36021712E+03</totfact>
</mgrwt>
</event>
<event>
 4    1  0.7368504E-001  0.2247385E+03  0.7546771E-02  0.1130399E+00
         -1   -1    0    0    0  501 -0.00000000000E+00  0.00000000000E+00  0.85475301890E+02  0.85475301890E+02  0.00000000000E+00 0.  1.
          1   -1    0    0  502    0  0.00000000000E+00 -0.00000000000E+00 -0.66756806830E+03  0.66756806830E+03  0.00000000000E+00 0. -1.
          6    1    1    2  502    0  0.87262203353E+02  0.11385827019E+03 -0.16344714337E+03  0.27788912627E+03  0.17300000000E+03 0.  1.
         -6    1    1    2    0  501 -0.87262203353E+02 -0.11385827019E+03 -0.41864562304E+03  0.47515424392E+03  0.17300000000E+03 0. -1.
<mgrwt>
<rscale>  2 0.22473851E+03</rscale>
<asrwt>0</asrwt>
<pdfrwt beam="1">  1        1 0.10270278E+00 0.22473851E+03</pdfrwt>
<pdfrwt beam="2">  1       -1 0.13150047E-01 0.22473851E+03</pdfrwt>
<totfact> 0.11979476E+03</totfact>
</mgrwt>
</event>
<event>
 4    1  0.7368504E-001  0.1977320E+03  0.7546771E-02  0.1151667E+00
         -2   -1    0    0    0  501 -0.00000000000E+00  0.00000000000E+00  0.16852379027E+03  0.16852379027E+03  0.00000000000E+00 0.  1.
          2   -1    0    0  502    0  0.00000000000E+00 -0.00000000000E+00 -0.23517728492E+03  0.23517728492E+03  0.00000000000E+00 0. -1.
          6    1    1    2  502    0  0.75141333642E+02 -0.59352591454E+02 -0.56779052145E+02  0.20572265528E+03  0.17300000000E+03 0.  1.
         -6    1    1    2    0  501 -0.75141333642E+02  0.59352591454E+02 -0.98744425089E+01  0.19797841991E+03  0.17300000000E+03 0.  1.
<mgrwt>
<rscale>  2 0.19773202E+03</rscale>
<asrwt>0</asrwt>
<pdfrwt beam="1">  1        2 0.36181121E-01 0.19773202E+03</pdfrwt>
<pdfrwt beam="2">  1       -2 0.25926737E-01 0.19773202E+03</pdfrwt>
<totfact> 0.18785598E+03</totfact>
</mgrwt>
</event>
<event>
 4    1  0.7368504E-001  0.1934694E+03  0.7546771E-02  0.1155369E+00
          1   -1    0    0  502    0  0.00000000000E+00  0.00000000000E+00  0.20629304341E+02  0.20629304341E+02  0.00000000000E+00 0. -1.
         -1   -1    0    0    0  501 -0.00000000000E+00 -0.00000000000E+00 -0.18471642077E+04  0.18471642077E+04  0.00000000000E+00 0.  1.
          6    1    1    2  502    0  0.65942199487E+02 -0.56152019168E+02 -0.78894519667E+03  0.81232071639E+03  0.17300000000E+03 0.  1.
         -6    1    1    2    0  501 -0.65942199487E+02  0.56152019168E+02 -0.10375897067E+04  0.10554727956E+04  0.17300000000E+03 0. -1.
<mgrwt>
<rscale>  2 0.19346944E+03</rscale>
<asrwt>0</asrwt>
<pdfrwt beam="1">  1        1 0.31737390E-02 0.19346944E+03</pdfrwt>
<pdfrwt beam="2">  1       -1 0.28417912E+00 0.19346944E+03</pdfrwt>
<totfact> 0.15371414E+02</totfact>
</mgrwt>
</event>
<event>
 4    1  0.7368504E-001  0.2064373E+03  0.7546771E-02  0.1144419E+00
          2   -1    0    0  502    0  0.00000000000E+00  0.00000000000E+00  0.12942713619E+04  0.12942713619E+04  0.00000000000E+00 0. -1.
         -2   -1    0    0    0  501 -0.00000000000E+00 -0.00000000000E+00 -0.43473143807E+02  0.43473143807E+02  0.00000000000E+00 0.  1.
          6    1    1    2  502    0 -0.68321499851E+02 -0.89551851420E+02  0.29595535518E+03  0.36084059319E+03  0.17300000000E+03 0.  1.
         -6    1    1    2    0  501  0.68321499851E+02  0.89551851420E+02  0.95484286296E+03  0.97690391256E+03  0.17300000000E+03 0. -1.
<mgrwt>
<rscale>  2 0.20643731E+03</rscale>
<asrwt>0</asrwt>
<pdfrwt beam="1">  1        2 0.19911864E+00 0.20643731E+03</pdfrwt>
<pdfrwt beam="2">  1       -2 0.66881770E-02 0.20643731E+03</pdfrwt>
<totfact> 0.22097258E+03</totfact>
</mgrwt>
</event>
<event>
 4    1  0.7368504E-001  0.2977007E+03  0.7546771E-02  0.1086396E+00
          1   -1    0    0  502    0  0.00000000000E+00  0.00000000000E+00  0.15644933901E+04  0.15644933901E+04  0.00000000000E+00 0.  1.
         -1   -1    0    0    0  501 -0.00000000000E+00 -0.00000000000E+00 -0.62281334607E+02  0.62281334607E+02  0.00000000000E+00 0. -1.
          6    1    1    2  502    0 -0.24227008460E+03 -0.13801958809E+01  0.50648465008E+03  0.58749672305E+03  0.17300000000E+03 0.  1.
         -6    1    1    2    0  501  0.24227008460E+03  0.13801958809E+01  0.99572740543E+03  0.10392780017E+04  0.17300000000E+03 0.  1.
<mgrwt>
<rscale>  2 0.29770069E+03</rscale>
<asrwt>0</asrwt>
<pdfrwt beam="1">  1        1 0.24069126E+00 0.29770069E+03</pdfrwt>
<pdfrwt beam="2">  1       -1 0.95817450E-02 0.29770069E+03</pdfrwt>
<totfact> 0.42202249E+02</totfact>
</mgrwt>
</event>
<event>
 4    1  0.7368504E-001  0.2157298E+03  0.7546771E-02  0.1137107E+00
          2   -1    0    0  502    0  0.00000000000E+00  0.00000000000E+00  0.69877823201E+03  0.69877823201E+03  0.00000000000E+00 0.  1.
         -2   -1    0    0    0  501 -0.00000000000E+00 -0.00000000000E+00 -0.10032226854E+03  0.10032226854E+03  0.00000000000E+00 0. -1.
          6    1    1    2  502    0  0.11931071802E+03  0.48737011246E+02  0.67582117034E+02  0.22606787973E+03  0.17300000000E+03 0. -1.
         -6    1    1    2    0  501 -0.11931071802E+03 -0.48737011246E+02  0.53087384643E+03  0.57303262082E+03  0.17300000000E+03 0.  1.
<mgrwt>
<rscale>  2 0.21572979E+03</rscale>
<asrwt>0</asrwt>
<pdfrwt beam="1">  1        2 0.10750434E+00 0.21572979E+03</pdfrwt>
<pdfrwt beam="2">  1       -2 0.15434196E-01 0.21572979E+03</pdfrwt>
<totfact> 0.13704354E+03</totfact>
</mgrwt>
</event>
<event>
 4    1  0.7368504E-001  0.1912177E+03  0.7546771E-02  0.1157368E+00
         -2   -1    0    0    0  501 -0.00000000000E+00  0.00000000000E+00  0.98473431720E+02  0.98473431720E+02  0.00000000000E+00 0. -1.
          2   -1    0    0  502    0  0.00000000000E+00 -0.00000000000E+00 -0.38907532687E+03  0.38907532687E+03  0.00000000000E+00 0.  1.
          6    1    1    2  502    0  0.69862857826E+02 -0.41885305695E+02 -0.93210946811E+02  0.21272629913E+03  0.17300000000E+03 0. -1.
         -6    1    1    2    0  501 -0.69862857826E+02  0.41885305695E+02 -0.19739094834E+03  0.27482245946E+03  0.17300000000E+03 0. -1.
<mgrwt>
<rscale>  2 0.19121767E+03</rscale>
<asrwt>0</asrwt>
<pdfrwt beam="1">  1        2 0.59857744E-01 0.19121767E+03</pdfrwt>
<pdfrwt beam="2">  1       -2 0.15149758E-01 0.19121767E+03</pdfrwt>
<totfact> 0.27310077E+03</totfact>
</mgrwt>
</event>
<event>
 4    1  0.7368504E-001  0.1749146E+03  0.7546771E-02  0.1172817E+00
         -1   -1    0    0    0  501 -0.00000000000E+00  0.00000000000E+00  0.29147706540E+02  0.29147706540E+02  0.00000000000E+00 0.  1.
          1   -1    0    0  502    0  0.00000000000E+00 -0.00000000000E+00 -0.10548600908E+04  0.10548600908E+04  0.00000000000E+00 0. -1.
          6    1    1    2  502    0 -0.14166720846E+02  0.21573952840E+02 -0.55091738444E+03  0.57801824876E+03  0.17300000000E+03 0. -1.
         -6    1    1    2    0  501  0.14166720846E+02 -0.21573952840E+02 -0.47479499987E+03  0.50598954863E+03  0.17300000000E+03 0.  1.
<mgrwt>
<rscale>  2 0.17491464E+03</rscale>
<asrwt>0</asrwt>
<pdfrwt beam="1">  1        1 0.16228616E+00 0.17491464E+03</pdfrwt>
<pdfrwt beam="2">  1       -1 0.44842628E-02 0.17491464E+03</pdfrwt>
<totfact> 0.29915854E+03</totfact>
</mgrwt>
</event>
<event>
 4    1  0.7368504E-001  0.2014707E+03  0.7546771E-02  0.1148504E+00
         -1   -1    0    0    0  501 -0.00000000000E+00  0.00000000000E+00  0.84493630051E+02  0.84493630051E+02  0.00000000000E+00 0.  1.
          1   -1    0    0  502    0  0.00000000000E+00 -0.00000000000E+00 -0.52772383031E+03  0.52772383031E+03  0.00000000000E+00 0. -1.
          6    1    1    2  502    0 -0.27941373235E+02 -0.99401738975E+02 -0.12994465310E+03  0.23974160865E+03  0.17300000000E+03 0.  1.
         -6    1    1    2    0  501  0.27941373235E+02  0.99401738975E+02 -0.31328554715E+03  0.37247585171E+03  0.17300000000E+03 0.  1.
<mgrwt>
<rscale>  2 0.20147066E+03</rscale>
<asrwt>0</asrwt>
<pdfrwt beam="1">  1        1 0.81188279E-01 0.20147066E+03</pdfrwt>
<pdfrwt beam="2">  1       -1 0.12999020E-01 0.20147066E+03</pdfrwt>
<totfact> 0.16857199E+03</totfact>
</mgrwt>
</event>
<event>
 4    1  0.7368504E-001  0.2022598E+03  0.7546771E-02  0.1147846E+00
         -1   -1    0    0    0  501 -0.00000000000E+00  0.00000000000E+00  0.83469362991E+02  0.83469362991E+02  0.00000000000E+00 0.  1.
          1   -1    0    0  502    0  0.00000000000E+00 -0.00000000000E+00 -0.50846085993E+03  0.50846085993E+03  0.00000000000E+00 0. -1.
          6    1    1    2  502    0 -0.62700939358E+02 -0.83955942283E+02 -0.15626642568E+03  0.25559382589E+03  0.17300000000E+03 0.  1.
         -6    1    1    2    0  501  0.62700939358E+02  0.83955942283E+02 -0.26872507126E+03  0.33633639703E+03  0.17300000000E+03 0. -1.
<mgrwt>
<rscale>  2 0.20225975E+03</rscale>
<asrwt>0</asrwt>
<pdfrwt beam="1">  1        1 0.78224749E-01 0.20225975E+03</pdfrwt>
<pdfrwt beam="2">  1       -1 0.12841440E-01 0.20225975E+03</pdfrwt>
<totfact> 0.18055747E+03</totfact>
</mgrwt>
</event>
<event>
 4    1  0.7368504E-001  0.1737996E+03  0.7546771E-02  0.1173942E+00
         -1   -1    0    0    0  501 -0.00000000000E+00  0.00000000000E+00  0.15839423211E+03  0.15839423211E+03  0.00000000000E+00 0. -1.
          1   -1    0    0  502    0  0.00000000000E+00 -0.00000000000E+00 -0.24754084009E+03  0.24754084009E+03  0.00000000000E+00 0.  1.
          6    1    1    2  502    0 -0.34943525173E+01 -0.16281690831E+02  0.52683671007E+02  0.18160912187E+03  0.17300000000E+03 0. -1.
         -6    1    1    2    0  501  0.34943525173E+01  0.16281690831E+02 -0.14183027898E+03  0.22432595033E+03  0.17300000000E+03 0.  1.
<mgrwt>
<rscale>  2 0.17379961E+03</rscale>
<asrwt>0</asrwt>
<pdfrwt beam="1">  1        1 0.38083206E-01 0.17379961E+03</pdfrwt>
<pdfrwt beam="2">  1       -1 0.24368344E-01 0.17379961E+03</pdfrwt>
<totfact> 0.16068800E+03</totfact>
</mgrwt>
</event>
<event>
 4    1  0.7368504E-001  0.2176583E+03  0.7546771E-02  0.1135641E+00
         -1   -1    0    0    0  501 -0.00000000000E+00  0.00000000000E+00  0.65634059438E+02  0.65634059438E+02  0.00000000000E+00 0. -1.
          1   -1    0    0  502    0  0.00000000000E+00 -0.00000000000E+00 -0.12086878913E+04  0.12086878913E+04  0.00000000000E+00 0.  1.
          6    1    1    2  502    0 -0.44860779452E+02 -0.12423221655E+03 -0.16713414593E+03  0.27442477275E+03  0.17300000000E+03 0. -1.
         -6    1    1    2    0  501  0.44860779452E+02  0.12423221655E+03 -0.97591968594E+03  0.99989717799E+03  0.17300000000E+03 0.  1.
<mgrwt>
<rscale>  2 0.21765829E+03</rscale>
<asrwt>0</asrwt>
<pdfrwt beam="1">  1        1 0.18595199E+00 0.21765829E+03</pdfrwt>
<pdfrwt beam="2">  1       -1 0.10097547E-01 0.21765829E+03</pdfrwt>
<totfact> 0.68269276E+02</totfact>
</mgrwt>
</event>
<event>
 4    1  0.7368504E-001  0.2679399E+03  0.7546771E-02  0.1102464E+00
          1   -1    0    0  502    0  0.00000000000E+00  0.00000000000E+00  0.32180162821E+04  0.32180162821E+04  0.00000000000E+00 0. -1.
         -1   -1    0    0    0  501 -0.00000000000E+00 -0.00000000000E+00 -0.22311947262E+02  0.22311947262E+02  0.00000000000E+00 0.  1.
          6    1    1    2  502    0  0.11700664734E+03 -0.16784587040E+03  0.16153948736E+04  0.16374652330E+04  0.17300000000E+03 0. -1.
         -6    1    1    2    0  501 -0.11700664734E+03  0.16784587040E+03  0.15803094612E+04  0.16028629963E+04  0.17300000000E+03 0.  1.
<mgrwt>
<rscale>  2 0.26793990E+03</rscale>
<asrwt>0</asrwt>
<pdfrwt beam="1">  1        1 0.49507906E+00 0.26793990E+03</pdfrwt>
<pdfrwt beam="2">  1       -1 0.34326098E-02 0.26793990E+03</pdfrwt>
<totfact> 0.15653858E+02</totfact>
</mgrwt>
</event>
<event>
 4    1  0.7368504E-001  0.1777457E+03  0.7546771E-02  0.1170003E+00
         -2   -1    0    0    0  501 -0.00000000000E+00  0.00000000000E+00  0.89815398588E+02  0.89815398588E+02  0.00000000000E+00 0. -1.
          2   -1    0    0  502    0  0.00000000000E+00 -0.00000000000E+00 -0.42361349740E+03  0.42361349740E+03  0.00000000000E+00 0.  1.
          6    1    1    2  502    0 -0.39700476859E+02 -0.94031248708E+01 -0.61171878017E+02  0.18797751270E+03  0.17300000000E+03 0. -1.
         -6    1    1    2    0  501  0.39700476859E+02  0.94031248708E+01 -0.27262622079E+03  0.32545138329E+03  0.17300000000E+03 0. -1.
<mgrwt>
<rscale>  2 0.17774574E+03</rscale>
<asrwt>0</asrwt>
<pdfrwt beam="1">  1        2 0.65171306E-01 0.17774574E+03</pdfrwt>
<pdfrwt beam="2">  1       -2 0.13817754E-01 0.17774574E+03</pdfrwt>
<totfact> 0.28890622E+03</totfact>
</mgrwt>
</event>
<event>
 4    1  0.7368504E-001  0.2483118E+03  0.7546771E-02  0.1114376E+00
         -1   -1    0    0    0  501 -0.00000000000E+00  0.00000000000E+00  0.26805262922E+03  0.26805262922E+03  0.00000000000E+00 0. -1.
          1   -1    0    0  502    0  0.00000000000E+00 -0.00000000000E+00 -0.23841953277E+03  0.23841953277E+03  0.00000000000E+00 0.  1.
          6    1    1    2  502    0 -0.78935410065E+02 -0.15968385157E+03  0.62334764844E+02  0.25601631651E+03  0.17300000000E+03 0. -1.
         -6    1    1    2    0  501  0.78935410065E+02  0.15968385157E+03 -0.32701668395E+02  0.25045584547E+03  0.17300000000E+03 0.  1.
<mgrwt>
<rscale>  2 0.24831176E+03</rscale>
<asrwt>0</asrwt>
<pdfrwt beam="1">  1        1 0.36679928E-01 0.24831176E+03</pdfrwt>
<pdfrwt beam="2">  1       -1 0.41238866E-01 0.24831176E+03</pdfrwt>
<totfact> 0.68746765E+02</totfact>
</mgrwt>
</event>
<event>
 4    1  0.7368504E-001  0.1758908E+03  0.7546771E-02  0.1171840E+00
         -1   -1    0    0    0  501 -0.00000000000E+00  0.00000000000E+00  0.67835750154E+02  0.67835750154E+02  0.00000000000E+00 0. -1.
          1   -1    0    0  502    0  0.00000000000E+00 -0.00000000000E+00 -0.21582603108E+04  0.21582603108E+04  0.00000000000E+00 0.  1.
          6    1    1    2  502    0 -0.20878963932E+02 -0.23929796394E+02 -0.20336893177E+04  0.20412814131E+04  0.17300000000E+03 0.  1.
         -6    1    1    2    0  501  0.20878963932E+02  0.23929796394E+02 -0.56735242940E+02  0.18481464791E+03  0.17300000000E+03 0. -1.
<mgrwt>
<rscale>  2 0.17589078E+03</rscale>
<asrwt>0</asrwt>
<pdfrwt beam="1">  1        1 0.33203998E+00 0.17589078E+03</pdfrwt>
<pdfrwt beam="2">  1       -1 0.10436271E-01 0.17589078E+03</pdfrwt>
<totfact> 0.15674660E+02</totfact>
</mgrwt>
</event>
<event>
 4    1  0.7368504E-001  0.1733228E+03  0.7546771E-02  0.1174426E+00
          1   -1    0    0  502    0  0.00000000000E+00  0.00000000000E+00  0.70822225780E+03  0.70822225780E+03  0.00000000000E+00 0.  1.
         -1   -1    0    0    0  501 -0.00000000000E+00 -0.00000000000E+00 -0.53856154246E+02  0.53856154246E+02  0.00000000000E+00 0. -1.
          6    1    1    2  502    0  0.94628835854E+01  0.47175398328E+01  0.50279144044E+03  0.53182707145E+03  0.17300000000E+03 0.  1.
         -6    1    1    2    0  501 -0.94628835854E+01 -0.47175398328E+01  0.15157466311E+03  0.23025134059E+03  0.17300000000E+03 0. -1.
<mgrwt>
<rscale>  2 0.17332282E+03</rscale>
<asrwt>0</asrwt>
<pdfrwt beam="1">  1        1 0.10895726E+00 0.17332282E+03</pdfrwt>
<pdfrwt beam="2">  1       -1 0.82855627E-02 0.17332282E+03</pdfrwt>
<totfact> 0.22380702E+03</totfact>
</mgrwt>
</event>
<event>
 4    1  0.7368504E-001  0.1754557E+03  0.7546771E-02  0.1172275E+00
          2   -1    0    0  502    0  0.00000000000E+00  0.00000000000E+00  0.86619709974E+03  0.86619709974E+03  0.00000000000E+00 0. -1.
         -2   -1    0    0    0  501 -0.00000000000E+00 -0.00000000000E+00 -0.36645946998E+02  0.36645946998E+02  0.00000000000E+00 0.  1.
          6    1    1    2  502    0  0.26321583148E+02  0.12762695611E+02  0.49319455982E+03  0.52347453231E+03  0.17300000000E+03 0. -1.
         -6    1    1    2    0  501 -0.26321583148E+02 -0.12762695611E+02  0.33635659292E+03  0.37936851443E+03  0.17300000000E+03 0.  1.
<mgrwt>
<rscale>  2 0.17545573E+03</rscale>
<asrwt>0</asrwt>
<pdfrwt beam="1">  1        2 0.13326108E+00 0.17545573E+03</pdfrwt>
<pdfrwt beam="2">  1       -2 0.56378386E-02 0.17545573E+03</pdfrwt>
<totfact> 0.51193869E+03</totfact>
</mgrwt>
</event>
<event>
 4    1  0.7368504E-001  0.1786152E+03  0.7546771E-02  0.1169150E+00
          2   -1    0    0  502    0  0.00000000000E+00  0.00000000000E+00  0.16374723610E+03  0.16374723610E+03  0.00000000000E+00 0.  1.
         -2   -1    0    0    0  501 -0.00000000000E+00 -0.00000000000E+00 -0.19810339425E+03  0.19810339425E+03  0.00000000000E+00 0. -1.
          6    1    1    2  502    0  0.13434616171E+02 -0.42354548174E+02  0.60675175585E+01  0.17871824594E+03  0.17300000000E+03 0.  1.
         -6    1    1    2    0  501 -0.13434616171E+02  0.42354548174E+02 -0.40423675712E+02  0.18313238441E+03  0.17300000000E+03 0. -1.
<mgrwt>
<rscale>  2 0.17861522E+03</rscale>
<asrwt>0</asrwt>
<pdfrwt beam="1">  1        2 0.25191883E-01 0.17861522E+03</pdfrwt>
<pdfrwt beam="2">  1       -2 0.30477445E-01 0.17861522E+03</pdfrwt>
<totfact> 0.20821319E+03</totfact>
</mgrwt>
</event>
<event>
 4    1  0.7368504E-001  0.2342951E+03  0.7546771E-02  0.1123653E+00
          1   -1    0    0  502    0  0.00000000000E+00  0.00000000000E+00  0.77978907231E+03  0.77978907231E+03  0.00000000000E+00 0. -1.
         -1   -1    0    0    0  501 -0.00000000000E+00 -0.00000000000E+00 -0.71088689454E+02  0.71088689454E+02  0.00000000000E+00 0.  1.
          6    1    1    2  502    0  0.14011543343E+03 -0.73026456044E+02  0.31236082777E+03  0.39046572793E+03  0.17300000000E+03 0. -1.
         -6    1    1    2    0  501 -0.14011543343E+03  0.73026456044E+02  0.39633955509E+03  0.46041203383E+03  0.17300000000E+03 0.  1.
<mgrwt>
<rscale>  2 0.23429511E+03</rscale>
<asrwt>0</asrwt>
<pdfrwt beam="1">  1        1 0.11996754E+00 0.23429511E+03</pdfrwt>
<pdfrwt beam="2">  1       -1 0.10936722E-01 0.23429511E+03</pdfrwt>
<totfact> 0.12709351E+03</totfact>
</mgrwt>
</event>
<event>
 4    1  0.7368504E-001  0.1926376E+03  0.7546771E-02  0.1156104E+00
         -2   -1    0    0    0  501 -0.00000000000E+00  0.00000000000E+00  0.45679587410E+03  0.45679587410E+03  0.00000000000E+00 0.  1.
          2   -1    0    0  502    0  0.00000000000E+00 -0.00000000000E+00 -0.89720997889E+02  0.89720997889E+02  0.00000000000E+00 0. -1.
          6    1    1    2  502    0  0.84486335259E+02  0.65037186997E+01  0.99514459534E+02  0.21682335404E+03  0.17300000000E+03 0. -1.
         -6    1    1    2    0  501 -0.84486335259E+02 -0.65037186997E+01  0.26756041668E+03  0.32969351794E+03  0.17300000000E+03 0.  1.
<mgrwt>
<rscale>  2 0.19263759E+03</rscale>
<asrwt>0</asrwt>
<pdfrwt beam="1">  1        2 0.13803231E-01 0.19263759E+03</pdfrwt>
<pdfrwt beam="2">  1       -2 0.70276287E-01 0.19263759E+03</pdfrwt>
<totfact> 0.80841417E+02</totfact>
</mgrwt>
</event>
<event>
 4    1  0.7368504E-001  0.1941943E+03  0.7546771E-02  0.1154732E+00
         -1   -1    0    0    0  501 -0.00000000000E+00  0.00000000000E+00  0.14222369682E+03  0.14222369682E+03  0.00000000000E+00 0.  1.
          1   -1    0    0  502    0  0.00000000000E+00 -0.00000000000E+00 -0.35356187932E+03  0.35356187932E+03  0.00000000000E+00 0. -1.
          6    1    1    2  502    0  0.63533374258E+02 -0.61204193061E+02  0.18288223008E+02  0.19505358749E+03  0.17300000000E+03 0.  1.
         -6    1    1    2    0  501 -0.63533374258E+02  0.61204193061E+02 -0.22962640550E+03  0.30073198865E+03  0.17300000000E+03 0. -1.
<mgrwt>
<rscale>  2 0.19419434E+03</rscale>
<asrwt>0</asrwt>
<pdfrwt beam="1">  1        1 0.54394135E-01 0.19419434E+03</pdfrwt>
<pdfrwt beam="2">  1       -1 0.21880569E-01 0.19419434E+03</pdfrwt>
<totfact> 0.12304892E+03</totfact>
</mgrwt>
</event>
<event>
 4    1  0.7368504E-001  0.1978640E+03  0.7546771E-02  0.1151554E+00
         -2   -1    0    0    0  501 -0.00000000000E+00  0.00000000000E+00  0.70383982414E+02  0.70383982414E+02  0.00000000000E+00 0. -1.
          2   -1    0    0  502    0  0.00000000000E+00 -0.00000000000E+00 -0.55752519221E+03  0.55752519221E+03  0.00000000000E+00 0.  1.
          6    1    1    2  502    0 -0.77093314201E+02 -0.57252095621E+02 -0.22847989122E+03  0.30224698880E+03  0.17300000000E+03 0.  1.
         -6    1    1    2    0  501  0.77093314201E+02  0.57252095621E+02 -0.25866131857E+03  0.32566218582E+03  0.17300000000E+03 0. -1.
<mgrwt>
<rscale>  2 0.19786405E+03</rscale>
<asrwt>0</asrwt>
<pdfrwt beam="1">  1        2 0.85773109E-01 0.19786405E+03</pdfrwt>
<pdfrwt beam="2">  1       -2 0.10828305E-01 0.19786405E+03</pdfrwt>
<totfact> 0.31689177E+03</totfact>
</mgrwt>
</event>
<event>
 4    1  0.7368504E-001  0.2749466E+03  0.7546771E-02  0.1098481E+00
          2   -1    0    0  502    0  0.00000000000E+00  0.00000000000E+00  0.16452230929E+04  0.16452230929E+04  0.00000000000E+00 0.  1.
         -2   -1    0    0    0  501 -0.00000000000E+00 -0.00000000000E+00 -0.68023573100E+02  0.68023573100E+02  0.00000000000E+00 0. -1.
          6    1    1    2  502    0  0.88328596970E+02  0.19458857624E+03  0.30061020468E+03  0.40738452377E+03  0.17300000000E+03 0. -1.
         -6    1    1    2    0  501 -0.88328596970E+02 -0.19458857624E+03  0.12765893151E+04  0.13058621422E+04  0.17300000000E+03 0. -1.
<mgrwt>
<rscale>  2 0.27494664E+03</rscale>
<asrwt>0</asrwt>
<pdfrwt beam="1">  1        2 0.25311122E+00 0.27494664E+03</pdfrwt>
<pdfrwt beam="2">  1       -2 0.10465166E-01 0.27494664E+03</pdfrwt>
<totfact> 0.70567656E+02</totfact>
</mgrwt>
</event>
<event>
 4    1  0.7368504E-001  0.2018283E+03  0.7546771E-02  0.1148206E+00
         -1   -1    0    0    0  501 -0.00000000000E+00  0.00000000000E+00  0.54406766357E+02  0.54406766357E+02  0.00000000000E+00 0.  1.
          1   -1    0    0  502    0  0.00000000000E+00 -0.00000000000E+00 -0.12500281693E+04  0.12500281693E+04  0.00000000000E+00 0. -1.
          6    1    1    2  502    0 -0.10330286913E+03 -0.11584157324E+02 -0.18477180016E+03  0.27363350235E+03  0.17300000000E+03 0.  1.
         -6    1    1    2    0  501  0.10330286913E+03  0.11584157324E+02 -0.10108496028E+04  0.10308014333E+04  0.17300000000E+03 0. -1.
<mgrwt>
<rscale>  2 0.20182833E+03</rscale>
<asrwt>0</asrwt>
<pdfrwt beam="1">  1        1 0.19231202E+00 0.20182833E+03</pdfrwt>
<pdfrwt beam="2">  1       -1 0.83702719E-02 0.20182833E+03</pdfrwt>
<totfact> 0.85389807E+02</totfact>
</mgrwt>
</event>
<event>
 4    1  0.7368504E-001  0.1988825E+03  0.7546771E-02  0.1150685E+00
          1   -1    0    0  502    0  0.00000000000E+00  0.00000000000E+00  0.62328480410E+03  0.62328480410E+03  0.00000000000E+00 0.  1.
         -1   -1    0    0    0  501 -0.00000000000E+00 -0.00000000000E+00 -0.80279177454E+02  0.80279177454E+02  0.00000000000E+00 0. -1.
          6    1    1    2  502    0  0.47356706479E+02 -0.85921962731E+02  0.11048929181E+03  0.22751291157E+03  0.17300000000E+03 0. -1.
         -6    1    1    2    0  501 -0.47356706479E+02  0.85921962731E+02  0.43251633484E+03  0.47605106999E+03  0.17300000000E+03 0.  1.
<mgrwt>
<rscale>  2 0.19888248E+03</rscale>
<asrwt>0</asrwt>
<pdfrwt beam="1">  1        1 0.95889967E-01 0.19888248E+03</pdfrwt>
<pdfrwt beam="2">  1       -1 0.12350643E-01 0.19888248E+03</pdfrwt>
<totfact> 0.14548139E+03</totfact>
</mgrwt>
</event>
<event>
 4    1  0.7368504E-001  0.2315124E+03  0.7546771E-02  0.1125580E+00
          2   -1    0    0  502    0  0.00000000000E+00  0.00000000000E+00  0.11392977219E+04  0.11392977219E+04  0.00000000000E+00 0.  1.
         -2   -1    0    0    0  501 -0.00000000000E+00 -0.00000000000E+00 -0.47608271130E+02  0.47608271130E+02  0.00000000000E+00 0. -1.
          6    1    1    2  502    0  0.11019351504E+03 -0.10736096144E+03  0.48127978684E+03  0.53406761746E+03  0.17300000000E+03 0. -1.
         -6    1    1    2    0  501 -0.11019351504E+03  0.10736096144E+03  0.61040966389E+03  0.65283837553E+03  0.17300000000E+03 0.  1.
<mgrwt>
<rscale>  2 0.23151239E+03</rscale>
<asrwt>0</asrwt>
<pdfrwt beam="1">  1        2 0.17527655E+00 0.23151239E+03</pdfrwt>
<pdfrwt beam="2">  1       -2 0.73243503E-02 0.23151239E+03</pdfrwt>
<totfact> 0.23481578E+03</totfact>
</mgrwt>
</event>
<event>
 4    1  0.7368504E-001  0.1825918E+03  0.7546771E-02  0.1165318E+00
          2   -1    0    0  502    0  0.00000000000E+00  0.00000000000E+00  0.30101355561E+03  0.30101355561E+03  0.00000000000E+00 0. -1.
         -2   -1    0    0    0  501 -0.00000000000E+00 -0.00000000000E+00 -0.14596985874E+03  0.14596985874E+03  0.00000000000E+00 0.  1.
          6    1    1    2  502    0 -0.58181116538E+02 -0.50728939785E+01 -0.32245176579E+02  0.18541717285E+03  0.17300000000E+03 0.  1.
         -6    1    1    2    0  501  0.58181116538E+02  0.50728939785E+01  0.18728887345E+03  0.26156624150E+03  0.17300000000E+03 0. -1.
<mgrwt>
<rscale>  2 0.18259183E+03</rscale>
<asrwt>0</asrwt>
<pdfrwt beam="1">  1        2 0.46309777E-01 0.18259183E+03</pdfrwt>
<pdfrwt beam="2">  1       -2 0.22456902E-01 0.18259183E+03</pdfrwt>
<totfact> 0.18486173E+03</totfact>
</mgrwt>
</event>
<event>
 4    1  0.7368504E-001  0.2110201E+03  0.7546771E-02  0.1140761E+00
          2   -1    0    0  502    0  0.00000000000E+00  0.00000000000E+00  0.57114279584E+03  0.57114279584E+03  0.00000000000E+00 0.  1.
         -2   -1    0    0    0  501 -0.00000000000E+00 -0.00000000000E+00 -0.15115932893E+03  0.15115932893E+03  0.00000000000E+00 0. -1.
          6    1    1    2  502    0 -0.51899819991E+02 -0.10911866688E+03  0.46130096306E+03  0.50727512584E+03  0.17300000000E+03 0.  1.
         -6    1    1    2    0  501  0.51899819991E+02  0.10911866688E+03 -0.41317496150E+02  0.21502699892E+03  0.17300000000E+03 0. -1.
<mgrwt>
<rscale>  2 0.21102008E+03</rscale>
<asrwt>0</asrwt>
<pdfrwt beam="1">  1        2 0.87868121E-01 0.21102008E+03</pdfrwt>
<pdfrwt beam="2">  1       -2 0.23255282E-01 0.21102008E+03</pdfrwt>
<totfact> 0.86568696E+02</totfact>
</mgrwt>
</event>
<event>
 4    1  0.7368504E-001  0.1794724E+03  0.7546771E-02  0.1168315E+00
          1   -1    0    0  502    0  0.00000000000E+00  0.00000000000E+00  0.11434813782E+04  0.11434813782E+04  0.00000000000E+00 0. -1.
         -1   -1    0    0    0  501 -0.00000000000E+00 -0.00000000000E+00 -0.28169594778E+02  0.28169594778E+02  0.00000000000E+00 0.  1.
          6    1    1    2  502    0 -0.40332997567E+02  0.25585110249E+02  0.56101410887E+03  0.58902222277E+03  0.17300000000E+03 0. -1.
         -6    1    1    2    0  501  0.40332997567E+02 -0.25585110249E+02  0.55429767451E+03  0.58262875017E+03  0.17300000000E+03 0.  1.
<mgrwt>
<rscale>  2 0.17947242E+03</rscale>
<asrwt>0</asrwt>
<pdfrwt beam="1">  1        1 0.17592018E+00 0.17947242E+03</pdfrwt>
<pdfrwt beam="2">  1       -1 0.43337847E-02 0.17947242E+03</pdfrwt>
<totfact> 0.27225902E+03</totfact>
</mgrwt>
</event>
<event>
 4    1  0.7368504E-001  0.2032783E+03  0.7546771E-02  0.1147002E+00
         -1   -1    0    0    0  501 -0.00000000000E+00  0.00000000000E+00  0.78247146448E+02  0.78247146448E+02  0.00000000000E+00 0.  1.
          1   -1    0    0  502    0  0.00000000000E+00 -0.00000000000E+00 -0.15537907386E+04  0.15537907386E+04  0.00000000000E+00 0. -1.
          6    1    1    2  502    0  0.44336162419E+02  0.97094603908E+02 -0.74772758040E+02  0.21659414293E+03  0.17300000000E+03 0.  1.
         -6    1    1    2    0  501 -0.44336162419E+02 -0.97094603908E+02 -0.14007708341E+04  0.14154437421E+04  0.17300000000E+03 0. -1.
<mgrwt>
<rscale>  2 0.20327828E+03</rscale>
<asrwt>0</asrwt>
<pdfrwt beam="1">  1        1 0.23904469E+00 0.20327828E+03</pdfrwt>
<pdfrwt beam="2">  1       -1 0.12038025E-01 0.20327828E+03</pdfrwt>
<totfact> 0.30566403E+02</totfact>
</mgrwt>
</event>
<event>
 4    1  0.7368504E-001  0.2003316E+03  0.7546771E-02  0.1149460E+00
         -2   -1    0    0    0  501 -0.00000000000E+00  0.00000000000E+00  0.24085786445E+02  0.24085786445E+02  0.00000000000E+00 0. -1.
          2   -1    0    0  502    0  0.00000000000E+00 -0.00000000000E+00 -0.16767940100E+04  0.16767940100E+04  0.00000000000E+00 0.  1.
          6    1    1    2  502    0 -0.39007095275E+02  0.93178282763E+02 -0.75888981004E+03  0.78488629090E+03  0.17300000000E+03 0. -1.
         -6    1    1    2    0  501  0.39007095275E+02 -0.93178282763E+02 -0.89381841351E+03  0.91599350554E+03  0.17300000000E+03 0.  1.
<mgrwt>
<rscale>  2 0.20033159E+03</rscale>
<asrwt>0</asrwt>
<pdfrwt beam="1">  1        2 0.25796830E+00 0.20033159E+03</pdfrwt>
<pdfrwt beam="2">  1       -2 0.37055057E-02 0.20033159E+03</pdfrwt>
<totfact> 0.33849508E+03</totfact>
</mgrwt>
</event>
<event>
 4    1  0.7368504E-001  0.1942354E+03  0.7546771E-02  0.1154696E+00
         -1   -1    0    0    0  501 -0.00000000000E+00  0.00000000000E+00  0.75215142933E+02  0.75215142933E+02  0.00000000000E+00 0.  1.
          1   -1    0    0  502    0  0.00000000000E+00 -0.00000000000E+00 -0.66291968281E+03  0.66291968281E+03  0.00000000000E+00 0. -1.
          6    1    1    2  502    0 -0.20858469769E+02  0.85809798174E+02 -0.11178654206E+03  0.22410628775E+03  0.17300000000E+03 0.  1.
         -6    1    1    2    0  501  0.20858469769E+02 -0.85809798174E+02 -0.47591799781E+03  0.51402853799E+03  0.17300000000E+03 0. -1.
<mgrwt>
<rscale>  2 0.19423542E+03</rscale>
<asrwt>0</asrwt>
<pdfrwt beam="1">  1        1 0.10198764E+00 0.19423542E+03</pdfrwt>
<pdfrwt beam="2">  1       -1 0.11571561E-01 0.19423542E+03</pdfrwt>
<totfact> 0.14758507E+03</totfact>
</mgrwt>
</event>
<event>
 4    1  0.7368504E-001  0.1863135E+03  0.7546771E-02  0.1161829E+00
          4   -1    0    0  502    0  0.00000000000E+00  0.00000000000E+00  0.26123289548E+03  0.26123289548E+03  0.00000000000E+00 0. -1.
         -4   -1    0    0    0  501 -0.00000000000E+00 -0.00000000000E+00 -0.14313435402E+03  0.14313435402E+03  0.00000000000E+00 0.  1.
          6    1    1    2  502    0 -0.49675426432E+02  0.48125411755E+02  0.49337275531E+01  0.18637876734E+03  0.17300000000E+03 0.  1.
         -6    1    1    2    0  501  0.49675426432E+02 -0.48125411755E+02  0.11316481391E+03  0.21798848216E+03  0.17300000000E+03 0. -1.
<mgrwt>
<rscale>  2 0.18631345E+03</rscale>
<asrwt>0</asrwt>
<pdfrwt beam="1">  1        4 0.40189676E-01 0.18631345E+03</pdfrwt>
<pdfrwt beam="2">  1       -4 0.22020670E-01 0.18631345E+03</pdfrwt>
<totfact> 0.20067441E+02</totfact>
</mgrwt>
</event>
<event>
 4    1  0.7368504E-001  0.1788542E+03  0.7546771E-02  0.1168917E+00
         -2   -1    0    0    0  501 -0.00000000000E+00  0.00000000000E+00  0.44855365454E+02  0.44855365454E+02  0.00000000000E+00 0.  1.
          2   -1    0    0  502    0  0.00000000000E+00 -0.00000000000E+00 -0.72082549597E+03  0.72082549597E+03  0.00000000000E+00 0. -1.
          6    1    1    2  502    0 -0.44491444275E+02  0.89634365057E+01 -0.37747733926E+03  0.41770560621E+03  0.17300000000E+03 0. -1.
         -6    1    1    2    0  501  0.44491444275E+02 -0.89634365057E+01 -0.29849279126E+03  0.34797525522E+03  0.17300000000E+03 0. -1.
<mgrwt>
<rscale>  2 0.17885422E+03</rscale>
<asrwt>0</asrwt>
<pdfrwt beam="1">  1        2 0.11089623E+00 0.17885422E+03</pdfrwt>
<pdfrwt beam="2">  1       -2 0.69008256E-02 0.17885422E+03</pdfrwt>
<totfact> 0.47337154E+03</totfact>
</mgrwt>
</event>
<event>
 4    1  0.7368504E-001  0.1872389E+03  0.7546771E-02  0.1160975E+00
         -2   -1    0    0    0  501 -0.00000000000E+00  0.00000000000E+00  0.18272562987E+03  0.18272562987E+03  0.00000000000E+00 0.  1.
          2   -1    0    0  502    0  0.00000000000E+00 -0.00000000000E+00 -0.42815060010E+03  0.42815060010E+03  0.00000000000E+00 0. -1.
          6    1    1    2  502    0  0.57296141666E+02 -0.42971616139E+02  0.10419290562E+03  0.21427685182E+03  0.17300000000E+03 0.  1.
         -6    1    1    2    0  501 -0.57296141666E+02  0.42971616139E+02 -0.34961787584E+03  0.39659937816E+03  0.17300000000E+03 0. -1.
<mgrwt>
<rscale>  2 0.18723891E+03</rscale>
<asrwt>0</asrwt>
<pdfrwt beam="1">  1        2 0.65869323E-01 0.18723891E+03</pdfrwt>
<pdfrwt beam="2">  1       -2 0.28111636E-01 0.18723891E+03</pdfrwt>
<totfact> 0.85281150E+02</totfact>
</mgrwt>
</event>
<event>
 4    1  0.7368504E-001  0.2303611E+03  0.7546771E-02  0.1126386E+00
          1   -1    0    0  502    0  0.00000000000E+00  0.00000000000E+00  0.37249747045E+03  0.37249747045E+03  0.00000000000E+00 0.  1.
         -1   -1    0    0    0  501 -0.00000000000E+00 -0.00000000000E+00 -0.14744932177E+03  0.14744932177E+03  0.00000000000E+00 0. -1.
          6    1    1    2  502    0 -0.14012969342E+03  0.59168588960E+02  0.64705402079E+02  0.23927607895E+03  0.17300000000E+03 0.  1.
         -6    1    1    2    0  501  0.14012969342E+03 -0.59168588960E+02  0.16034274661E+03  0.28067071327E+03  0.17300000000E+03 0. -1.
<mgrwt>
<rscale>  2 0.23036114E+03</rscale>
<asrwt>0</asrwt>
<pdfrwt beam="1">  1        1 0.57307303E-01 0.23036114E+03</pdfrwt>
<pdfrwt beam="2">  1       -1 0.22684511E-01 0.23036114E+03</pdfrwt>
<totfact> 0.10877104E+03</totfact>
</mgrwt>
</event>
<event>
 4    1  0.7368504E-001  0.1842121E+03  0.7546771E-02  0.1163788E+00
         -1   -1    0    0    0  501 -0.00000000000E+00  0.00000000000E+00  0.23378886660E+03  0.23378886660E+03  0.00000000000E+00 0.  1.
          1   -1    0    0  502    0  0.00000000000E+00 -0.00000000000E+00 -0.17735087806E+03  0.17735087806E+03  0.00000000000E+00 0. -1.
          6    1    1    2  502    0 -0.24839307808E+02 -0.58207413781E+02 -0.59377561124E+02  0.19354531510E+03  0.17300000000E+03 0. -1.
         -6    1    1    2    0  501  0.24839307808E+02  0.58207413781E+02  0.11581554966E+03  0.21759442956E+03  0.17300000000E+03 0.  1.
<mgrwt>
<rscale>  2 0.18421209E+03</rscale>
<asrwt>0</asrwt>
<pdfrwt beam="1">  1        1 0.27284751E-01 0.18421209E+03</pdfrwt>
<pdfrwt beam="2">  1       -1 0.35967518E-01 0.18421209E+03</pdfrwt>
<totfact> 0.12652322E+03</totfact>
</mgrwt>
</event>
<event>
 4    1  0.7368504E-001  0.3043641E+03  0.7546771E-02  0.1083079E+00
          2   -1    0    0  502    0  0.00000000000E+00  0.00000000000E+00  0.11087090810E+03  0.11087090810E+03  0.00000000000E+00 0.  1.
         -2   -1    0    0    0  501 -0.00000000000E+00 -0.00000000000E+00 -0.83703602075E+03  0.83703602075E+03  0.00000000000E+00 0. -1.
          6    1    1    2  502    0 -0.14247250726E+03  0.20593703864E+03 -0.38309532964E+03  0.48928469299E+03  0.17300000000E+03 0. -1.
         -6    1    1    2    0  501  0.14247250726E+03 -0.20593703864E+03 -0.34306978302E+03  0.45862223586E+03  0.17300000000E+03 0.  1.
<mgrwt>
<rscale>  2 0.30436406E+03</rscale>
<asrwt>0</asrwt>
<pdfrwt beam="1">  1        2 0.17057062E-01 0.30436406E+03</pdfrwt>
<pdfrwt beam="2">  1       -2 0.12877478E+00 0.30436406E+03</pdfrwt>
<totfact> 0.15646002E+02</totfact>
</mgrwt>
</event>
<event>
 4    1  0.7368504E-001  0.1860272E+03  0.7546771E-02  0.1162094E+00
         -2   -1    0    0    0  501 -0.00000000000E+00  0.00000000000E+00  0.30548718191E+02  0.30548718191E+02  0.00000000000E+00 0. -1.
          2   -1    0    0  502    0  0.00000000000E+00 -0.00000000000E+00 -0.24936679431E+04  0.24936679431E+04  0.00000000000E+00 0.  1.
          6    1    1    2  502    0  0.68018477551E+02  0.71130178045E+01 -0.21639173861E+04  0.21718988380E+04  0.17300000000E+03 0.  1.
         -6    1    1    2    0  501 -0.68018477551E+02 -0.71130178045E+01 -0.29920183876E+03  0.35231782332E+03  0.17300000000E+03 0. -1.
<mgrwt>
<rscale>  2 0.18602717E+03</rscale>
<asrwt>0</asrwt>
<pdfrwt beam="1">  1        2 0.38364132E+00 0.18602717E+03</pdfrwt>
<pdfrwt beam="2">  1       -2 0.46998015E-02 0.18602717E+03</pdfrwt>
<totfact> 0.88435784E+02</totfact>
</mgrwt>
</event>
<event>
 4    1  0.7368504E-001  0.1759989E+03  0.7546771E-02  0.1171733E+00
          1   -1    0    0  502    0  0.00000000000E+00  0.00000000000E+00  0.26732258061E+04  0.26732258061E+04  0.00000000000E+00 0. -1.
         -1   -1    0    0    0  501 -0.00000000000E+00 -0.00000000000E+00 -0.11758540762E+02  0.11758540762E+02  0.00000000000E+00 0.  1.
          6    1    1    2  502    0  0.22382772302E+02  0.23358350247E+02  0.14927191435E+04  0.15030588952E+04  0.17300000000E+03 0. -1.
         -6    1    1    2    0  501 -0.22382772302E+02 -0.23358350247E+02  0.11687481219E+04  0.11819254517E+04  0.17300000000E+03 0.  1.
<mgrwt>
<rscale>  2 0.17599887E+03</rscale>
<asrwt>0</asrwt>
<pdfrwt beam="1">  1        1 0.41126503E+00 0.17599887E+03</pdfrwt>
<pdfrwt beam="2">  1       -1 0.18090084E-02 0.17599887E+03</pdfrwt>
<totfact> 0.97585989E+02</totfact>
</mgrwt>
</event>
<event>
 4    1  0.7368504E-001  0.1851363E+03  0.7546771E-02  0.1162923E+00
         -1   -1    0    0    0  501 -0.00000000000E+00  0.00000000000E+00  0.27540088261E+02  0.27540088261E+02  0.00000000000E+00 0.  1.
          1   -1    0    0  502    0  0.00000000000E+00 -0.00000000000E+00 -0.14747924159E+04  0.14747924159E+04  0.00000000000E+00 0. -1.
          6    1    1    2  502    0 -0.62118888118E+02  0.22084015618E+02 -0.10204153754E+04  0.10370742492E+04  0.17300000000E+03 0. -1.
         -6    1    1    2    0  501  0.62118888118E+02 -0.22084015618E+02 -0.42683695219E+03  0.46525825491E+03  0.17300000000E+03 0.  1.
<mgrwt>
<rscale>  2 0.18513633E+03</rscale>
<asrwt>0</asrwt>
<pdfrwt beam="1">  1        1 0.22689121E+00 0.18513633E+03</pdfrwt>
<pdfrwt beam="2">  1       -1 0.42369353E-02 0.18513633E+03</pdfrwt>
<totfact> 0.16810479E+03</totfact>
</mgrwt>
</event>
<event>
 4    1  0.7368504E-001  0.2095628E+03  0.7546771E-02  0.1141913E+00
          2   -1    0    0  502    0  0.00000000000E+00  0.00000000000E+00  0.40304629739E+04  0.40304629739E+04  0.00000000000E+00 0.  1.
         -2   -1    0    0    0  501 -0.00000000000E+00 -0.00000000000E+00 -0.12049203319E+02  0.12049203319E+02  0.00000000000E+00 0. -1.
          6    1    1    2  502    0 -0.71437603997E+02  0.94256210145E+02  0.13839402986E+04  0.13997168694E+04  0.17300000000E+03 0. -1.
         -6    1    1    2    0  501  0.71437603997E+02 -0.94256210145E+02  0.26344734720E+04  0.26427953078E+04  0.17300000000E+03 0.  1.
<mgrwt>
<rscale>  2 0.20956279E+03</rscale>
<asrwt>0</asrwt>
<pdfrwt beam="1">  1        2 0.62007015E+00 0.20956279E+03</pdfrwt>
<pdfrwt beam="2">  1       -2 0.18537268E-02 0.20956279E+03</pdfrwt>
<totfact> 0.37482087E+02</totfact>
</mgrwt>
</event>
<event>
 4    1  0.7368504E-001  0.1736808E+03  0.7546771E-02  0.1174063E+00
         -2   -1    0    0    0  501 -0.00000000000E+00  0.00000000000E+00  0.19505280429E+02  0.19505280429E+02  0.00000000000E+00 0. -1.
          2   -1    0    0  502    0  0.00000000000E+00 -0.00000000000E+00 -0.19883589939E+04  0.19883589939E+04  0.00000000000E+00 0.  1.
          6    1    1    2  502    0  0.58378187125E+01  0.14210503656E+02 -0.14576829655E+04  0.14679934082E+04  0.17300000000E+03 0.  1.
         -6    1    1    2    0  501 -0.58378187125E+01 -0.14210503656E+02 -0.51117074801E+03  0.53987086619E+03  0.17300000000E+03 0. -1.
<mgrwt>
<rscale>  2 0.17368079E+03</rscale>
<asrwt>0</asrwt>
<pdfrwt beam="1">  1        2 0.30590154E+00 0.17368079E+03</pdfrwt>
<pdfrwt beam="2">  1       -2 0.30008108E-02 0.17368079E+03</pdfrwt>
<totfact> 0.31931416E+03</totfact>
</mgrwt>
</event>
<event>
 4    1  0.7368504E-001  0.3254036E+03  0.7546771E-02  0.1073189E+00
          1   -1    0    0  502    0  0.00000000000E+00  0.00000000000E+00  0.75973935052E+03  0.75973935052E+03  0.00000000000E+00 0. -1.
         -1   -1    0    0    0  501 -0.00000000000E+00 -0.00000000000E+00 -0.23251185813E+03  0.23251185813E+03  0.00000000000E+00 0.  1.
          6    1    1    2  502    0 -0.16436362611E+03 -0.22123090663E+03 -0.50388986567E+02  0.32928189383E+03  0.17300000000E+03 0.  1.
         -6    1    1    2    0  501  0.16436362611E+03  0.22123090663E+03  0.57761647896E+03  0.66296931482E+03  0.17300000000E+03 0. -1.
<mgrwt>
<rscale>  2 0.32540362E+03</rscale>
<asrwt>0</asrwt>
<pdfrwt beam="1">  1        1 0.11688298E+00 0.32540362E+03</pdfrwt>
<pdfrwt beam="2">  1       -1 0.35771055E-01 0.32540362E+03</pdfrwt>
<totfact> 0.18828270E+02</totfact>
</mgrwt>
</event>
<event>
 4    1  0.7368504E-001  0.2452313E+03  0.7546771E-02  0.1116356E+00
         -4   -1    0    0    0  501 -0.00000000000E+00  0.00000000000E+00  0.15754604846E+03  0.15754604846E+03  0.00000000000E+00 0.  1.
          4   -1    0    0  502    0  0.00000000000E+00 -0.00000000000E+00 -0.65485485825E+03  0.65485485825E+03  0.00000000000E+00 0. -1.
          6    1    1    2  502    0  0.15167176404E+03 -0.84882604093E+02  0.13681014924E+02  0.24561260280E+03  0.17300000000E+03 0.  1.
         -6    1    1    2    0  501 -0.15167176404E+03  0.84882604093E+02 -0.51098982472E+03  0.56678830391E+03  0.17300000000E+03 0. -1.
<mgrwt>
<rscale>  2 0.24523128E+03</rscale>
<asrwt>0</asrwt>
<pdfrwt beam="1">  1        4 0.10074690E+00 0.24523128E+03</pdfrwt>
<pdfrwt beam="2">  1       -4 0.24237854E-01 0.24523128E+03</pdfrwt>
<totfact> 0.24152702E+01</totfact>
</mgrwt>
</event>
<event>
 4    1  0.7368504E-001  0.2601551E+03  0.7546771E-02  0.1107050E+00
          3   -1    0    0  502    0  0.00000000000E+00  0.00000000000E+00  0.21039568140E+04  0.21039568140E+04  0.00000000000E+00 0.  1.
         -3   -1    0    0    0  501 -0.00000000000E+00 -0.00000000000E+00 -0.32978181255E+02  0.32978181255E+02  0.00000000000E+00 0. -1.
          6    1    1    2  502    0 -0.66922671582E+02 -0.18240900971E+03  0.12029302334E+04  0.12307403614E+04  0.17300000000E+03 0.  1.
         -6    1    1    2    0  501  0.66922671582E+02  0.18240900971E+03  0.86804839940E+03  0.90619463390E+03  0.17300000000E+03 0. -1.
<mgrwt>
<rscale>  2 0.26015513E+03</rscale>
<asrwt>0</asrwt>
<pdfrwt beam="1">  1        3 0.32368556E+00 0.26015513E+03</pdfrwt>
<pdfrwt beam="2">  1       -3 0.50735680E-02 0.26015513E+03</pdfrwt>
<totfact> 0.18593197E+01</totfact>
</mgrwt>
</event>
<event>
 4    1  0.7368504E-001  0.2895298E+03  0.7546771E-02  0.1090595E+00
          2   -1    0    0  502    0  0.00000000000E+00  0.00000000000E+00  0.10957058225E+04  0.10957058225E+04  0.00000000000E+00 0.  1.
         -2   -1    0    0    0  501 -0.00000000000E+00 -0.00000000000E+00 -0.27141977500E+03  0.27141977500E+03  0.00000000000E+00 0. -1.
          6    1    1    2  502    0  0.94931291590E+02 -0.21186443423E+03 -0.16712497033E+03  0.33430262386E+03  0.17300000000E+03 0. -1.
         -6    1    1    2    0  501 -0.94931291590E+02  0.21186443423E+03  0.99141101787E+03  0.10328229737E+04  0.17300000000E+03 0.  1.
<mgrwt>
<rscale>  2 0.28952977E+03</rscale>
<asrwt>0</asrwt>
<pdfrwt beam="1">  1        2 0.16857012E+00 0.28952977E+03</pdfrwt>
<pdfrwt beam="2">  1       -2 0.41756889E-01 0.28952977E+03</pdfrwt>
<totfact> 0.12706630E+02</totfact>
</mgrwt>
</event>
<event>
 4    1  0.7368504E-001  0.1843478E+03  0.7546771E-02  0.1163660E+00
         -2   -1    0    0    0  501 -0.00000000000E+00  0.00000000000E+00  0.36077830857E+02  0.36077830857E+02  0.00000000000E+00 0. -1.
          2   -1    0    0  502    0  0.00000000000E+00 -0.00000000000E+00 -0.10328385837E+04  0.10328385837E+04  0.00000000000E+00 0.  1.
          6    1    1    2  502    0 -0.57241662440E+02 -0.27901560695E+02 -0.65691092749E+03  0.68228738202E+03  0.17300000000E+03 0.  1.
         -6    1    1    2    0  501  0.57241662440E+02  0.27901560695E+02 -0.33984982536E+03  0.38662903254E+03  0.17300000000E+03 0. -1.
<mgrwt>
<rscale>  2 0.18434778E+03</rscale>
<asrwt>0</asrwt>
<pdfrwt beam="1">  1        2 0.15889825E+00 0.18434778E+03</pdfrwt>
<pdfrwt beam="2">  1       -2 0.55504352E-02 0.18434778E+03</pdfrwt>
<totfact> 0.41366773E+03</totfact>
</mgrwt>
</event>
<event>
 4    1  0.7368504E-001  0.1853504E+03  0.7546771E-02  0.1162723E+00
          2   -1    0    0  502    0  0.00000000000E+00  0.00000000000E+00  0.20222559319E+04  0.20222559319E+04  0.00000000000E+00 0.  1.
         -2   -1    0    0    0  501 -0.00000000000E+00 -0.00000000000E+00 -0.17842296855E+02  0.17842296855E+02  0.00000000000E+00 0. -1.
          6    1    1    2  502    0 -0.25235905943E+02  0.61554143495E+02  0.77904769291E+03  0.80079340117E+03  0.17300000000E+03 0. -1.
         -6    1    1    2    0  501  0.25235905943E+02 -0.61554143495E+02  0.12253659421E+04  0.12393048276E+04  0.17300000000E+03 0. -1.
<mgrwt>
<rscale>  2 0.18535038E+03</rscale>
<asrwt>0</asrwt>
<pdfrwt beam="1">  1        2 0.31111612E+00 0.18535038E+03</pdfrwt>
<pdfrwt beam="2">  1       -2 0.27449703E-02 0.18535038E+03</pdfrwt>
<totfact> 0.34980225E+03</totfact>
</mgrwt>
</event>
<event>
 4    1  0.7368504E-001  0.2399443E+03  0.7546771E-02  0.1119830E+00
          2   -1    0    0  502    0  0.00000000000E+00  0.00000000000E+00  0.75837910969E+03  0.75837910969E+03  0.00000000000E+00 0.  1.
         -2   -1    0    0    0  501 -0.00000000000E+00 -0.00000000000E+00 -0.88464978058E+02  0.88464978058E+02  0.00000000000E+00 0. -1.
          6    1    1    2  502    0  0.16198225021E+03  0.37497203645E+02  0.17548382384E+03  0.29726732429E+03  0.17300000000E+03 0.  1.
         -6    1    1    2    0  501 -0.16198225021E+03 -0.37497203645E+02  0.49443030780E+03  0.54957676346E+03  0.17300000000E+03 0.  1.
<mgrwt>
<rscale>  2 0.23994435E+03</rscale>
<asrwt>0</asrwt>
<pdfrwt beam="1">  1        2 0.11667370E+00 0.23994435E+03</pdfrwt>
<pdfrwt beam="2">  1       -2 0.13609997E-01 0.23994435E+03</pdfrwt>
<totfact> 0.15259877E+03</totfact>
</mgrwt>
</event>
<event>
 4    1  0.7368504E-001  0.1834425E+03  0.7546771E-02  0.1164512E+00
         -4   -1    0    0    0  501 -0.00000000000E+00  0.00000000000E+00  0.16510879136E+03  0.16510879136E+03  0.00000000000E+00 0. -1.
          4   -1    0    0  502    0  0.00000000000E+00 -0.00000000000E+00 -0.22855941484E+03  0.22855941484E+03  0.00000000000E+00 0.  1.
          6    1    1    2  502    0  0.30667582234E+01  0.60932156658E+02  0.33043627436E+02  0.18639478006E+03  0.17300000000E+03 0. -1.
         -6    1    1    2    0  501 -0.30667582234E+01 -0.60932156658E+02 -0.96494250912E+02  0.20727342613E+03  0.17300000000E+03 0.  1.
<mgrwt>
<rscale>  2 0.18344245E+03</rscale>
<asrwt>0</asrwt>
<pdfrwt beam="1">  1        4 0.35162987E-01 0.18344245E+03</pdfrwt>
<pdfrwt beam="2">  1       -4 0.25401353E-01 0.18344245E+03</pdfrwt>
<totfact> 0.19990766E+02</totfact>
</mgrwt>
</event>
<event>
 4    1  0.7368504E-001  0.2846643E+03  0.7546771E-02  0.1093168E+00
         -3   -1    0    0    0  501 -0.00000000000E+00  0.00000000000E+00  0.24108065470E+03  0.24108065470E+03  0.00000000000E+00 0.  1.
          3   -1    0    0  502    0  0.00000000000E+00 -0.00000000000E+00 -0.36715909423E+03  0.36715909423E+03  0.00000000000E+00 0. -1.
          6    1    1    2  502    0 -0.92767104549E+02  0.20615286719E+03 -0.15145352314E+03  0.32244675531E+03  0.17300000000E+03 0.  1.
         -6    1    1    2    0  501  0.92767104549E+02 -0.20615286719E+03  0.25375083609E+02  0.28579299362E+03  0.17300000000E+03 0.  1.
<mgrwt>
<rscale>  2 0.28466426E+03</rscale>
<asrwt>0</asrwt>
<pdfrwt beam="1">  1        3 0.56486014E-01 0.28466426E+03</pdfrwt>
<pdfrwt beam="2">  1       -3 0.37089332E-01 0.28466426E+03</pdfrwt>
<totfact> 0.56142442E+01</totfact>
</mgrwt>
</event>
<event>
 4    1  0.7368504E-001  0.1748984E+03  0.7546771E-02  0.1172834E+00
          2   -1    0    0  502    0  0.00000000000E+00  0.00000000000E+00  0.35754490230E+03  0.35754490230E+03  0.00000000000E+00 0.  1.
         -2   -1    0    0    0  501 -0.00000000000E+00 -0.00000000000E+00 -0.90649807545E+02  0.90649807545E+02  0.00000000000E+00 0. -1.
          6    1    1    2  502    0  0.10278931990E+02  0.23554059856E+02  0.18657921008E+03  0.25573668453E+03  0.17300000000E+03 0.  1.
         -6    1    1    2    0  501 -0.10278931990E+02 -0.23554059856E+02  0.80315884676E+02  0.19245802532E+03  0.17300000000E+03 0. -1.
<mgrwt>
<rscale>  2 0.17489840E+03</rscale>
<asrwt>0</asrwt>
<pdfrwt beam="1">  1        2 0.55006907E-01 0.17489840E+03</pdfrwt>
<pdfrwt beam="2">  1       -2 0.13946124E-01 0.17489840E+03</pdfrwt>
<totfact> 0.34139841E+03</totfact>
</mgrwt>
</event>
<event>
 4    1  0.7368504E-001  0.1994482E+03  0.7546771E-02  0.1150205E+00
         -2   -1    0    0    0  501 -0.00000000000E+00  0.00000000000E+00  0.17673430617E+02  0.17673430617E+02  0.00000000000E+00 0. -1.
          2   -1    0    0  502    0  0.00000000000E+00 -0.00000000000E+00 -0.27754848337E+04  0.27754848337E+04  0.00000000000E+00 0.  1.
          6    1    1    2  502    0  0.98401658343E+02  0.12950386327E+02 -0.19861168343E+04  0.19961061290E+04  0.17300000000E+03 0.  1.
         -6    1    1    2    0  501 -0.98401658343E+02 -0.12950386327E+02 -0.77169456876E+03  0.79705213526E+03  0.17300000000E+03 0.  1.
<mgrwt>
<rscale>  2 0.19944824E+03</rscale>
<asrwt>0</asrwt>
<pdfrwt beam="1">  1        2 0.42699762E+00 0.19944824E+03</pdfrwt>
<pdfrwt beam="2">  1       -2 0.27189896E-02 0.19944824E+03</pdfrwt>
<totfact> 0.13956588E+03</totfact>
</mgrwt>
</event>
<event>
 4    1  0.7368504E-001  0.1998521E+03  0.7546771E-02  0.1149864E+00
         -2   -1    0    0    0  501 -0.00000000000E+00  0.00000000000E+00  0.63794286768E+02  0.63794286768E+02  0.00000000000E+00 0. -1.
          2   -1    0    0  502    0  0.00000000000E+00 -0.00000000000E+00 -0.62615228010E+03  0.62615228010E+03  0.00000000000E+00 0.  1.
          6    1    1    2  502    0 -0.70018273327E+02 -0.71479511052E+02 -0.28465647981E+03  0.34780769197E+03  0.17300000000E+03 0.  1.
         -6    1    1    2    0  501  0.70018273327E+02  0.71479511052E+02 -0.27770151353E+03  0.34213887490E+03  0.17300000000E+03 0. -1.
<mgrwt>
<rscale>  2 0.19985214E+03</rscale>
<asrwt>0</asrwt>
<pdfrwt beam="1">  1        2 0.96331118E-01 0.19985214E+03</pdfrwt>
<pdfrwt beam="2">  1       -2 0.98145059E-02 0.19985214E+03</pdfrwt>
<totfact> 0.32424847E+03</totfact>
</mgrwt>
</event>
<event>
 4    1  0.7368504E-001  0.2782382E+03  0.7546771E-02  0.1096655E+00
          2   -1    0    0  502    0  0.00000000000E+00  0.00000000000E+00  0.13683994767E+04  0.13683994767E+04  0.00000000000E+00 0. -1.
         -2   -1    0    0    0  501 -0.00000000000E+00 -0.00000000000E+00 -0.59879121222E+02  0.59879121222E+02  0.00000000000E+00 0.  1.
          6    1    1    2  502    0 -0.21623895280E+03  0.26985657739E+02  0.82202710266E+03  0.86783930998E+03  0.17300000000E+03 0. -1.
         -6    1    1    2    0  501  0.21623895280E+03 -0.26985657739E+02  0.48649325278E+03  0.56043928791E+03  0.17300000000E+03 0. -1.
<mgrwt>
<rscale>  2 0.27823823E+03</rscale>
<asrwt>0</asrwt>
<pdfrwt beam="1">  1        2 0.21052297E+00 0.27823823E+03</pdfrwt>
<pdfrwt beam="2">  1       -2 0.92121735E-02 0.27823823E+03</pdfrwt>
<totfact> 0.12176058E+03</totfact>
</mgrwt>
</event>
<event>
 4    1  0.7368504E-001  0.1794016E+03  0.7546771E-02  0.1168383E+00
          2   -1    0    0  502    0  0.00000000000E+00  0.00000000000E+00  0.69219255692E+03  0.69219255692E+03  0.00000000000E+00 0.  1.
         -2   -1    0    0    0  501 -0.00000000000E+00 -0.00000000000E+00 -0.64460525918E+02  0.64460525918E+02  0.00000000000E+00 0. -1.
          6    1    1    2  502    0 -0.47489404799E+02  0.83009146764E+00  0.11414916226E+03  0.21263810539E+03  0.17300000000E+03 0. -1.
         -6    1    1    2    0  501  0.47489404799E+02 -0.83009146764E+00  0.51358286875E+03  0.54401497745E+03  0.17300000000E+03 0. -1.
<mgrwt>
<rscale>  2 0.17940160E+03</rscale>
<asrwt>0</asrwt>
<pdfrwt beam="1">  1        2 0.10649116E+00 0.17940160E+03</pdfrwt>
<pdfrwt beam="2">  1       -2 0.99170044E-02 0.17940160E+03</pdfrwt>
<totfact> 0.28244598E+03</totfact>
</mgrwt>
</event>
<event>
 4    1  0.7368504E-001  0.1760078E+03  0.7546771E-02  0.1171724E+00
          2   -1    0    0  502    0  0.00000000000E+00  0.00000000000E+00  0.77948188371E+03  0.77948188371E+03  0.00000000000E+00 0.  1.
         -2   -1    0    0    0  501 -0.00000000000E+00 -0.00000000000E+00 -0.42007246302E+02  0.42007246302E+02  0.00000000000E+00 0. -1.
          6    1    1    2  502    0 -0.26647610787E+02  0.18429699754E+02  0.46410387439E+03  0.49635789026E+03  0.17300000000E+03 0. -1.
         -6    1    1    2    0  501  0.26647610787E+02 -0.18429699754E+02  0.27337076302E+03  0.32513123976E+03  0.17300000000E+03 0. -1.
<mgrwt>
<rscale>  2 0.17600781E+03</rscale>
<asrwt>0</asrwt>
<pdfrwt beam="1">  1        2 0.11992028E+00 0.17600781E+03</pdfrwt>
<pdfrwt beam="2">  1       -2 0.64626539E-02 0.17600781E+03</pdfrwt>
<totfact> 0.47531464E+03</totfact>
</mgrwt>
</event>
<event>
 4    1  0.7368504E-001  0.2035874E+03  0.7546771E-02  0.1146747E+00
          2   -1    0    0  502    0  0.00000000000E+00  0.00000000000E+00  0.15798513191E+04  0.15798513191E+04  0.00000000000E+00 0.  1.
         -2   -1    0    0    0  501 -0.00000000000E+00 -0.00000000000E+00 -0.34027014452E+02  0.34027014452E+02  0.00000000000E+00 0. -1.
          6    1    1    2  502    0  0.99868250535E+01 -0.10686007239E+03  0.11590536466E+04  0.11767978448E+04  0.17300000000E+03 0.  1.
         -6    1    1    2    0  501 -0.99868250535E+01  0.10686007239E+03  0.38677065797E+03  0.43708048871E+03  0.17300000000E+03 0. -1.
<mgrwt>
<rscale>  2 0.20358736E+03</rscale>
<asrwt>0</asrwt>
<pdfrwt beam="1">  1        2 0.24305399E+00 0.20358736E+03</pdfrwt>
<pdfrwt beam="2">  1       -2 0.52349265E-02 0.20358736E+03</pdfrwt>
<totfact> 0.22601389E+03</totfact>
</mgrwt>
</event>
<event>
 4    1  0.7368504E-001  0.1913112E+03  0.7546771E-02  0.1157284E+00
          4   -1    0    0  502    0  0.00000000000E+00  0.00000000000E+00  0.71112749058E+02  0.71112749058E+02  0.00000000000E+00 0.  1.
         -4   -1    0    0    0  501 -0.00000000000E+00 -0.00000000000E+00 -0.65448621523E+03  0.65448621523E+03  0.00000000000E+00 0. -1.
          6    1    1    2  502    0  0.91557255673E+01 -0.81161298787E+02 -0.12400460960E+03  0.22798492699E+03  0.17300000000E+03 0.  1.
         -6    1    1    2    0  501 -0.91557255673E+01  0.81161298787E+02 -0.45936885657E+03  0.49761403730E+03  0.17300000000E+03 0. -1.
<mgrwt>
<rscale>  2 0.19131122E+03</rscale>
<asrwt>0</asrwt>
<pdfrwt beam="1">  1        4 0.10940422E-01 0.19131122E+03</pdfrwt>
<pdfrwt beam="2">  1       -4 0.10069019E+00 0.19131122E+03</pdfrwt>
<totfact> 0.96826205E+01</totfact>
</mgrwt>
</event>
<event>
 4    1  0.7368504E-001  0.2814664E+03  0.7546771E-02  0.1094891E+00
          1   -1    0    0  502    0  0.00000000000E+00  0.00000000000E+00  0.84644239140E+03  0.84644239140E+03  0.00000000000E+00 0.  1.
         -1   -1    0    0    0  501 -0.00000000000E+00 -0.00000000000E+00 -0.12016596882E+03  0.12016596882E+03  0.00000000000E+00 0. -1.
          6    1    1    2  502    0  0.21660738724E+03 -0.48739833138E+02  0.13587552663E+03  0.31254678094E+03  0.17300000000E+03 0. -1.
         -6    1    1    2    0  501 -0.21660738724E+03  0.48739833138E+02  0.59040089595E+03  0.65406157928E+03  0.17300000000E+03 0.  1.
<mgrwt>
<rscale>  2 0.28146640E+03</rscale>
<asrwt>0</asrwt>
<pdfrwt beam="1">  1        1 0.13022190E+00 0.28146640E+03</pdfrwt>
<pdfrwt beam="2">  1       -1 0.18487073E-01 0.28146640E+03</pdfrwt>
<totfact> 0.48573562E+02</totfact>
</mgrwt>
</event>
<event>
 4    1  0.7368504E-001  0.2442813E+03  0.7546771E-02  0.1116973E+00
         -1   -1    0    0    0  501 -0.00000000000E+00  0.00000000000E+00  0.24042666158E+03  0.24042666158E+03  0.00000000000E+00 0. -1.
          1   -1    0    0  502    0  0.00000000000E+00 -0.00000000000E+00 -0.27881390386E+03  0.27881390386E+03  0.00000000000E+00 0.  1.
          6    1    1    2  502    0 -0.22995718397E+02  0.17092555419E+03  0.66837773995E+02  0.25326001692E+03  0.17300000000E+03 0. -1.
         -6    1    1    2    0  501  0.22995718397E+02 -0.17092555419E+03 -0.10522501628E+03  0.26598054852E+03  0.17300000000E+03 0. -1.
<mgrwt>
<rscale>  2 0.24428129E+03</rscale>
<asrwt>0</asrwt>
<pdfrwt beam="1">  1        1 0.42894447E-01 0.24428129E+03</pdfrwt>
<pdfrwt beam="2">  1       -1 0.36988717E-01 0.24428129E+03</pdfrwt>
<totfact> 0.68451021E+02</totfact>
</mgrwt>
</event>
<event>
 4    1  0.7368504E-001  0.4226808E+03  0.7546771E-02  0.1036197E+00
         -2   -1    0    0    0  501 -0.00000000000E+00  0.00000000000E+00  0.18920053027E+03  0.18920053027E+03  0.00000000000E+00 0.  1.
          2   -1    0    0  502    0  0.00000000000E+00 -0.00000000000E+00 -0.10944711576E+04  0.10944711576E+04  0.00000000000E+00 0. -1.
          6    1    1    2  502    0 -0.10263062255E+02 -0.38551881772E+03 -0.21487586805E+03  0.47416318703E+03  0.17300000000E+03 0.  1.
         -6    1    1    2    0  501  0.10263062255E+02  0.38551881772E+03 -0.69039475926E+03  0.80950850081E+03  0.17300000000E+03 0. -1.
<mgrwt>
<rscale>  2 0.42268084E+03</rscale>
<asrwt>0</asrwt>
<pdfrwt beam="1">  1        2 0.16838018E+00 0.42268084E+03</pdfrwt>
<pdfrwt beam="2">  1       -2 0.29107774E-01 0.42268084E+03</pdfrwt>
<totfact> 0.24640411E+02</totfact>
</mgrwt>
</event>
<event>
 4    1  0.7368504E-001  0.1783112E+03  0.7546771E-02  0.1169448E+00
          3   -1    0    0  502    0  0.00000000000E+00  0.00000000000E+00  0.66457572054E+03  0.66457572054E+03  0.00000000000E+00 0. -1.
         -3   -1    0    0    0  501 -0.00000000000E+00 -0.00000000000E+00 -0.79022014238E+02  0.79022014238E+02  0.00000000000E+00 0.  1.
          6    1    1    2  502    0 -0.32629457493E+02 -0.28305483552E+02  0.52632130074E+03  0.55570585160E+03  0.17300000000E+03 0. -1.
         -6    1    1    2    0  501  0.32629457493E+02  0.28305483552E+02  0.59232405570E+02  0.18789188318E+03  0.17300000000E+03 0.  1.
<mgrwt>
<rscale>  2 0.17831119E+03</rscale>
<asrwt>0</asrwt>
<pdfrwt beam="1">  1        3 0.10224242E+00 0.17831119E+03</pdfrwt>
<pdfrwt beam="2">  1       -3 0.12157233E-01 0.17831119E+03</pdfrwt>
<totfact> 0.11066220E+02</totfact>
</mgrwt>
</event>
<event>
 4    1  0.7368504E-001  0.2438166E+03  0.7546771E-02  0.1117276E+00
         -2   -1    0    0    0  501 -0.00000000000E+00  0.00000000000E+00  0.16562572783E+03  0.16562572783E+03  0.00000000000E+00 0. -1.
          2   -1    0    0  502    0  0.00000000000E+00 -0.00000000000E+00 -0.38536855209E+03  0.38536855209E+03  0.00000000000E+00 0.  1.
          6    1    1    2  502    0 -0.14061625525E+03 -0.98714743628E+02 -0.18204406872E+03  0.30428042133E+03  0.17300000000E+03 0.  1.
         -6    1    1    2    0  501  0.14061625525E+03  0.98714743628E+02 -0.37698755548E+02  0.24671385859E+03  0.17300000000E+03 0. -1.
<mgrwt>
<rscale>  2 0.24381659E+03</rscale>
<asrwt>0</asrwt>
<pdfrwt beam="1">  1        2 0.59287469E-01 0.24381659E+03</pdfrwt>
<pdfrwt beam="2">  1       -2 0.25480881E-01 0.24381659E+03</pdfrwt>
<totfact> 0.11422332E+03</totfact>
</mgrwt>
</event>
<event>
 4    1  0.7368504E-001  0.2364538E+03  0.7546771E-02  0.1122178E+00
          2   -1    0    0  502    0  0.00000000000E+00  0.00000000000E+00  0.61984363030E+02  0.61984363030E+02  0.00000000000E+00 0.  1.
         -2   -1    0    0    0  501 -0.00000000000E+00 -0.00000000000E+00 -0.13402663997E+04  0.13402663997E+04  0.00000000000E+00 0. -1.
          6    1    1    2  502    0  0.10814214125E+03  0.11952692034E+03 -0.23821418846E+03  0.33564327341E+03  0.17300000000E+03 0.  1.
         -6    1    1    2    0  501 -0.10814214125E+03 -0.11952692034E+03 -0.10400678482E+04  0.10666074893E+04  0.17300000000E+03 0. -1.
<mgrwt>
<rscale>  2 0.23645382E+03</rscale>
<asrwt>0</asrwt>
<pdfrwt beam="1">  1        2 0.95360557E-02 0.23645382E+03</pdfrwt>
<pdfrwt beam="2">  1       -2 0.20619483E+00 0.23645382E+03</pdfrwt>
<totfact> 0.89899724E+01</totfact>
</mgrwt>
</event>
<event>
 4    1  0.7368504E-001  0.1889381E+03  0.7546771E-02  0.1159423E+00
          2   -1    0    0  502    0  0.00000000000E+00  0.00000000000E+00  0.26639359331E+04  0.26639359331E+04  0.00000000000E+00 0.  1.
         -2   -1    0    0    0  501 -0.00000000000E+00 -0.00000000000E+00 -0.13542378275E+02  0.13542378275E+02  0.00000000000E+00 0. -1.
          6    1    1    2  502    0  0.36555296365E+02  0.66575622669E+02  0.14623090877E+04  0.14744644693E+04  0.17300000000E+03 0.  1.
         -6    1    1    2    0  501 -0.36555296365E+02 -0.66575622669E+02  0.11880844672E+04  0.12030138421E+04  0.17300000000E+03 0.  1.
<mgrwt>
<rscale>  2 0.18893809E+03</rscale>
<asrwt>0</asrwt>
<pdfrwt beam="1">  1        2 0.40983588E+00 0.18893809E+03</pdfrwt>
<pdfrwt beam="2">  1       -2 0.20834449E-02 0.18893809E+03</pdfrwt>
<totfact> 0.23874366E+03</totfact>
</mgrwt>
</event>
<event>
 4    1  0.7368504E-001  0.1848441E+03  0.7546771E-02  0.1163196E+00
          2   -1    0    0  502    0  0.00000000000E+00  0.00000000000E+00  0.48922508831E+03  0.48922508831E+03  0.00000000000E+00 0.  1.
         -2   -1    0    0    0  501 -0.00000000000E+00 -0.00000000000E+00 -0.14152599378E+03  0.14152599378E+03  0.00000000000E+00 0. -1.
          6    1    1    2  502    0 -0.60677763213E+02 -0.23591543310E+02 -0.50604712266E+02  0.19164599857E+03  0.17300000000E+03 0. -1.
         -6    1    1    2    0  501  0.60677763213E+02  0.23591543310E+02  0.39830380680E+03  0.43910508352E+03  0.17300000000E+03 0.  1.
<mgrwt>
<rscale>  2 0.18484413E+03</rscale>
<asrwt>0</asrwt>
<pdfrwt beam="1">  1        2 0.75265398E-01 0.18484413E+03</pdfrwt>
<pdfrwt beam="2">  1       -2 0.21773230E-01 0.18484413E+03</pdfrwt>
<totfact> 0.11537944E+03</totfact>
</mgrwt>
</event>
<event>
 4    1  0.7368504E-001  0.1938995E+03  0.7546771E-02  0.1154991E+00
          1   -1    0    0  502    0  0.00000000000E+00  0.00000000000E+00  0.38874955552E+03  0.38874955552E+03  0.00000000000E+00 0. -1.
         -1   -1    0    0    0  501 -0.00000000000E+00 -0.00000000000E+00 -0.10380574980E+03  0.10380574980E+03  0.00000000000E+00 0.  1.
          6    1    1    2  502    0  0.13301950717E+02 -0.86550948214E+02  0.78094768533E+02  0.20903540705E+03  0.17300000000E+03 0.  1.
         -6    1    1    2    0  501 -0.13301950717E+02  0.86550948214E+02  0.20684903719E+03  0.28351989827E+03  0.17300000000E+03 0. -1.
<mgrwt>
<rscale>  2 0.19389948E+03</rscale>
<asrwt>0</asrwt>
<pdfrwt beam="1">  1        1 0.59807623E-01 0.19389948E+03</pdfrwt>
<pdfrwt beam="2">  1       -1 0.15970116E-01 0.19389948E+03</pdfrwt>
<totfact> 0.18115834E+03</totfact>
</mgrwt>
</event>
<event>
 4    1  0.7368504E-001  0.2362024E+03  0.7546771E-02  0.1122349E+00
         -2   -1    0    0    0  501 -0.00000000000E+00  0.00000000000E+00  0.35594278303E+02  0.35594278303E+02  0.00000000000E+00 0.  1.
          2   -1    0    0  502    0  0.00000000000E+00 -0.00000000000E+00 -0.20868478130E+04  0.20868478130E+04  0.00000000000E+00 0. -1.
          6    1    1    2  502    0 -0.10210280903E+03  0.12424815980E+03 -0.15550686655E+04  0.15729050013E+04  0.17300000000E+03 0. -1.
         -6    1    1    2    0  501  0.10210280903E+03 -0.12424815980E+03 -0.49618486924E+03  0.54953709001E+03  0.17300000000E+03 0.  1.
<mgrwt>
<rscale>  2 0.23620243E+03</rscale>
<asrwt>0</asrwt>
<pdfrwt beam="1">  1        2 0.32105353E+00 0.23620243E+03</pdfrwt>
<pdfrwt beam="2">  1       -2 0.54760425E-02 0.23620243E+03</pdfrwt>
<totfact> 0.11437079E+03</totfact>
</mgrwt>
</event>
<event>
 4    1  0.7368504E-001  0.1822563E+03  0.7546771E-02  0.1165637E+00
          1   -1    0    0  502    0  0.00000000000E+00  0.00000000000E+00  0.86803190498E+03  0.86803190498E+03  0.00000000000E+00 0. -1.
         -1   -1    0    0    0  501 -0.00000000000E+00 -0.00000000000E+00 -0.39870382272E+02  0.39870382272E+02  0.00000000000E+00 0.  1.
          6    1    1    2  502    0  0.44441886550E+02 -0.36239287206E+02  0.50510175005E+03  0.53697778830E+03  0.17300000000E+03 0. -1.
         -6    1    1    2    0  501 -0.44441886550E+02  0.36239287206E+02  0.32305977265E+03  0.37092449895E+03  0.17300000000E+03 0.  1.
<mgrwt>
<rscale>  2 0.18225632E+03</rscale>
<asrwt>0</asrwt>
<pdfrwt beam="1">  1        1 0.13354336E+00 0.18225632E+03</pdfrwt>
<pdfrwt beam="2">  1       -1 0.61339056E-02 0.18225632E+03</pdfrwt>
<totfact> 0.25949682E+03</totfact>
</mgrwt>
</event>
<event>
 4    1  0.7368504E-001  0.2323808E+03  0.7546771E-02  0.1124975E+00
         -2   -1    0    0    0  501 -0.00000000000E+00  0.00000000000E+00  0.27566134706E+02  0.27566134706E+02  0.00000000000E+00 0.  1.
          2   -1    0    0  502    0  0.00000000000E+00 -0.00000000000E+00 -0.20392687549E+04  0.20392687549E+04  0.00000000000E+00 0. -1.
          6    1    1    2  502    0 -0.39058986614E+02  0.15015409897E+03 -0.80076836154E+03  0.83380502920E+03  0.17300000000E+03 0. -1.
         -6    1    1    2    0  501  0.39058986614E+02 -0.15015409897E+03 -0.12109342586E+04  0.12330298604E+04  0.17300000000E+03 0.  1.
<mgrwt>
<rscale>  2 0.23238085E+03</rscale>
<asrwt>0</asrwt>
<pdfrwt beam="1">  1        2 0.31373363E+00 0.23238085E+03</pdfrwt>
<pdfrwt beam="2">  1       -2 0.42409441E-02 0.23238085E+03</pdfrwt>
<totfact> 0.17866685E+03</totfact>
</mgrwt>
</event>
<event>
 4    1  0.7368504E-001  0.1821579E+03  0.7546771E-02  0.1165731E+00
         -1   -1    0    0    0  501 -0.00000000000E+00  0.00000000000E+00  0.13931354639E+03  0.13931354639E+03  0.00000000000E+00 0. -1.
          1   -1    0    0  502    0  0.00000000000E+00 -0.00000000000E+00 -0.25921079907E+03  0.25921079907E+03  0.00000000000E+00 0.  1.
          6    1    1    2  502    0 -0.50477018663E+02 -0.26543466419E+02 -0.31886545426E+01  0.18218576382E+03  0.17300000000E+03 0. -1.
         -6    1    1    2    0  501  0.50477018663E+02  0.26543466419E+02 -0.11670859814E+03  0.21633858163E+03  0.17300000000E+03 0.  1.
<mgrwt>
<rscale>  2 0.18215786E+03</rscale>
<asrwt>0</asrwt>
<pdfrwt beam="1">  1        1 0.39878585E-01 0.18215786E+03</pdfrwt>
<pdfrwt beam="2">  1       -1 0.21432853E-01 0.18215786E+03</pdfrwt>
<totfact> 0.18745921E+03</totfact>
</mgrwt>
</event>
<event>
 4    1  0.7368504E-001  0.1749688E+03  0.7546771E-02  0.1172763E+00
          2   -1    0    0  502    0  0.00000000000E+00  0.00000000000E+00  0.32917746940E+04  0.32917746940E+04  0.00000000000E+00 0.  1.
         -2   -1    0    0    0  501 -0.00000000000E+00 -0.00000000000E+00 -0.95849851166E+01  0.95849851166E+01  0.00000000000E+00 0. -1.
          6    1    1    2  502    0  0.17291343183E+02  0.19649413822E+02  0.13565552798E+04  0.13677924978E+04  0.17300000000E+03 0. -1.
         -6    1    1    2    0  501 -0.17291343183E+02 -0.19649413822E+02  0.19256344291E+04  0.19335671813E+04  0.17300000000E+03 0.  1.
<mgrwt>
<rscale>  2 0.17496883E+03</rscale>
<asrwt>0</asrwt>
<pdfrwt beam="1">  1        2 0.50642597E+00 0.17496883E+03</pdfrwt>
<pdfrwt beam="2">  1       -2 0.14746157E-02 0.17496883E+03</pdfrwt>
<totfact> 0.17031598E+03</totfact>
</mgrwt>
</event>
<event>
 4    1  0.7368504E-001  0.2457174E+03  0.7546771E-02  0.1116042E+00
          2   -1    0    0  502    0  0.00000000000E+00  0.00000000000E+00  0.52494702760E+03  0.52494702760E+03  0.00000000000E+00 0. -1.
         -2   -1    0    0    0  501 -0.00000000000E+00 -0.00000000000E+00 -0.12954367289E+03  0.12954367289E+03  0.00000000000E+00 0.  1.
          6    1    1    2  502    0  0.51169902351E+02 -0.16682232158E+03  0.88111696320E+02  0.26103776913E+03  0.17300000000E+03 0.  1.
         -6    1    1    2    0  501 -0.51169902351E+02  0.16682232158E+03  0.30729165839E+03  0.39345293136E+03  0.17300000000E+03 0. -1.
<mgrwt>
<rscale>  2 0.24571741E+03</rscale>
<asrwt>0</asrwt>
<pdfrwt beam="1">  1        2 0.80761080E-01 0.24571741E+03</pdfrwt>
<pdfrwt beam="2">  1       -2 0.19929796E-01 0.24571741E+03</pdfrwt>
<totfact> 0.12452531E+03</totfact>
</mgrwt>
</event>
<event>
 4    1  0.7368504E-001  0.1920805E+03  0.7546771E-02  0.1156598E+00
          2   -1    0    0  502    0  0.00000000000E+00  0.00000000000E+00  0.27347689375E+03  0.27347689375E+03  0.00000000000E+00 0. -1.
         -2   -1    0    0    0  501 -0.00000000000E+00 -0.00000000000E+00 -0.23526785868E+03  0.23526785868E+03  0.00000000000E+00 0.  1.
          6    1    1    2  502    0 -0.77676608793E+02  0.30532837785E+02 -0.14703127850E+03  0.24189482548E+03  0.17300000000E+03 0.  1.
         -6    1    1    2    0  501  0.77676608793E+02 -0.30532837785E+02  0.18524031358E+03  0.26684992695E+03  0.17300000000E+03 0. -1.
<mgrwt>
<rscale>  2 0.19208048E+03</rscale>
<asrwt>0</asrwt>
<pdfrwt beam="1">  1        2 0.42073369E-01 0.19208048E+03</pdfrwt>
<pdfrwt beam="2">  1       -2 0.36195055E-01 0.19208048E+03</pdfrwt>
<totfact> 0.86990671E+02</totfact>
</mgrwt>
</event>
<event>
 4    1  0.7368504E-001  0.1786692E+03  0.7546771E-02  0.1169097E+00
         -2   -1    0    0    0  501 -0.00000000000E+00  0.00000000000E+00  0.25353387726E+03  0.25353387726E+03  0.00000000000E+00 0. -1.
          2   -1    0    0  502    0  0.00000000000E+00 -0.00000000000E+00 -0.12596098396E+03  0.12596098396E+03  0.00000000000E+00 0.  1.
          6    1    1    2  502    0 -0.19823004843E+02  0.40009349092E+02  0.60005939586E+02  0.18847655642E+03  0.17300000000E+03 0. -1.
         -6    1    1    2    0  501  0.19823004843E+02 -0.40009349092E+02  0.67566953711E+02  0.19101830480E+03  0.17300000000E+03 0.  1.
<mgrwt>
<rscale>  2 0.17866925E+03</rscale>
<asrwt>0</asrwt>
<pdfrwt beam="1">  1        2 0.19378613E-01 0.17866925E+03</pdfrwt>
<pdfrwt beam="2">  1       -2 0.39005212E-01 0.17866925E+03</pdfrwt>
<totfact> 0.17719223E+03</totfact>
</mgrwt>
</event>
<event>
 4    1  0.7368504E-001  0.2600806E+03  0.7546771E-02  0.1107095E+00
          2   -1    0    0  502    0  0.00000000000E+00  0.00000000000E+00  0.41690495326E+03  0.41690495326E+03  0.00000000000E+00 0.  1.
         -2   -1    0    0    0  501 -0.00000000000E+00 -0.00000000000E+00 -0.16311865727E+03  0.16311865727E+03  0.00000000000E+00 0. -1.
          6    1    1    2  502    0 -0.18466568686E+03 -0.60095601892E+02  0.10570242158E+03  0.28073991380E+03  0.17300000000E+03 0. -1.
         -6    1    1    2    0  501  0.18466568686E+03  0.60095601892E+02  0.14808387440E+03  0.29928369673E+03  0.17300000000E+03 0.  1.
<mgrwt>
<rscale>  2 0.26008056E+03</rscale>
<asrwt>0</asrwt>
<pdfrwt beam="1">  1        2 0.64139223E-01 0.26008056E+03</pdfrwt>
<pdfrwt beam="2">  1       -2 0.25095178E-01 0.26008056E+03</pdfrwt>
<totfact> 0.10776912E+03</totfact>
</mgrwt>
</event>
<event>
 4    1  0.7368504E-001  0.3126216E+03  0.7546771E-02  0.1079096E+00
          2   -1    0    0  502    0  0.00000000000E+00  0.00000000000E+00  0.79037961610E+03  0.79037961610E+03  0.00000000000E+00 0. -1.
         -2   -1    0    0    0  501 -0.00000000000E+00 -0.00000000000E+00 -0.20139985054E+03  0.20139985054E+03  0.00000000000E+00 0.  1.
          6    1    1    2  502    0  0.22710203470E+02 -0.25939838774E+03  0.60259494489E+03  0.67886150613E+03  0.17300000000E+03 0. -1.
         -6    1    1    2    0  501 -0.22710203470E+02  0.25939838774E+03 -0.13615179329E+02  0.31291796051E+03  0.17300000000E+03 0.  1.
<mgrwt>
<rscale>  2 0.31262162E+03</rscale>
<asrwt>0</asrwt>
<pdfrwt beam="1">  1        2 0.12159686E+00 0.31262162E+03</pdfrwt>
<pdfrwt beam="2">  1       -2 0.30984593E-01 0.31262162E+03</pdfrwt>
<totfact> 0.34853208E+02</totfact>
</mgrwt>
</event>
<event>
 4    1  0.7368504E-001  0.1759869E+03  0.7546771E-02  0.1171744E+00
          1   -1    0    0  502    0  0.00000000000E+00  0.00000000000E+00  0.35220451753E+03  0.35220451753E+03  0.00000000000E+00 0. -1.
         -1   -1    0    0    0  501 -0.00000000000E+00 -0.00000000000E+00 -0.10980005544E+03  0.10980005544E+03  0.00000000000E+00 0.  1.
          6    1    1    2  502    0  0.10142908406E+02 -0.30651341722E+02  0.18120329700E+02  0.17691729618E+03  0.17300000000E+03 0.  1.
         -6    1    1    2    0  501 -0.10142908406E+02  0.30651341722E+02  0.22428413240E+03  0.28508727679E+03  0.17300000000E+03 0. -1.
<mgrwt>
<rscale>  2 0.17598688E+03</rscale>
<asrwt>0</asrwt>
<pdfrwt beam="1">  1        1 0.54185310E-01 0.17598688E+03</pdfrwt>
<pdfrwt beam="2">  1       -1 0.16892316E-01 0.17598688E+03</pdfrwt>
<totfact> 0.18726362E+03</totfact>
</mgrwt>
</event>
<event>
 4    1  0.7368504E-001  0.3227127E+03  0.7546771E-02  0.1074408E+00
          2   -1    0    0  502    0  0.00000000000E+00  0.00000000000E+00  0.48893195741E+03  0.48893195741E+03  0.00000000000E+00 0.  1.
         -2   -1    0    0    0  501 -0.00000000000E+00 -0.00000000000E+00 -0.22058696915E+03  0.22058696915E+03  0.00000000000E+00 0. -1.
          6    1    1    2  502    0  0.23435978850E+03  0.13888844025E+03  0.19995638195E+03  0.37963938677E+03  0.17300000000E+03 0.  1.
         -6    1    1    2    0  501 -0.23435978850E+03 -0.13888844025E+03  0.68388606307E+02  0.32987953979E+03  0.17300000000E+03 0. -1.
<mgrwt>
<rscale>  2 0.32271273E+03</rscale>
<asrwt>0</asrwt>
<pdfrwt beam="1">  1        2 0.75220301E-01 0.32271273E+03</pdfrwt>
<pdfrwt beam="2">  1       -2 0.33936457E-01 0.32271273E+03</pdfrwt>
<totfact> 0.52153253E+02</totfact>
</mgrwt>
</event>
<event>
 4    1  0.7368504E-001  0.2362979E+03  0.7546771E-02  0.1122284E+00
          2   -1    0    0  502    0  0.00000000000E+00  0.00000000000E+00  0.13489929340E+03  0.13489929340E+03  0.00000000000E+00 0. -1.
         -2   -1    0    0    0  501 -0.00000000000E+00 -0.00000000000E+00 -0.41549833051E+03  0.41549833051E+03  0.00000000000E+00 0.  1.
          6    1    1    2  502    0  0.12080693142E+02  0.16050463587E+03 -0.12330495361E+03  0.26653478734E+03  0.17300000000E+03 0. -1.
         -6    1    1    2    0  501 -0.12080693142E+02 -0.16050463587E+03 -0.15729408350E+03  0.28386283657E+03  0.17300000000E+03 0.  1.
<mgrwt>
<rscale>  2 0.23629787E+03</rscale>
<asrwt>0</asrwt>
<pdfrwt beam="1">  1        2 0.20753738E-01 0.23629787E+03</pdfrwt>
<pdfrwt beam="2">  1       -2 0.63922818E-01 0.23629787E+03</pdfrwt>
<totfact> 0.61605051E+02</totfact>
</mgrwt>
</event>
<event>
 4    1  0.7368504E-001  0.1996150E+03  0.7546771E-02  0.1150064E+00
         -4   -1    0    0    0  501 -0.00000000000E+00  0.00000000000E+00  0.10383578583E+03  0.10383578583E+03  0.00000000000E+00 0. -1.
          4   -1    0    0  502    0  0.00000000000E+00 -0.00000000000E+00 -0.52558835927E+03  0.52558835927E+03  0.00000000000E+00 0.  1.
          6    1    1    2  502    0 -0.15207430674E+02  0.98416788140E+02 -0.37436958489E+03  0.42426255577E+03  0.17300000000E+03 0. -1.
         -6    1    1    2    0  501  0.15207430674E+02 -0.98416788140E+02 -0.47382988551E+02  0.20516158934E+03  0.17300000000E+03 0. -1.
<mgrwt>
<rscale>  2 0.19961495E+03</rscale>
<asrwt>0</asrwt>
<pdfrwt beam="1">  1        4 0.80859746E-01 0.19961495E+03</pdfrwt>
<pdfrwt beam="2">  1       -4 0.15974737E-01 0.19961495E+03</pdfrwt>
<totfact> 0.83145711E+01</totfact>
</mgrwt>
</event>
<event>
 4    1  0.7368504E-001  0.1924200E+03  0.7546771E-02  0.1156297E+00
          2   -1    0    0  502    0  0.00000000000E+00  0.00000000000E+00  0.27411686288E+03  0.27411686288E+03  0.00000000000E+00 0. -1.
         -2   -1    0    0    0  501 -0.00000000000E+00 -0.00000000000E+00 -0.14787478039E+03  0.14787478039E+03  0.00000000000E+00 0.  1.
          6    1    1    2  502    0  0.71279028052E+02 -0.44897219698E+02  0.10366811757E+01  0.19242280240E+03  0.17300000000E+03 0.  1.
         -6    1    1    2    0  501 -0.71279028052E+02  0.44897219698E+02  0.12520540132E+03  0.22956884087E+03  0.17300000000E+03 0. -1.
<mgrwt>
<rscale>  2 0.19242001E+03</rscale>
<asrwt>0</asrwt>
<pdfrwt beam="1">  1        2 0.42171825E-01 0.19242001E+03</pdfrwt>
<pdfrwt beam="2">  1       -2 0.22749966E-01 0.19242001E+03</pdfrwt>
<totfact> 0.20013399E+03</totfact>
</mgrwt>
</event>
<event>
 4    1  0.7368504E-001  0.2508130E+03  0.7546771E-02  0.1112792E+00
         -2   -1    0    0    0  501 -0.00000000000E+00  0.00000000000E+00  0.49457998413E+02  0.49457998413E+02  0.00000000000E+00 0. -1.
          2   -1    0    0  502    0  0.00000000000E+00 -0.00000000000E+00 -0.13127865576E+04  0.13127865576E+04  0.00000000000E+00 0.  1.
          6    1    1    2  502    0  0.14283511826E+03 -0.11214414809E+03 -0.75182194793E+03  0.79255499641E+03  0.17300000000E+03 0.  1.
         -6    1    1    2    0  501 -0.14283511826E+03  0.11214414809E+03 -0.51150661129E+03  0.56968955963E+03  0.17300000000E+03 0. -1.
<mgrwt>
<rscale>  2 0.25081304E+03</rscale>
<asrwt>0</asrwt>
<pdfrwt beam="1">  1        2 0.20196719E+00 0.25081304E+03</pdfrwt>
<pdfrwt beam="2">  1       -2 0.76089220E-02 0.25081304E+03</pdfrwt>
<totfact> 0.17668317E+03</totfact>
</mgrwt>
</event>
<event>
 4    1  0.7368504E-001  0.2783101E+03  0.7546771E-02  0.1096616E+00
          2   -1    0    0  502    0  0.00000000000E+00  0.00000000000E+00  0.43267529267E+03  0.43267529267E+03  0.00000000000E+00 0. -1.
         -2   -1    0    0    0  501 -0.00000000000E+00 -0.00000000000E+00 -0.17943786432E+03  0.17943786432E+03  0.00000000000E+00 0.  1.
          6    1    1    2  502    0  0.21800740591E+03 -0.53532333725E+00  0.14142950705E+03  0.31218395389E+03  0.17300000000E+03 0.  1.
         -6    1    1    2    0  501 -0.21800740591E+03  0.53532333725E+00  0.11180792130E+03  0.29992920309E+03  0.17300000000E+03 0. -1.
<mgrwt>
<rscale>  2 0.27831011E+03</rscale>
<asrwt>0</asrwt>
<pdfrwt beam="1">  1        2 0.66565429E-01 0.27831011E+03</pdfrwt>
<pdfrwt beam="2">  1       -2 0.27605825E-01 0.27831011E+03</pdfrwt>
<totfact> 0.87304502E+02</totfact>
</mgrwt>
</event>
<event>
 4    1  0.7368504E-001  0.2033395E+03  0.7546771E-02  0.1146952E+00
          1   -1    0    0  502    0  0.00000000000E+00  0.00000000000E+00  0.12940829018E+03  0.12940829018E+03  0.00000000000E+00 0.  1.
         -1   -1    0    0    0  501 -0.00000000000E+00 -0.00000000000E+00 -0.32402056445E+03  0.32402056445E+03  0.00000000000E+00 0. -1.
          6    1    1    2  502    0 -0.10578003591E+03  0.15117275673E+02 -0.12406193775E+03  0.23819805293E+03  0.17300000000E+03 0.  1.
         -6    1    1    2    0  501  0.10578003591E+03 -0.15117275673E+02 -0.70550336518E+02  0.21523080171E+03  0.17300000000E+03 0. -1.
<mgrwt>
<rscale>  2 0.20333949E+03</rscale>
<asrwt>0</asrwt>
<pdfrwt beam="1">  1        1 0.19908968E-01 0.20333949E+03</pdfrwt>
<pdfrwt beam="2">  1       -1 0.49849317E-01 0.20333949E+03</pdfrwt>
<totfact> 0.10567391E+03</totfact>
</mgrwt>
</event>
<event>
 4    1  0.7368504E-001  0.1926568E+03  0.7546771E-02  0.1156087E+00
         -1   -1    0    0    0  501 -0.00000000000E+00  0.00000000000E+00  0.79266695693E+02  0.79266695693E+02  0.00000000000E+00 0. -1.
          1   -1    0    0  502    0  0.00000000000E+00 -0.00000000000E+00 -0.47410921475E+03  0.47410921475E+03  0.00000000000E+00 0.  1.
          6    1    1    2  502    0 -0.46623179464E+02  0.70809139248E+02 -0.22817933550E+03  0.29863433194E+03  0.17300000000E+03 0.  1.
         -6    1    1    2    0  501  0.46623179464E+02 -0.70809139248E+02 -0.16666318356E+03  0.25474157850E+03  0.17300000000E+03 0. -1.
<mgrwt>
<rscale>  2 0.19265683E+03</rscale>
<asrwt>0</asrwt>
<pdfrwt beam="1">  1        1 0.72939878E-01 0.19265683E+03</pdfrwt>
<pdfrwt beam="2">  1       -1 0.12194876E-01 0.19265683E+03</pdfrwt>
<totfact> 0.21438314E+03</totfact>
</mgrwt>
</event>
<event>
 4    1  0.7368504E-001  0.2592199E+03  0.7546771E-02  0.1107613E+00
         -1   -1    0    0    0  501 -0.00000000000E+00  0.00000000000E+00  0.20445123897E+03  0.20445123897E+03  0.00000000000E+00 0.  1.
          1   -1    0    0  502    0  0.00000000000E+00 -0.00000000000E+00 -0.38157741991E+03  0.38157741991E+03  0.00000000000E+00 0. -1.
          6    1    1    2  502    0 -0.14270404622E+03  0.13000589537E+03 -0.19768103721E+03  0.32599504614E+03  0.17300000000E+03 0. -1.
         -6    1    1    2    0  501  0.14270404622E+03 -0.13000589537E+03  0.20554856268E+02  0.26003361274E+03  0.17300000000E+03 0.  1.
<mgrwt>
<rscale>  2 0.25921994E+03</rscale>
<asrwt>0</asrwt>
<pdfrwt beam="1">  1        1 0.58704218E-01 0.25921994E+03</pdfrwt>
<pdfrwt beam="2">  1       -1 0.31454037E-01 0.25921994E+03</pdfrwt>
<totfact> 0.60921578E+02</totfact>
</mgrwt>
</event>
<event>
 4    1  0.7368504E-001  0.1766125E+03  0.7546771E-02  0.1171122E+00
          2   -1    0    0  502    0  0.00000000000E+00  0.00000000000E+00  0.24929938621E+03  0.24929938621E+03  0.00000000000E+00 0.  1.
         -2   -1    0    0    0  501 -0.00000000000E+00 -0.00000000000E+00 -0.17405596564E+03  0.17405596564E+03  0.00000000000E+00 0. -1.
          6    1    1    2  502    0  0.31472770150E+02  0.16506277178E+02  0.14986253661E+03  0.23162636362E+03  0.17300000000E+03 0.  1.
         -6    1    1    2    0  501 -0.31472770150E+02 -0.16506277178E+02 -0.74619116039E+02  0.19172898822E+03  0.17300000000E+03 0. -1.
<mgrwt>
<rscale>  2 0.17661255E+03</rscale>
<asrwt>0</asrwt>
<pdfrwt beam="1">  1        2 0.38353752E-01 0.17661255E+03</pdfrwt>
<pdfrwt beam="2">  1       -2 0.26777841E-01 0.17661255E+03</pdfrwt>
<totfact> 0.16602446E+03</totfact>
</mgrwt>
</event>
<event>
 4    1  0.7368504E-001  0.1984500E+03  0.7546771E-02  0.1151053E+00
         -1   -1    0    0    0  501 -0.00000000000E+00  0.00000000000E+00  0.32522840135E+03  0.32522840135E+03  0.00000000000E+00 0. -1.
          1   -1    0    0  502    0  0.00000000000E+00 -0.00000000000E+00 -0.28206086427E+03  0.28206086427E+03  0.00000000000E+00 0.  1.
          6    1    1    2  502    0  0.46433786053E+02  0.85424303227E+02 -0.20780162120E+03  0.28733938443E+03  0.17300000000E+03 0.  1.
         -6    1    1    2    0  501 -0.46433786053E+02 -0.85424303227E+02  0.25096915828E+03  0.31994988119E+03  0.17300000000E+03 0. -1.
<mgrwt>
<rscale>  2 0.19845001E+03</rscale>
<asrwt>0</asrwt>
<pdfrwt beam="1">  1        1 0.43393979E-01 0.19845001E+03</pdfrwt>
<pdfrwt beam="2">  1       -1 0.50035139E-01 0.19845001E+03</pdfrwt>
<totfact> 0.39245396E+02</totfact>
</mgrwt>
</event>
<event>
 4    1  0.7368504E-001  0.1857489E+03  0.7546771E-02  0.1162352E+00
         -1   -1    0    0    0  501 -0.00000000000E+00  0.00000000000E+00  0.13632725999E+03  0.13632725999E+03  0.00000000000E+00 0.  1.
          1   -1    0    0  502    0  0.00000000000E+00 -0.00000000000E+00 -0.55419333847E+03  0.55419333847E+03  0.00000000000E+00 0. -1.
          6    1    1    2  502    0 -0.21522318968E+02  0.64112667129E+02  0.45560059278E+02  0.19125470792E+03  0.17300000000E+03 0.  1.
         -6    1    1    2    0  501  0.21522318968E+02 -0.64112667129E+02 -0.46342613776E+03  0.49926589054E+03  0.17300000000E+03 0. -1.
<mgrwt>
<rscale>  2 0.18574887E+03</rscale>
<asrwt>0</asrwt>
<pdfrwt beam="1">  1        1 0.85260513E-01 0.18574887E+03</pdfrwt>
<pdfrwt beam="2">  1       -1 0.20973425E-01 0.18574887E+03</pdfrwt>
<totfact> 0.73596369E+02</totfact>
</mgrwt>
</event>
<event>
 4    1  0.7368504E-001  0.1755554E+03  0.7546771E-02  0.1172175E+00
         -2   -1    0    0    0  501 -0.00000000000E+00  0.00000000000E+00  0.50800042994E+02  0.50800042994E+02  0.00000000000E+00 0.  1.
          2   -1    0    0  502    0  0.00000000000E+00 -0.00000000000E+00 -0.64041215362E+03  0.64041215362E+03  0.00000000000E+00 0. -1.
          6    1    1    2  502    0  0.29843541799E+02 -0.22953891381E+00 -0.21549510627E+03  0.27795292857E+03  0.17300000000E+03 0.  1.
         -6    1    1    2    0  501 -0.29843541799E+02  0.22953891381E+00 -0.37411700436E+03  0.41325926804E+03  0.17300000000E+03 0.  1.
<mgrwt>
<rscale>  2 0.17555537E+03</rscale>
<asrwt>0</asrwt>
<pdfrwt beam="1">  1        2 0.98524942E-01 0.17555537E+03</pdfrwt>
<pdfrwt beam="2">  1       -2 0.78153916E-02 0.17555537E+03</pdfrwt>
<totfact> 0.44923093E+03</totfact>
</mgrwt>
</event>
<event>
 4    1  0.7368504E-001  0.1759950E+03  0.7546771E-02  0.1171736E+00
          1   -1    0    0  502    0  0.00000000000E+00  0.00000000000E+00  0.84885452636E+02  0.84885452636E+02  0.00000000000E+00 0. -1.
         -1   -1    0    0    0  501 -0.00000000000E+00 -0.00000000000E+00 -0.38100421269E+03  0.38100421269E+03  0.00000000000E+00 0.  1.
          6    1    1    2  502    0 -0.75721838307E+01 -0.31430779852E+02 -0.10015970672E+03  0.20249987343E+03  0.17300000000E+03 0. -1.
         -6    1    1    2    0  501  0.75721838307E+01  0.31430779852E+02 -0.19595905334E+03  0.26338979189E+03  0.17300000000E+03 0.  1.
<mgrwt>
<rscale>  2 0.17599498E+03</rscale>
<asrwt>0</asrwt>
<pdfrwt beam="1">  1        1 0.13059300E-01 0.17599498E+03</pdfrwt>
<pdfrwt beam="2">  1       -1 0.58616033E-01 0.17599498E+03</pdfrwt>
<totfact> 0.13464039E+03</totfact>
</mgrwt>
</event>
<event>
 4    1  0.7368504E-001  0.1809646E+03  0.7546771E-02  0.1166873E+00
          2   -1    0    0  502    0  0.00000000000E+00  0.00000000000E+00  0.67550290479E+03  0.67550290479E+03  0.00000000000E+00 0.  1.
         -2   -1    0    0    0  501 -0.00000000000E+00 -0.00000000000E+00 -0.54459375192E+02  0.54459375192E+02  0.00000000000E+00 0. -1.
          6    1    1    2  502    0 -0.39446922469E+02 -0.35540577102E+02  0.18958116081E+03  0.26208626223E+03  0.17300000000E+03 0. -1.
         -6    1    1    2    0  501  0.39446922469E+02  0.35540577102E+02  0.43146236878E+03  0.46787601775E+03  0.17300000000E+03 0.  1.
<mgrwt>
<rscale>  2 0.18096462E+03</rscale>
<asrwt>0</asrwt>
<pdfrwt beam="1">  1        2 0.10392352E+00 0.18096462E+03</pdfrwt>
<pdfrwt beam="2">  1       -2 0.83783659E-02 0.18096462E+03</pdfrwt>
<totfact> 0.37902104E+03</totfact>
</mgrwt>
</event>
<event>
 4    1  0.7368504E-001  0.1791179E+03  0.7546771E-02  0.1168659E+00
         -1   -1    0    0    0  501 -0.00000000000E+00  0.00000000000E+00  0.15524772585E+02  0.15524772585E+02  0.00000000000E+00 0.  1.
          1   -1    0    0  502    0  0.00000000000E+00 -0.00000000000E+00 -0.20667516534E+04  0.20667516534E+04  0.00000000000E+00 0. -1.
          6    1    1    2  502    0 -0.46008864923E+02 -0.61170709559E+01 -0.10350129276E+04  0.10503975412E+04  0.17300000000E+03 0.  1.
         -6    1    1    2    0  501  0.46008864923E+02  0.61170709559E+01 -0.10162139532E+04  0.10318788848E+04  0.17300000000E+03 0.  1.
<mgrwt>
<rscale>  2 0.17911793E+03</rscale>
<asrwt>0</asrwt>
<pdfrwt beam="1">  1        1 0.31796185E+00 0.17911793E+03</pdfrwt>
<pdfrwt beam="2">  1       -1 0.23884261E-02 0.17911793E+03</pdfrwt>
<totfact> 0.16201220E+03</totfact>
</mgrwt>
</event>
<event>
 4    1  0.7368504E-001  0.1781216E+03  0.7546771E-02  0.1169633E+00
          1   -1    0    0  502    0  0.00000000000E+00  0.00000000000E+00  0.13983419897E+04  0.13983419897E+04  0.00000000000E+00 0.  1.
         -1   -1    0    0    0  501 -0.00000000000E+00 -0.00000000000E+00 -0.23057095010E+02  0.23057095010E+02  0.00000000000E+00 0. -1.
          6    1    1    2  502    0  0.36406556772E+02  0.21745398398E+02  0.59787283015E+03  0.62384230440E+03  0.17300000000E+03 0.  1.
         -6    1    1    2    0  501 -0.36406556772E+02 -0.21745398398E+02  0.77741206456E+03  0.79755678033E+03  0.17300000000E+03 0.  1.
<mgrwt>
<rscale>  2 0.17812159E+03</rscale>
<asrwt>0</asrwt>
<pdfrwt beam="1">  1        1 0.21512947E+00 0.17812159E+03</pdfrwt>
<pdfrwt beam="2">  1       -1 0.35472465E-02 0.17812159E+03</pdfrwt>
<totfact> 0.24547793E+03</totfact>
</mgrwt>
</event>
<event>
 4    1  0.7368504E-001  0.2467710E+03  0.7546771E-02  0.1115363E+00
         -1   -1    0    0    0  501 -0.00000000000E+00  0.00000000000E+00  0.13232509235E+04  0.13232509235E+04  0.00000000000E+00 0.  1.
          1   -1    0    0  502    0  0.00000000000E+00 -0.00000000000E+00 -0.48100339310E+02  0.48100339310E+02  0.00000000000E+00 0. -1.
          6    1    1    2  502    0  0.15939339605E+03  0.74569869833E+02  0.78017499461E+03  0.81827192449E+03  0.17300000000E+03 0.  1.
         -6    1    1    2    0  501 -0.15939339605E+03 -0.74569869833E+02  0.49497558954E+03  0.55307933828E+03  0.17300000000E+03 0. -1.
<mgrwt>
<rscale>  2 0.24677099E+03</rscale>
<asrwt>0</asrwt>
<pdfrwt beam="1">  1        1 0.74000532E-02 0.24677099E+03</pdfrwt>
<pdfrwt beam="2">  1       -1 0.20357704E+00 0.24677099E+03</pdfrwt>
<totfact> 0.15340966E+02</totfact>
</mgrwt>
</event>
<event>
 4    1  0.7368504E-001  0.1758123E+03  0.7546771E-02  0.1171919E+00
         -1   -1    0    0    0  501 -0.00000000000E+00  0.00000000000E+00  0.62420837471E+03  0.62420837471E+03  0.00000000000E+00 0.  1.
          1   -1    0    0  502    0  0.00000000000E+00 -0.00000000000E+00 -0.17047282812E+03  0.17047282812E+03  0.00000000000E+00 0. -1.
          6    1    1    2  502    0 -0.30986439579E+02 -0.45597628654E+01 -0.10782459835E+03  0.20624280566E+03  0.17300000000E+03 0. -1.
         -6    1    1    2    0  501  0.30986439579E+02  0.45597628654E+01  0.56156014494E+03  0.58843839717E+03  0.17300000000E+03 0.  1.
<mgrwt>
<rscale>  2 0.17581226E+03</rscale>
<asrwt>0</asrwt>
<pdfrwt beam="1">  1        1 0.26226589E-01 0.17581226E+03</pdfrwt>
<pdfrwt beam="2">  1       -1 0.96032056E-01 0.17581226E+03</pdfrwt>
<totfact> 0.20157573E+02</totfact>
</mgrwt>
</event>
<event>
 4    1  0.7368504E-001  0.1911719E+03  0.7546771E-02  0.1157409E+00
         -2   -1    0    0    0  501 -0.00000000000E+00  0.00000000000E+00  0.41402882969E+03  0.41402882969E+03  0.00000000000E+00 0. -1.
          2   -1    0    0  502    0  0.00000000000E+00 -0.00000000000E+00 -0.89852759677E+02  0.89852759677E+02  0.00000000000E+00 0.  1.
          6    1    1    2  502    0 -0.80497202730E+02  0.11743395714E+02  0.19551628106E+03  0.27344711216E+03  0.17300000000E+03 0. -1.
         -6    1    1    2    0  501  0.80497202730E+02 -0.11743395714E+02  0.12865978895E+03  0.23043447720E+03  0.17300000000E+03 0.  1.
<mgrwt>
<rscale>  2 0.19117193E+03</rscale>
<asrwt>0</asrwt>
<pdfrwt beam="1">  1        2 0.13823502E-01 0.19117193E+03</pdfrwt>
<pdfrwt beam="2">  1       -2 0.63696742E-01 0.19117193E+03</pdfrwt>
<totfact> 0.99336216E+02</totfact>
</mgrwt>
</event>
<event>
 4    1  0.7368504E-001  0.1845938E+03  0.7546771E-02  0.1163430E+00
          2   -1    0    0  502    0  0.00000000000E+00  0.00000000000E+00  0.22287749029E+04  0.22287749029E+04  0.00000000000E+00 0.  1.
         -2   -1    0    0    0  501 -0.00000000000E+00 -0.00000000000E+00 -0.15443113859E+02  0.15443113859E+02  0.00000000000E+00 0. -1.
          6    1    1    2  502    0 -0.53311228478E+02 -0.36107945260E+02  0.12189031265E+04  0.12328015666E+04  0.17300000000E+03 0.  1.
         -6    1    1    2    0  501  0.53311228478E+02  0.36107945260E+02  0.99442866255E+03  0.10114164502E+04  0.17300000000E+03 0. -1.
<mgrwt>
<rscale>  2 0.18459380E+03</rscale>
<asrwt>0</asrwt>
<pdfrwt beam="1">  1        2 0.34288819E+00 0.18459380E+03</pdfrwt>
<pdfrwt beam="2">  1       -2 0.23758654E-02 0.18459380E+03</pdfrwt>
<totfact> 0.33762299E+03</totfact>
</mgrwt>
</event>
<event>
 4    1  0.7368504E-001  0.2049333E+03  0.7546771E-02  0.1145642E+00
          1   -1    0    0  502    0  0.00000000000E+00  0.00000000000E+00  0.49219870095E+03  0.49219870095E+03  0.00000000000E+00 0.  1.
         -1   -1    0    0    0  501 -0.00000000000E+00 -0.00000000000E+00 -0.97014079490E+02  0.97014079490E+02  0.00000000000E+00 0. -1.
          6    1    1    2  502    0  0.81311582276E+02 -0.73872166270E+02  0.29984721046E+03  0.36318868372E+03  0.17300000000E+03 0.  1.
         -6    1    1    2    0  501 -0.81311582276E+02  0.73872166270E+02  0.95337410998E+02  0.22602409672E+03  0.17300000000E+03 0. -1.
<mgrwt>
<rscale>  2 0.20493333E+03</rscale>
<asrwt>0</asrwt>
<pdfrwt beam="1">  1        1 0.75722876E-01 0.20493333E+03</pdfrwt>
<pdfrwt beam="2">  1       -1 0.14925243E-01 0.20493333E+03</pdfrwt>
<totfact> 0.14880227E+03</totfact>
</mgrwt>
</event>
<event>
 4    1  0.7368504E-001  0.1820957E+03  0.7546771E-02  0.1165790E+00
          2   -1    0    0  502    0  0.00000000000E+00  0.00000000000E+00  0.14150918618E+04  0.14150918618E+04  0.00000000000E+00 0. -1.
         -2   -1    0    0    0  501 -0.00000000000E+00 -0.00000000000E+00 -0.32065807946E+02  0.32065807946E+02  0.00000000000E+00 0.  1.
          6    1    1    2  502    0  0.31278894841E+02 -0.47449533908E+02  0.10669689261E+04  0.10823961922E+04  0.17300000000E+03 0. -1.
         -6    1    1    2    0  501 -0.31278894841E+02  0.47449533908E+02  0.31605712776E+03  0.36476147760E+03  0.17300000000E+03 0.  1.
<mgrwt>
<rscale>  2 0.18209565E+03</rscale>
<asrwt>0</asrwt>
<pdfrwt beam="1">  1        2 0.21770639E+00 0.18209565E+03</pdfrwt>
<pdfrwt beam="2">  1       -2 0.49332023E-02 0.18209565E+03</pdfrwt>
<totfact> 0.30216627E+03</totfact>
</mgrwt>
</event>
<event>
 4    1  0.7368504E-001  0.2091094E+03  0.7546771E-02  0.1142273E+00
          2   -1    0    0  502    0  0.00000000000E+00  0.00000000000E+00  0.50746424353E+03  0.50746424353E+03  0.00000000000E+00 0. -1.
         -2   -1    0    0    0  501 -0.00000000000E+00 -0.00000000000E+00 -0.89094134300E+02  0.89094134300E+02  0.00000000000E+00 0.  1.
          6    1    1    2  502    0 -0.59778597243E+02 -0.10111517608E+03  0.26324888968E+03  0.33619449347E+03  0.17300000000E+03 0.  1.
         -6    1    1    2    0  501  0.59778597243E+02  0.10111517608E+03  0.15512121955E+03  0.26036388436E+03  0.17300000000E+03 0.  1.
<mgrwt>
<rscale>  2 0.20910944E+03</rscale>
<asrwt>0</asrwt>
<pdfrwt beam="1">  1        2 0.78071420E-01 0.20910944E+03</pdfrwt>
<pdfrwt beam="2">  1       -2 0.13706790E-01 0.20910944E+03</pdfrwt>
<totfact> 0.24118394E+03</totfact>
</mgrwt>
</event>
<event>
 4    1  0.7368504E-001  0.1771240E+03  0.7546771E-02  0.1170616E+00
         -1   -1    0    0    0  501 -0.00000000000E+00  0.00000000000E+00  0.27362758218E+02  0.27362758218E+02  0.00000000000E+00 0.  1.
          1   -1    0    0  502    0  0.00000000000E+00 -0.00000000000E+00 -0.12254683948E+04  0.12254683948E+04  0.00000000000E+00 0. -1.
          6    1    1    2  502    0  0.22908077623E+02  0.30317199456E+02 -0.44009338138E+03  0.47439972274E+03  0.17300000000E+03 0.  1.
         -6    1    1    2    0  501 -0.22908077623E+02 -0.30317199456E+02 -0.75801225517E+03  0.77843143024E+03  0.17300000000E+03 0. -1.
<mgrwt>
<rscale>  2 0.17712400E+03</rscale>
<asrwt>0</asrwt>
<pdfrwt beam="1">  1        1 0.18853354E+00 0.17712400E+03</pdfrwt>
<pdfrwt beam="2">  1       -1 0.42096565E-02 0.17712400E+03</pdfrwt>
<totfact> 0.24928577E+03</totfact>
</mgrwt>
</event>
<event>
 4    1  0.7368504E-001  0.2421537E+03  0.7546771E-02  0.1118366E+00
         -1   -1    0    0    0  501 -0.00000000000E+00  0.00000000000E+00  0.79775337485E+02  0.79775337485E+02  0.00000000000E+00 0.  1.
          1   -1    0    0  502    0  0.00000000000E+00 -0.00000000000E+00 -0.73642342671E+03  0.73642342671E+03  0.00000000000E+00 0. -1.
          6    1    1    2  502    0 -0.16356272344E+03  0.44234076938E+02 -0.31066437447E+03  0.39389182731E+03  0.17300000000E+03 0.  1.
         -6    1    1    2    0  501  0.16356272344E+03 -0.44234076938E+02 -0.34598371476E+03  0.42230693688E+03  0.17300000000E+03 0. -1.
<mgrwt>
<rscale>  2 0.24215371E+03</rscale>
<asrwt>0</asrwt>
<pdfrwt beam="1">  1        1 0.11329591E+00 0.24215371E+03</pdfrwt>
<pdfrwt beam="2">  1       -1 0.12273129E-01 0.24215371E+03</pdfrwt>
<totfact> 0.11570615E+03</totfact>
</mgrwt>
</event>
<event>
 4    1  0.7368504E-001  0.2104837E+03  0.7546771E-02  0.1141184E+00
         -1   -1    0    0    0  501 -0.00000000000E+00  0.00000000000E+00  0.25789634942E+02  0.25789634942E+02  0.00000000000E+00 0. -1.
          1   -1    0    0  502    0  0.00000000000E+00 -0.00000000000E+00 -0.17367781043E+04  0.17367781043E+04  0.00000000000E+00 0.  1.
          6    1    1    2  502    0  0.44652048854E+02 -0.11126805588E+03 -0.94743388004E+03  0.97053301993E+03  0.17300000000E+03 0.  1.
         -6    1    1    2    0  501 -0.44652048854E+02  0.11126805588E+03 -0.76355458929E+03  0.79203471928E+03  0.17300000000E+03 0. -1.
<mgrwt>
<rscale>  2 0.21048369E+03</rscale>
<asrwt>0</asrwt>
<pdfrwt beam="1">  1        1 0.26719655E+00 0.21048369E+03</pdfrwt>
<pdfrwt beam="2">  1       -1 0.39676373E-02 0.21048369E+03</pdfrwt>
<totfact> 0.12498677E+03</totfact>
</mgrwt>
</event>
<event>
 4    1  0.7368504E-001  0.5407338E+03  0.7546771E-02  0.1003662E+00
          1   -1    0    0  502    0  0.00000000000E+00  0.00000000000E+00  0.10113920305E+04  0.10113920305E+04  0.00000000000E+00 0. -1.
         -1   -1    0    0    0  501 -0.00000000000E+00 -0.00000000000E+00 -0.33832000750E+03  0.33832000750E+03  0.00000000000E+00 0.  1.
          6    1    1    2  502    0  0.48381104901E+03 -0.16849601163E+03  0.59394272092E+03  0.80321914370E+03  0.17300000000E+03 0. -1.
         -6    1    1    2    0  501 -0.48381104901E+03  0.16849601163E+03  0.79129302094E+02  0.54649289431E+03  0.17300000000E+03 0.  1.
<mgrwt>
<rscale>  2 0.54073380E+03</rscale>
<asrwt>0</asrwt>
<pdfrwt beam="1">  1        1 0.15559877E+00 0.54073380E+03</pdfrwt>
<pdfrwt beam="2">  1       -1 0.52049232E-01 0.54073380E+03</pdfrwt>
<totfact> 0.57722962E+01</totfact>
</mgrwt>
</event>
<event>
 4    1  0.7368504E-001  0.2955204E+03  0.7546771E-02  0.1087502E+00
         -2   -1    0    0    0  501 -0.00000000000E+00  0.00000000000E+00  0.90653307522E+02  0.90653307522E+02  0.00000000000E+00 0. -1.
          2   -1    0    0  502    0  0.00000000000E+00 -0.00000000000E+00 -0.97478803723E+03  0.97478803723E+03  0.00000000000E+00 0.  1.
          6    1    1    2  502    0 -0.22816058138E+03  0.73116869314E+02 -0.38440220934E+03  0.48486842135E+03  0.17300000000E+03 0.  1.
         -6    1    1    2    0  501  0.22816058138E+03 -0.73116869314E+02 -0.49973252037E+03  0.58057292341E+03  0.17300000000E+03 0. -1.
<mgrwt>
<rscale>  2 0.29552043E+03</rscale>
<asrwt>0</asrwt>
<pdfrwt beam="1">  1        2 0.14996739E+00 0.29552043E+03</pdfrwt>
<pdfrwt beam="2">  1       -2 0.13946662E-01 0.29552043E+03</pdfrwt>
<totfact> 0.10524660E+03</totfact>
</mgrwt>
</event>
<event>
 4    1  0.7368504E-001  0.1762717E+03  0.7546771E-02  0.1171461E+00
          1   -1    0    0  502    0  0.00000000000E+00  0.00000000000E+00  0.61341568769E+03  0.61341568769E+03  0.00000000000E+00 0. -1.
         -1   -1    0    0    0  501 -0.00000000000E+00 -0.00000000000E+00 -0.54843197783E+02  0.54843197783E+02  0.00000000000E+00 0.  1.
          6    1    1    2  502    0  0.32267453714E+02 -0.10076058320E+02  0.37163675617E+03  0.41132176463E+03  0.17300000000E+03 0. -1.
         -6    1    1    2    0  501 -0.32267453714E+02  0.10076058320E+02  0.18693573374E+03  0.25693712085E+03  0.17300000000E+03 0.  1.
<mgrwt>
<rscale>  2 0.17627171E+03</rscale>
<asrwt>0</asrwt>
<pdfrwt beam="1">  1        1 0.94371640E-01 0.17627171E+03</pdfrwt>
<pdfrwt beam="2">  1       -1 0.84374155E-02 0.17627171E+03</pdfrwt>
<totfact> 0.26688871E+03</totfact>
</mgrwt>
</event>
<event>
 4    1  0.7368504E-001  0.1859296E+03  0.7546771E-02  0.1162185E+00
          2   -1    0    0  502    0  0.00000000000E+00  0.00000000000E+00  0.99738288925E+03  0.99738288925E+03  0.00000000000E+00 0.  1.
         -2   -1    0    0    0  501 -0.00000000000E+00 -0.00000000000E+00 -0.59620666893E+02  0.59620666893E+02  0.00000000000E+00 0. -1.
          6    1    1    2  502    0 -0.63609361326E+02 -0.24385690336E+02  0.81083817457E+03  0.83188241843E+03  0.17300000000E+03 0.  1.
         -6    1    1    2    0  501  0.63609361326E+02  0.24385690336E+02  0.12692404779E+03  0.22512113772E+03  0.17300000000E+03 0. -1.
<mgrwt>
<rscale>  2 0.18592959E+03</rscale>
<asrwt>0</asrwt>
<pdfrwt beam="1">  1        2 0.15344351E+00 0.18592959E+03</pdfrwt>
<pdfrwt beam="2">  1       -2 0.91724110E-02 0.18592959E+03</pdfrwt>
<totfact> 0.20000156E+03</totfact>
</mgrwt>
</event>
<event>
 4    1  0.7368504E-001  0.1787317E+03  0.7546771E-02  0.1169036E+00
         -3   -1    0    0    0  501 -0.00000000000E+00  0.00000000000E+00  0.13306741080E+03  0.13306741080E+03  0.00000000000E+00 0.  1.
          3   -1    0    0  502    0  0.00000000000E+00 -0.00000000000E+00 -0.27005293928E+03  0.27005293928E+03  0.00000000000E+00 0. -1.
          6    1    1    2  502    0 -0.35056418256E+02 -0.28054597324E+02 -0.13276866232E+01  0.17873660969E+03  0.17300000000E+03 0.  1.
         -6    1    1    2    0  501  0.35056418256E+02  0.28054597324E+02 -0.13565784186E+03  0.22438374039E+03  0.17300000000E+03 0.  1.
<mgrwt>
<rscale>  2 0.17873168E+03</rscale>
<asrwt>0</asrwt>
<pdfrwt beam="1">  1        3 0.41546606E-01 0.17873168E+03</pdfrwt>
<pdfrwt beam="2">  1       -3 0.20471909E-01 0.17873168E+03</pdfrwt>
<totfact> 0.29944180E+02</totfact>
</mgrwt>
</event>
<event>
 4    1  0.7368504E-001  0.1884485E+03  0.7546771E-02  0.1159868E+00
          2   -1    0    0  502    0  0.00000000000E+00  0.00000000000E+00  0.58213404560E+03  0.58213404560E+03  0.00000000000E+00 0.  1.
         -2   -1    0    0    0  501 -0.00000000000E+00 -0.00000000000E+00 -0.61165370647E+02  0.61165370647E+02  0.00000000000E+00 0. -1.
          6    1    1    2  502    0  0.53078272380E+02  0.52597814376E+02  0.24399194486E+03  0.30829353258E+03  0.17300000000E+03 0. -1.
         -6    1    1    2    0  501 -0.53078272380E+02 -0.52597814376E+02  0.27697673009E+03  0.33500588366E+03  0.17300000000E+03 0.  1.
<mgrwt>
<rscale>  2 0.18844849E+03</rscale>
<asrwt>0</asrwt>
<pdfrwt beam="1">  1        2 0.89559080E-01 0.18844849E+03</pdfrwt>
<pdfrwt beam="2">  1       -2 0.94100574E-02 0.18844849E+03</pdfrwt>
<totfact> 0.37626385E+03</totfact>
</mgrwt>
</event>
<event>
 4    1  0.7368504E-001  0.1782834E+03  0.7546771E-02  0.1169475E+00
          2   -1    0    0  502    0  0.00000000000E+00  0.00000000000E+00  0.36347092883E+04  0.36347092883E+04  0.00000000000E+00 0.  1.
         -2   -1    0    0    0  501 -0.00000000000E+00 -0.00000000000E+00 -0.96452279563E+01  0.96452279563E+01  0.00000000000E+00 0. -1.
          6    1    1    2  502    0  0.21946727735E+02  0.37071587702E+02  0.12557970246E+04  0.12683891865E+04  0.17300000000E+03 0. -1.
         -6    1    1    2    0  501 -0.21946727735E+02 -0.37071587702E+02  0.23692670357E+04  0.23759653297E+04  0.17300000000E+03 0.  1.
<mgrwt>
<rscale>  2 0.17828337E+03</rscale>
<asrwt>0</asrwt>
<pdfrwt beam="1">  1        2 0.55918495E+00 0.17828337E+03</pdfrwt>
<pdfrwt beam="2">  1       -2 0.14838841E-02 0.17828337E+03</pdfrwt>
<totfact> 0.10111176E+03</totfact>
</mgrwt>
</event>
<event>
 4    1  0.7368504E-001  0.1855992E+03  0.7546771E-02  0.1162492E+00
          1   -1    0    0  502    0  0.00000000000E+00  0.00000000000E+00  0.34753632443E+03  0.34753632443E+03  0.00000000000E+00 0.  1.
         -1   -1    0    0    0  501 -0.00000000000E+00 -0.00000000000E+00 -0.18936796114E+03  0.18936796114E+03  0.00000000000E+00 0. -1.
          6    1    1    2  502    0  0.12851292471E+02  0.65976574166E+02  0.26441063784E+03  0.32304806061E+03  0.17300000000E+03 0.  1.
         -6    1    1    2    0  501 -0.12851292471E+02 -0.65976574166E+02 -0.10624227455E+03  0.21385622497E+03  0.17300000000E+03 0. -1.
<mgrwt>
<rscale>  2 0.18559920E+03</rscale>
<asrwt>0</asrwt>
<pdfrwt beam="1">  1        1 0.53467127E-01 0.18559920E+03</pdfrwt>
<pdfrwt beam="2">  1       -1 0.29133533E-01 0.18559920E+03</pdfrwt>
<totfact> 0.78167751E+02</totfact>
</mgrwt>
</event>
<event>
 4    1  0.7368504E-001  0.1749982E+03  0.7546771E-02  0.1172734E+00
          4   -1    0    0  502    0  0.00000000000E+00  0.00000000000E+00  0.21452014400E+03  0.21452014400E+03  0.00000000000E+00 0.  1.
         -4   -1    0    0    0  501 -0.00000000000E+00 -0.00000000000E+00 -0.15739109056E+03  0.15739109056E+03  0.00000000000E+00 0. -1.
          6    1    1    2  502    0 -0.38092084832E+01 -0.26093206658E+02  0.85265989266E+02  0.19466549368E+03  0.17300000000E+03 0.  1.
         -6    1    1    2    0  501  0.38092084832E+01  0.26093206658E+02 -0.28136935831E+02  0.17724574088E+03  0.17300000000E+03 0. -1.
<mgrwt>
<rscale>  2 0.17499819E+03</rscale>
<asrwt>0</asrwt>
<pdfrwt beam="1">  1        4 0.33003099E-01 0.17499819E+03</pdfrwt>
<pdfrwt beam="2">  1       -4 0.24214014E-01 0.17499819E+03</pdfrwt>
<totfact> 0.24511906E+02</totfact>
</mgrwt>
</event>
<event>
 4    1  0.7368504E-001  0.2130711E+03  0.7546771E-02  0.1139157E+00
         -2   -1    0    0    0  501 -0.00000000000E+00  0.00000000000E+00  0.36465552814E+02  0.36465552814E+02  0.00000000000E+00 0. -1.
          2   -1    0    0  502    0  0.00000000000E+00 -0.00000000000E+00 -0.14477129656E+04  0.14477129656E+04  0.00000000000E+00 0.  1.
          6    1    1    2  502    0 -0.93031654753E+02  0.82555485834E+02 -0.98331672827E+03  0.10061367129E+04  0.17300000000E+03 0.  1.
         -6    1    1    2    0  501  0.93031654753E+02 -0.82555485834E+02 -0.42793068447E+03  0.47804180543E+03  0.17300000000E+03 0.  1.
<mgrwt>
<rscale>  2 0.21307111E+03</rscale>
<asrwt>0</asrwt>
<pdfrwt beam="1">  1        2 0.22272508E+00 0.21307111E+03</pdfrwt>
<pdfrwt beam="2">  1       -2 0.56100849E-02 0.21307111E+03</pdfrwt>
<totfact> 0.23897565E+03</totfact>
</mgrwt>
</event>
<event>
 4    1  0.7368504E-001  0.1777791E+03  0.7546771E-02  0.1169970E+00
          2   -1    0    0  502    0  0.00000000000E+00  0.00000000000E+00  0.13390477581E+04  0.13390477581E+04  0.00000000000E+00 0. -1.
         -2   -1    0    0    0  501 -0.00000000000E+00 -0.00000000000E+00 -0.26072663564E+02  0.26072663564E+02  0.00000000000E+00 0.  1.
          6    1    1    2  502    0  0.38690263839E+02 -0.13397307289E+02  0.86656286844E+03  0.88461100452E+03  0.17300000000E+03 0. -1.
         -6    1    1    2    0  501 -0.38690263839E+02  0.13397307289E+02  0.44641222613E+03  0.48050941718E+03  0.17300000000E+03 0.  1.
<mgrwt>
<rscale>  2 0.17777914E+03</rscale>
<asrwt>0</asrwt>
<pdfrwt beam="1">  1        2 0.20600729E+00 0.17777914E+03</pdfrwt>
<pdfrwt beam="2">  1       -2 0.40111801E-02 0.17777914E+03</pdfrwt>
<totfact> 0.45295683E+03</totfact>
</mgrwt>
</event>
<event>
 4    1  0.7368504E-001  0.1806679E+03  0.7546771E-02  0.1167158E+00
          2   -1    0    0  502    0  0.00000000000E+00  0.00000000000E+00  0.86930153989E+02  0.86930153989E+02  0.00000000000E+00 0. -1.
         -2   -1    0    0    0  501 -0.00000000000E+00 -0.00000000000E+00 -0.37986204957E+03  0.37986204957E+03  0.00000000000E+00 0.  1.
          6    1    1    2  502    0 -0.27926639157E+02  0.43954301188E+02 -0.12140927725E+03  0.21767197884E+03  0.17300000000E+03 0. -1.
         -6    1    1    2    0  501  0.27926639157E+02 -0.43954301188E+02 -0.17152261833E+03  0.24912022472E+03  0.17300000000E+03 0. -1.
<mgrwt>
<rscale>  2 0.18066787E+03</rscale>
<asrwt>0</asrwt>
<pdfrwt beam="1">  1        2 0.13373870E-01 0.18066787E+03</pdfrwt>
<pdfrwt beam="2">  1       -2 0.58440316E-01 0.18066787E+03</pdfrwt>
<totfact> 0.12331221E+03</totfact>
</mgrwt>
</event>
<event>
 4    1  0.7368504E-001  0.2110409E+03  0.7546771E-02  0.1140744E+00
          4   -1    0    0  502    0  0.00000000000E+00  0.00000000000E+00  0.35208075831E+03  0.35208075831E+03  0.00000000000E+00 0. -1.
         -4   -1    0    0    0  501 -0.00000000000E+00 -0.00000000000E+00 -0.13140029808E+03  0.13140029808E+03  0.00000000000E+00 0.  1.
          6    1    1    2  502    0 -0.10120772315E+03  0.66077510955E+02  0.15702330193E+03  0.26304858492E+03  0.17300000000E+03 0. -1.
         -6    1    1    2    0  501  0.10120772315E+03 -0.66077510955E+02  0.63657158295E+02  0.22043247148E+03  0.17300000000E+03 0. -1.
<mgrwt>
<rscale>  2 0.21104085E+03</rscale>
<asrwt>0</asrwt>
<pdfrwt beam="1">  1        4 0.54166270E-01 0.21104085E+03</pdfrwt>
<pdfrwt beam="2">  1       -4 0.20215431E-01 0.21104085E+03</pdfrwt>
<totfact> 0.13026266E+02</totfact>
</mgrwt>
</event>
<event>
 4    1  0.7368504E-001  0.1745890E+03  0.7546771E-02  0.1173145E+00
          1   -1    0    0  502    0  0.00000000000E+00  0.00000000000E+00  0.34488524851E+02  0.34488524851E+02  0.00000000000E+00 0. -1.
         -1   -1    0    0    0  501 -0.00000000000E+00 -0.00000000000E+00 -0.89653638080E+03  0.89653638080E+03  0.00000000000E+00 0.  1.
          6    1    1    2  502    0  0.16020208601E+02 -0.17194703633E+02 -0.37556149377E+03  0.41415907635E+03  0.17300000000E+03 0. -1.
         -6    1    1    2    0  501 -0.16020208601E+02  0.17194703633E+02 -0.48648636217E+03  0.51686582930E+03  0.17300000000E+03 0. -1.
<mgrwt>
<rscale>  2 0.17458896E+03</rscale>
<asrwt>0</asrwt>
<pdfrwt beam="1">  1        1 0.53059267E-02 0.17458896E+03</pdfrwt>
<pdfrwt beam="2">  1       -1 0.13792868E+00 0.17458896E+03</pdfrwt>
<totfact> 0.71500908E+02</totfact>
</mgrwt>
</event>
<event>
 4    1  0.7368504E-001  0.1967696E+03  0.7546771E-02  0.1152493E+00
         -1   -1    0    0    0  501 -0.00000000000E+00  0.00000000000E+00  0.45164037249E+02  0.45164037249E+02  0.00000000000E+00 0.  1.
          1   -1    0    0  502    0  0.00000000000E+00 -0.00000000000E+00 -0.12422728465E+04  0.12422728465E+04  0.00000000000E+00 0. -1.
          6    1    1    2  502    0  0.87302458832E+02 -0.34169329159E+02 -0.95690928958E+03  0.97693072981E+03  0.17300000000E+03 0. -1.
         -6    1    1    2    0  501 -0.87302458832E+02  0.34169329159E+02 -0.24019951962E+03  0.31050615388E+03  0.17300000000E+03 0. -1.
<mgrwt>
<rscale>  2 0.19676957E+03</rscale>
<asrwt>0</asrwt>
<pdfrwt beam="1">  1        1 0.19111889E+00 0.19676957E+03</pdfrwt>
<pdfrwt beam="2">  1       -1 0.69483137E-02 0.19676957E+03</pdfrwt>
<totfact> 0.11474311E+03</totfact>
</mgrwt>
</event>
<event>
 4    1  0.7368504E-001  0.1764918E+03  0.7546771E-02  0.1171242E+00
          1   -1    0    0  502    0  0.00000000000E+00  0.00000000000E+00  0.20334767833E+03  0.20334767833E+03  0.00000000000E+00 0. -1.
         -1   -1    0    0    0  501 -0.00000000000E+00 -0.00000000000E+00 -0.20485409319E+03  0.20485409319E+03  0.00000000000E+00 0.  1.
          6    1    1    2  502    0  0.15511857914E+02  0.31300831504E+02 -0.10325875633E+03  0.20447916898E+03  0.17300000000E+03 0.  1.
         -6    1    1    2    0  501 -0.15511857914E+02 -0.31300831504E+02  0.10175234148E+03  0.20372260254E+03  0.17300000000E+03 0. -1.
<mgrwt>
<rscale>  2 0.17649181E+03</rscale>
<asrwt>0</asrwt>
<pdfrwt beam="1">  1        1 0.31284258E-01 0.17649181E+03</pdfrwt>
<pdfrwt beam="2">  1       -1 0.31516014E-01 0.17649181E+03</pdfrwt>
<totfact> 0.13359174E+03</totfact>
</mgrwt>
</event>
<event>
 4    1  0.7368504E-001  0.2458694E+03  0.7546771E-02  0.1115943E+00
         -2   -1    0    0    0  501 -0.00000000000E+00  0.00000000000E+00  0.53811950382E+02  0.53811950382E+02  0.00000000000E+00 0.  1.
          2   -1    0    0  502    0  0.00000000000E+00 -0.00000000000E+00 -0.11385446853E+04  0.11385446853E+04  0.00000000000E+00 0. -1.
          6    1    1    2  502    0  0.86886784790E+02 -0.15157002157E+03 -0.47358346612E+03  0.53360386449E+03  0.17300000000E+03 0.  1.
         -6    1    1    2    0  501 -0.86886784790E+02  0.15157002157E+03 -0.61114926877E+03  0.65875277117E+03  0.17300000000E+03 0. -1.
<mgrwt>
<rscale>  2 0.24586945E+03</rscale>
<asrwt>0</asrwt>
<pdfrwt beam="1">  1        2 0.17516071E+00 0.24586945E+03</pdfrwt>
<pdfrwt beam="2">  1       -2 0.82787621E-02 0.24586945E+03</pdfrwt>
<totfact> 0.19417040E+03</totfact>
</mgrwt>
</event>
<event>
 4    1  0.7368504E-001  0.2473062E+03  0.7546771E-02  0.1115019E+00
         -2   -1    0    0    0  501 -0.00000000000E+00  0.00000000000E+00  0.34205854331E+02  0.34205854331E+02  0.00000000000E+00 0. -1.
          2   -1    0    0  502    0  0.00000000000E+00 -0.00000000000E+00 -0.17992647436E+04  0.17992647436E+04  0.00000000000E+00 0.  1.
          6    1    1    2  502    0 -0.63414180660E+02  0.16495448769E+03 -0.95504025093E+03  0.98654053247E+03  0.17300000000E+03 0.  1.
         -6    1    1    2    0  501  0.63414180660E+02 -0.16495448769E+03 -0.81001863835E+03  0.84693006546E+03  0.17300000000E+03 0.  1.
<mgrwt>
<rscale>  2 0.24730617E+03</rscale>
<asrwt>0</asrwt>
<pdfrwt beam="1">  1        2 0.27681007E+00 0.24730617E+03</pdfrwt>
<pdfrwt beam="2">  1       -2 0.52624371E-02 0.24730617E+03</pdfrwt>
<totfact> 0.17175589E+03</totfact>
</mgrwt>
</event>
<event>
 4    1  0.7368504E-001  0.2265472E+03  0.7546771E-02  0.1129094E+00
         -1   -1    0    0    0  501 -0.00000000000E+00  0.00000000000E+00  0.70092764606E+03  0.70092764606E+03  0.00000000000E+00 0. -1.
          1   -1    0    0  502    0  0.00000000000E+00 -0.00000000000E+00 -0.92341585595E+02  0.92341585595E+02  0.00000000000E+00 0.  1.
          6    1    1    2  502    0 -0.77540830364E+02 -0.12402444540E+03  0.12381430551E+03  0.25817363475E+03  0.17300000000E+03 0.  1.
         -6    1    1    2    0  501  0.77540830364E+02  0.12402444540E+03  0.48477175496E+03  0.53509559691E+03  0.17300000000E+03 0.  1.
<mgrwt>
<rscale>  2 0.22654722E+03</rscale>
<asrwt>0</asrwt>
<pdfrwt beam="1">  1        1 0.14206398E-01 0.22654722E+03</pdfrwt>
<pdfrwt beam="2">  1       -1 0.10783502E+00 0.22654722E+03</pdfrwt>
<totfact> 0.34151813E+02</totfact>
</mgrwt>
</event>
<event>
 4    1  0.7368504E-001  0.1785625E+03  0.7546771E-02  0.1169202E+00
          2   -1    0    0  502    0  0.00000000000E+00  0.00000000000E+00  0.48487978844E+03  0.48487978844E+03  0.00000000000E+00 0.  1.
         -2   -1    0    0    0  501 -0.00000000000E+00 -0.00000000000E+00 -0.81988908480E+02  0.81988908480E+02  0.00000000000E+00 0. -1.
          6    1    1    2  502    0  0.48956237525E+01 -0.43950146447E+02  0.75335221785E+02  0.19380396834E+03  0.17300000000E+03 0. -1.
         -6    1    1    2    0  501 -0.48956237525E+01  0.43950146447E+02  0.32755565817E+03  0.37306472857E+03  0.17300000000E+03 0.  1.
<mgrwt>
<rscale>  2 0.17856255E+03</rscale>
<asrwt>0</asrwt>
<pdfrwt beam="1">  1        2 0.74596889E-01 0.17856255E+03</pdfrwt>
<pdfrwt beam="2">  1       -2 0.12613679E-01 0.17856255E+03</pdfrwt>
<totfact> 0.28900372E+03</totfact>
</mgrwt>
</event>
<event>
 4    1  0.7368504E-001  0.2024250E+03  0.7546771E-02  0.1147709E+00
          2   -1    0    0  502    0  0.00000000000E+00  0.00000000000E+00  0.24905087668E+02  0.24905087668E+02  0.00000000000E+00 0. -1.
         -2   -1    0    0    0  501 -0.00000000000E+00 -0.00000000000E+00 -0.16553969062E+04  0.16553969062E+04  0.00000000000E+00 0.  1.
          6    1    1    2  502    0 -0.86038297864E+02 -0.60367992531E+02 -0.88092016505E+03  0.90387843232E+03  0.17300000000E+03 0. -1.
         -6    1    1    2    0  501  0.86038297864E+02  0.60367992531E+02 -0.74957165346E+03  0.77642356153E+03  0.17300000000E+03 0. -1.
<mgrwt>
<rscale>  2 0.20242501E+03</rscale>
<asrwt>0</asrwt>
<pdfrwt beam="1">  1        2 0.38315508E-02 0.20242501E+03</pdfrwt>
<pdfrwt beam="2">  1       -2 0.25467652E+00 0.20242501E+03</pdfrwt>
<totfact> 0.15128314E+02</totfact>
</mgrwt>
</event>
<event>
 4    1  0.7368504E-001  0.1952729E+03  0.7546771E-02  0.1153790E+00
         -2   -1    0    0    0  501 -0.00000000000E+00  0.00000000000E+00  0.22039102570E+02  0.22039102570E+02  0.00000000000E+00 0. -1.
          2   -1    0    0  502    0  0.00000000000E+00 -0.00000000000E+00 -0.22410275553E+04  0.22410275553E+04  0.00000000000E+00 0.  1.
          6    1    1    2  502    0  0.82288315936E+02 -0.37830173619E+02 -0.56924788734E+03  0.60180947668E+03  0.17300000000E+03 0. -1.
         -6    1    1    2    0  501 -0.82288315936E+02  0.37830173619E+02 -0.16497405654E+04  0.16612571812E+04  0.17300000000E+03 0.  1.
<mgrwt>
<rscale>  2 0.19527286E+03</rscale>
<asrwt>0</asrwt>
<pdfrwt beam="1">  1        2 0.34477349E+00 0.19527286E+03</pdfrwt>
<pdfrwt beam="2">  1       -2 0.33906310E-02 0.19527286E+03</pdfrwt>
<totfact> 0.19641762E+03</totfact>
</mgrwt>
</event>
<event>
 4    1  0.7368504E-001  0.1945047E+03  0.7546771E-02  0.1154460E+00
          2   -1    0    0  502    0  0.00000000000E+00  0.00000000000E+00  0.36136016100E+04  0.36136016100E+04  0.00000000000E+00 0. -1.
         -2   -1    0    0    0  501 -0.00000000000E+00 -0.00000000000E+00 -0.10469422785E+02  0.10469422785E+02  0.00000000000E+00 0.  1.
          6    1    1    2  502    0  0.18442633610E+02  0.86965241144E+02  0.18061217600E+04  0.18165648614E+04  0.17300000000E+03 0. -1.
         -6    1    1    2    0  501 -0.18442633610E+02 -0.86965241144E+02  0.17970104273E+04  0.18075061714E+04  0.17300000000E+03 0. -1.
<mgrwt>
<rscale>  2 0.19450471E+03</rscale>
<asrwt>0</asrwt>
<pdfrwt beam="1">  1        2 0.55593772E+00 0.19450471E+03</pdfrwt>
<pdfrwt beam="2">  1       -2 0.16106833E-02 0.19450471E+03</pdfrwt>
<totfact> 0.92264886E+02</totfact>
</mgrwt>
</event>
<event>
 4    1  0.7368504E-001  0.2075469E+03  0.7546771E-02  0.1143523E+00
          2   -1    0    0  502    0  0.00000000000E+00  0.00000000000E+00  0.71066491851E+03  0.71066491851E+03  0.00000000000E+00 0.  1.
         -2   -1    0    0    0  501 -0.00000000000E+00 -0.00000000000E+00 -0.66936300791E+02  0.66936300791E+02  0.00000000000E+00 0. -1.
          6    1    1    2  502    0  0.23182304448E+02 -0.11229116944E+03  0.44136176627E+03  0.48772526559E+03  0.17300000000E+03 0.  1.
         -6    1    1    2    0  501 -0.23182304448E+02  0.11229116944E+03  0.20236685145E+03  0.28987595371E+03  0.17300000000E+03 0. -1.
<mgrwt>
<rscale>  2 0.20754692E+03</rscale>
<asrwt>0</asrwt>
<pdfrwt beam="1">  1        2 0.10933306E+00 0.20754692E+03</pdfrwt>
<pdfrwt beam="2">  1       -2 0.10297893E-01 0.20754692E+03</pdfrwt>
<totfact> 0.25867317E+03</totfact>
</mgrwt>
</event>
<event>
 4    1  0.7368504E-001  0.2413123E+03  0.7546771E-02  0.1118922E+00
          4   -1    0    0  502    0  0.00000000000E+00  0.00000000000E+00  0.67225772721E+03  0.67225772721E+03  0.00000000000E+00 0. -1.
         -4   -1    0    0    0  501 -0.00000000000E+00 -0.00000000000E+00 -0.87272788092E+02  0.87272788092E+02  0.00000000000E+00 0.  1.
          6    1    1    2  502    0 -0.15554962460E+03 -0.64085342231E+02  0.25967245093E+03  0.35448751539E+03  0.17300000000E+03 0. -1.
         -6    1    1    2    0  501  0.15554962460E+03  0.64085342231E+02  0.32531248820E+03  0.40504299991E+03  0.17300000000E+03 0.  1.
<mgrwt>
<rscale>  2 0.24131228E+03</rscale>
<asrwt>0</asrwt>
<pdfrwt beam="1">  1        4 0.10342426E+00 0.24131228E+03</pdfrwt>
<pdfrwt beam="2">  1       -4 0.13426583E-01 0.24131228E+03</pdfrwt>
<totfact> 0.65682161E+01</totfact>
</mgrwt>
</event>
<event>
 4    1  0.7368504E-001  0.2717046E+03  0.7546771E-02  0.1100308E+00
          1   -1    0    0  502    0  0.00000000000E+00  0.00000000000E+00  0.28165639696E+04  0.28165639696E+04  0.00000000000E+00 0. -1.
         -1   -1    0    0    0  501 -0.00000000000E+00 -0.00000000000E+00 -0.35787095256E+02  0.35787095256E+02  0.00000000000E+00 0.  1.
          6    1    1    2  502    0 -0.13671438597E+03  0.15875624808E+03  0.21281512736E+04  0.21454256484E+04  0.17300000000E+03 0. -1.
         -6    1    1    2    0  501  0.13671438597E+03 -0.15875624808E+03  0.65262560074E+03  0.70692541642E+03  0.17300000000E+03 0.  1.
<mgrwt>
<rscale>  2 0.27170456E+03</rscale>
<asrwt>0</asrwt>
<pdfrwt beam="1">  1        1 0.43331736E+00 0.27170456E+03</pdfrwt>
<pdfrwt beam="2">  1       -1 0.55057092E-02 0.27170456E+03</pdfrwt>
<totfact> 0.14752502E+02</totfact>
</mgrwt>
</event>
<event>
 4    1  0.7368504E-001  0.2246077E+03  0.7546771E-02  0.1130494E+00
          2   -1    0    0  502    0  0.00000000000E+00  0.00000000000E+00  0.62316219940E+03  0.62316219940E+03  0.00000000000E+00 0.  1.
         -2   -1    0    0    0  501 -0.00000000000E+00 -0.00000000000E+00 -0.84984786776E+02  0.84984786776E+02  0.00000000000E+00 0. -1.
          6    1    1    2  502    0 -0.12983825633E+03 -0.60511493443E+02  0.19199497322E+03  0.29548381240E+03  0.17300000000E+03 0. -1.
         -6    1    1    2    0  501  0.12983825633E+03  0.60511493443E+02  0.34618243940E+03  0.41266317378E+03  0.17300000000E+03 0.  1.
<mgrwt>
<rscale>  2 0.22460769E+03</rscale>
<asrwt>0</asrwt>
<pdfrwt beam="1">  1        2 0.95871105E-01 0.22460769E+03</pdfrwt>
<pdfrwt beam="2">  1       -2 0.13074583E-01 0.22460769E+03</pdfrwt>
<totfact> 0.20634815E+03</totfact>
</mgrwt>
</event>
<event>
 4    1  0.7368504E-001  0.1756552E+03  0.7546771E-02  0.1172075E+00
         -2   -1    0    0    0  501 -0.00000000000E+00  0.00000000000E+00  0.47523744636E+02  0.47523744636E+02  0.00000000000E+00 0.  1.
          2   -1    0    0  502    0  0.00000000000E+00 -0.00000000000E+00 -0.67414525033E+03  0.67414525033E+03  0.00000000000E+00 0. -1.
          6    1    1    2  502    0 -0.17151976411E+02 -0.25131182638E+02 -0.38265238666E+03  0.42104348427E+03  0.17300000000E+03 0. -1.
         -6    1    1    2    0  501  0.17151976411E+02  0.25131182638E+02 -0.24396911904E+03  0.30062551070E+03  0.17300000000E+03 0. -1.
<mgrwt>
<rscale>  2 0.17565525E+03</rscale>
<asrwt>0</asrwt>
<pdfrwt beam="1">  1        2 0.10371465E+00 0.17565525E+03</pdfrwt>
<pdfrwt beam="2">  1       -2 0.73113459E-02 0.17565525E+03</pdfrwt>
<totfact> 0.46886792E+03</totfact>
</mgrwt>
</event>
<event>
 4    1  0.7368504E-001  0.2371109E+03  0.7546771E-02  0.1121733E+00
         -2   -1    0    0    0  501 -0.00000000000E+00  0.00000000000E+00  0.30234828895E+02  0.30234828895E+02  0.00000000000E+00 0.  1.
          2   -1    0    0  502    0  0.00000000000E+00 -0.00000000000E+00 -0.18839658420E+04  0.18839658420E+04  0.00000000000E+00 0. -1.
          6    1    1    2  502    0 -0.12443258214E+03  0.10396691088E+03 -0.81779080939E+03  0.85147131131E+03  0.17300000000E+03 0.  1.
         -6    1    1    2    0  501  0.12443258214E+03 -0.10396691088E+03 -0.10359402037E+04  0.10627293596E+04  0.17300000000E+03 0. -1.
<mgrwt>
<rscale>  2 0.23711092E+03</rscale>
<asrwt>0</asrwt>
<pdfrwt beam="1">  1        2 0.28984086E+00 0.23711092E+03</pdfrwt>
<pdfrwt beam="2">  1       -2 0.46515127E-02 0.23711092E+03</pdfrwt>
<totfact> 0.18725406E+03</totfact>
</mgrwt>
</event>
<event>
 4    1  0.7368504E-001  0.2004282E+03  0.7546771E-02  0.1149378E+00
         -1   -1    0    0    0  501 -0.00000000000E+00  0.00000000000E+00  0.40751368003E+03  0.40751368003E+03  0.00000000000E+00 0.  1.
          1   -1    0    0  502    0  0.00000000000E+00 -0.00000000000E+00 -0.10479556665E+03  0.10479556665E+03  0.00000000000E+00 0. -1.
          6    1    1    2  502    0  0.20313541260E+02 -0.99145461199E+02  0.88960139165E+02  0.21928376318E+03  0.17300000000E+03 0. -1.
         -6    1    1    2    0  501 -0.20313541260E+02  0.99145461199E+02  0.21375797422E+03  0.29302548349E+03  0.17300000000E+03 0.  1.
<mgrwt>
<rscale>  2 0.20042820E+03</rscale>
<asrwt>0</asrwt>
<pdfrwt beam="1">  1        1 0.16122395E-01 0.20042820E+03</pdfrwt>
<pdfrwt beam="2">  1       -1 0.62694411E-01 0.20042820E+03</pdfrwt>
<totfact> 0.90054457E+02</totfact>
</mgrwt>
</event>
<event>
 4    1  0.7368504E-001  0.1891713E+03  0.7546771E-02  0.1159211E+00
          1   -1    0    0  502    0  0.00000000000E+00  0.00000000000E+00  0.42856848461E+02  0.42856848461E+02  0.00000000000E+00 0. -1.
         -1   -1    0    0    0  501 -0.00000000000E+00 -0.00000000000E+00 -0.12326844936E+04  0.12326844936E+04  0.00000000000E+00 0.  1.
          6    1    1    2  502    0  0.18588940265E+01 -0.76507124753E+02 -0.23266770665E+03  0.29986673264E+03  0.17300000000E+03 0. -1.
         -6    1    1    2    0  501 -0.18588940265E+01  0.76507124753E+02 -0.95715993849E+03  0.97567460942E+03  0.17300000000E+03 0.  1.
<mgrwt>
<rscale>  2 0.18917134E+03</rscale>
<asrwt>0</asrwt>
<pdfrwt beam="1">  1        1 0.65933624E-02 0.18917134E+03</pdfrwt>
<pdfrwt beam="2">  1       -1 0.18964374E+00 0.18917134E+03</pdfrwt>
<totfact> 0.22379061E+02</totfact>
</mgrwt>
</event>
<event>
 4    1  0.7368504E-001  0.2028711E+03  0.7546771E-02  0.1147339E+00
          1   -1    0    0  502    0  0.00000000000E+00  0.00000000000E+00  0.51331007128E+03  0.51331007128E+03  0.00000000000E+00 0.  1.
         -1   -1    0    0    0  501 -0.00000000000E+00 -0.00000000000E+00 -0.80198459659E+02  0.80198459659E+02  0.00000000000E+00 0. -1.
          6    1    1    2  502    0  0.76113724193E+02  0.73718271446E+02  0.22117966232E+03  0.30012851511E+03  0.17300000000E+03 0. -1.
         -6    1    1    2    0  501 -0.76113724193E+02 -0.73718271446E+02  0.21193194930E+03  0.29338001583E+03  0.17300000000E+03 0. -1.
<mgrwt>
<rscale>  2 0.20287110E+03</rscale>
<asrwt>0</asrwt>
<pdfrwt beam="1">  1        1 0.78970778E-01 0.20287110E+03</pdfrwt>
<pdfrwt beam="2">  1       -1 0.12338225E-01 0.20287110E+03</pdfrwt>
<totfact> 0.18980192E+03</totfact>
</mgrwt>
</event>
<event>
 4    1  0.7368504E-001  0.2636216E+03  0.7546771E-02  0.1104987E+00
          2   -1    0    0  502    0  0.00000000000E+00  0.00000000000E+00  0.15556932221E+04  0.15556932221E+04  0.00000000000E+00 0.  1.
         -2   -1    0    0    0  501 -0.00000000000E+00 -0.00000000000E+00 -0.44919330207E+02  0.44919330207E+02  0.00000000000E+00 0. -1.
          6    1    1    2  502    0  0.11553307026E+03  0.16192415722E+03  0.69603227426E+03  0.74428304416E+03  0.17300000000E+03 0.  1.
         -6    1    1    2    0  501 -0.11553307026E+03 -0.16192415722E+03  0.81474161760E+03  0.85632950811E+03  0.17300000000E+03 0. -1.
<mgrwt>
<rscale>  2 0.26362155E+03</rscale>
<asrwt>0</asrwt>
<pdfrwt beam="1">  1        2 0.23933738E+00 0.26362155E+03</pdfrwt>
<pdfrwt beam="2">  1       -2 0.69106674E-02 0.26362155E+03</pdfrwt>
<totfact> 0.15160656E+03</totfact>
</mgrwt>
</event>
<event>
 4    1  0.7368504E-001  0.2231020E+03  0.7546771E-02  0.1131591E+00
          1   -1    0    0  502    0  0.00000000000E+00  0.00000000000E+00  0.87245343217E+02  0.87245343217E+02  0.00000000000E+00 0.  1.
         -1   -1    0    0    0  501 -0.00000000000E+00 -0.00000000000E+00 -0.62842472568E+03  0.62842472568E+03  0.00000000000E+00 0. -1.
          6    1    1    2  502    0 -0.43362322528E+02 -0.13403444335E+03 -0.37921796933E+03  0.43997817137E+03  0.17300000000E+03 0. -1.
         -6    1    1    2    0  501  0.43362322528E+02  0.13403444335E+03 -0.16196141313E+03  0.27569189753E+03  0.17300000000E+03 0. -1.
<mgrwt>
<rscale>  2 0.22310205E+03</rscale>
<asrwt>0</asrwt>
<pdfrwt beam="1">  1        1 0.13422360E-01 0.22310205E+03</pdfrwt>
<pdfrwt beam="2">  1       -1 0.96680727E-01 0.22310205E+03</pdfrwt>
<totfact> 0.47020849E+02</totfact>
</mgrwt>
</event>
<event>
 4    1  0.7368504E-001  0.1833641E+03  0.7546771E-02  0.1164586E+00
         -2   -1    0    0    0  501 -0.00000000000E+00  0.00000000000E+00  0.31990014444E+02  0.31990014444E+02  0.00000000000E+00 0.  1.
          2   -1    0    0  502    0  0.00000000000E+00 -0.00000000000E+00 -0.10710753343E+04  0.10710753343E+04  0.00000000000E+00 0. -1.
          6    1    1    2  502    0  0.59200085042E+02 -0.13738570335E+02 -0.59499807387E+03  0.62261152117E+03  0.17300000000E+03 0.  1.
         -6    1    1    2    0  501 -0.59200085042E+02  0.13738570335E+02 -0.44408724599E+03  0.48045382758E+03  0.17300000000E+03 0.  1.
<mgrwt>
<rscale>  2 0.18336411E+03</rscale>
<asrwt>0</asrwt>
<pdfrwt beam="1">  1        2 0.16478079E+00 0.18336411E+03</pdfrwt>
<pdfrwt beam="2">  1       -2 0.49215415E-02 0.18336411E+03</pdfrwt>
<totfact> 0.47114799E+03</totfact>
</mgrwt>
</event>
<event>
 4    1  0.7368504E-001  0.1832339E+03  0.7546771E-02  0.1164709E+00
         -1   -1    0    0    0  501 -0.00000000000E+00  0.00000000000E+00  0.42588407941E+03  0.42588407941E+03  0.00000000000E+00 0.  1.
          1   -1    0    0  502    0  0.00000000000E+00 -0.00000000000E+00 -0.79220096549E+02  0.79220096549E+02  0.00000000000E+00 0. -1.
          6    1    1    2  502    0 -0.54198591815E+02  0.26611509725E+02  0.15572841085E+03  0.24047036772E+03  0.17300000000E+03 0.  1.
         -6    1    1    2    0  501  0.54198591815E+02 -0.26611509725E+02  0.19093557201E+03  0.26463380824E+03  0.17300000000E+03 0. -1.
<mgrwt>
<rscale>  2 0.18323389E+03</rscale>
<asrwt>0</asrwt>
<pdfrwt beam="1">  1        1 0.12187707E-01 0.18323389E+03</pdfrwt>
<pdfrwt beam="2">  1       -1 0.65520626E-01 0.18323389E+03</pdfrwt>
<totfact> 0.11911444E+03</totfact>
</mgrwt>
</event>
<event>
 4    1  0.7368504E-001  0.4096285E+03  0.7546771E-02  0.1040496E+00
         -2   -1    0    0    0  501 -0.00000000000E+00  0.00000000000E+00  0.23034391654E+04  0.23034391654E+04  0.00000000000E+00 0.  1.
          2   -1    0    0  502    0  0.00000000000E+00 -0.00000000000E+00 -0.86351699122E+02  0.86351699122E+02  0.00000000000E+00 0. -1.
          6    1    1    2  502    0 -0.35040279891E+03  0.12281840014E+03  0.63598160333E+03  0.75648402539E+03  0.17300000000E+03 0. -1.
         -6    1    1    2    0  501  0.35040279891E+03 -0.12281840014E+03  0.15811058629E+04  0.16333068391E+04  0.17300000000E+03 0.  1.
<mgrwt>
<rscale>  2 0.40962847E+03</rscale>
<asrwt>0</asrwt>
<pdfrwt beam="1">  1        2 0.13284878E-01 0.40962847E+03</pdfrwt>
<pdfrwt beam="2">  1       -2 0.35437521E+00 0.40962847E+03</pdfrwt>
<totfact> 0.75521183E+00</totfact>
</mgrwt>
</event>
<event>
 4    1  0.7368504E-001  0.1811743E+03  0.7546771E-02  0.1166671E+00
          2   -1    0    0  502    0  0.00000000000E+00  0.00000000000E+00  0.17160168366E+04  0.17160168366E+04  0.00000000000E+00 0.  1.
         -2   -1    0    0    0  501 -0.00000000000E+00 -0.00000000000E+00 -0.35530428560E+02  0.35530428560E+02  0.00000000000E+00 0. -1.
          6    1    1    2  502    0 -0.24126420930E+02  0.48093998575E+02  0.24520536035E+03  0.30487667282E+03  0.17300000000E+03 0. -1.
         -6    1    1    2    0  501  0.24126420930E+02 -0.48093998575E+02  0.14352810477E+04  0.14466705923E+04  0.17300000000E+03 0.  1.
<mgrwt>
<rscale>  2 0.18117427E+03</rscale>
<asrwt>0</asrwt>
<pdfrwt beam="1">  1        2 0.26400253E+00 0.18117427E+03</pdfrwt>
<pdfrwt beam="2">  1       -2 0.54662211E-02 0.18117427E+03</pdfrwt>
<totfact> 0.17983315E+03</totfact>
</mgrwt>
</event>
<event>
 4    1  0.7368504E-001  0.2212609E+03  0.7546771E-02  0.1132946E+00
         -2   -1    0    0    0  501 -0.00000000000E+00  0.00000000000E+00  0.21199282050E+02  0.21199282050E+02  0.00000000000E+00 0.  1.
          2   -1    0    0  502    0  0.00000000000E+00 -0.00000000000E+00 -0.24355193480E+04  0.24355193480E+04  0.00000000000E+00 0. -1.
          6    1    1    2  502    0 -0.85770276354E+02  0.10803165186E+03 -0.14867499401E+04  0.15031240010E+04  0.17300000000E+03 0. -1.
         -6    1    1    2    0  501  0.85770276354E+02 -0.10803165186E+03 -0.92757012581E+03  0.95359462898E+03  0.17300000000E+03 0. -1.
<mgrwt>
<rscale>  2 0.22126088E+03</rscale>
<asrwt>0</asrwt>
<pdfrwt beam="1">  1        2 0.37469504E+00 0.22126088E+03</pdfrwt>
<pdfrwt beam="2">  1       -2 0.32614301E-02 0.22126088E+03</pdfrwt>
<totfact> 0.16343133E+03</totfact>
</mgrwt>
</event>
<event>
 4    1  0.7368504E-001  0.2947693E+03  0.7546771E-02  0.1087885E+00
         -2   -1    0    0    0  501 -0.00000000000E+00  0.00000000000E+00  0.40530630068E+02  0.40530630068E+02  0.00000000000E+00 0. -1.
          2   -1    0    0  502    0  0.00000000000E+00 -0.00000000000E+00 -0.21472380939E+04  0.21472380939E+04  0.00000000000E+00 0.  1.
          6    1    1    2  502    0  0.18479193053E+03  0.15103595733E+03 -0.10094808994E+04  0.10516371067E+04  0.17300000000E+03 0. -1.
         -6    1    1    2    0  501 -0.18479193053E+03 -0.15103595733E+03 -0.10972265644E+04  0.11361316172E+04  0.17300000000E+03 0. -1.
<mgrwt>
<rscale>  2 0.29476926E+03</rscale>
<asrwt>0</asrwt>
<pdfrwt beam="1">  1        2 0.33034433E+00 0.29476926E+03</pdfrwt>
<pdfrwt beam="2">  1       -2 0.62354815E-02 0.29476926E+03</pdfrwt>
<totfact> 0.86357871E+02</totfact>
</mgrwt>
</event>
<event>
 4    1  0.7368504E-001  0.2337093E+03  0.7546771E-02  0.1124056E+00
         -1   -1    0    0    0  501 -0.00000000000E+00  0.00000000000E+00  0.46129017535E+03  0.46129017535E+03  0.00000000000E+00 0. -1.
          1   -1    0    0  502    0  0.00000000000E+00 -0.00000000000E+00 -0.25628987358E+03  0.25628987358E+03  0.00000000000E+00 0.  1.
          6    1    1    2  502    0 -0.40427651546E+02  0.15184417340E+03  0.36566603416E+03  0.43397199973E+03  0.17300000000E+03 0. -1.
         -6    1    1    2    0  501  0.40427651546E+02 -0.15184417340E+03 -0.16066573239E+03  0.28360804920E+03  0.17300000000E+03 0.  1.
<mgrwt>
<rscale>  2 0.23370932E+03</rscale>
<asrwt>0</asrwt>
<pdfrwt beam="1">  1        1 0.39429211E-01 0.23370932E+03</pdfrwt>
<pdfrwt beam="2">  1       -1 0.70967719E-01 0.23370932E+03</pdfrwt>
<totfact> 0.22561698E+02</totfact>
</mgrwt>
</event>
<event>
 4    1  0.7368504E-001  0.1940479E+03  0.7546771E-02  0.1154860E+00
          1   -1    0    0  502    0  0.00000000000E+00  0.00000000000E+00  0.17228325470E+03  0.17228325470E+03  0.00000000000E+00 0. -1.
         -1   -1    0    0    0  501 -0.00000000000E+00 -0.00000000000E+00 -0.22025910898E+03  0.22025910898E+03  0.00000000000E+00 0.  1.
          6    1    1    2  502    0  0.87858679395E+02 -0.25386706456E+01 -0.41215728162E+02  0.19837673412E+03  0.17300000000E+03 0. -1.
         -6    1    1    2    0  501 -0.87858679395E+02  0.25386706456E+01 -0.67601261149E+01  0.19416562955E+03  0.17300000000E+03 0.  1.
<mgrwt>
<rscale>  2 0.19404791E+03</rscale>
<asrwt>0</asrwt>
<pdfrwt beam="1">  1        1 0.26505116E-01 0.19404791E+03</pdfrwt>
<pdfrwt beam="2">  1       -1 0.33886017E-01 0.19404791E+03</pdfrwt>
<totfact> 0.14566794E+03</totfact>
</mgrwt>
</event>
<event>
 4    1  0.7368504E-001  0.2034258E+03  0.7546771E-02  0.1146880E+00
          1   -1    0    0  502    0  0.00000000000E+00  0.00000000000E+00  0.79942790239E+02  0.79942790239E+02  0.00000000000E+00 0. -1.
         -1   -1    0    0    0  501 -0.00000000000E+00 -0.00000000000E+00 -0.93811353314E+03  0.93811353314E+03  0.00000000000E+00 0.  1.
          6    1    1    2  502    0  0.10458487903E+03  0.22694595508E+02 -0.76987039303E+03  0.79629295090E+03  0.17300000000E+03 0.  1.
         -6    1    1    2    0  501 -0.10458487903E+03 -0.22694595508E+02 -0.88300349870E+02  0.22176337248E+03  0.17300000000E+03 0. -1.
<mgrwt>
<rscale>  2 0.20342576E+03</rscale>
<asrwt>0</asrwt>
<pdfrwt beam="1">  1        1 0.12298891E-01 0.20342576E+03</pdfrwt>
<pdfrwt beam="2">  1       -1 0.14432516E+00 0.20342576E+03</pdfrwt>
<totfact> 0.20457350E+02</totfact>
</mgrwt>
</event>
<event>
 4    1  0.7368504E-001  0.1970280E+03  0.7546771E-02  0.1152271E+00
         -2   -1    0    0    0  501 -0.00000000000E+00  0.00000000000E+00  0.24473933050E+02  0.24473933050E+02  0.00000000000E+00 0.  1.
          2   -1    0    0  502    0  0.00000000000E+00 -0.00000000000E+00 -0.16450663697E+04  0.16450663697E+04  0.00000000000E+00 0. -1.
          6    1    1    2  502    0 -0.36696402017E+02 -0.86858530915E+02 -0.96823454563E+03  0.98807801598E+03  0.17300000000E+03 0. -1.
         -6    1    1    2    0  501  0.36696402017E+02  0.86858530915E+02 -0.65235789105E+03  0.68146228680E+03  0.17300000000E+03 0. -1.
<mgrwt>
<rscale>  2 0.19702799E+03</rscale>
<asrwt>0</asrwt>
<pdfrwt beam="1">  1        2 0.25308722E+00 0.19702799E+03</pdfrwt>
<pdfrwt beam="2">  1       -2 0.37652192E-02 0.19702799E+03</pdfrwt>
<totfact> 0.34330930E+03</totfact>
</mgrwt>
</event>
<event>
 4    1  0.7368504E-001  0.2250801E+03  0.7546771E-02  0.1130151E+00
         -2   -1    0    0    0  501 -0.00000000000E+00  0.00000000000E+00  0.66192283703E+02  0.66192283703E+02  0.00000000000E+00 0.  1.
          2   -1    0    0  502    0  0.00000000000E+00 -0.00000000000E+00 -0.77253500352E+03  0.77253500352E+03  0.00000000000E+00 0. -1.
          6    1    1    2  502    0 -0.67721094244E+02  0.12706652173E+03 -0.39358121443E+03  0.45339521381E+03  0.17300000000E+03 0. -1.
         -6    1    1    2    0  501  0.67721094244E+02 -0.12706652173E+03 -0.31276150539E+03  0.38533207342E+03  0.17300000000E+03 0.  1.
<mgrwt>
<rscale>  2 0.22508009E+03</rscale>
<asrwt>0</asrwt>
<pdfrwt beam="1">  1        2 0.11885153E+00 0.22508009E+03</pdfrwt>
<pdfrwt beam="2">  1       -2 0.10183429E-01 0.22508009E+03</pdfrwt>
<totfact> 0.23795457E+03</totfact>
</mgrwt>
</event>
<event>
 4    1  0.7368504E-001  0.2316198E+03  0.7546771E-02  0.1125505E+00
         -2   -1    0    0    0  501 -0.00000000000E+00  0.00000000000E+00  0.24634808527E+03  0.24634808527E+03  0.00000000000E+00 0. -1.
          2   -1    0    0  502    0  0.00000000000E+00 -0.00000000000E+00 -0.64951521085E+03  0.64951521085E+03  0.00000000000E+00 0.  1.
          6    1    1    2  502    0 -0.14110606865E+03 -0.61707576638E+02 -0.56678272903E+03  0.61228294893E+03  0.17300000000E+03 0.  1.
         -6    1    1    2    0  501  0.14110606865E+03  0.61707576638E+02  0.16361560344E+03  0.28358034719E+03  0.17300000000E+03 0. -1.
<mgrwt>
<rscale>  2 0.23161983E+03</rscale>
<asrwt>0</asrwt>
<pdfrwt beam="1">  1        2 0.99925414E-01 0.23161983E+03</pdfrwt>
<pdfrwt beam="2">  1       -2 0.37899707E-01 0.23161983E+03</pdfrwt>
<totfact> 0.30692359E+02</totfact>
</mgrwt>
</event>
<event>
 4    1  0.7368504E-001  0.1922589E+03  0.7546771E-02  0.1156440E+00
         -2   -1    0    0    0  501 -0.00000000000E+00  0.00000000000E+00  0.11336640657E+03  0.11336640657E+03  0.00000000000E+00 0. -1.
          2   -1    0    0  502    0  0.00000000000E+00 -0.00000000000E+00 -0.32681167640E+03  0.32681167640E+03  0.00000000000E+00 0.  1.
          6    1    1    2  502    0  0.54791048730E+02  0.63501401361E+02 -0.96120286322E+02  0.21494789238E+03  0.17300000000E+03 0.  1.
         -6    1    1    2    0  501 -0.54791048730E+02 -0.63501401361E+02 -0.11732498351E+03  0.22523019059E+03  0.17300000000E+03 0.  1.
<mgrwt>
<rscale>  2 0.19225891E+03</rscale>
<asrwt>0</asrwt>
<pdfrwt beam="1">  1        2 0.50278720E-01 0.19225891E+03</pdfrwt>
<pdfrwt beam="2">  1       -2 0.17440986E-01 0.19225891E+03</pdfrwt>
<totfact> 0.26074705E+03</totfact>
</mgrwt>
</event>
<event>
 4    1  0.7368504E-001  0.1896097E+03  0.7546771E-02  0.1158814E+00
          1   -1    0    0  502    0  0.00000000000E+00  0.00000000000E+00  0.71943539418E+03  0.71943539418E+03  0.00000000000E+00 0. -1.
         -1   -1    0    0    0  501 -0.00000000000E+00 -0.00000000000E+00 -0.60025184480E+02  0.60025184480E+02  0.00000000000E+00 0.  1.
          6    1    1    2  502    0  0.81698237209E+01  0.77175762056E+02  0.48919848659E+03  0.52465894022E+03  0.17300000000E+03 0. -1.
         -6    1    1    2    0  501 -0.81698237209E+01 -0.77175762056E+02  0.17021172311E+03  0.25480163844E+03  0.17300000000E+03 0. -1.
<mgrwt>
<rscale>  2 0.18960972E+03</rscale>
<asrwt>0</asrwt>
<pdfrwt beam="1">  1        1 0.11068236E+00 0.18960972E+03</pdfrwt>
<pdfrwt beam="2">  1       -1 0.92346443E-02 0.18960972E+03</pdfrwt>
<totfact> 0.18569757E+03</totfact>
</mgrwt>
</event>
<event>
 4    1  0.7368504E-001  0.1929472E+03  0.7546771E-02  0.1155830E+00
          2   -1    0    0  502    0  0.00000000000E+00  0.00000000000E+00  0.54258461968E+03  0.54258461968E+03  0.00000000000E+00 0. -1.
         -2   -1    0    0    0  501 -0.00000000000E+00 -0.00000000000E+00 -0.71498574512E+02  0.71498574512E+02  0.00000000000E+00 0.  1.
          6    1    1    2  502    0  0.43792378051E+02  0.73361033680E+02  0.17386516440E+03  0.25972621937E+03  0.17300000000E+03 0. -1.
         -6    1    1    2    0  501 -0.43792378051E+02 -0.73361033680E+02  0.29722088076E+03  0.35435697481E+03  0.17300000000E+03 0. -1.
<mgrwt>
<rscale>  2 0.19294718E+03</rscale>
<asrwt>0</asrwt>
<pdfrwt beam="1">  1        2 0.83474554E-01 0.19294718E+03</pdfrwt>
<pdfrwt beam="2">  1       -2 0.10999781E-01 0.19294718E+03</pdfrwt>
<totfact> 0.31843946E+03</totfact>
</mgrwt>
</event>
<event>
 4    1  0.7368504E-001  0.7760564E+03  0.7546771E-02  0.9595336E-01
         -2   -1    0    0    0  501 -0.00000000000E+00  0.00000000000E+00  0.30966832195E+03  0.30966832195E+03  0.00000000000E+00 0. -1.
          2   -1    0    0  502    0  0.00000000000E+00 -0.00000000000E+00 -0.19519210002E+04  0.19519210002E+04  0.00000000000E+00 0.  1.
          6    1    1    2  502    0 -0.60866668346E+01 -0.75650341648E+03 -0.75314439344E+03  0.10814295835E+04  0.17300000000E+03 0. -1.
         -6    1    1    2    0  501  0.60866668346E+01  0.75650341648E+03 -0.88910828482E+03  0.11801597387E+04  0.17300000000E+03 0.  1.
<mgrwt>
<rscale>  2 0.77605636E+03</rscale>
<asrwt>0</asrwt>
<pdfrwt beam="1">  1        2 0.30029554E+00 0.77605636E+03</pdfrwt>
<pdfrwt beam="2">  1       -2 0.47641280E-01 0.77605636E+03</pdfrwt>
<totfact> 0.30500109E+01</totfact>
</mgrwt>
</event>
<event>
 4    1  0.7368504E-001  0.2033635E+03  0.7546771E-02  0.1146932E+00
          2   -1    0    0  502    0  0.00000000000E+00  0.00000000000E+00  0.11635615575E+04  0.11635615575E+04  0.00000000000E+00 0.  1.
         -2   -1    0    0    0  501 -0.00000000000E+00 -0.00000000000E+00 -0.47030728463E+02  0.47030728463E+02  0.00000000000E+00 0. -1.
          6    1    1    2  502    0  0.71179415829E+02  0.79757173347E+02  0.85741617672E+03  0.88120327737E+03  0.17300000000E+03 0.  1.
         -6    1    1    2    0  501 -0.71179415829E+02 -0.79757173347E+02  0.25911465230E+03  0.32938900858E+03  0.17300000000E+03 0. -1.
<mgrwt>
<rscale>  2 0.20336351E+03</rscale>
<asrwt>0</asrwt>
<pdfrwt beam="1">  1        2 0.17900945E+00 0.20336351E+03</pdfrwt>
<pdfrwt beam="2">  1       -2 0.72354976E-02 0.20336351E+03</pdfrwt>
<totfact> 0.23152801E+03</totfact>
</mgrwt>
</event>
<event>
 4    1  0.7368504E-001  0.1785598E+03  0.7546771E-02  0.1169204E+00
          2   -1    0    0  502    0  0.00000000000E+00  0.00000000000E+00  0.16597262190E+04  0.16597262190E+04  0.00000000000E+00 0. -1.
         -2   -1    0    0    0  501 -0.00000000000E+00 -0.00000000000E+00 -0.19210179755E+02  0.19210179755E+02  0.00000000000E+00 0.  1.
          6    1    1    2  502    0  0.10227638313E+02  0.43011778283E+02  0.81957100734E+03  0.83879690851E+03  0.17300000000E+03 0.  1.
         -6    1    1    2    0  501 -0.10227638313E+02 -0.43011778283E+02  0.82094503193E+03  0.84013949027E+03  0.17300000000E+03 0. -1.
<mgrwt>
<rscale>  2 0.17855984E+03</rscale>
<asrwt>0</asrwt>
<pdfrwt beam="1">  1        2 0.25534238E+00 0.17855984E+03</pdfrwt>
<pdfrwt beam="2">  1       -2 0.29554136E-02 0.17855984E+03</pdfrwt>
<totfact> 0.48306356E+03</totfact>
</mgrwt>
</event>
<event>
 4    1  0.7368504E-001  0.2164468E+03  0.7546771E-02  0.1136560E+00
          1   -1    0    0  502    0  0.00000000000E+00  0.00000000000E+00  0.16223764529E+03  0.16223764529E+03  0.00000000000E+00 0. -1.
         -1   -1    0    0    0  501 -0.00000000000E+00 -0.00000000000E+00 -0.28889933631E+03  0.28889933631E+03  0.00000000000E+00 0.  1.
          6    1    1    2  502    0 -0.96514142594E+02 -0.87207908554E+02 -0.68122377574E+02  0.22691376635E+03  0.17300000000E+03 0.  1.
         -6    1    1    2    0  501  0.96514142594E+02  0.87207908554E+02 -0.58539313440E+02  0.22422321524E+03  0.17300000000E+03 0. -1.
<mgrwt>
<rscale>  2 0.21644676E+03</rscale>
<asrwt>0</asrwt>
<pdfrwt beam="1">  1        1 0.24959638E-01 0.21644676E+03</pdfrwt>
<pdfrwt beam="2">  1       -1 0.44446051E-01 0.21644676E+03</pdfrwt>
<totfact> 0.97650144E+02</totfact>
</mgrwt>
</event>
<event>
 4    1  0.7368504E-001  0.2958082E+03  0.7546771E-02  0.1087355E+00
         -2   -1    0    0    0  501 -0.00000000000E+00  0.00000000000E+00  0.38814343667E+03  0.38814343667E+03  0.00000000000E+00 0. -1.
          2   -1    0    0  502    0  0.00000000000E+00 -0.00000000000E+00 -0.65017694878E+03  0.65017694878E+03  0.00000000000E+00 0.  1.
          6    1    1    2  502    0 -0.10505796672E+03  0.21572273131E+03  0.28859378591E+03  0.41326607221E+03  0.17300000000E+03 0. -1.
         -6    1    1    2    0  501  0.10505796672E+03 -0.21572273131E+03 -0.55062729802E+03  0.62505431324E+03  0.17300000000E+03 0.  1.
<mgrwt>
<rscale>  2 0.29580817E+03</rscale>
<asrwt>0</asrwt>
<pdfrwt beam="1">  1        2 0.10002722E+00 0.29580817E+03</pdfrwt>
<pdfrwt beam="2">  1       -2 0.59714375E-01 0.29580817E+03</pdfrwt>
<totfact> 0.12351152E+02</totfact>
</mgrwt>
</event>
<event>
 4    1  0.7368504E-001  0.2198905E+03  0.7546771E-02  0.1133965E+00
          2   -1    0    0  502    0  0.00000000000E+00  0.00000000000E+00  0.86704835615E+03  0.86704835615E+03  0.00000000000E+00 0. -1.
         -2   -1    0    0    0  501 -0.00000000000E+00 -0.00000000000E+00 -0.61772632760E+02  0.61772632760E+02  0.00000000000E+00 0.  1.
          6    1    1    2  502    0 -0.12770773511E+03  0.45973462603E+02  0.25782096077E+03  0.33885612387E+03  0.17300000000E+03 0.  1.
         -6    1    1    2    0  501  0.12770773511E+03 -0.45973462603E+02  0.54745476261E+03  0.58996486504E+03  0.17300000000E+03 0. -1.
<mgrwt>
<rscale>  2 0.21989048E+03</rscale>
<asrwt>0</asrwt>
<pdfrwt beam="1">  1        2 0.13339205E+00 0.21989048E+03</pdfrwt>
<pdfrwt beam="2">  1       -2 0.95034826E-02 0.21989048E+03</pdfrwt>
<totfact> 0.22895445E+03</totfact>
</mgrwt>
</event>
<event>
 4    1  0.7368504E-001  0.2009869E+03  0.7546771E-02  0.1148909E+00
          2   -1    0    0  502    0  0.00000000000E+00  0.00000000000E+00  0.25742732474E+03  0.25742732474E+03  0.00000000000E+00 0. -1.
         -2   -1    0    0    0  501 -0.00000000000E+00 -0.00000000000E+00 -0.17455643302E+03  0.17455643302E+03  0.00000000000E+00 0.  1.
          6    1    1    2  502    0 -0.87155782077E+02 -0.53577985490E+02 -0.27218203200E+02  0.20282150148E+03  0.17300000000E+03 0.  1.
         -6    1    1    2    0  501  0.87155782077E+02  0.53577985490E+02  0.11008909492E+03  0.22916225627E+03  0.17300000000E+03 0. -1.
<mgrwt>
<rscale>  2 0.20098689E+03</rscale>
<asrwt>0</asrwt>
<pdfrwt beam="1">  1        2 0.39604204E-01 0.20098689E+03</pdfrwt>
<pdfrwt beam="2">  1       -2 0.26854836E-01 0.20098689E+03</pdfrwt>
<totfact> 0.16015430E+03</totfact>
</mgrwt>
</event>
<event>
 4    1  0.7368504E-001  0.2494876E+03  0.7546771E-02  0.1113629E+00
         -1   -1    0    0    0  501 -0.00000000000E+00  0.00000000000E+00  0.23235790181E+03  0.23235790181E+03  0.00000000000E+00 0. -1.
          1   -1    0    0  502    0  0.00000000000E+00 -0.00000000000E+00 -0.40225276630E+03  0.40225276630E+03  0.00000000000E+00 0.  1.
          6    1    1    2  502    0 -0.56903944176E+02  0.17051980116E+03  0.98445796404E+02  0.26820819577E+03  0.17300000000E+03 0. -1.
         -6    1    1    2    0  501  0.56903944176E+02 -0.17051980116E+03 -0.26834066089E+03  0.36640247234E+03  0.17300000000E+03 0.  1.
<mgrwt>
<rscale>  2 0.24948760E+03</rscale>
<asrwt>0</asrwt>
<pdfrwt beam="1">  1        1 0.61885041E-01 0.24948760E+03</pdfrwt>
<pdfrwt beam="2">  1       -1 0.35747369E-01 0.24948760E+03</pdfrwt>
<totfact> 0.45634661E+02</totfact>
</mgrwt>
</event>
<event>
 4    1  0.7368504E-001  0.2423140E+03  0.7546771E-02  0.1118261E+00
         -2   -1    0    0    0  501 -0.00000000000E+00  0.00000000000E+00  0.11079824060E+03  0.11079824060E+03  0.00000000000E+00 0.  1.
          2   -1    0    0  502    0  0.00000000000E+00 -0.00000000000E+00 -0.56233255131E+03  0.56233255131E+03  0.00000000000E+00 0. -1.
          6    1    1    2  502    0 -0.15959315031E+03 -0.57594440397E+02 -0.30654926241E+03  0.39075381441E+03  0.17300000000E+03 0. -1.
         -6    1    1    2    0  501  0.15959315031E+03  0.57594440397E+02 -0.14498504830E+03  0.28237697750E+03  0.17300000000E+03 0.  1.
<mgrwt>
<rscale>  2 0.24231404E+03</rscale>
<asrwt>0</asrwt>
<pdfrwt beam="1">  1        2 0.86512701E-01 0.24231404E+03</pdfrwt>
<pdfrwt beam="2">  1       -2 0.17045883E-01 0.24231404E+03</pdfrwt>
<totfact> 0.15007308E+03</totfact>
</mgrwt>
</event>
<event>
 4    1  0.7368504E-001  0.2359667E+03  0.7546771E-02  0.1122509E+00
          1   -1    0    0  502    0  0.00000000000E+00  0.00000000000E+00  0.38215745334E+03  0.38215745334E+03  0.00000000000E+00 0. -1.
         -1   -1    0    0    0  501 -0.00000000000E+00 -0.00000000000E+00 -0.37920423532E+03  0.37920423532E+03  0.00000000000E+00 0.  1.
          6    1    1    2  502    0  0.10975354158E+03  0.11707015649E+03 -0.29724869299E+03  0.37952212967E+03  0.17300000000E+03 0.  1.
         -6    1    1    2    0  501 -0.10975354158E+03 -0.11707015649E+03  0.30020191101E+03  0.38183955898E+03  0.17300000000E+03 0. -1.
<mgrwt>
<rscale>  2 0.23596665E+03</rscale>
<asrwt>0</asrwt>
<pdfrwt beam="1">  1        1 0.58793455E-01 0.23596665E+03</pdfrwt>
<pdfrwt beam="2">  1       -1 0.58339113E-01 0.23596665E+03</pdfrwt>
<totfact> 0.19985365E+02</totfact>
</mgrwt>
</event>
<event>
 4    1  0.7368504E-001  0.1946513E+03  0.7546771E-02  0.1154332E+00
         -2   -1    0    0    0  501 -0.00000000000E+00  0.00000000000E+00  0.30823367639E+03  0.30823367639E+03  0.00000000000E+00 0. -1.
          2   -1    0    0  502    0  0.00000000000E+00 -0.00000000000E+00 -0.13136663026E+03  0.13136663026E+03  0.00000000000E+00 0.  1.
          6    1    1    2  502    0 -0.88863341538E+02 -0.79637146258E+01  0.32709659623E+02  0.19738043483E+03  0.17300000000E+03 0.  1.
         -6    1    1    2    0  501  0.88863341538E+02  0.79637146258E+01  0.14415738651E+03  0.24221987182E+03  0.17300000000E+03 0. -1.
<mgrwt>
<rscale>  2 0.19465126E+03</rscale>
<asrwt>0</asrwt>
<pdfrwt beam="1">  1        2 0.20210251E-01 0.19465126E+03</pdfrwt>
<pdfrwt beam="2">  1       -2 0.47420565E-01 0.19465126E+03</pdfrwt>
<totfact> 0.11613889E+03</totfact>
</mgrwt>
</event>
<event>
 4    1  0.7368504E-001  0.2169952E+03  0.7546771E-02  0.1136143E+00
          1   -1    0    0  502    0  0.00000000000E+00  0.00000000000E+00  0.40526957351E+03  0.40526957351E+03  0.00000000000E+00 0.  1.
         -1   -1    0    0    0  501 -0.00000000000E+00 -0.00000000000E+00 -0.11669029120E+03  0.11669029120E+03  0.00000000000E+00 0. -1.
          6    1    1    2  502    0 -0.66048872405E+02  0.11311709396E+03  0.12714482109E+03  0.25150096625E+03  0.17300000000E+03 0. -1.
         -6    1    1    2    0  501  0.66048872405E+02 -0.11311709396E+03  0.16143446122E+03  0.27045889847E+03  0.17300000000E+03 0. -1.
<mgrwt>
<rscale>  2 0.21699523E+03</rscale>
<asrwt>0</asrwt>
<pdfrwt beam="1">  1        1 0.62349164E-01 0.21699523E+03</pdfrwt>
<pdfrwt beam="2">  1       -1 0.17952353E-01 0.21699523E+03</pdfrwt>
<totfact> 0.14278799E+03</totfact>
</mgrwt>
</event>
<event>
 4    1  0.7368504E-001  0.1923529E+03  0.7546771E-02  0.1156356E+00
         -2   -1    0    0    0  501 -0.00000000000E+00  0.00000000000E+00  0.28465669728E+02  0.28465669728E+02  0.00000000000E+00 0.  1.
          2   -1    0    0  502    0  0.00000000000E+00 -0.00000000000E+00 -0.13400053223E+04  0.13400053223E+04  0.00000000000E+00 0. -1.
          6    1    1    2  502    0 -0.72404748454E+02  0.42757493722E+02 -0.53724777265E+03  0.57064421497E+03  0.17300000000E+03 0. -1.
         -6    1    1    2    0  501  0.72404748454E+02 -0.42757493722E+02 -0.77429187993E+03  0.79782677706E+03  0.17300000000E+03 0. -1.
<mgrwt>
<rscale>  2 0.19235293E+03</rscale>
<asrwt>0</asrwt>
<pdfrwt beam="1">  1        2 0.20615460E+00 0.19235293E+03</pdfrwt>
<pdfrwt beam="2">  1       -2 0.43793353E-02 0.19235293E+03</pdfrwt>
<totfact> 0.39717843E+03</totfact>
</mgrwt>
</event>
<event>
 4    1  0.7368504E-001  0.2229675E+03  0.7546771E-02  0.1131690E+00
         -2   -1    0    0    0  501 -0.00000000000E+00  0.00000000000E+00  0.22211764313E+04  0.22211764313E+04  0.00000000000E+00 0.  1.
          2   -1    0    0  502    0  0.00000000000E+00 -0.00000000000E+00 -0.23615247175E+02  0.23615247175E+02  0.00000000000E+00 0. -1.
          6    1    1    2  502    0  0.14055000770E+03 -0.55844171958E+01  0.13552676123E+04  0.13734863637E+04  0.17300000000E+03 0.  1.
         -6    1    1    2    0  501 -0.14055000770E+03  0.55844171958E+01  0.84229357180E+03  0.87130531473E+03  0.17300000000E+03 0. -1.
<mgrwt>
<rscale>  2 0.22296746E+03</rscale>
<asrwt>0</asrwt>
<pdfrwt beam="1">  1        2 0.36331167E-02 0.22296746E+03</pdfrwt>
<pdfrwt beam="2">  1       -2 0.34171929E+00 0.22296746E+03</pdfrwt>
<totfact> 0.50282206E+01</totfact>
</mgrwt>
</event>
<event>
 4    1  0.7368504E-001  0.2074240E+03  0.7546771E-02  0.1143622E+00
         -1   -1    0    0    0  501 -0.00000000000E+00  0.00000000000E+00  0.59330805015E+03  0.59330805015E+03  0.00000000000E+00 0.  1.
          1   -1    0    0  502    0  0.00000000000E+00 -0.00000000000E+00 -0.79376653999E+02  0.79376653999E+02  0.00000000000E+00 0. -1.
          6    1    1    2  502    0  0.10329743448E+03  0.49247719368E+02  0.35584334319E+03  0.41188491442E+03  0.17300000000E+03 0.  1.
         -6    1    1    2    0  501 -0.10329743448E+03 -0.49247719368E+02  0.15808805296E+03  0.26079978973E+03  0.17300000000E+03 0.  1.
<mgrwt>
<rscale>  2 0.20742396E+03</rscale>
<asrwt>0</asrwt>
<pdfrwt beam="1">  1        1 0.12211793E-01 0.20742396E+03</pdfrwt>
<pdfrwt beam="2">  1       -1 0.91278159E-01 0.20742396E+03</pdfrwt>
<totfact> 0.60372651E+02</totfact>
</mgrwt>
</event>
<event>
 4    1  0.7368504E-001  0.1928292E+03  0.7546771E-02  0.1155934E+00
         -2   -1    0    0    0  501 -0.00000000000E+00  0.00000000000E+00  0.54687425500E+02  0.54687425500E+02  0.00000000000E+00 0.  1.
          2   -1    0    0  502    0  0.00000000000E+00 -0.00000000000E+00 -0.23845363624E+04  0.23845363624E+04  0.00000000000E+00 0. -1.
          6    1    1    2  502    0 -0.81023578950E+02 -0.26253919744E+02 -0.21961008790E+04  0.22045503304E+04  0.17300000000E+03 0. -1.
         -6    1    1    2    0  501  0.81023578950E+02  0.26253919744E+02 -0.13374805789E+03  0.23467345746E+03  0.17300000000E+03 0.  1.
<mgrwt>
<rscale>  2 0.19282917E+03</rscale>
<asrwt>0</asrwt>
<pdfrwt beam="1">  1        2 0.36685171E+00 0.19282917E+03</pdfrwt>
<pdfrwt beam="2">  1       -2 0.84134510E-02 0.19282917E+03</pdfrwt>
<totfact> 0.41358341E+02</totfact>
</mgrwt>
</event>
<event>
 4    1  0.7368504E-001  0.2258786E+03  0.7546771E-02  0.1129575E+00
          2   -1    0    0  502    0  0.00000000000E+00  0.00000000000E+00  0.72743351990E+02  0.72743351990E+02  0.00000000000E+00 0. -1.
         -2   -1    0    0    0  501 -0.00000000000E+00 -0.00000000000E+00 -0.10127933402E+04  0.10127933402E+04  0.00000000000E+00 0.  1.
          6    1    1    2  502    0  0.93211906210E+02  0.11137190898E+03 -0.77099178966E+03  0.80339871875E+03  0.17300000000E+03 0.  1.
         -6    1    1    2    0  501 -0.93211906210E+02 -0.11137190898E+03 -0.16905819860E+03  0.28213797349E+03  0.17300000000E+03 0. -1.
<mgrwt>
<rscale>  2 0.22587864E+03</rscale>
<asrwt>0</asrwt>
<pdfrwt beam="1">  1        2 0.11191285E-01 0.22587864E+03</pdfrwt>
<pdfrwt beam="2">  1       -2 0.15581437E+00 0.22587864E+03</pdfrwt>
<totfact> 0.16029834E+02</totfact>
</mgrwt>
</event>
<event>
 4    1  0.7368504E-001  0.2027321E+03  0.7546771E-02  0.1147454E+00
          2   -1    0    0  502    0  0.00000000000E+00  0.00000000000E+00  0.46246786013E+03  0.46246786013E+03  0.00000000000E+00 0. -1.
         -2   -1    0    0    0  501 -0.00000000000E+00 -0.00000000000E+00 -0.91287095477E+02  0.91287095477E+02  0.00000000000E+00 0.  1.
          6    1    1    2  502    0 -0.10326519187E+03 -0.22530221095E+02  0.14055271026E+03  0.24668882236E+03  0.17300000000E+03 0.  1.
         -6    1    1    2    0  501  0.10326519187E+03  0.22530221095E+02  0.23062805439E+03  0.30706613325E+03  0.17300000000E+03 0. -1.
<mgrwt>
<rscale>  2 0.20273212E+03</rscale>
<asrwt>0</asrwt>
<pdfrwt beam="1">  1        2 0.71148900E-01 0.20273212E+03</pdfrwt>
<pdfrwt beam="2">  1       -2 0.14044169E-01 0.20273212E+03</pdfrwt>
<totfact> 0.25670881E+03</totfact>
</mgrwt>
</event>
<event>
 4    1  0.7368504E-001  0.1745367E+03  0.7546771E-02  0.1173198E+00
         -2   -1    0    0    0  501 -0.00000000000E+00  0.00000000000E+00  0.15521958269E+03  0.15521958269E+03  0.00000000000E+00 0. -1.
          2   -1    0    0  502    0  0.00000000000E+00 -0.00000000000E+00 -0.24350961556E+03  0.24350961556E+03  0.00000000000E+00 0.  1.
          6    1    1    2  502    0 -0.19745937185E+02  0.12006463165E+02  0.43676136900E+02  0.17991848745E+03  0.17300000000E+03 0. -1.
         -6    1    1    2    0  501  0.19745937185E+02 -0.12006463165E+02 -0.13196616977E+03  0.21881071079E+03  0.17300000000E+03 0.  1.
<mgrwt>
<rscale>  2 0.17453669E+03</rscale>
<asrwt>0</asrwt>
<pdfrwt beam="1">  1        2 0.37463018E-01 0.17453669E+03</pdfrwt>
<pdfrwt beam="2">  1       -2 0.23879936E-01 0.17453669E+03</pdfrwt>
<totfact> 0.20819863E+03</totfact>
</mgrwt>
</event>
<event>
 4    1  0.7368504E-001  0.1933575E+03  0.7546771E-02  0.1155467E+00
          1   -1    0    0  502    0  0.00000000000E+00  0.00000000000E+00  0.11847720256E+03  0.11847720256E+03  0.00000000000E+00 0.  1.
         -1   -1    0    0    0  501 -0.00000000000E+00 -0.00000000000E+00 -0.31692458831E+03  0.31692458831E+03  0.00000000000E+00 0. -1.
          6    1    1    2  502    0  0.83740989602E+02 -0.21108854725E+02 -0.84959425515E+02  0.21119952905E+03  0.17300000000E+03 0.  1.
         -6    1    1    2    0  501 -0.83740989602E+02  0.21108854725E+02 -0.11348796023E+03  0.22420226182E+03  0.17300000000E+03 0. -1.
<mgrwt>
<rscale>  2 0.19335754E+03</rscale>
<asrwt>0</asrwt>
<pdfrwt beam="1">  1        1 0.18227262E-01 0.19335754E+03</pdfrwt>
<pdfrwt beam="2">  1       -1 0.48757628E-01 0.19335754E+03</pdfrwt>
<totfact> 0.12320366E+03</totfact>
</mgrwt>
</event>
<event>
 4    1  0.7368504E-001  0.2110530E+03  0.7546771E-02  0.1140735E+00
          2   -1    0    0  502    0  0.00000000000E+00  0.00000000000E+00  0.36865565371E+03  0.36865565371E+03  0.00000000000E+00 0.  1.
         -2   -1    0    0    0  501 -0.00000000000E+00 -0.00000000000E+00 -0.13029187601E+03  0.13029187601E+03  0.00000000000E+00 0. -1.
          6    1    1    2  502    0 -0.11982438113E+03 -0.16014718350E+02  0.18642322263E+03  0.28159717941E+03  0.17300000000E+03 0.  1.
         -6    1    1    2    0  501  0.11982438113E+03  0.16014718350E+02  0.51940555074E+02  0.21735035031E+03  0.17300000000E+03 0. -1.
<mgrwt>
<rscale>  2 0.21105296E+03</rscale>
<asrwt>0</asrwt>
<pdfrwt beam="1">  1        2 0.56716254E-01 0.21105296E+03</pdfrwt>
<pdfrwt beam="2">  1       -2 0.20044904E-01 0.21105296E+03</pdfrwt>
<totfact> 0.18147553E+03</totfact>
</mgrwt>
</event>
<event>
 4    1  0.7368504E-001  0.2125920E+03  0.7546771E-02  0.1139530E+00
         -2   -1    0    0    0  501 -0.00000000000E+00  0.00000000000E+00  0.19456887984E+03  0.19456887984E+03  0.00000000000E+00 0.  1.
          2   -1    0    0  502    0  0.00000000000E+00 -0.00000000000E+00 -0.47774287397E+03  0.47774287397E+03  0.00000000000E+00 0. -1.
          6    1    1    2  502    0  0.11029192466E+03 -0.55695979900E+02 -0.38254006135E+03  0.43764397558E+03  0.17300000000E+03 0. -1.
         -6    1    1    2    0  501 -0.11029192466E+03  0.55695979900E+02  0.99366067218E+02  0.23466777823E+03  0.17300000000E+03 0.  1.
<mgrwt>
<rscale>  2 0.21259198E+03</rscale>
<asrwt>0</asrwt>
<pdfrwt beam="1">  1        2 0.73498902E-01 0.21259198E+03</pdfrwt>
<pdfrwt beam="2">  1       -2 0.29933674E-01 0.21259198E+03</pdfrwt>
<totfact> 0.67556254E+02</totfact>
</mgrwt>
</event>
<event>
 4    1  0.7368504E-001  0.1820462E+03  0.7546771E-02  0.1165837E+00
          1   -1    0    0  502    0  0.00000000000E+00  0.00000000000E+00  0.98136698771E+03  0.98136698771E+03  0.00000000000E+00 0.  1.
         -1   -1    0    0    0  501 -0.00000000000E+00 -0.00000000000E+00 -0.34041715177E+02  0.34041715177E+02  0.00000000000E+00 0. -1.
          6    1    1    2  502    0 -0.45470408127E+02 -0.33826860003E+02  0.51901713161E+03  0.55001781551E+03  0.17300000000E+03 0. -1.
         -6    1    1    2    0  501  0.45470408127E+02  0.33826860003E+02  0.42830814092E+03  0.46539088737E+03  0.17300000000E+03 0. -1.
<mgrwt>
<rscale>  2 0.18204619E+03</rscale>
<asrwt>0</asrwt>
<pdfrwt beam="1">  1        1 0.15097952E+00 0.18204619E+03</pdfrwt>
<pdfrwt beam="2">  1       -1 0.52371877E-02 0.18204619E+03</pdfrwt>
<totfact> 0.26909459E+03</totfact>
</mgrwt>
</event>
<event>
 4    1  0.7368504E-001  0.1833098E+03  0.7546771E-02  0.1164638E+00
         -3   -1    0    0    0  501 -0.00000000000E+00  0.00000000000E+00  0.20179469459E+03  0.20179469459E+03  0.00000000000E+00 0.  1.
          3   -1    0    0  502    0  0.00000000000E+00 -0.00000000000E+00 -0.23665616832E+03  0.23665616832E+03  0.00000000000E+00 0. -1.
          6    1    1    2  502    0  0.48396588475E+02  0.36486255106E+02  0.10191552075E+03  0.20973614366E+03  0.17300000000E+03 0.  1.
         -6    1    1    2    0  501 -0.48396588475E+02 -0.36486255106E+02 -0.13677699448E+03  0.22871471926E+03  0.17300000000E+03 0. -1.
<mgrwt>
<rscale>  2 0.18330978E+03</rscale>
<asrwt>0</asrwt>
<pdfrwt beam="1">  1        3 0.36408641E-01 0.18330978E+03</pdfrwt>
<pdfrwt beam="2">  1       -3 0.31045338E-01 0.18330978E+03</pdfrwt>
<totfact> 0.18150346E+02</totfact>
</mgrwt>
</event>
<event>
 4    1  0.7368504E-001  0.1825131E+03  0.7546771E-02  0.1165393E+00
         -2   -1    0    0    0  501 -0.00000000000E+00  0.00000000000E+00  0.25821861843E+02  0.25821861843E+02  0.00000000000E+00 0.  1.
          2   -1    0    0  502    0  0.00000000000E+00 -0.00000000000E+00 -0.13790960873E+04  0.13790960873E+04  0.00000000000E+00 0. -1.
          6    1    1    2  502    0  0.49411861121E+02 -0.30667505419E+02 -0.49812198332E+03  0.53050592662E+03  0.17300000000E+03 0.  1.
         -6    1    1    2    0  501 -0.49411861121E+02  0.30667505419E+02 -0.85515224215E+03  0.87441202254E+03  0.17300000000E+03 0. -1.
<mgrwt>
<rscale>  2 0.18251309E+03</rscale>
<asrwt>0</asrwt>
<pdfrwt beam="1">  1        2 0.21216865E+00 0.18251309E+03</pdfrwt>
<pdfrwt beam="2">  1       -2 0.39725938E-02 0.18251309E+03</pdfrwt>
<totfact> 0.43750011E+03</totfact>
</mgrwt>
</event>
<event>
 4    1  0.7368504E-001  0.3456241E+03  0.7546771E-02  0.1064426E+00
          2   -1    0    0  502    0  0.00000000000E+00  0.00000000000E+00  0.13332302257E+04  0.13332302257E+04  0.00000000000E+00 0.  1.
         -2   -1    0    0    0  501 -0.00000000000E+00 -0.00000000000E+00 -0.10750195856E+03  0.10750195856E+03  0.00000000000E+00 0. -1.
          6    1    1    2  502    0 -0.25420139191E+03 -0.15782476552E+03  0.90683771442E+03  0.97046929089E+03  0.17300000000E+03 0.  1.
         -6    1    1    2    0  501  0.25420139191E+03  0.15782476552E+03  0.31889055267E+03  0.47026289333E+03  0.17300000000E+03 0. -1.
<mgrwt>
<rscale>  2 0.34562408E+03</rscale>
<asrwt>0</asrwt>
<pdfrwt beam="1">  1        2 0.20511233E+00 0.34562408E+03</pdfrwt>
<pdfrwt beam="2">  1       -2 0.16538764E-01 0.34562408E+03</pdfrwt>
<totfact> 0.48714527E+02</totfact>
</mgrwt>
</event>
<event>
 4    1  0.7368504E-001  0.3805120E+03  0.7546771E-02  0.1050745E+00
          2   -1    0    0  502    0  0.00000000000E+00  0.00000000000E+00  0.83722190445E+03  0.83722190445E+03  0.00000000000E+00 0.  1.
         -2   -1    0    0    0  501 -0.00000000000E+00 -0.00000000000E+00 -0.18142943648E+03  0.18142943648E+03  0.00000000000E+00 0. -1.
          6    1    1    2  502    0 -0.29301164377E+03 -0.17030735811E+03  0.43806870042E+03  0.58025305333E+03  0.17300000000E+03 0.  1.
         -6    1    1    2    0  501  0.29301164377E+03  0.17030735811E+03  0.21772376755E+03  0.43839828760E+03  0.17300000000E+03 0. -1.
<mgrwt>
<rscale>  2 0.38051205E+03</rscale>
<asrwt>0</asrwt>
<pdfrwt beam="1">  1        2 0.12880337E+00 0.38051205E+03</pdfrwt>
<pdfrwt beam="2">  1       -2 0.27912221E-01 0.38051205E+03</pdfrwt>
<totfact> 0.38935686E+02</totfact>
</mgrwt>
</event>
<event>
 4    1  0.7368504E-001  0.1785357E+03  0.7546771E-02  0.1169228E+00
          2   -1    0    0  502    0  0.00000000000E+00  0.00000000000E+00  0.11707668988E+04  0.11707668988E+04  0.00000000000E+00 0. -1.
         -2   -1    0    0    0  501 -0.00000000000E+00 -0.00000000000E+00 -0.29238197690E+02  0.29238197690E+02  0.00000000000E+00 0.  1.
          6    1    1    2  502    0  0.34527298337E+01 -0.43978302836E+02  0.41335171778E+03  0.45026065235E+03  0.17300000000E+03 0.  1.
         -6    1    1    2    0  501 -0.34527298337E+01  0.43978302836E+02  0.72817698329E+03  0.74974444410E+03  0.17300000000E+03 0. -1.
<mgrwt>
<rscale>  2 0.17853575E+03</rscale>
<asrwt>0</asrwt>
<pdfrwt beam="1">  1        2 0.18011795E+00 0.17853575E+03</pdfrwt>
<pdfrwt beam="2">  1       -2 0.44981852E-02 0.17853575E+03</pdfrwt>
<totfact> 0.47246497E+03</totfact>
</mgrwt>
</event>
<event>
 4    1  0.7368504E-001  0.2608821E+03  0.7546771E-02  0.1106614E+00
         -2   -1    0    0    0  501 -0.00000000000E+00  0.00000000000E+00  0.11280375244E+03  0.11280375244E+03  0.00000000000E+00 0.  1.
          2   -1    0    0  502    0  0.00000000000E+00 -0.00000000000E+00 -0.69796392268E+03  0.69796392268E+03  0.00000000000E+00 0. -1.
          6    1    1    2  502    0 -0.14455586033E+03  0.13127862032E+03 -0.14332088127E+03  0.29765810575E+03  0.17300000000E+03 0. -1.
         -6    1    1    2    0  501  0.14455586033E+03 -0.13127862032E+03 -0.44183928897E+03  0.51310956938E+03  0.17300000000E+03 0. -1.
<mgrwt>
<rscale>  2 0.26088211E+03</rscale>
<asrwt>0</asrwt>
<pdfrwt beam="1">  1        2 0.10737907E+00 0.26088211E+03</pdfrwt>
<pdfrwt beam="2">  1       -2 0.17354423E-01 0.26088211E+03</pdfrwt>
<totfact> 0.11292211E+03</totfact>
</mgrwt>
</event>
<event>
 4    1  0.7368504E-001  0.2052864E+03  0.7546771E-02  0.1145354E+00
         -3   -1    0    0    0  501 -0.00000000000E+00  0.00000000000E+00  0.17009254281E+04  0.17009254281E+04  0.00000000000E+00 0.  1.
          3   -1    0    0  502    0  0.00000000000E+00 -0.00000000000E+00 -0.24814644715E+02  0.24814644715E+02  0.00000000000E+00 0. -1.
          6    1    1    2  502    0  0.95650089841E+02  0.55358622689E+02  0.80410462715E+03  0.82989563693E+03  0.17300000000E+03 0.  1.
         -6    1    1    2    0  501 -0.95650089841E+02 -0.55358622689E+02  0.87200615625E+03  0.89584443590E+03  0.17300000000E+03 0.  1.
<mgrwt>
<rscale>  2 0.20528643E+03</rscale>
<asrwt>0</asrwt>
<pdfrwt beam="1">  1        3 0.38176390E-02 0.20528643E+03</pdfrwt>
<pdfrwt beam="2">  1       -3 0.26168074E+00 0.20528643E+03</pdfrwt>
<totfact> 0.61012749E+01</totfact>
</mgrwt>
</event>
<event>
 4    1  0.7368504E-001  0.2037986E+03  0.7546771E-02  0.1146573E+00
          2   -1    0    0  502    0  0.00000000000E+00  0.00000000000E+00  0.72813143599E+03  0.72813143599E+03  0.00000000000E+00 0.  1.
         -2   -1    0    0    0  501 -0.00000000000E+00 -0.00000000000E+00 -0.57667101748E+02  0.57667101748E+02  0.00000000000E+00 0. -1.
          6    1    1    2  502    0  0.18223523654E+02 -0.10617326767E+03  0.29431604312E+03  0.35798853728E+03  0.17300000000E+03 0. -1.
         -6    1    1    2    0  501 -0.18223523654E+02  0.10617326767E+03  0.37614829112E+03  0.42781000046E+03  0.17300000000E+03 0. -1.
<mgrwt>
<rscale>  2 0.20379858E+03</rscale>
<asrwt>0</asrwt>
<pdfrwt beam="1">  1        2 0.11202021E+00 0.20379858E+03</pdfrwt>
<pdfrwt beam="2">  1       -2 0.88718623E-02 0.20379858E+03</pdfrwt>
<totfact> 0.31773481E+03</totfact>
</mgrwt>
</event>
<event>
 4    1  0.7368504E-001  0.3965987E+03  0.7546771E-02  0.1044964E+00
          2   -1    0    0  502    0  0.00000000000E+00  0.00000000000E+00  0.22907429840E+03  0.22907429840E+03  0.00000000000E+00 0.  1.
         -2   -1    0    0    0  501 -0.00000000000E+00 -0.00000000000E+00 -0.10032383152E+04  0.10032383152E+04  0.00000000000E+00 0. -1.
          6    1    1    2  502    0 -0.35438895539E+03  0.42071648063E+02 -0.40946463427E+02  0.39870686995E+03  0.17300000000E+03 0.  1.
         -6    1    1    2    0  501  0.35438895539E+03 -0.42071648063E+02 -0.73321755342E+03  0.83360574369E+03  0.17300000000E+03 0. -1.
<mgrwt>
<rscale>  2 0.39659873E+03</rscale>
<asrwt>0</asrwt>
<pdfrwt beam="1">  1        2 0.35242200E-01 0.39659873E+03</pdfrwt>
<pdfrwt beam="2">  1       -2 0.15434436E+00 0.39659873E+03</pdfrwt>
<totfact> 0.42867927E+01</totfact>
</mgrwt>
</event>
<event>
 4    1  0.7368504E-001  0.1844313E+03  0.7546771E-02  0.1163582E+00
          1   -1    0    0  502    0  0.00000000000E+00  0.00000000000E+00  0.11012938146E+04  0.11012938146E+04  0.00000000000E+00 0. -1.
         -1   -1    0    0    0  501 -0.00000000000E+00 -0.00000000000E+00 -0.30912474474E+02  0.30912474474E+02  0.00000000000E+00 0.  1.
          6    1    1    2  502    0 -0.11222315126E+02  0.62928354022E+02  0.51872556321E+03  0.55053712684E+03  0.17300000000E+03 0. -1.
         -6    1    1    2    0  501  0.11222315126E+02 -0.62928354022E+02  0.55165577694E+03  0.58166916227E+03  0.17300000000E+03 0.  1.
<mgrwt>
<rscale>  2 0.18443134E+03</rscale>
<asrwt>0</asrwt>
<pdfrwt beam="1">  1        1 0.16942979E+00 0.18443134E+03</pdfrwt>
<pdfrwt beam="2">  1       -1 0.47557661E-02 0.18443134E+03</pdfrwt>
<totfact> 0.25413755E+03</totfact>
</mgrwt>
</event>
<event>
 4    1  0.7368504E-001  0.2111811E+03  0.7546771E-02  0.1140634E+00
          2   -1    0    0  502    0  0.00000000000E+00  0.00000000000E+00  0.67874517028E+03  0.67874517028E+03  0.00000000000E+00 0.  1.
         -2   -1    0    0    0  501 -0.00000000000E+00 -0.00000000000E+00 -0.71307648196E+02  0.71307648196E+02  0.00000000000E+00 0. -1.
          6    1    1    2  502    0  0.71916680315E+02 -0.97449761397E+02  0.40883290263E+03  0.46015411242E+03  0.17300000000E+03 0.  1.
         -6    1    1    2    0  501 -0.71916680315E+02  0.97449761397E+02  0.19860461945E+03  0.28989870605E+03  0.17300000000E+03 0. -1.
<mgrwt>
<rscale>  2 0.21118112E+03</rscale>
<asrwt>0</asrwt>
<pdfrwt beam="1">  1        2 0.10442233E+00 0.21118112E+03</pdfrwt>
<pdfrwt beam="2">  1       -2 0.10970408E-01 0.21118112E+03</pdfrwt>
<totfact> 0.24724724E+03</totfact>
</mgrwt>
</event>
<event>
 4    1  0.7368504E-001  0.2022489E+03  0.7546771E-02  0.1147855E+00
          2   -1    0    0  502    0  0.00000000000E+00  0.00000000000E+00  0.58212221041E+03  0.58212221041E+03  0.00000000000E+00 0. -1.
         -2   -1    0    0    0  501 -0.00000000000E+00 -0.00000000000E+00 -0.80991975926E+02  0.80991975926E+02  0.00000000000E+00 0.  1.
          6    1    1    2  502    0  0.86911679427E+02 -0.58497518373E+02  0.12991882420E+03  0.24038198884E+03  0.17300000000E+03 0.  1.
         -6    1    1    2    0  501 -0.86911679427E+02  0.58497518373E+02  0.37121141029E+03  0.42273219750E+03  0.17300000000E+03 0. -1.
<mgrwt>
<rscale>  2 0.20224886E+03</rscale>
<asrwt>0</asrwt>
<pdfrwt beam="1">  1        2 0.89557260E-01 0.20224886E+03</pdfrwt>
<pdfrwt beam="2">  1       -2 0.12460304E-01 0.20224886E+03</pdfrwt>
<totfact> 0.24089824E+03</totfact>
</mgrwt>
</event>
<event>
 4    1  0.7368504E-001  0.2103826E+03  0.7546771E-02  0.1141263E+00
         -1   -1    0    0    0  501 -0.00000000000E+00  0.00000000000E+00  0.17437400736E+02  0.17437400736E+02  0.00000000000E+00 0. -1.
          1   -1    0    0  502    0  0.00000000000E+00 -0.00000000000E+00 -0.25396281701E+04  0.25396281701E+04  0.00000000000E+00 0.  1.
          6    1    1    2  502    0 -0.28933111131E+02  0.11616678290E+03 -0.12906526628E+04  0.13076869436E+04  0.17300000000E+03 0.  1.
         -6    1    1    2    0  501  0.28933111131E+02 -0.11616678290E+03 -0.12315381065E+04  0.12493786272E+04  0.17300000000E+03 0. -1.
<mgrwt>
<rscale>  2 0.21038262E+03</rscale>
<asrwt>0</asrwt>
<pdfrwt beam="1">  1        1 0.39071181E+00 0.21038262E+03</pdfrwt>
<pdfrwt beam="2">  1       -1 0.26826785E-02 0.21038262E+03</pdfrwt>
<totfact> 0.67013755E+02</totfact>
</mgrwt>
</event>
<event>
 4    1  0.7368504E-001  0.2029286E+03  0.7546771E-02  0.1147291E+00
         -2   -1    0    0    0  501 -0.00000000000E+00  0.00000000000E+00  0.26292252753E+02  0.26292252753E+02  0.00000000000E+00 0.  1.
          2   -1    0    0  502    0  0.00000000000E+00 -0.00000000000E+00 -0.16187294023E+04  0.16187294023E+04  0.00000000000E+00 0. -1.
          6    1    1    2  502    0  0.42642853973E+02 -0.97121607508E+02 -0.94432835937E+03  0.96588615786E+03  0.17300000000E+03 0. -1.
         -6    1    1    2    0  501 -0.42642853973E+02  0.97121607508E+02 -0.64810879017E+03  0.67913549719E+03  0.17300000000E+03 0. -1.
<mgrwt>
<rscale>  2 0.20292861E+03</rscale>
<asrwt>0</asrwt>
<pdfrwt beam="1">  1        2 0.24903539E+00 0.20292861E+03</pdfrwt>
<pdfrwt beam="2">  1       -2 0.40449604E-02 0.20292861E+03</pdfrwt>
<totfact> 0.31833889E+03</totfact>
</mgrwt>
</event>
<event>
 4    1  0.7368504E-001  0.2062631E+03  0.7546771E-02  0.1144560E+00
          1   -1    0    0  502    0  0.00000000000E+00  0.00000000000E+00  0.14440670383E+04  0.14440670383E+04  0.00000000000E+00 0. -1.
         -1   -1    0    0    0  501 -0.00000000000E+00 -0.00000000000E+00 -0.29832119826E+02  0.29832119826E+02  0.00000000000E+00 0.  1.
          6    1    1    2  502    0  0.93624556415E+02  0.62047473019E+02  0.78925344913E+03  0.81576065941E+03  0.17300000000E+03 0.  1.
         -6    1    1    2    0  501 -0.93624556415E+02 -0.62047473019E+02  0.62498146933E+03  0.65813849871E+03  0.17300000000E+03 0.  1.
<mgrwt>
<rscale>  2 0.20626305E+03</rscale>
<asrwt>0</asrwt>
<pdfrwt beam="1">  1        1 0.22216411E+00 0.20626305E+03</pdfrwt>
<pdfrwt beam="2">  1       -1 0.45895580E-02 0.20626305E+03</pdfrwt>
<totfact> 0.15635134E+03</totfact>
</mgrwt>
</event>
<event>
 4    1  0.7368504E-001  0.1776748E+03  0.7546771E-02  0.1170072E+00
          1   -1    0    0  502    0  0.00000000000E+00  0.00000000000E+00  0.12473131831E+03  0.12473131831E+03  0.00000000000E+00 0. -1.
         -1   -1    0    0    0  501 -0.00000000000E+00 -0.00000000000E+00 -0.34610597992E+03  0.34610597992E+03  0.00000000000E+00 0.  1.
          6    1    1    2  502    0 -0.50266569514E+01 -0.40175658236E+02  0.11355759475E+02  0.17803736706E+03  0.17300000000E+03 0. -1.
         -6    1    1    2    0  501  0.50266569514E+01  0.40175658236E+02 -0.23273042108E+03  0.29279993117E+03  0.17300000000E+03 0.  1.
<mgrwt>
<rscale>  2 0.17767485E+03</rscale>
<asrwt>0</asrwt>
<pdfrwt beam="1">  1        1 0.19189434E-01 0.17767485E+03</pdfrwt>
<pdfrwt beam="2">  1       -1 0.53247073E-01 0.17767485E+03</pdfrwt>
<totfact> 0.97833006E+02</totfact>
</mgrwt>
</event>
<event>
 4    1  0.7368504E-001  0.1859352E+03  0.7546771E-02  0.1162179E+00
          2   -1    0    0  502    0  0.00000000000E+00  0.00000000000E+00  0.13111570180E+04  0.13111570180E+04  0.00000000000E+00 0. -1.
         -2   -1    0    0    0  501 -0.00000000000E+00 -0.00000000000E+00 -0.39454575493E+02  0.39454575493E+02  0.00000000000E+00 0.  1.
          6    1    1    2  502    0 -0.26816954669E+02  0.62639894534E+02  0.10247830078E+04  0.10415143391E+04  0.17300000000E+03 0. -1.
         -6    1    1    2    0  501  0.26816954669E+02 -0.62639894534E+02  0.24691943469E+03  0.30909725439E+03  0.17300000000E+03 0.  1.
<mgrwt>
<rscale>  2 0.18593522E+03</rscale>
<asrwt>0</asrwt>
<pdfrwt beam="1">  1        2 0.20171643E+00 0.18593522E+03</pdfrwt>
<pdfrwt beam="2">  1       -2 0.60699357E-02 0.18593522E+03</pdfrwt>
<totfact> 0.25091074E+03</totfact>
</mgrwt>
</event>
<event>
 4    1  0.7368504E-001  0.1994739E+03  0.7546771E-02  0.1150184E+00
         -2   -1    0    0    0  501 -0.00000000000E+00  0.00000000000E+00  0.13028873386E+03  0.13028873386E+03  0.00000000000E+00 0. -1.
          2   -1    0    0  502    0  0.00000000000E+00 -0.00000000000E+00 -0.31410494361E+03  0.31410494361E+03  0.00000000000E+00 0.  1.
          6    1    1    2  502    0 -0.79962698977E+02 -0.58879680012E+02 -0.54912807330E+02  0.20689433621E+03  0.17300000000E+03 0. -1.
         -6    1    1    2    0  501  0.79962698977E+02  0.58879680012E+02 -0.12890340242E+03  0.23749934126E+03  0.17300000000E+03 0.  1.
<mgrwt>
<rscale>  2 0.19947393E+03</rscale>
<asrwt>0</asrwt>
<pdfrwt beam="1">  1        2 0.48323837E-01 0.19947393E+03</pdfrwt>
<pdfrwt beam="2">  1       -2 0.20044421E-01 0.19947393E+03</pdfrwt>
<totfact> 0.21528963E+03</totfact>
</mgrwt>
</event>
<event>
 4    1  0.7368504E-001  0.2465127E+03  0.7546771E-02  0.1115529E+00
          1   -1    0    0  502    0  0.00000000000E+00  0.00000000000E+00  0.86952393569E+03  0.86952393569E+03  0.00000000000E+00 0. -1.
         -1   -1    0    0    0  501 -0.00000000000E+00 -0.00000000000E+00 -0.70593321883E+02  0.70593321883E+02  0.00000000000E+00 0.  1.
          6    1    1    2  502    0  0.10160201890E+02  0.17531763494E+03  0.44648091043E+03  0.51001343727E+03  0.17300000000E+03 0.  1.
         -6    1    1    2    0  501 -0.10160201890E+02 -0.17531763494E+03  0.35244970338E+03  0.43010382030E+03  0.17300000000E+03 0. -1.
<mgrwt>
<rscale>  2 0.24651268E+03</rscale>
<asrwt>0</asrwt>
<pdfrwt beam="1">  1        1 0.13377291E+00 0.24651268E+03</pdfrwt>
<pdfrwt beam="2">  1       -1 0.10860512E-01 0.24651268E+03</pdfrwt>
<totfact> 0.10840818E+03</totfact>
</mgrwt>
</event>
<event>
 4    1  0.7368504E-001  0.2346714E+03  0.7546771E-02  0.1123394E+00
         -1   -1    0    0    0  501 -0.00000000000E+00  0.00000000000E+00  0.97876254475E+03  0.97876254475E+03  0.00000000000E+00 0. -1.
          1   -1    0    0  502    0  0.00000000000E+00 -0.00000000000E+00 -0.56667047908E+02  0.56667047908E+02  0.00000000000E+00 0.  1.
          6    1    1    2  502    0  0.57021947803E+01 -0.15845869544E+03  0.41747312816E+03  0.47890968451E+03  0.17300000000E+03 0.  1.
         -6    1    1    2    0  501 -0.57021947803E+01  0.15845869544E+03  0.50462236869E+03  0.55651990815E+03  0.17300000000E+03 0.  1.
<mgrwt>
<rscale>  2 0.23467142E+03</rscale>
<asrwt>0</asrwt>
<pdfrwt beam="1">  1        1 0.87180081E-02 0.23467142E+03</pdfrwt>
<pdfrwt beam="2">  1       -1 0.15057884E+00 0.23467142E+03</pdfrwt>
<totfact> 0.29007452E+02</totfact>
</mgrwt>
</event>
<event>
 4    1  0.7368504E-001  0.1850244E+03  0.7546771E-02  0.1163027E+00
          2   -1    0    0  502    0  0.00000000000E+00  0.00000000000E+00  0.20851478213E+04  0.20851478213E+04  0.00000000000E+00 0.  1.
         -2   -1    0    0    0  501 -0.00000000000E+00 -0.00000000000E+00 -0.16840308382E+02  0.16840308382E+02  0.00000000000E+00 0. -1.
          6    1    1    2  502    0 -0.59891245449E+02  0.26796672816E+02  0.12005807668E+04  0.12147543787E+04  0.17300000000E+03 0.  1.
         -6    1    1    2    0  501  0.59891245449E+02 -0.26796672816E+02  0.86772674605E+03  0.88723375092E+03  0.17300000000E+03 0. -1.
<mgrwt>
<rscale>  2 0.18502438E+03</rscale>
<asrwt>0</asrwt>
<pdfrwt beam="1">  1        2 0.32079177E+00 0.18502438E+03</pdfrwt>
<pdfrwt beam="2">  1       -2 0.25908183E-02 0.18502438E+03</pdfrwt>
<totfact> 0.35331393E+03</totfact>
</mgrwt>
</event>
<event>
 4    1  0.7368504E-001  0.1810703E+03  0.7546771E-02  0.1166771E+00
         -3   -1    0    0    0  501 -0.00000000000E+00  0.00000000000E+00  0.26691316848E+03  0.26691316848E+03  0.00000000000E+00 0. -1.
          3   -1    0    0  502    0  0.00000000000E+00 -0.00000000000E+00 -0.18078867247E+03  0.18078867247E+03  0.00000000000E+00 0.  1.
          6    1    1    2  502    0  0.49583071442E+02 -0.19974314086E+02 -0.83677050495E+02  0.19947005534E+03  0.17300000000E+03 0.  1.
         -6    1    1    2    0  501 -0.49583071442E+02  0.19974314086E+02  0.16980154650E+03  0.24823178562E+03  0.17300000000E+03 0. -1.
<mgrwt>
<rscale>  2 0.18107030E+03</rscale>
<asrwt>0</asrwt>
<pdfrwt beam="1">  1        3 0.27813642E-01 0.18107030E+03</pdfrwt>
<pdfrwt beam="2">  1       -3 0.41063565E-01 0.18107030E+03</pdfrwt>
<totfact> 0.17623351E+02</totfact>
</mgrwt>
</event>
<event>
 4    1  0.7368504E-001  0.1928708E+03  0.7546771E-02  0.1155897E+00
         -2   -1    0    0    0  501 -0.00000000000E+00  0.00000000000E+00  0.71393513295E+02  0.71393513295E+02  0.00000000000E+00 0.  1.
          2   -1    0    0  502    0  0.00000000000E+00 -0.00000000000E+00 -0.70588783948E+03  0.70588783948E+03  0.00000000000E+00 0. -1.
          6    1    1    2  502    0  0.50416474283E+02 -0.68762861176E+02 -0.51612347367E+03  0.55098329560E+03  0.17300000000E+03 0. -1.
         -6    1    1    2    0  501 -0.50416474283E+02  0.68762861176E+02 -0.11837085252E+03  0.22629805718E+03  0.17300000000E+03 0. -1.
<mgrwt>
<rscale>  2 0.19287082E+03</rscale>
<asrwt>0</asrwt>
<pdfrwt beam="1">  1        2 0.10859813E+00 0.19287082E+03</pdfrwt>
<pdfrwt beam="2">  1       -2 0.10983618E-01 0.19287082E+03</pdfrwt>
<totfact> 0.23496438E+03</totfact>
</mgrwt>
</event>
<event>
 4    1  0.7368504E-001  0.1993241E+03  0.7546771E-02  0.1150311E+00
          1   -1    0    0  502    0  0.00000000000E+00  0.00000000000E+00  0.28438804055E+03  0.28438804055E+03  0.00000000000E+00 0.  1.
         -1   -1    0    0    0  501 -0.00000000000E+00 -0.00000000000E+00 -0.16452067825E+03  0.16452067825E+03  0.00000000000E+00 0. -1.
          6    1    1    2  502    0 -0.10121684848E+02 -0.98481642968E+02  0.14710861026E+03  0.24773176163E+03  0.17300000000E+03 0.  1.
         -6    1    1    2    0  501  0.10121684848E+02  0.98481642968E+02 -0.27241247960E+02  0.20117695717E+03  0.17300000000E+03 0. -1.
<mgrwt>
<rscale>  2 0.19932406E+03</rscale>
<asrwt>0</asrwt>
<pdfrwt beam="1">  1        1 0.43752006E-01 0.19932406E+03</pdfrwt>
<pdfrwt beam="2">  1       -1 0.25310874E-01 0.19932406E+03</pdfrwt>
<totfact> 0.12729241E+03</totfact>
</mgrwt>
</event>
<event>
 4    1  0.7368504E-001  0.2208523E+03  0.7546771E-02  0.1133249E+00
          2   -1    0    0  502    0  0.00000000000E+00  0.00000000000E+00  0.53032370956E+03  0.53032370956E+03  0.00000000000E+00 0.  1.
         -2   -1    0    0    0  501 -0.00000000000E+00 -0.00000000000E+00 -0.92289185010E+02  0.92289185010E+02  0.00000000000E+00 0. -1.
          6    1    1    2  502    0 -0.11186788444E+03  0.79575859667E+02  0.20081093166E+03  0.29849752308E+03  0.17300000000E+03 0. -1.
         -6    1    1    2    0  501  0.11186788444E+03 -0.79575859667E+02  0.23722359289E+03  0.32411537149E+03  0.17300000000E+03 0.  1.
<mgrwt>
<rscale>  2 0.22085231E+03</rscale>
<asrwt>0</asrwt>
<pdfrwt beam="1">  1        2 0.81588261E-01 0.22085231E+03</pdfrwt>
<pdfrwt beam="2">  1       -2 0.14198336E-01 0.22085231E+03</pdfrwt>
<totfact> 0.21694772E+03</totfact>
</mgrwt>
</event>
<event>
 4    1  0.7368504E-001  0.2492801E+03  0.7546771E-02  0.1113761E+00
         -2   -1    0    0    0  501 -0.00000000000E+00  0.00000000000E+00  0.11382956759E+03  0.11382956759E+03  0.00000000000E+00 0.  1.
          2   -1    0    0  502    0  0.00000000000E+00 -0.00000000000E+00 -0.16258245301E+04  0.16258245301E+04  0.00000000000E+00 0. -1.
          6    1    1    2  502    0 -0.12949412970E+03 -0.12426923991E+03 -0.14649072925E+04  0.14859656622E+04  0.17300000000E+03 0. -1.
         -6    1    1    2    0  501  0.12949412970E+03  0.12426923991E+03 -0.47087669961E+02  0.25368843544E+03  0.17300000000E+03 0.  1.
<mgrwt>
<rscale>  2 0.24928011E+03</rscale>
<asrwt>0</asrwt>
<pdfrwt beam="1">  1        2 0.25012682E+00 0.24928011E+03</pdfrwt>
<pdfrwt beam="2">  1       -2 0.17512243E-01 0.24928011E+03</pdfrwt>
<totfact> 0.31158923E+02</totfact>
</mgrwt>
</event>
<event>
 4    1  0.7368504E-001  0.1845567E+03  0.7546771E-02  0.1163465E+00
          2   -1    0    0  502    0  0.00000000000E+00  0.00000000000E+00  0.52585734470E+03  0.52585734470E+03  0.00000000000E+00 0. -1.
         -2   -1    0    0    0  501 -0.00000000000E+00 -0.00000000000E+00 -0.64861597038E+02  0.64861597038E+02  0.00000000000E+00 0.  1.
          6    1    1    2  502    0 -0.20426215466E+02  0.60950241963E+02  0.24143683411E+03  0.30389621113E+03  0.17300000000E+03 0.  1.
         -6    1    1    2    0  501  0.20426215466E+02 -0.60950241963E+02  0.21955891355E+03  0.28682273061E+03  0.17300000000E+03 0. -1.
<mgrwt>
<rscale>  2 0.18455666E+03</rscale>
<asrwt>0</asrwt>
<pdfrwt beam="1">  1        2 0.80901127E-01 0.18455666E+03</pdfrwt>
<pdfrwt beam="2">  1       -2 0.99787076E-02 0.18455666E+03</pdfrwt>
<totfact> 0.38448288E+03</totfact>
</mgrwt>
</event>
<event>
 4    1  0.7368504E-001  0.2887470E+03  0.7546771E-02  0.1091005E+00
         -2   -1    0    0    0  501 -0.00000000000E+00  0.00000000000E+00  0.70146520764E+02  0.70146520764E+02  0.00000000000E+00 0.  1.
          2   -1    0    0  502    0  0.00000000000E+00 -0.00000000000E+00 -0.14393020300E+04  0.14393020300E+04  0.00000000000E+00 0. -1.
          6    1    1    2  502    0  0.20839295646E+03 -0.10009093414E+03 -0.36957977998E+03  0.46900323364E+03  0.17300000000E+03 0.  1.
         -6    1    1    2    0  501 -0.20839295646E+03  0.10009093414E+03 -0.99957572923E+03  0.10404453171E+04  0.17300000000E+03 0.  1.
<mgrwt>
<rscale>  2 0.28874698E+03</rscale>
<asrwt>0</asrwt>
<pdfrwt beam="1">  1        2 0.22143107E+00 0.28874698E+03</pdfrwt>
<pdfrwt beam="2">  1       -2 0.10791773E-01 0.28874698E+03</pdfrwt>
<totfact> 0.86445284E+02</totfact>
</mgrwt>
</event>
<event>
 4    1  0.7368504E-001  0.1960981E+03  0.7546771E-02  0.1153073E+00
          2   -1    0    0  502    0  0.00000000000E+00  0.00000000000E+00  0.60676366111E+03  0.60676366111E+03  0.00000000000E+00 0. -1.
         -2   -1    0    0    0  501 -0.00000000000E+00 -0.00000000000E+00 -0.66232254845E+02  0.66232254845E+02  0.00000000000E+00 0.  1.
          6    1    1    2  502    0  0.42369006509E+02  0.82038572076E+02  0.20039094817E+03  0.28037651850E+03  0.17300000000E+03 0.  1.
         -6    1    1    2    0  501 -0.42369006509E+02 -0.82038572076E+02  0.34014045809E+03  0.39261939745E+03  0.17300000000E+03 0. -1.
<mgrwt>
<rscale>  2 0.19609809E+03</rscale>
<asrwt>0</asrwt>
<pdfrwt beam="1">  1        2 0.93348252E-01 0.19609809E+03</pdfrwt>
<pdfrwt beam="2">  1       -2 0.10189578E-01 0.19609809E+03</pdfrwt>
<totfact> 0.31673316E+03</totfact>
</mgrwt>
</event>
<event>
 4    1  0.7368504E-001  0.2284876E+03  0.7546771E-02  0.1127709E+00
          2   -1    0    0  502    0  0.00000000000E+00  0.00000000000E+00  0.11606528239E+04  0.11606528239E+04  0.00000000000E+00 0.  1.
         -2   -1    0    0    0  501 -0.00000000000E+00 -0.00000000000E+00 -0.45220263911E+02  0.45220263911E+02  0.00000000000E+00 0. -1.
          6    1    1    2  502    0  0.10858322256E+03 -0.10240739970E+03  0.60163159681E+03  0.64355821028E+03  0.17300000000E+03 0. -1.
         -6    1    1    2    0  501 -0.10858322256E+03  0.10240739970E+03  0.51380096322E+03  0.56231487757E+03  0.17300000000E+03 0.  1.
<mgrwt>
<rscale>  2 0.22848762E+03</rscale>
<asrwt>0</asrwt>
<pdfrwt beam="1">  1        2 0.17856195E+00 0.22848762E+03</pdfrwt>
<pdfrwt beam="2">  1       -2 0.69569646E-02 0.22848762E+03</pdfrwt>
<totfact> 0.24721775E+03</totfact>
</mgrwt>
</event>
<event>
 4    1  0.7368504E-001  0.2592234E+03  0.7546771E-02  0.1107611E+00
          2   -1    0    0  502    0  0.00000000000E+00  0.00000000000E+00  0.17762213378E+04  0.17762213378E+04  0.00000000000E+00 0. -1.
         -2   -1    0    0    0  501 -0.00000000000E+00 -0.00000000000E+00 -0.38501024341E+02  0.38501024341E+02  0.00000000000E+00 0.  1.
          6    1    1    2  502    0 -0.37643347375E+02  0.18934298347E+03  0.98853078954E+03  0.10219539661E+04  0.17300000000E+03 0.  1.
         -6    1    1    2    0  501  0.37643347375E+02 -0.18934298347E+03  0.74918952396E+03  0.79276839607E+03  0.17300000000E+03 0. -1.
<mgrwt>
<rscale>  2 0.25922343E+03</rscale>
<asrwt>0</asrwt>
<pdfrwt beam="1">  1        2 0.27326476E+00 0.25922343E+03</pdfrwt>
<pdfrwt beam="2">  1       -2 0.59232359E-02 0.25922343E+03</pdfrwt>
<totfact> 0.14720040E+03</totfact>
</mgrwt>
</event>
<event>
 4    1  0.7368504E-001  0.2110850E+03  0.7546771E-02  0.1140710E+00
         -2   -1    0    0    0  501 -0.00000000000E+00  0.00000000000E+00  0.41251028422E+02  0.41251028422E+02  0.00000000000E+00 0. -1.
          2   -1    0    0  502    0  0.00000000000E+00 -0.00000000000E+00 -0.17170240041E+04  0.17170240041E+04  0.00000000000E+00 0.  1.
          6    1    1    2  502    0 -0.98670080995E+02 -0.69943499568E+02 -0.30246121640E+03  0.36883555339E+03  0.17300000000E+03 0. -1.
         -6    1    1    2    0  501  0.98670080995E+02  0.69943499568E+02 -0.13733117593E+04  0.13894394792E+04  0.17300000000E+03 0.  1.
<mgrwt>
<rscale>  2 0.21108500E+03</rscale>
<asrwt>0</asrwt>
<pdfrwt beam="1">  1        2 0.26415760E+00 0.21108500E+03</pdfrwt>
<pdfrwt beam="2">  1       -2 0.63463107E-02 0.21108500E+03</pdfrwt>
<totfact> 0.14269328E+03</totfact>
</mgrwt>
</event>
<event>
 4    1  0.7368504E-001  0.1743063E+03  0.7546771E-02  0.1173430E+00
         -2   -1    0    0    0  501 -0.00000000000E+00  0.00000000000E+00  0.29573338544E+02  0.29573338544E+02  0.00000000000E+00 0. -1.
          2   -1    0    0  502    0  0.00000000000E+00 -0.00000000000E+00 -0.10755188839E+04  0.10755188839E+04  0.00000000000E+00 0.  1.
          6    1    1    2  502    0  0.16582825565E+02 -0.13367180845E+02 -0.40605885315E+03  0.44188965121E+03  0.17300000000E+03 0. -1.
         -6    1    1    2    0  501 -0.16582825565E+02  0.13367180845E+02 -0.63988669223E+03  0.66320257126E+03  0.17300000000E+03 0.  1.
<mgrwt>
<rscale>  2 0.17430626E+03</rscale>
<asrwt>0</asrwt>
<pdfrwt beam="1">  1        2 0.16546443E+00 0.17430626E+03</pdfrwt>
<pdfrwt beam="2">  1       -2 0.45497447E-02 0.17430626E+03</pdfrwt>
<totfact> 0.52640482E+03</totfact>
</mgrwt>
</event>
<event>
 4    1  0.7368504E-001  0.1764924E+03  0.7546771E-02  0.1171242E+00
         -2   -1    0    0    0  501 -0.00000000000E+00  0.00000000000E+00  0.74683356575E+02  0.74683356575E+02  0.00000000000E+00 0.  1.
          2   -1    0    0  502    0  0.00000000000E+00 -0.00000000000E+00 -0.42940787271E+03  0.42940787271E+03  0.00000000000E+00 0. -1.
          6    1    1    2  502    0  0.96346803466E+01 -0.33581925274E+02 -0.13467113385E+03  0.22200425010E+03  0.17300000000E+03 0.  1.
         -6    1    1    2    0  501 -0.96346803466E+01  0.33581925274E+02 -0.22005338228E+03  0.28208697918E+03  0.17300000000E+03 0. -1.
<mgrwt>
<rscale>  2 0.17649242E+03</rscale>
<asrwt>0</asrwt>
<pdfrwt beam="1">  1        2 0.66062750E-01 0.17649242E+03</pdfrwt>
<pdfrwt beam="2">  1       -2 0.11489747E-01 0.17649242E+03</pdfrwt>
<totfact> 0.38335671E+03</totfact>
</mgrwt>
</event>
<event>
 4    1  0.7368504E-001  0.2763749E+03  0.7546771E-02  0.1097686E+00
         -2   -1    0    0    0  501 -0.00000000000E+00  0.00000000000E+00  0.51927702167E+02  0.51927702167E+02  0.00000000000E+00 0. -1.
          2   -1    0    0  502    0  0.00000000000E+00 -0.00000000000E+00 -0.15528455758E+04  0.15528455758E+04  0.00000000000E+00 0.  1.
          6    1    1    2  502    0  0.10795735599E+03 -0.18654562710E+03 -0.93472669631E+03  0.97472922317E+03  0.17300000000E+03 0.  1.
         -6    1    1    2    0  501 -0.10795735599E+03  0.18654562710E+03 -0.56619117728E+03  0.63004405476E+03  0.17300000000E+03 0. -1.
<mgrwt>
<rscale>  2 0.27637486E+03</rscale>
<asrwt>0</asrwt>
<pdfrwt beam="1">  1        2 0.23889930E+00 0.27637486E+03</pdfrwt>
<pdfrwt beam="2">  1       -2 0.79888777E-02 0.27637486E+03</pdfrwt>
<totfact> 0.12122235E+03</totfact>
</mgrwt>
</event>
<event>
 4    1  0.7368504E-001  0.2291724E+03  0.7546771E-02  0.1127224E+00
         -1   -1    0    0    0  501 -0.00000000000E+00  0.00000000000E+00  0.12276719666E+03  0.12276719666E+03  0.00000000000E+00 0.  1.
          1   -1    0    0  502    0  0.00000000000E+00 -0.00000000000E+00 -0.43249333940E+03  0.43249333940E+03  0.00000000000E+00 0. -1.
          6    1    1    2  502    0  0.14466563286E+03  0.40777859745E+02 -0.18378006125E+03  0.29376025955E+03  0.17300000000E+03 0. -1.
         -6    1    1    2    0  501 -0.14466563286E+03 -0.40777859745E+02 -0.12594608149E+03  0.26150027652E+03  0.17300000000E+03 0.  1.
<mgrwt>
<rscale>  2 0.22917238E+03</rscale>
<asrwt>0</asrwt>
<pdfrwt beam="1">  1        1 0.66537438E-01 0.22917238E+03</pdfrwt>
<pdfrwt beam="2">  1       -1 0.18887261E-01 0.22917238E+03</pdfrwt>
<totfact> 0.12107901E+03</totfact>
</mgrwt>
</event>
<event>
 4    1  0.7368504E-001  0.3113257E+03  0.7546771E-02  0.1079712E+00
          1   -1    0    0  502    0  0.00000000000E+00  0.00000000000E+00  0.34441417342E+03  0.34441417342E+03  0.00000000000E+00 0.  1.
         -1   -1    0    0    0  501 -0.00000000000E+00 -0.00000000000E+00 -0.28771235240E+03  0.28771235240E+03  0.00000000000E+00 0. -1.
          6    1    1    2  502    0 -0.10594392261E+03  0.23615789537E+03 -0.18405218922E+02  0.31186923280E+03  0.17300000000E+03 0. -1.
         -6    1    1    2    0  501  0.10594392261E+03 -0.23615789537E+03  0.75107039944E+02  0.32025729302E+03  0.17300000000E+03 0.  1.
<mgrwt>
<rscale>  2 0.31132566E+03</rscale>
<asrwt>0</asrwt>
<pdfrwt beam="1">  1        1 0.52986796E-01 0.31132566E+03</pdfrwt>
<pdfrwt beam="2">  1       -1 0.44263439E-01 0.31132566E+03</pdfrwt>
<totfact> 0.37929678E+02</totfact>
</mgrwt>
</event>
<event>
 4    1  0.7368504E-001  0.1795864E+03  0.7546771E-02  0.1168204E+00
          2   -1    0    0  502    0  0.00000000000E+00  0.00000000000E+00  0.27760614026E+03  0.27760614026E+03  0.00000000000E+00 0. -1.
         -2   -1    0    0    0  501 -0.00000000000E+00 -0.00000000000E+00 -0.11717582470E+03  0.11717582470E+03  0.00000000000E+00 0.  1.
          6    1    1    2  502    0 -0.17719933342E+02 -0.44813679953E+02  0.98445676521E+02  0.20479944623E+03  0.17300000000E+03 0. -1.
         -6    1    1    2    0  501  0.17719933342E+02  0.44813679953E+02  0.61984639034E+02  0.18998251873E+03  0.17300000000E+03 0. -1.
<mgrwt>
<rscale>  2 0.17958636E+03</rscale>
<asrwt>0</asrwt>
<pdfrwt beam="1">  1        2 0.42708637E-01 0.17958636E+03</pdfrwt>
<pdfrwt beam="2">  1       -2 0.18027050E-01 0.17958636E+03</pdfrwt>
<totfact> 0.29299662E+03</totfact>
</mgrwt>
</event>
<event>
 4    1  0.7368504E-001  0.3347902E+03  0.7546771E-02  0.1069037E+00
         -2   -1    0    0    0  501 -0.00000000000E+00  0.00000000000E+00  0.73014581596E+02  0.73014581596E+02  0.00000000000E+00 0.  1.
          2   -1    0    0  502    0  0.00000000000E+00 -0.00000000000E+00 -0.15728326395E+04  0.15728326395E+04  0.00000000000E+00 0. -1.
          6    1    1    2  502    0  0.27439006687E+03 -0.82858818962E+02 -0.62244373407E+03  0.70676777994E+03  0.17300000000E+03 0.  1.
         -6    1    1    2    0  501 -0.27439006687E+03  0.82858818962E+02 -0.87737432385E+03  0.93907944117E+03  0.17300000000E+03 0. -1.
<mgrwt>
<rscale>  2 0.33479022E+03</rscale>
<asrwt>0</asrwt>
<pdfrwt beam="1">  1        2 0.24197425E+00 0.33479022E+03</pdfrwt>
<pdfrwt beam="2">  1       -2 0.11233013E-01 0.33479022E+03</pdfrwt>
<totfact> 0.68364072E+02</totfact>
</mgrwt>
</event>
<event>
 4    1  0.7368504E-001  0.2213516E+03  0.7546771E-02  0.1132879E+00
         -1   -1    0    0    0  501 -0.00000000000E+00  0.00000000000E+00  0.72966613720E+02  0.72966613720E+02  0.00000000000E+00 0. -1.
          1   -1    0    0  502    0  0.00000000000E+00 -0.00000000000E+00 -0.67360717786E+03  0.67360717786E+03  0.00000000000E+00 0.  1.
          6    1    1    2  502    0 -0.13783945864E+03 -0.82357777475E+01 -0.32123474331E+03  0.39011319473E+03  0.17300000000E+03 0.  1.
         -6    1    1    2    0  501  0.13783945864E+03  0.82357777475E+01 -0.27940582083E+03  0.35646059685E+03  0.17300000000E+03 0. -1.
<mgrwt>
<rscale>  2 0.22135163E+03</rscale>
<asrwt>0</asrwt>
<pdfrwt beam="1">  1        1 0.10363188E+00 0.22135163E+03</pdfrwt>
<pdfrwt beam="2">  1       -1 0.11225633E-01 0.22135163E+03</pdfrwt>
<totfact> 0.15142001E+03</totfact>
</mgrwt>
</event>
<event>
 4    1  0.7368504E-001  0.2152709E+03  0.7546771E-02  0.1137459E+00
         -1   -1    0    0    0  501 -0.00000000000E+00  0.00000000000E+00  0.27043162450E+03  0.27043162450E+03  0.00000000000E+00 0.  1.
          1   -1    0    0  502    0  0.00000000000E+00 -0.00000000000E+00 -0.17425261289E+03  0.17425261289E+03  0.00000000000E+00 0. -1.
          6    1    1    2  502    0 -0.74354715379E+02  0.10432611784E+03  0.76729066613E+02  0.22853645711E+03  0.17300000000E+03 0.  1.
         -6    1    1    2    0  501  0.74354715379E+02 -0.10432611784E+03  0.19449944994E+02  0.21614778029E+03  0.17300000000E+03 0.  1.
<mgrwt>
<rscale>  2 0.21527091E+03</rscale>
<asrwt>0</asrwt>
<pdfrwt beam="1">  1        1 0.26808094E-01 0.21527091E+03</pdfrwt>
<pdfrwt beam="2">  1       -1 0.41604865E-01 0.21527091E+03</pdfrwt>
<totfact> 0.10040201E+03</totfact>
</mgrwt>
</event>
<event>
 4    1  0.7368504E-001  0.2358685E+03  0.7546771E-02  0.1122576E+00
         -2   -1    0    0    0  501 -0.00000000000E+00  0.00000000000E+00  0.26866032831E+02  0.26866032831E+02  0.00000000000E+00 0.  1.
          2   -1    0    0  502    0  0.00000000000E+00 -0.00000000000E+00 -0.21629258969E+04  0.21629258969E+04  0.00000000000E+00 0. -1.
          6    1    1    2  502    0 -0.97482257704E+02 -0.12728762827E+03 -0.12940072364E+04  0.13153283464E+04  0.17300000000E+03 0.  1.
         -6    1    1    2    0  501  0.97482257704E+02  0.12728762827E+03 -0.84205262760E+03  0.87446358330E+03  0.17300000000E+03 0. -1.
<mgrwt>
<rscale>  2 0.23586846E+03</rscale>
<asrwt>0</asrwt>
<pdfrwt beam="1">  1        2 0.33275785E+00 0.23586846E+03</pdfrwt>
<pdfrwt beam="2">  1       -2 0.41332355E-02 0.23586846E+03</pdfrwt>
<totfact> 0.15985257E+03</totfact>
</mgrwt>
</event>
<event>
 4    1  0.7368504E-001  0.2472291E+03  0.7546771E-02  0.1115069E+00
          2   -1    0    0  502    0  0.00000000000E+00  0.00000000000E+00  0.10265628883E+04  0.10265628883E+04  0.00000000000E+00 0.  1.
         -2   -1    0    0    0  501 -0.00000000000E+00 -0.00000000000E+00 -0.88513286989E+02  0.88513286989E+02  0.00000000000E+00 0. -1.
          6    1    1    2  502    0 -0.13478456459E+03  0.11413295837E+03  0.78800549323E+03  0.82587824066E+03  0.17300000000E+03 0.  1.
         -6    1    1    2    0  501  0.13478456459E+03 -0.11413295837E+03  0.15004410813E+03  0.28919793468E+03  0.17300000000E+03 0. -1.
<mgrwt>
<rscale>  2 0.24722907E+03</rscale>
<asrwt>0</asrwt>
<pdfrwt beam="1">  1        2 0.15793274E+00 0.24722907E+03</pdfrwt>
<pdfrwt beam="2">  1       -2 0.13617429E-01 0.24722907E+03</pdfrwt>
<totfact> 0.10188936E+03</totfact>
</mgrwt>
</event>
