<event>
 8    1  0.1248739E-006  0.9118800E+02  0.7816164E-02  0.1184000E+00
        -11   -1    0    0    0    0  0.00000000000E+00  0.00000000000E+00  0.45593999997E+02  0.45594000000E+02  0.51100000000E-03 0.  1.
         11   -1    0    0    0    0 -0.00000000000E+00 -0.00000000000E+00 -0.45593999997E+02  0.45594000000E+02  0.51100000000E-03 0. -1.
         23    2    1    2    0    0 -0.88817841970E-15  0.00000000000E+00  0.35527136788E-14  0.91188000000E+02  0.91188000000E+02 0.  0.
    9900012    2    3    3    0    0 -0.39358370826E+01 -0.31995117398E+02 -0.17793277169E+02  0.54367094752E+02  0.40000024106E+02 0.  0.
        -12    1    3    3    0    0  0.39358370826E+01  0.31995117398E+02  0.17793277169E+02  0.36820905248E+02  0.00000000000E+00 0.  1.
         11    1    4    4    0    0  0.21867613689E+01  0.37623442688E+01 -0.67129224913E+01  0.80000305197E+01  0.51100000000E-03 0.  1.
        -11    1    4    4    0    0 -0.18617787030E+00  0.43373688281E+01 -0.22280581167E+01  0.48797206665E+01  0.51100000000E-03 0. -1.
        -12    1    4    4    0    0 -0.59364205813E+01 -0.40094830495E+02 -0.88522965608E+01  0.41487343566E+02  0.00000000000E+00 0.  1.
</event>
<event>
 8    1  0.1248739E-006  0.9118800E+02  0.7816164E-02  0.1184000E+00
        -11   -1    0    0    0    0  0.00000000000E+00  0.00000000000E+00  0.45593999997E+02  0.45594000000E+02  0.51100000000E-03 0. -1.
         11   -1    0    0    0    0 -0.00000000000E+00 -0.00000000000E+00 -0.45593999997E+02  0.45594000000E+02  0.51100000000E-03 0.  1.
         23    2    1    2    0    0  0.00000000000E+00  0.17763568394E-14 -0.71054273576E-14  0.91188000000E+02  0.91188000000E+02 0.  0.
    9900012    2    3    3    0    0  0.11319691258E+02  0.14091386632E+02 -0.32079226717E+02  0.54367090531E+02  0.40000014483E+02 0.  0.
         12    1    3    3    0    0 -0.11319691258E+02 -0.14091386632E+02  0.32079226717E+02  0.36820909469E+02  0.00000000000E+00 0. -1.
         11    1    4    4    0    0 -0.91395047272E+01  0.62230208368E+01 -0.11286799076E+02  0.15800264828E+02  0.51100000000E-03 0.  1.
        -11    1    4    4    0    0 -0.37629966121E+01 -0.10705075090E+01  0.17555417639E+01  0.42881297759E+01  0.51100000000E-03 0. -1.
         12    1    4    4    0    0  0.24222192597E+02  0.89388733043E+01 -0.22547969405E+02  0.34278695927E+02  0.00000000000E+00 0. -1.
</event>
<event>
 8    1  0.1248739E-006  0.9118800E+02  0.7816164E-02  0.1184000E+00
        -11   -1    0    0    0    0  0.00000000000E+00  0.00000000000E+00  0.45593999997E+02  0.45594000000E+02  0.51100000000E-03 0. -1.
         11   -1    0    0    0    0 -0.00000000000E+00 -0.00000000000E+00 -0.45593999997E+02  0.45594000000E+02  0.51100000000E-03 0.  1.
         23    2    1    2    0    0 -0.44408920985E-15  0.00000000000E+00  0.35527136788E-14  0.91188000000E+02  0.91188000000E+02 0.  0.
    9900012    2    3    3    0    0 -0.34399314336E+01 -0.31251261168E+02 -0.19165211052E+02  0.54367085189E+02  0.40000002306E+02 0.  0.
         12    1    3    3    0    0  0.34399314336E+01  0.31251261168E+02  0.19165211052E+02  0.36820914811E+02  0.00000000000E+00 0. -1.
         11    1    4    4    0    0  0.47084613796E+01  0.46092023203E+01  0.18832915522E+01  0.68528199979E+01  0.51100000000E-03 0. -1.
        -11    1    4    4    0    0  0.15559573675E+01 -0.27452452987E+02 -0.67821834838E+01  0.28320596593E+02  0.51100000000E-03 0.  1.
        -12    1    4    4    0    0 -0.97043501807E+01 -0.84080105015E+01 -0.14266319120E+02  0.19193668598E+02  0.00000000000E+00 0.  1.
</event>
<event>
 8    1  0.1248739E-006  0.9118800E+02  0.7816164E-02  0.1184000E+00
        -11   -1    0    0    0    0  0.00000000000E+00  0.00000000000E+00  0.45593999997E+02  0.45594000000E+02  0.51100000000E-03 0. -1.
         11   -1    0    0    0    0 -0.00000000000E+00 -0.00000000000E+00 -0.45593999997E+02  0.45594000000E+02  0.51100000000E-03 0.  1.
         23    2    1    2    0    0  0.11102230246E-15  0.00000000000E+00  0.00000000000E+00  0.91188000000E+02  0.91188000000E+02 0.  0.
    9900012    2    3    3    0    0 -0.82057550734E+00 -0.15041026034E+02 -0.33598727561E+02  0.54367077930E+02  0.39999985758E+02 0.  0.
         12    1    3    3    0    0  0.82057550734E+00  0.15041026034E+02  0.33598727561E+02  0.36820922070E+02  0.00000000000E+00 0. -1.
         11    1    4    4    0    0  0.18383077141E+02 -0.63234240690E+01 -0.11591586253E+02  0.22633782036E+02  0.51100000000E-03 0. -1.
        -11    1    4    4    0    0 -0.47410919661E+01 -0.38766101253E+01 -0.12057073068E+02  0.13523278830E+02  0.51100000000E-03 0.  1.
         12    1    4    4    0    0 -0.14462560682E+02 -0.48409918398E+01 -0.99500682407E+01  0.18210017064E+02  0.00000000000E+00 0. -1.
</event>
<event>
 8    1  0.1248739E-006  0.9118800E+02  0.7816164E-02  0.1184000E+00
        -11   -1    0    0    0    0  0.00000000000E+00  0.00000000000E+00  0.45593999997E+02  0.45594000000E+02  0.51100000000E-03 0.  1.
         11   -1    0    0    0    0 -0.00000000000E+00 -0.00000000000E+00 -0.45593999997E+02  0.45594000000E+02  0.51100000000E-03 0. -1.
         23    2    1    2    0    0  0.35527136788E-14  0.00000000000E+00  0.00000000000E+00  0.91188000000E+02  0.91188000000E+02 0.  0.
    9900012    2    3    3    0    0  0.29204044102E+02  0.46846202790E+01  0.21930773912E+02  0.54367072480E+02  0.39999973333E+02 0.  0.
         12    1    3    3    0    0 -0.29204044102E+02 -0.46846202790E+01 -0.21930773912E+02  0.36820927520E+02  0.00000000000E+00 0. -1.
         11    1    4    4    0    0  0.56887051692E+01 -0.59745454487E+00 -0.57660268436E+01  0.81219076735E+01  0.51100000000E-03 0. -1.
        -11    1    4    4    0    0  0.23445939707E+02  0.99707300591E+01  0.90811498159E+01  0.27048009703E+02  0.51100000000E-03 0.  1.
        -12    1    4    4    0    0  0.69399225367E-01 -0.46886552352E+01  0.18615650939E+02  0.19197155103E+02  0.00000000000E+00 0.  1.
</event>
<event>
 8    1  0.1248739E-006  0.9118800E+02  0.7816164E-02  0.1184000E+00
        -11   -1    0    0    0    0  0.00000000000E+00  0.00000000000E+00  0.45593999997E+02  0.45594000000E+02  0.51100000000E-03 0. -1.
         11   -1    0    0    0    0 -0.00000000000E+00 -0.00000000000E+00 -0.45593999997E+02  0.45594000000E+02  0.51100000000E-03 0.  1.
         23    2    1    2    0    0 -0.88817841970E-15 -0.35527136788E-14  0.71054273576E-14  0.91188000000E+02  0.91188000000E+02 0.  0.
    9900012    2    3    3    0    0  0.77728434465E+01  0.15414140852E+02 -0.32523454608E+02  0.54366974307E+02  0.39999749526E+02 0.  0.
         12    1    3    3    0    0 -0.77728434465E+01 -0.15414140852E+02  0.32523454608E+02  0.36821025693E+02  0.00000000000E+00 0. -1.
         11    1    4    4    0    0 -0.11819112516E+02  0.12758974610E+02 -0.26662126647E+01  0.17595213667E+02  0.51100000000E-03 0.  1.
        -11    1    4    4    0    0  0.94196736700E+01  0.41145386008E+01 -0.96376804050E+01  0.14090584225E+02  0.51100000000E-03 0. -1.
        -12    1    4    4    0    0  0.10172282293E+02 -0.14593723584E+01 -0.20219561539E+02  0.22681176414E+02  0.00000000000E+00 0.  1.
</event>
<event>
 8    1  0.1248739E-006  0.9118800E+02  0.7816164E-02  0.1184000E+00
        -11   -1    0    0    0    0  0.00000000000E+00  0.00000000000E+00  0.45593999997E+02  0.45594000000E+02  0.51100000000E-03 0. -1.
         11   -1    0    0    0    0 -0.00000000000E+00 -0.00000000000E+00 -0.45593999997E+02  0.45594000000E+02  0.51100000000E-03 0.  1.
         23    2    1    2    0    0  0.00000000000E+00  0.00000000000E+00  0.71054273576E-14  0.91188000000E+02  0.91188000000E+02 0.  0.
    9900012    2    3    3    0    0  0.26458937937E+02  0.15993814406E+02 -0.19997538951E+02  0.54367094795E+02  0.40000024204E+02 0.  0.
         12    1    3    3    0    0 -0.26458937937E+02 -0.15993814406E+02  0.19997538951E+02  0.36820905205E+02  0.00000000000E+00 0. -1.
         11    1    4    4    0    0  0.69557687206E+01 -0.19044575165E+01  0.34029879372E+01  0.79743340844E+01  0.51100000000E-03 0. -1.
        -11    1    4    4    0    0 -0.62757423532E+01  0.19878855758E+00  0.14576700235E+01  0.64458716348E+01  0.51100000000E-03 0.  1.
         12    1    4    4    0    0  0.25778911570E+02  0.17699483365E+02 -0.24858196912E+02  0.39946889076E+02  0.00000000000E+00 0. -1.
</event>
<event>
 8    1  0.1248739E-006  0.9118800E+02  0.7816164E-02  0.1184000E+00
        -11   -1    0    0    0    0  0.00000000000E+00  0.00000000000E+00  0.45593999997E+02  0.45594000000E+02  0.51100000000E-03 0.  1.
         11   -1    0    0    0    0 -0.00000000000E+00 -0.00000000000E+00 -0.45593999997E+02  0.45594000000E+02  0.51100000000E-03 0. -1.
         23    2    1    2    0    0  0.35527136788E-14  0.35527136788E-14  0.00000000000E+00  0.91188000000E+02  0.91188000000E+02 0.  0.
    9900012    2    3    3    0    0  0.17896101798E+02 -0.19036857841E+02  0.25944320028E+02  0.54367079890E+02  0.39999990226E+02 0.  0.
         12    1    3    3    0    0 -0.17896101798E+02  0.19036857841E+02 -0.25944320028E+02  0.36820920110E+02  0.00000000000E+00 0. -1.
         11    1    4    4    0    0  0.17277039280E+02 -0.37323070957E+01  0.17721377160E+02  0.25029450878E+02  0.51100000000E-03 0. -1.
        -11    1    4    4    0    0 -0.11471757046E+02 -0.82483321911E+01  0.48423254584E+01  0.14936007156E+02  0.51100000000E-03 0.  1.
        -12    1    4    4    0    0  0.12090819564E+02 -0.70562185542E+01  0.33806174096E+01  0.14401621856E+02  0.00000000000E+00 0.  1.
</event>
<event>
 8    1  0.1248739E-006  0.9118800E+02  0.7816164E-02  0.1184000E+00
        -11   -1    0    0    0    0  0.00000000000E+00  0.00000000000E+00  0.45593999997E+02  0.45594000000E+02  0.51100000000E-03 0.  1.
         11   -1    0    0    0    0 -0.00000000000E+00 -0.00000000000E+00 -0.45593999997E+02  0.45594000000E+02  0.51100000000E-03 0. -1.
         23    2    1    2    0    0  0.00000000000E+00  0.17763568394E-14  0.00000000000E+00  0.91188000000E+02  0.91188000000E+02 0.  0.
    9900012    2    3    3    0    0 -0.11762051214E+02 -0.15438351771E+02  0.31290436253E+02  0.54367082642E+02  0.39999996498E+02 0.  0.
         12    1    3    3    0    0  0.11762051214E+02  0.15438351771E+02 -0.31290436253E+02  0.36820917358E+02  0.00000000000E+00 0. -1.
         11    1    4    4    0    0  0.15804648798E+01 -0.57367381559E+00 -0.13538165768E+00  0.16868015110E+01  0.51100000000E-03 0. -1.
        -11    1    4    4    0    0 -0.16774558135E+02 -0.15043730196E+02  0.15262201668E+01  0.22583820914E+02  0.51100000000E-03 0.  1.
         12    1    4    4    0    0  0.34320420411E+01  0.17905223984E+00  0.29899597744E+02  0.30096460216E+02  0.00000000000E+00 0. -1.
</event>
<event>
 8    1  0.1248739E-006  0.9118800E+02  0.7816164E-02  0.1184000E+00
        -11   -1    0    0    0    0  0.00000000000E+00  0.00000000000E+00  0.45593999997E+02  0.45594000000E+02  0.51100000000E-03 0. -1.
         11   -1    0    0    0    0 -0.00000000000E+00 -0.00000000000E+00 -0.45593999997E+02  0.45594000000E+02  0.51100000000E-03 0.  1.
         23    2    1    2    0    0 -0.17763568394E-14  0.00000000000E+00  0.88817841970E-15  0.91188000000E+02  0.91188000000E+02 0.  0.
    9900012    2    3    3    0    0  0.12555912765E+02  0.33852385622E+02 -0.72210320259E+01  0.54367105644E+02  0.40000048936E+02 0.  0.
        -12    1    3    3    0    0 -0.12555912765E+02 -0.33852385622E+02  0.72210320259E+01  0.36820894356E+02  0.00000000000E+00 0.  1.
         11    1    4    4    0    0  0.67384366948E+01 -0.42966274555E+01 -0.54555807569E+00  0.80103165017E+01  0.51100000000E-03 0. -1.
        -11    1    4    4    0    0 -0.81256110001E+01  0.43032104105E+01 -0.29422162951E+00  0.91994424065E+01  0.51100000000E-03 0.  1.
        -12    1    4    4    0    0  0.13943087070E+02  0.33845802667E+02 -0.63812523207E+01  0.37157346736E+02  0.00000000000E+00 0.  1.
</event>
<event>
 8    1  0.1248739E-006  0.9118800E+02  0.7816164E-02  0.1184000E+00
        -11   -1    0    0    0    0  0.00000000000E+00  0.00000000000E+00  0.45593999997E+02  0.45594000000E+02  0.51100000000E-03 0.  1.
         11   -1    0    0    0    0 -0.00000000000E+00 -0.00000000000E+00 -0.45593999997E+02  0.45594000000E+02  0.51100000000E-03 0. -1.
         23    2    1    2    0    0  0.00000000000E+00  0.35527136788E-14  0.00000000000E+00  0.91188000000E+02  0.91188000000E+02 0.  0.
    9900012    2    3    3    0    0  0.93258855710E+01  0.28328147008E+02  0.21594552131E+02  0.54367072033E+02  0.39999972315E+02 0.  0.
         12    1    3    3    0    0 -0.93258855710E+01 -0.28328147008E+02 -0.21594552131E+02  0.36820927967E+02  0.00000000000E+00 0. -1.
         11    1    4    4    0    0 -0.82819118350E+01 -0.56500991243E+01  0.81963481430E+01  0.12949664355E+02  0.51100000000E-03 0. -1.
        -11    1    4    4    0    0  0.13093504626E+01  0.63463036016E+01  0.51932231318E+01  0.83041877866E+01  0.51100000000E-03 0.  1.
         12    1    4    4    0    0  0.16298446943E+02  0.27631942530E+02  0.82049808564E+01  0.33113219892E+02  0.00000000000E+00 0. -1.
</event>
<event>
 8    1  0.1248739E-006  0.9118800E+02  0.7816164E-02  0.1184000E+00
        -11   -1    0    0    0    0  0.00000000000E+00  0.00000000000E+00  0.45593999997E+02  0.45594000000E+02  0.51100000000E-03 0. -1.
         11   -1    0    0    0    0 -0.00000000000E+00 -0.00000000000E+00 -0.45593999997E+02  0.45594000000E+02  0.51100000000E-03 0.  1.
         23    2    1    2    0    0  0.00000000000E+00 -0.35527136788E-14  0.00000000000E+00  0.91188000000E+02  0.91188000000E+02 0.  0.
    9900012    2    3    3    0    0 -0.30512466472E+02  0.20182632144E+02  0.41757739866E+01  0.54366995955E+02  0.39999798879E+02 0.  0.
        -12    1    3    3    0    0  0.30512466472E+02 -0.20182632144E+02 -0.41757739866E+01  0.36821004045E+02  0.00000000000E+00 0.  1.
         11    1    4    4    0    0 -0.26448139899E+02  0.13915651901E+02  0.10064949360E+02  0.31534943758E+02  0.51100000000E-03 0. -1.
        -11    1    4    4    0    0  0.44978733724E+01  0.83327176164E+01 -0.94071192372E+01  0.13347619277E+02  0.51100000000E-03 0.  1.
         12    1    4    4    0    0 -0.85621999450E+01 -0.20657373727E+01  0.35179438638E+01  0.94844329203E+01  0.00000000000E+00 0. -1.
</event>
<event>
 8    1  0.1248739E-006  0.9118800E+02  0.7816164E-02  0.1184000E+00
        -11   -1    0    0    0    0  0.00000000000E+00  0.00000000000E+00  0.45593999997E+02  0.45594000000E+02  0.51100000000E-03 0.  1.
         11   -1    0    0    0    0 -0.00000000000E+00 -0.00000000000E+00 -0.45593999997E+02  0.45594000000E+02  0.51100000000E-03 0. -1.
         23    2    1    2    0    0  0.00000000000E+00 -0.88817841970E-15  0.00000000000E+00  0.91188000000E+02  0.91188000000E+02 0.  0.
    9900012    2    3    3    0    0 -0.36201989520E+02  0.66241943030E+01 -0.11470755377E+01  0.54367085051E+02  0.40000001991E+02 0.  0.
        -12    1    3    3    0    0  0.36201989520E+02 -0.66241943030E+01  0.11470755377E+01  0.36820914949E+02  0.00000000000E+00 0.  1.
         11    1    4    4    0    0 -0.21611943196E+02  0.14944400860E+02 -0.37104456937E+01  0.26536363980E+02  0.51100000000E-03 0. -1.
        -11    1    4    4    0    0 -0.86970252136E+01 -0.14601404457E+02 -0.34298033246E+01  0.17337900991E+02  0.51100000000E-03 0.  1.
        -12    1    4    4    0    0 -0.58930211105E+01  0.62811978999E+01  0.59931734806E+01  0.10492820080E+02  0.00000000000E+00 0.  1.
</event>
<event>
 8    1  0.1248739E-006  0.9118800E+02  0.7816164E-02  0.1184000E+00
        -11   -1    0    0    0    0  0.00000000000E+00  0.00000000000E+00  0.45593999997E+02  0.45594000000E+02  0.51100000000E-03 0. -1.
         11   -1    0    0    0    0 -0.00000000000E+00 -0.00000000000E+00 -0.45593999997E+02  0.45594000000E+02  0.51100000000E-03 0.  1.
         23    2    1    2    0    0  0.00000000000E+00  0.44408920985E-15  0.35527136788E-14  0.91188000000E+02  0.91188000000E+02 0.  0.
    9900012    2    3    3    0    0 -0.26268655826E+02 -0.34089900410E+01 -0.25575685915E+02  0.54367092868E+02  0.40000019811E+02 0.  0.
         12    1    3    3    0    0  0.26268655826E+02  0.34089900410E+01  0.25575685915E+02  0.36820907132E+02  0.00000000000E+00 0. -1.
         11    1    4    4    0    0 -0.14458492200E+02  0.69150452274E+01  0.22070296404E+01  0.16178282581E+02  0.51100000000E-03 0. -1.
        -11    1    4    4    0    0 -0.10475064602E+02 -0.83617287410E+01 -0.35841575061E+01  0.13874136775E+02  0.51100000000E-03 0.  1.
        -12    1    4    4    0    0 -0.13350990237E+01 -0.19623065273E+01 -0.24198558049E+02  0.24314673512E+02  0.00000000000E+00 0.  1.
</event>
<event>
 8    1  0.1248739E-006  0.9118800E+02  0.7816164E-02  0.1184000E+00
        -11   -1    0    0    0    0  0.00000000000E+00  0.00000000000E+00  0.45593999997E+02  0.45594000000E+02  0.51100000000E-03 0. -1.
         11   -1    0    0    0    0 -0.00000000000E+00 -0.00000000000E+00 -0.45593999997E+02  0.45594000000E+02  0.51100000000E-03 0.  1.
         23    2    1    2    0    0  0.00000000000E+00  0.17763568394E-14  0.00000000000E+00  0.91188000000E+02  0.91188000000E+02 0.  0.
    9900012    2    3    3    0    0  0.24521510396E+02  0.10697097951E+02 -0.25299182384E+02  0.54367068372E+02  0.39999963967E+02 0.  0.
         12    1    3    3    0    0 -0.24521510396E+02 -0.10697097951E+02  0.25299182384E+02  0.36820931628E+02  0.00000000000E+00 0. -1.
         11    1    4    4    0    0  0.20559201234E+02  0.10203664581E+02 -0.23412112449E+02  0.32786011283E+02  0.51100000000E-03 0. -1.
        -11    1    4    4    0    0  0.60356519713E+01  0.51471793435E+01 -0.95277407367E+01  0.12397596288E+02  0.51100000000E-03 0.  1.
         12    1    4    4    0    0 -0.20733428086E+01 -0.46537459727E+01  0.76406708021E+01  0.91834608012E+01  0.00000000000E+00 0. -1.
</event>
<event>
 8    1  0.1248739E-006  0.9118800E+02  0.7816164E-02  0.1184000E+00
        -11   -1    0    0    0    0  0.00000000000E+00  0.00000000000E+00  0.45593999997E+02  0.45594000000E+02  0.51100000000E-03 0.  1.
         11   -1    0    0    0    0 -0.00000000000E+00 -0.00000000000E+00 -0.45593999997E+02  0.45594000000E+02  0.51100000000E-03 0. -1.
         23    2    1    2    0    0  0.00000000000E+00  0.00000000000E+00 -0.35527136788E-14  0.91188000000E+02  0.91188000000E+02 0.  0.
    9900012    2    3    3    0    0 -0.11628078458E+02 -0.16426425903E+02 -0.30833832893E+02  0.54367286706E+02  0.40000461701E+02 0.  0.
        -12    1    3    3    0    0  0.11628078458E+02  0.16426425903E+02  0.30833832893E+02  0.36820713294E+02  0.00000000000E+00 0.  1.
         11    1    4    4    0    0  0.32428458935E+01  0.58821692607E+01 -0.20577577185E+02  0.21646076961E+02  0.51100000000E-03 0.  1.
        -11    1    4    4    0    0 -0.11218608277E+02 -0.17798240314E+02 -0.14482609415E+02  0.25541740459E+02  0.51100000000E-03 0. -1.
        -12    1    4    4    0    0 -0.36523160750E+01 -0.45103548497E+01  0.42263537068E+01  0.71794692866E+01  0.00000000000E+00 0.  1.
</event>
<event>
 8    1  0.1248739E-006  0.9118800E+02  0.7816164E-02  0.1184000E+00
        -11   -1    0    0    0    0  0.00000000000E+00  0.00000000000E+00  0.45593999997E+02  0.45594000000E+02  0.51100000000E-03 0. -1.
         11   -1    0    0    0    0 -0.00000000000E+00 -0.00000000000E+00 -0.45593999997E+02  0.45594000000E+02  0.51100000000E-03 0.  1.
         23    2    1    2    0    0 -0.71054273576E-14  0.00000000000E+00 -0.17763568394E-14  0.91188000000E+02  0.91188000000E+02 0.  0.
    9900012    2    3    3    0    0  0.33356720255E+02  0.75998799945E+01  0.13614328778E+02  0.54367096831E+02  0.40000028846E+02 0.  0.
        -12    1    3    3    0    0 -0.33356720255E+02 -0.75998799945E+01 -0.13614328778E+02  0.36820903169E+02  0.00000000000E+00 0.  1.
         11    1    4    4    0    0  0.31883990983E+01  0.87550578729E+01  0.88047779502E+01  0.12819557020E+02  0.51100000000E-03 0. -1.
        -11    1    4    4    0    0  0.15222701848E+02 -0.12689814102E+02  0.96718721552E+01  0.22052372769E+02  0.51100000000E-03 0.  1.
        -12    1    4    4    0    0  0.14945619309E+02  0.11534636224E+02 -0.48623213272E+01  0.19495167043E+02  0.00000000000E+00 0.  1.
</event>
<event>
 8    1  0.1248739E-006  0.9118800E+02  0.7816164E-02  0.1184000E+00
        -11   -1    0    0    0    0  0.00000000000E+00  0.00000000000E+00  0.45593999997E+02  0.45594000000E+02  0.51100000000E-03 0.  1.
         11   -1    0    0    0    0 -0.00000000000E+00 -0.00000000000E+00 -0.45593999997E+02  0.45594000000E+02  0.51100000000E-03 0. -1.
         23    2    1    2    0    0  0.35527136788E-14 -0.35527136788E-14 -0.35527136788E-14  0.91188000000E+02  0.91188000000E+02 0.  0.
    9900012    2    3    3    0    0  0.17135667182E+02 -0.14166533689E+02 -0.29350616376E+02  0.54367075946E+02  0.39999981235E+02 0.  0.
        -12    1    3    3    0    0 -0.17135667182E+02  0.14166533689E+02  0.29350616376E+02  0.36820924054E+02  0.00000000000E+00 0.  1.
         11    1    4    4    0    0  0.11730788883E+02  0.97949121635E+01 -0.31374969955E+01  0.15601140976E+02  0.51100000000E-03 0. -1.
        -11    1    4    4    0    0 -0.25814249808E+01 -0.63741881084E+01 -0.14826794596E+02  0.16344046844E+02  0.51100000000E-03 0.  1.
        -12    1    4    4    0    0  0.79863032802E+01 -0.17587257744E+02 -0.11386324784E+02  0.22421888126E+02  0.00000000000E+00 0.  1.
</event>
<event>
 8    1  0.1248739E-006  0.9118800E+02  0.7816164E-02  0.1184000E+00
        -11   -1    0    0    0    0  0.00000000000E+00  0.00000000000E+00  0.45593999997E+02  0.45594000000E+02  0.51100000000E-03 0.  1.
         11   -1    0    0    0    0 -0.00000000000E+00 -0.00000000000E+00 -0.45593999997E+02  0.45594000000E+02  0.51100000000E-03 0. -1.
         23    2    1    2    0    0  0.00000000000E+00 -0.88817841970E-15  0.00000000000E+00  0.91188000000E+02  0.91188000000E+02 0.  0.
    9900012    2    3    3    0    0 -0.14191512584E+02 -0.41324940729E+01 -0.33723920711E+02  0.54367090658E+02  0.40000014773E+02 0.  0.
        -12    1    3    3    0    0  0.14191512584E+02  0.41324940729E+01  0.33723920711E+02  0.36820909342E+02  0.00000000000E+00 0.  1.
         11    1    4    4    0    0 -0.63072785148E+01 -0.97749940921E+01 -0.19922422174E+02  0.23070222741E+02  0.51100000000E-03 0. -1.
        -11    1    4    4    0    0  0.25984940658E+01 -0.72959083971E+01 -0.12355456582E+02  0.14582172622E+02  0.51100000000E-03 0.  1.
        -12    1    4    4    0    0 -0.10482728135E+02  0.12938408416E+02 -0.14460419547E+01  0.16714695296E+02  0.00000000000E+00 0.  1.
</event>
<event>
 8    1  0.1248739E-006  0.9118800E+02  0.7816164E-02  0.1184000E+00
        -11   -1    0    0    0    0  0.00000000000E+00  0.00000000000E+00  0.45593999997E+02  0.45594000000E+02  0.51100000000E-03 0.  1.
         11   -1    0    0    0    0 -0.00000000000E+00 -0.00000000000E+00 -0.45593999997E+02  0.45594000000E+02  0.51100000000E-03 0. -1.
         23    2    1    2    0    0  0.00000000000E+00  0.88817841970E-15  0.71054273576E-14  0.91188000000E+02  0.91188000000E+02 0.  0.
    9900012    2    3    3    0    0 -0.50102339443E+01  0.51143320655E+01 -0.36117924289E+02  0.54367308921E+02  0.40000512343E+02 0.  0.
        -12    1    3    3    0    0  0.50102339443E+01 -0.51143320655E+01  0.36117924289E+02  0.36820691079E+02  0.00000000000E+00 0.  1.
         11    1    4    4    0    0 -0.82641740776E+01  0.89764900849E+01 -0.48354423218E+01  0.13124612380E+02  0.51100000000E-03 0. -1.
        -11    1    4    4    0    0  0.47473484571E+01  0.91648178827E+01 -0.41814269873E+01  0.11136226296E+02  0.51100000000E-03 0.  1.
         12    1    4    4    0    0 -0.14934083238E+01 -0.13026975902E+02 -0.27101054980E+02  0.30106470244E+02  0.00000000000E+00 0. -1.
</event>
<event>
 8    1  0.1248739E-006  0.9118800E+02  0.7816164E-02  0.1184000E+00
        -11   -1    0    0    0    0  0.00000000000E+00  0.00000000000E+00  0.45593999997E+02  0.45594000000E+02  0.51100000000E-03 0.  1.
         11   -1    0    0    0    0 -0.00000000000E+00 -0.00000000000E+00 -0.45593999997E+02  0.45594000000E+02  0.51100000000E-03 0. -1.
         23    2    1    2    0    0  0.00000000000E+00  0.00000000000E+00  0.35527136788E-14  0.91188000000E+02  0.91188000000E+02 0.  0.
    9900012    2    3    3    0    0 -0.21695101081E+02  0.13714356940E+02  0.26401105205E+02  0.54367090815E+02  0.40000015130E+02 0.  0.
         12    1    3    3    0    0  0.21695101081E+02 -0.13714356940E+02 -0.26401105205E+02  0.36820909185E+02  0.00000000000E+00 0. -1.
         11    1    4    4    0    0 -0.20432666124E+02 -0.25663253155E+01  0.36701268773E+01  0.20917688738E+02  0.51100000000E-03 0. -1.
        -11    1    4    4    0    0 -0.15555807950E+01  0.11253222868E+02  0.12996447998E+01  0.11434331349E+02  0.51100000000E-03 0.  1.
        -12    1    4    4    0    0  0.29314583810E+00  0.50274593868E+01  0.21431333528E+02  0.22015070728E+02  0.00000000000E+00 0.  1.
</event>
<event>
 8    1  0.1248739E-006  0.9118800E+02  0.7816164E-02  0.1184000E+00
        -11   -1    0    0    0    0  0.00000000000E+00  0.00000000000E+00  0.45593999997E+02  0.45594000000E+02  0.51100000000E-03 0.  1.
         11   -1    0    0    0    0 -0.00000000000E+00 -0.00000000000E+00 -0.45593999997E+02  0.45594000000E+02  0.51100000000E-03 0. -1.
         23    2    1    2    0    0  0.00000000000E+00 -0.44408920985E-15  0.00000000000E+00  0.91188000000E+02  0.91188000000E+02 0.  0.
    9900012    2    3    3    0    0  0.30675975905E+02  0.16759940051E+01  0.20296683812E+02  0.54367084376E+02  0.40000000452E+02 0.  0.
         12    1    3    3    0    0 -0.30675975905E+02 -0.16759940051E+01 -0.20296683812E+02  0.36820915624E+02  0.00000000000E+00 0. -1.
         11    1    4    4    0    0  0.58556470477E+01  0.68501528589E+01  0.49550243869E+01  0.10284233733E+02  0.51100000000E-03 0. -1.
        -11    1    4    4    0    0  0.30069914059E+02 -0.78556212079E+01  0.40457221042E+01  0.31341320707E+02  0.51100000000E-03 0.  1.
         12    1    4    4    0    0 -0.52495852014E+01  0.26814623542E+01  0.11295937321E+02  0.12741529936E+02  0.00000000000E+00 0. -1.
</event>
<event>
 8    1  0.1248739E-006  0.9118800E+02  0.7816164E-02  0.1184000E+00
        -11   -1    0    0    0    0  0.00000000000E+00  0.00000000000E+00  0.45593999997E+02  0.45594000000E+02  0.51100000000E-03 0.  1.
         11   -1    0    0    0    0 -0.00000000000E+00 -0.00000000000E+00 -0.45593999997E+02  0.45594000000E+02  0.51100000000E-03 0. -1.
         23    2    1    2    0    0 -0.44408920985E-15  0.00000000000E+00  0.00000000000E+00  0.91188000000E+02  0.91188000000E+02 0.  0.
    9900012    2    3    3    0    0 -0.35247203470E+01 -0.20023200493E+02  0.30698898787E+02  0.54367155384E+02  0.40000162329E+02 0.  0.
         12    1    3    3    0    0  0.35247203470E+01  0.20023200493E+02 -0.30698898787E+02  0.36820844616E+02  0.00000000000E+00 0. -1.
         11    1    4    4    0    0 -0.10275231514E+02  0.42421136462E+01  0.70880848610E+00  0.11139044869E+02  0.51100000000E-03 0. -1.
        -11    1    4    4    0    0  0.10776614395E+02 -0.62902398644E+01  0.14753538525E+02  0.19322769849E+02  0.51100000000E-03 0.  1.
         12    1    4    4    0    0 -0.40261032278E+01 -0.17975074274E+02  0.15236551776E+02  0.23905340666E+02  0.00000000000E+00 0. -1.
</event>
<event>
 8    1  0.1248739E-006  0.9118800E+02  0.7816164E-02  0.1184000E+00
        -11   -1    0    0    0    0  0.00000000000E+00  0.00000000000E+00  0.45593999997E+02  0.45594000000E+02  0.51100000000E-03 0.  1.
         11   -1    0    0    0    0 -0.00000000000E+00 -0.00000000000E+00 -0.45593999997E+02  0.45594000000E+02  0.51100000000E-03 0. -1.
         23    2    1    2    0    0  0.71054273576E-14  0.00000000000E+00  0.00000000000E+00  0.91188000000E+02  0.91188000000E+02 0.  0.
    9900012    2    3    3    0    0 -0.33689412611E+02 -0.11978658229E+02  0.87930123696E+01  0.54367057025E+02  0.39999938100E+02 0.  0.
         12    1    3    3    0    0  0.33689412611E+02  0.11978658229E+02 -0.87930123696E+01  0.36820942975E+02  0.00000000000E+00 0. -1.
         11    1    4    4    0    0 -0.21249505639E+02 -0.95065879448E+01 -0.10039680349E+00  0.23279320953E+02  0.51100000000E-03 0. -1.
        -11    1    4    4    0    0  0.78802763091E+01  0.11265094128E+00 -0.16464999901E+01  0.80512363908E+01  0.51100000000E-03 0.  1.
        -12    1    4    4    0    0 -0.20320183281E+02 -0.25847212256E+01  0.10539909163E+02  0.23036499681E+02  0.00000000000E+00 0.  1.
</event>
<event>
 8    1  0.1248739E-006  0.9118800E+02  0.7816164E-02  0.1184000E+00
        -11   -1    0    0    0    0  0.00000000000E+00  0.00000000000E+00  0.45593999997E+02  0.45594000000E+02  0.51100000000E-03 0. -1.
         11   -1    0    0    0    0 -0.00000000000E+00 -0.00000000000E+00 -0.45593999997E+02  0.45594000000E+02  0.51100000000E-03 0.  1.
         23    2    1    2    0    0 -0.35527136788E-14 -0.17763568394E-14 -0.35527136788E-14  0.91188000000E+02  0.91188000000E+02 0.  0.
    9900012    2    3    3    0    0  0.23418192331E+02  0.15021838037E+02  0.24118719230E+02  0.54367082475E+02  0.39999996118E+02 0.  0.
        -12    1    3    3    0    0 -0.23418192331E+02 -0.15021838037E+02 -0.24118719230E+02  0.36820917525E+02  0.00000000000E+00 0.  1.
         11    1    4    4    0    0 -0.10938872260E+01  0.89005126011E+01 -0.27774995985E+01  0.93877696023E+01  0.51100000000E-03 0.  1.
        -11    1    4    4    0    0  0.16141792450E+02  0.14899170767E+02  0.98890250555E+01  0.24090155040E+02  0.51100000000E-03 0. -1.
         12    1    4    4    0    0  0.83702871072E+01 -0.87778453313E+01  0.17007193773E+02  0.20889157833E+02  0.00000000000E+00 0. -1.
</event>
<event>
 8    1  0.1248739E-006  0.9118800E+02  0.7816164E-02  0.1184000E+00
        -11   -1    0    0    0    0  0.00000000000E+00  0.00000000000E+00  0.45593999997E+02  0.45594000000E+02  0.51100000000E-03 0.  1.
         11   -1    0    0    0    0 -0.00000000000E+00 -0.00000000000E+00 -0.45593999997E+02  0.45594000000E+02  0.51100000000E-03 0. -1.
         23    2    1    2    0    0 -0.35527136788E-14  0.00000000000E+00  0.00000000000E+00  0.91188000000E+02  0.91188000000E+02 0.  0.
    9900012    2    3    3    0    0 -0.22249134218E+02 -0.29055664648E+02  0.40652182869E+01  0.54367060016E+02  0.39999944919E+02 0.  0.
         12    1    3    3    0    0  0.22249134218E+02  0.29055664648E+02 -0.40652182869E+01  0.36820939984E+02  0.00000000000E+00 0. -1.
         11    1    4    4    0    0 -0.12545080756E+02 -0.12128868284E+02 -0.33595171584E+01  0.17770054947E+02  0.51100000000E-03 0. -1.
        -11    1    4    4    0    0 -0.11295851892E+02 -0.19757033768E+02 -0.53812264045E+01  0.23385770271E+02  0.51100000000E-03 0.  1.
         12    1    4    4    0    0  0.15917984299E+01  0.28302374040E+01  0.12805961850E+02  0.13211234799E+02  0.00000000000E+00 0. -1.
</event>
<event>
 8    1  0.1248739E-006  0.9118800E+02  0.7816164E-02  0.1184000E+00
        -11   -1    0    0    0    0  0.00000000000E+00  0.00000000000E+00  0.45593999997E+02  0.45594000000E+02  0.51100000000E-03 0.  1.
         11   -1    0    0    0    0 -0.00000000000E+00 -0.00000000000E+00 -0.45593999997E+02  0.45594000000E+02  0.51100000000E-03 0. -1.
         23    2    1    2    0    0 -0.55511151231E-15  0.00000000000E+00  0.35527136788E-14  0.91188000000E+02  0.91188000000E+02 0.  0.
    9900012    2    3    3    0    0  0.39157806471E+00 -0.26300593207E+02 -0.25766353486E+02  0.54367088708E+02  0.40000010328E+02 0.  0.
        -12    1    3    3    0    0 -0.39157806471E+00  0.26300593207E+02  0.25766353486E+02  0.36820911292E+02  0.00000000000E+00 0.  1.
         11    1    4    4    0    0  0.92149023177E+01 -0.79896489488E+01 -0.18498594706E+02  0.22157322072E+02  0.51100000000E-03 0. -1.
        -11    1    4    4    0    0 -0.70976572648E+01 -0.18622144706E+02  0.44017712532E+01  0.20409228366E+02  0.51100000000E-03 0.  1.
        -12    1    4    4    0    0 -0.17256669882E+01  0.31120044773E+00 -0.11669530032E+02  0.11800538270E+02  0.00000000000E+00 0.  1.
</event>
<event>
 8    1  0.1248739E-006  0.9118800E+02  0.7816164E-02  0.1184000E+00
        -11   -1    0    0    0    0  0.00000000000E+00  0.00000000000E+00  0.45593999997E+02  0.45594000000E+02  0.51100000000E-03 0. -1.
         11   -1    0    0    0    0 -0.00000000000E+00 -0.00000000000E+00 -0.45593999997E+02  0.45594000000E+02  0.51100000000E-03 0.  1.
         23    2    1    2    0    0  0.00000000000E+00  0.00000000000E+00 -0.35527136788E-14  0.91188000000E+02  0.91188000000E+02 0.  0.
    9900012    2    3    3    0    0  0.83526413212E+01  0.33211960550E+02  0.13527011749E+02  0.54367068624E+02  0.39999964541E+02 0.  0.
         12    1    3    3    0    0 -0.83526413212E+01 -0.33211960550E+02 -0.13527011749E+02  0.36820931376E+02  0.00000000000E+00 0. -1.
         11    1    4    4    0    0  0.98011857256E+01  0.11023706804E+02  0.10766527134E+01  0.14790014694E+02  0.51100000000E-03 0. -1.
        -11    1    4    4    0    0  0.10776061309E+02  0.15731633966E+02 -0.24798510667E+01  0.19229078661E+02  0.51100000000E-03 0.  1.
         12    1    4    4    0    0 -0.12224605714E+02  0.64566197798E+01  0.14930210102E+02  0.20347975268E+02  0.00000000000E+00 0. -1.
</event>
<event>
 8    1  0.1248739E-006  0.9118800E+02  0.7816164E-02  0.1184000E+00
        -11   -1    0    0    0    0  0.00000000000E+00  0.00000000000E+00  0.45593999997E+02  0.45594000000E+02  0.51100000000E-03 0.  1.
         11   -1    0    0    0    0 -0.00000000000E+00 -0.00000000000E+00 -0.45593999997E+02  0.45594000000E+02  0.51100000000E-03 0. -1.
         23    2    1    2    0    0 -0.35527136788E-14 -0.71054273576E-14 -0.11102230246E-14  0.91188000000E+02  0.91188000000E+02 0.  0.
    9900012    2    3    3    0    0 -0.19295326236E+02 -0.31354460198E+02  0.60702490419E+00  0.54367078391E+02  0.39999986808E+02 0.  0.
         12    1    3    3    0    0  0.19295326236E+02  0.31354460198E+02 -0.60702490419E+00  0.36820921609E+02  0.00000000000E+00 0. -1.
         11    1    4    4    0    0 -0.63265529046E+01 -0.13301851143E+02 -0.35124765880E+01  0.15142721272E+02  0.51100000000E-03 0. -1.
        -11    1    4    4    0    0 -0.15921881256E+02 -0.11673859745E+02  0.16005277592E+02  0.25415629347E+02  0.51100000000E-03 0.  1.
         12    1    4    4    0    0  0.29531079241E+01 -0.63787493107E+01 -0.11885776100E+02  0.13808727772E+02  0.00000000000E+00 0. -1.
</event>
<event>
 8    1  0.1248739E-006  0.9118800E+02  0.7816164E-02  0.1184000E+00
        -11   -1    0    0    0    0  0.00000000000E+00  0.00000000000E+00  0.45593999997E+02  0.45594000000E+02  0.51100000000E-03 0.  1.
         11   -1    0    0    0    0 -0.00000000000E+00 -0.00000000000E+00 -0.45593999997E+02  0.45594000000E+02  0.51100000000E-03 0. -1.
         23    2    1    2    0    0  0.00000000000E+00  0.00000000000E+00  0.00000000000E+00  0.91188000000E+02  0.91188000000E+02 0.  0.
    9900012    2    3    3    0    0 -0.30362245223E+02  0.19697299923E+02 -0.67770011607E+01  0.54367118643E+02  0.40000078570E+02 0.  0.
        -12    1    3    3    0    0  0.30362245223E+02 -0.19697299923E+02  0.67770011607E+01  0.36820881357E+02  0.00000000000E+00 0.  1.
         11    1    4    4    0    0 -0.17786364132E+02  0.21817101068E+02 -0.72076697505E+01  0.29056688585E+02  0.51100000000E-03 0. -1.
        -11    1    4    4    0    0 -0.16391119829E+02  0.30107868660E+01  0.50602300219E+01  0.17416646489E+02  0.51100000000E-03 0.  1.
        -12    1    4    4    0    0  0.38152387382E+01 -0.51305880112E+01 -0.46295614321E+01  0.78937835683E+01  0.00000000000E+00 0.  1.
</event>
<event>
 8    1  0.1248739E-006  0.9118800E+02  0.7816164E-02  0.1184000E+00
        -11   -1    0    0    0    0  0.00000000000E+00  0.00000000000E+00  0.45593999997E+02  0.45594000000E+02  0.51100000000E-03 0.  1.
         11   -1    0    0    0    0 -0.00000000000E+00 -0.00000000000E+00 -0.45593999997E+02  0.45594000000E+02  0.51100000000E-03 0. -1.
         23    2    1    2    0    0  0.00000000000E+00  0.00000000000E+00  0.00000000000E+00  0.91188000000E+02  0.91188000000E+02 0.  0.
    9900012    2    3    3    0    0  0.11850677776E+02  0.33630933602E+02  0.91815494202E+01  0.54367094138E+02  0.40000022707E+02 0.  0.
         12    1    3    3    0    0 -0.11850677776E+02 -0.33630933602E+02 -0.91815494202E+01  0.36820905862E+02  0.00000000000E+00 0. -1.
         11    1    4    4    0    0  0.75178293039E-01  0.16684654627E+02  0.14264490212E+02  0.21951287732E+02  0.51100000000E-03 0. -1.
        -11    1    4    4    0    0 -0.70058140041E+01  0.52235960403E+01  0.23716383096E+01  0.90549463822E+01  0.51100000000E-03 0.  1.
         12    1    4    4    0    0  0.18781313487E+02  0.11722682935E+02 -0.74545791018E+01  0.23360860024E+02  0.00000000000E+00 0. -1.
</event>
<event>
 8    1  0.1248739E-006  0.9118800E+02  0.7816164E-02  0.1184000E+00
        -11   -1    0    0    0    0  0.00000000000E+00  0.00000000000E+00  0.45593999997E+02  0.45594000000E+02  0.51100000000E-03 0. -1.
         11   -1    0    0    0    0 -0.00000000000E+00 -0.00000000000E+00 -0.45593999997E+02  0.45594000000E+02  0.51100000000E-03 0.  1.
         23    2    1    2    0    0 -0.17763568394E-14  0.00000000000E+00  0.00000000000E+00  0.91188000000E+02  0.91188000000E+02 0.  0.
    9900012    2    3    3    0    0 -0.11167587513E+02  0.95131863700E+01  0.33772217572E+02  0.54367103684E+02  0.40000044469E+02 0.  0.
        -12    1    3    3    0    0  0.11167587513E+02 -0.95131863700E+01 -0.33772217572E+02  0.36820896316E+02  0.00000000000E+00 0.  1.
         11    1    4    4    0    0  0.40128737227E+01 -0.74739565725E+01  0.61502021188E+01  0.10477984955E+02  0.51100000000E-03 0. -1.
        -11    1    4    4    0    0 -0.15113341147E+02  0.21757805464E+02  0.28636757144E+02  0.39011268106E+02  0.51100000000E-03 0.  1.
        -12    1    4    4    0    0 -0.67120088993E-01 -0.47706625219E+01 -0.10147416906E+01  0.48778506233E+01  0.00000000000E+00 0.  1.
</event>
<event>
 8    1  0.1248739E-006  0.9118800E+02  0.7816164E-02  0.1184000E+00
        -11   -1    0    0    0    0  0.00000000000E+00  0.00000000000E+00  0.45593999997E+02  0.45594000000E+02  0.51100000000E-03 0. -1.
         11   -1    0    0    0    0 -0.00000000000E+00 -0.00000000000E+00 -0.45593999997E+02  0.45594000000E+02  0.51100000000E-03 0.  1.
         23    2    1    2    0    0 -0.17763568394E-14 -0.88817841970E-15  0.00000000000E+00  0.91188000000E+02  0.91188000000E+02 0.  0.
    9900012    2    3    3    0    0 -0.93019891819E+01  0.37043621324E+01  0.35433491656E+02  0.54367059864E+02  0.39999944571E+02 0.  0.
        -12    1    3    3    0    0  0.93019891819E+01 -0.37043621324E+01 -0.35433491656E+02  0.36820940136E+02  0.00000000000E+00 0.  1.
         11    1    4    4    0    0 -0.66875654387E+01  0.38909969157E+01  0.31952801702E+02  0.32876206067E+02  0.51100000000E-03 0. -1.
        -11    1    4    4    0    0  0.34348286862E+01  0.42047077094E+01  0.10125525838E+02  0.11489294530E+02  0.51100000000E-03 0.  1.
        -12    1    4    4    0    0 -0.60492524294E+01 -0.43913424927E+01 -0.66448358841E+01  0.10001559267E+02  0.00000000000E+00 0.  1.
</event>
<event>
 8    1  0.1248739E-006  0.9118800E+02  0.7816164E-02  0.1184000E+00
        -11   -1    0    0    0    0  0.00000000000E+00  0.00000000000E+00  0.45593999997E+02  0.45594000000E+02  0.51100000000E-03 0.  1.
         11   -1    0    0    0    0 -0.00000000000E+00 -0.00000000000E+00 -0.45593999997E+02  0.45594000000E+02  0.51100000000E-03 0. -1.
         23    2    1    2    0    0  0.00000000000E+00  0.17763568394E-14 -0.35527136788E-14  0.91188000000E+02  0.91188000000E+02 0.  0.
    9900012    2    3    3    0    0 -0.23960733885E+02  0.12487315477E+02 -0.25014591582E+02  0.54367087353E+02  0.40000007239E+02 0.  0.
        -12    1    3    3    0    0  0.23960733885E+02 -0.12487315477E+02  0.25014591582E+02  0.36820912647E+02  0.00000000000E+00 0.  1.
         11    1    4    4    0    0 -0.70798345421E+01  0.14658477982E+02 -0.15501936992E+02  0.22478992074E+02  0.51100000000E-03 0. -1.
        -11    1    4    4    0    0  0.37828961066E+01  0.33217386077E+01 -0.92197711831E+01  0.10504686157E+02  0.51100000000E-03 0.  1.
        -12    1    4    4    0    0 -0.20663795449E+02 -0.54929011127E+01 -0.29288340725E+00  0.21383409122E+02  0.00000000000E+00 0.  1.
</event>
<event>
 8    1  0.1248739E-006  0.9118800E+02  0.7816164E-02  0.1184000E+00
        -11   -1    0    0    0    0  0.00000000000E+00  0.00000000000E+00  0.45593999997E+02  0.45594000000E+02  0.51100000000E-03 0. -1.
         11   -1    0    0    0    0 -0.00000000000E+00 -0.00000000000E+00 -0.45593999997E+02  0.45594000000E+02  0.51100000000E-03 0.  1.
         23    2    1    2    0    0  0.35527136788E-14  0.00000000000E+00  0.10658141036E-13  0.91188000000E+02  0.91188000000E+02 0.  0.
    9900012    2    3    3    0    0  0.15271405089E+02  0.20883523748E+02  0.26200133334E+02  0.54367022769E+02  0.39999860006E+02 0.  0.
        -12    1    3    3    0    0 -0.15271405089E+02 -0.20883523748E+02 -0.26200133334E+02  0.36820977231E+02  0.00000000000E+00 0.  1.
         11    1    4    4    0    0  0.39986251156E+01  0.12901776244E+02  0.66492141057E+01  0.15055128082E+02  0.51100000000E-03 0. -1.
        -11    1    4    4    0    0  0.32448681808E+01 -0.37328019689E+01 -0.73694419101E+01  0.88753396767E+01  0.51100000000E-03 0.  1.
        -12    1    4    4    0    0  0.80279117925E+01  0.11714549473E+02  0.26920361138E+02  0.30436555010E+02  0.00000000000E+00 0.  1.
</event>
<event>
 8    1  0.1248739E-006  0.9118800E+02  0.7816164E-02  0.1184000E+00
        -11   -1    0    0    0    0  0.00000000000E+00  0.00000000000E+00  0.45593999997E+02  0.45594000000E+02  0.51100000000E-03 0. -1.
         11   -1    0    0    0    0 -0.00000000000E+00 -0.00000000000E+00 -0.45593999997E+02  0.45594000000E+02  0.51100000000E-03 0.  1.
         23    2    1    2    0    0  0.00000000000E+00  0.31086244690E-14  0.35527136788E-14  0.91188000000E+02  0.91188000000E+02 0.  0.
    9900012    2    3    3    0    0 -0.23396369495E+02 -0.34168069522E+01  0.28226154573E+02  0.54367075551E+02  0.39999980334E+02 0.  0.
        -12    1    3    3    0    0  0.23396369495E+02  0.34168069522E+01 -0.28226154573E+02  0.36820924449E+02  0.00000000000E+00 0.  1.
         11    1    4    4    0    0 -0.39737962294E+01  0.58499421061E+01  0.87671662108E+00  0.71261147488E+01  0.51100000000E-03 0. -1.
        -11    1    4    4    0    0 -0.90904371738E+01 -0.17761748052E+02  0.40272161354E+01  0.20355201103E+02  0.51100000000E-03 0.  1.
        -12    1    4    4    0    0 -0.10332136092E+02  0.84949989941E+01  0.23322221817E+02  0.26885759699E+02  0.00000000000E+00 0.  1.
</event>
<event>
 8    1  0.1248739E-006  0.9118800E+02  0.7816164E-02  0.1184000E+00
        -11   -1    0    0    0    0  0.00000000000E+00  0.00000000000E+00  0.45593999997E+02  0.45594000000E+02  0.51100000000E-03 0. -1.
         11   -1    0    0    0    0 -0.00000000000E+00 -0.00000000000E+00 -0.45593999997E+02  0.45594000000E+02  0.51100000000E-03 0.  1.
         23    2    1    2    0    0  0.00000000000E+00  0.00000000000E+00  0.00000000000E+00  0.91188000000E+02  0.91188000000E+02 0.  0.
    9900012    2    3    3    0    0 -0.13430989195E+02  0.27859550633E+02 -0.19980832164E+02  0.54367086293E+02  0.40000004823E+02 0.  0.
         12    1    3    3    0    0  0.13430989195E+02 -0.27859550633E+02  0.19980832164E+02  0.36820913707E+02  0.00000000000E+00 0. -1.
         11    1    4    4    0    0 -0.13254041329E+02  0.10435830249E+02 -0.21437025919E+02  0.27278604162E+02  0.51100000000E-03 0.  1.
        -11    1    4    4    0    0 -0.50983381281E+01 -0.30009643266E+01 -0.75172728122E+00  0.59635503456E+01  0.51100000000E-03 0. -1.
         12    1    4    4    0    0  0.49213902619E+01  0.20424684710E+02  0.22079210362E+01  0.21124931785E+02  0.00000000000E+00 0. -1.
</event>
<event>
 8    1  0.1248739E-006  0.9118800E+02  0.7816164E-02  0.1184000E+00
        -11   -1    0    0    0    0  0.00000000000E+00  0.00000000000E+00  0.45593999997E+02  0.45594000000E+02  0.51100000000E-03 0.  1.
         11   -1    0    0    0    0 -0.00000000000E+00 -0.00000000000E+00 -0.45593999997E+02  0.45594000000E+02  0.51100000000E-03 0. -1.
         23    2    1    2    0    0  0.00000000000E+00  0.00000000000E+00 -0.17763568394E-14  0.91188000000E+02  0.91188000000E+02 0.  0.
    9900012    2    3    3    0    0 -0.18477172518E+02 -0.30239002835E+02  0.99988229001E+01  0.54367086702E+02  0.40000005754E+02 0.  0.
         12    1    3    3    0    0  0.18477172518E+02  0.30239002835E+02 -0.99988229001E+01  0.36820913298E+02  0.00000000000E+00 0. -1.
         11    1    4    4    0    0 -0.10590214923E+02 -0.11304265906E+02 -0.14355966310E+00  0.15490632312E+02  0.51100000000E-03 0. -1.
        -11    1    4    4    0    0 -0.16134427144E+02 -0.17977726934E+02  0.15768277814E+02  0.28847131408E+02  0.51100000000E-03 0.  1.
         12    1    4    4    0    0  0.82474695495E+01 -0.95700999543E+00 -0.56258952510E+01  0.10029322982E+02  0.00000000000E+00 0. -1.
</event>
<event>
 8    1  0.1248739E-006  0.9118800E+02  0.7816164E-02  0.1184000E+00
        -11   -1    0    0    0    0  0.00000000000E+00  0.00000000000E+00  0.45593999997E+02  0.45594000000E+02  0.51100000000E-03 0.  1.
         11   -1    0    0    0    0 -0.00000000000E+00 -0.00000000000E+00 -0.45593999997E+02  0.45594000000E+02  0.51100000000E-03 0. -1.
         23    2    1    2    0    0 -0.71054273576E-14 -0.44408920985E-15 -0.88817841970E-15  0.91188000000E+02  0.91188000000E+02 0.  0.
    9900012    2    3    3    0    0 -0.36361803829E+02 -0.37939949789E+01 -0.43826071902E+01  0.54367049152E+02  0.39999920151E+02 0.  0.
        -12    1    3    3    0    0  0.36361803829E+02  0.37939949789E+01  0.43826071902E+01  0.36820950848E+02  0.00000000000E+00 0.  1.
         11    1    4    4    0    0  0.22296203536E+01 -0.47062461020E+01 -0.28922526778E+01  0.59569358824E+01  0.51100000000E-03 0. -1.
        -11    1    4    4    0    0  0.17763621969E-01  0.83948579185E+01  0.27992511230E+01  0.88492803170E+01  0.51100000000E-03 0.  1.
         12    1    4    4    0    0 -0.38609187804E+02 -0.74826067953E+01 -0.42896056354E+01  0.39560832952E+02  0.00000000000E+00 0. -1.
</event>
<event>
 8    1  0.1248739E-006  0.9118800E+02  0.7816164E-02  0.1184000E+00
        -11   -1    0    0    0    0  0.00000000000E+00  0.00000000000E+00  0.45593999997E+02  0.45594000000E+02  0.51100000000E-03 0.  1.
         11   -1    0    0    0    0 -0.00000000000E+00 -0.00000000000E+00 -0.45593999997E+02  0.45594000000E+02  0.51100000000E-03 0. -1.
         23    2    1    2    0    0  0.00000000000E+00  0.00000000000E+00 -0.44408920985E-15  0.91188000000E+02  0.91188000000E+02 0.  0.
    9900012    2    3    3    0    0 -0.31891034628E+02 -0.18041041864E+02 -0.36417995977E+01  0.54367082229E+02  0.39999995558E+02 0.  0.
         12    1    3    3    0    0  0.31891034628E+02  0.18041041864E+02  0.36417995977E+01  0.36820917771E+02  0.00000000000E+00 0. -1.
         11    1    4    4    0    0 -0.53908952828E+01  0.20697764094E+00 -0.10907922719E+02  0.12169115416E+02  0.51100000000E-03 0. -1.
        -11    1    4    4    0    0 -0.30738768941E+02 -0.10067659516E+02  0.60179216293E+01  0.32900532900E+02  0.51100000000E-03 0.  1.
        -12    1    4    4    0    0  0.42386295956E+01 -0.81803599891E+01  0.12482014924E+01  0.92974339129E+01  0.00000000000E+00 0.  1.
</event>
<event>
 8    1  0.1248739E-006  0.9118800E+02  0.7816164E-02  0.1184000E+00
        -11   -1    0    0    0    0  0.00000000000E+00  0.00000000000E+00  0.45593999997E+02  0.45594000000E+02  0.51100000000E-03 0.  1.
         11   -1    0    0    0    0 -0.00000000000E+00 -0.00000000000E+00 -0.45593999997E+02  0.45594000000E+02  0.51100000000E-03 0. -1.
         23    2    1    2    0    0 -0.71054273576E-14  0.88817841970E-15  0.00000000000E+00  0.91188000000E+02  0.91188000000E+02 0.  0.
    9900012    2    3    3    0    0  0.34828418163E+02  0.49878723624E+01 -0.10857355500E+02  0.54367085415E+02  0.40000002821E+02 0.  0.
        -12    1    3    3    0    0 -0.34828418163E+02 -0.49878723624E+01  0.10857355500E+02  0.36820914585E+02  0.00000000000E+00 0.  1.
         11    1    4    4    0    0  0.19580168475E+02  0.19093021978E+01 -0.23661206255E+02  0.30771433410E+02  0.51100000000E-03 0. -1.
        -11    1    4    4    0    0  0.17121580312E+02  0.38350320651E+01  0.10183614509E+02  0.20286990611E+02  0.51100000000E-03 0.  1.
         12    1    4    4    0    0 -0.18733306242E+01 -0.75646190058E+00  0.26202362462E+01  0.33086613940E+01  0.00000000000E+00 0. -1.
</event>
<event>
 8    1  0.1248739E-006  0.9118800E+02  0.7816164E-02  0.1184000E+00
        -11   -1    0    0    0    0  0.00000000000E+00  0.00000000000E+00  0.45593999997E+02  0.45594000000E+02  0.51100000000E-03 0. -1.
         11   -1    0    0    0    0 -0.00000000000E+00 -0.00000000000E+00 -0.45593999997E+02  0.45594000000E+02  0.51100000000E-03 0.  1.
         23    2    1    2    0    0 -0.44408920985E-15 -0.35527136788E-14  0.00000000000E+00  0.91188000000E+02  0.91188000000E+02 0.  0.
    9900012    2    3    3    0    0  0.29176416846E+01  0.12334790328E+02 -0.34570478549E+02  0.54367113637E+02  0.40000067158E+02 0.  0.
         12    1    3    3    0    0 -0.29176416846E+01 -0.12334790328E+02  0.34570478549E+02  0.36820886363E+02  0.00000000000E+00 0. -1.
         11    1    4    4    0    0 -0.20456387695E+00 -0.65890839301E+01 -0.84932545547E+01  0.10751429980E+02  0.51100000000E-03 0. -1.
        -11    1    4    4    0    0  0.20287674445E+01  0.92535703283E+01 -0.31207941772E+02  0.32614108773E+02  0.51100000000E-03 0.  1.
         12    1    4    4    0    0  0.10934381170E+01  0.96703039303E+01  0.51307177772E+01  0.11001574884E+02  0.00000000000E+00 0. -1.
</event>
<event>
 8    1  0.1248739E-006  0.9118800E+02  0.7816164E-02  0.1184000E+00
        -11   -1    0    0    0    0  0.00000000000E+00  0.00000000000E+00  0.45593999997E+02  0.45594000000E+02  0.51100000000E-03 0. -1.
         11   -1    0    0    0    0 -0.00000000000E+00 -0.00000000000E+00 -0.45593999997E+02  0.45594000000E+02  0.51100000000E-03 0.  1.
         23    2    1    2    0    0  0.00000000000E+00  0.00000000000E+00  0.00000000000E+00  0.91188000000E+02  0.91188000000E+02 0.  0.
    9900012    2    3    3    0    0 -0.23142762452E+02 -0.54911279776E+01  0.28107652059E+02  0.54367081426E+02  0.39999993727E+02 0.  0.
        -12    1    3    3    0    0  0.23142762452E+02  0.54911279776E+01 -0.28107652059E+02  0.36820918574E+02  0.00000000000E+00 0.  1.
         11    1    4    4    0    0  0.16362367386E+01 -0.65628367800E+01  0.83537349993E+01  0.10748627167E+02  0.51100000000E-03 0. -1.
        -11    1    4    4    0    0 -0.30785215124E+02  0.56819294647E+01  0.15469697625E+02  0.34918839293E+02  0.51100000000E-03 0.  1.
        -12    1    4    4    0    0  0.60062159343E+01 -0.46102206624E+01  0.42842194346E+01  0.86996149667E+01  0.00000000000E+00 0.  1.
</event>
<event>
 8    1  0.1248739E-006  0.9118800E+02  0.7816164E-02  0.1184000E+00
        -11   -1    0    0    0    0  0.00000000000E+00  0.00000000000E+00  0.45593999997E+02  0.45594000000E+02  0.51100000000E-03 0. -1.
         11   -1    0    0    0    0 -0.00000000000E+00 -0.00000000000E+00 -0.45593999997E+02  0.45594000000E+02  0.51100000000E-03 0.  1.
         23    2    1    2    0    0  0.88817841970E-15  0.00000000000E+00  0.17763568394E-14  0.91188000000E+02  0.91188000000E+02 0.  0.
    9900012    2    3    3    0    0 -0.76392385594E+01 -0.33489407552E+02  0.13262051495E+02  0.54367076685E+02  0.39999982918E+02 0.  0.
        -12    1    3    3    0    0  0.76392385594E+01  0.33489407552E+02 -0.13262051495E+02  0.36820923315E+02  0.00000000000E+00 0.  1.
         11    1    4    4    0    0 -0.11656155798E+02 -0.72866413990E+01  0.19050356936E+02  0.23492066970E+02  0.51100000000E-03 0. -1.
        -11    1    4    4    0    0 -0.10025840338E+01  0.17016193362E+01 -0.41136695733E+00  0.20174008389E+01  0.51100000000E-03 0.  1.
         12    1    4    4    0    0  0.50195012725E+01 -0.27904385489E+02 -0.53769384842E+01  0.28857608875E+02  0.00000000000E+00 0. -1.
</event>
<event>
 8    1  0.1248739E-006  0.9118800E+02  0.7816164E-02  0.1184000E+00
        -11   -1    0    0    0    0  0.00000000000E+00  0.00000000000E+00  0.45593999997E+02  0.45594000000E+02  0.51100000000E-03 0. -1.
         11   -1    0    0    0    0 -0.00000000000E+00 -0.00000000000E+00 -0.45593999997E+02  0.45594000000E+02  0.51100000000E-03 0.  1.
         23    2    1    2    0    0 -0.17763568394E-14  0.00000000000E+00 -0.22204460493E-15  0.91188000000E+02  0.91188000000E+02 0.  0.
    9900012    2    3    3    0    0 -0.12027858452E+02 -0.34774250698E+02 -0.13645388215E+01  0.54367083978E+02  0.39999999544E+02 0.  0.
         12    1    3    3    0    0  0.12027858452E+02  0.34774250698E+02  0.13645388215E+01  0.36820916022E+02  0.00000000000E+00 0. -1.
         11    1    4    4    0    0 -0.10050620176E+02 -0.16687226266E+02  0.12526099251E+02  0.23159914704E+02  0.51100000000E-03 0. -1.
        -11    1    4    4    0    0 -0.66865486041E+01  0.15123801274E+01 -0.72651723606E+01  0.99889917197E+01  0.51100000000E-03 0.  1.
        -12    1    4    4    0    0  0.47093103286E+01 -0.19599404559E+02 -0.66254657115E+01  0.21218177555E+02  0.00000000000E+00 0.  1.
</event>
<event>
 8    1  0.1248739E-006  0.9118800E+02  0.7816164E-02  0.1184000E+00
        -11   -1    0    0    0    0  0.00000000000E+00  0.00000000000E+00  0.45593999997E+02  0.45594000000E+02  0.51100000000E-03 0. -1.
         11   -1    0    0    0    0 -0.00000000000E+00 -0.00000000000E+00 -0.45593999997E+02  0.45594000000E+02  0.51100000000E-03 0.  1.
         23    2    1    2    0    0  0.35527136788E-14  0.00000000000E+00  0.00000000000E+00  0.91188000000E+02  0.91188000000E+02 0.  0.
    9900012    2    3    3    0    0 -0.29487971444E+02 -0.53566827726E+01 -0.21390338519E+02  0.54367067202E+02  0.39999961299E+02 0.  0.
         12    1    3    3    0    0  0.29487971444E+02  0.53566827726E+01  0.21390338519E+02  0.36820932798E+02  0.00000000000E+00 0. -1.
         11    1    4    4    0    0 -0.29216834170E+02  0.61538361970E+01 -0.51109963893E+01  0.30292167028E+02  0.51100000000E-03 0. -1.
        -11    1    4    4    0    0  0.43389384383E+01 -0.11259729660E+02 -0.15063309564E+02  0.19300549062E+02  0.51100000000E-03 0.  1.
        -12    1    4    4    0    0 -0.46100757114E+01 -0.25078930975E+00 -0.12160325655E+01  0.47743511123E+01  0.00000000000E+00 0.  1.
</event>
<event>
 8    1  0.1248739E-006  0.9118800E+02  0.7816164E-02  0.1184000E+00
        -11   -1    0    0    0    0  0.00000000000E+00  0.00000000000E+00  0.45593999997E+02  0.45594000000E+02  0.51100000000E-03 0.  1.
         11   -1    0    0    0    0 -0.00000000000E+00 -0.00000000000E+00 -0.45593999997E+02  0.45594000000E+02  0.51100000000E-03 0. -1.
         23    2    1    2    0    0  0.13322676296E-14  0.00000000000E+00  0.00000000000E+00  0.91188000000E+02  0.91188000000E+02 0.  0.
    9900012    2    3    3    0    0  0.26787354680E+01  0.20514733854E+02  0.30458980513E+02  0.54367089871E+02  0.40000012979E+02 0.  0.
         12    1    3    3    0    0 -0.26787354680E+01 -0.20514733854E+02 -0.30458980513E+02  0.36820910129E+02  0.00000000000E+00 0. -1.
         11    1    4    4    0    0  0.10343683861E+02  0.80473031531E+01  0.89067357698E+01  0.15845530165E+02  0.51100000000E-03 0. -1.
        -11    1    4    4    0    0  0.65469354241E+01 -0.30128753170E+01  0.14778492633E+02  0.16442129603E+02  0.51100000000E-03 0.  1.
         12    1    4    4    0    0 -0.14211883817E+02  0.15480306018E+02  0.67737521109E+01  0.22079430104E+02  0.00000000000E+00 0. -1.
</event>
<event>
 8    1  0.1248739E-006  0.9118800E+02  0.7816164E-02  0.1184000E+00
        -11   -1    0    0    0    0  0.00000000000E+00  0.00000000000E+00  0.45593999997E+02  0.45594000000E+02  0.51100000000E-03 0.  1.
         11   -1    0    0    0    0 -0.00000000000E+00 -0.00000000000E+00 -0.45593999997E+02  0.45594000000E+02  0.51100000000E-03 0. -1.
         23    2    1    2    0    0  0.00000000000E+00  0.35527136788E-14  0.35527136788E-14  0.91188000000E+02  0.91188000000E+02 0.  0.
    9900012    2    3    3    0    0 -0.16192112100E+02 -0.24342114933E+02 -0.22384220202E+02  0.54367131355E+02  0.40000107551E+02 0.  0.
        -12    1    3    3    0    0  0.16192112100E+02  0.24342114933E+02  0.22384220202E+02  0.36820868645E+02  0.00000000000E+00 0.  1.
         11    1    4    4    0    0 -0.21411691620E+02 -0.23992346552E+00 -0.85394265745E+01  0.23052980453E+02  0.51100000000E-03 0. -1.
        -11    1    4    4    0    0 -0.76558927288E+00 -0.95904706318E+01  0.10456842362E+01  0.96776396739E+01  0.51100000000E-03 0.  1.
        -12    1    4    4    0    0  0.59851687931E+01 -0.14511720836E+02 -0.14890477864E+02  0.21636511228E+02  0.00000000000E+00 0.  1.
</event>
<event>
 8    1  0.1248739E-006  0.9118800E+02  0.7816164E-02  0.1184000E+00
        -11   -1    0    0    0    0  0.00000000000E+00  0.00000000000E+00  0.45593999997E+02  0.45594000000E+02  0.51100000000E-03 0.  1.
         11   -1    0    0    0    0 -0.00000000000E+00 -0.00000000000E+00 -0.45593999997E+02  0.45594000000E+02  0.51100000000E-03 0. -1.
         23    2    1    2    0    0 -0.35527136788E-14  0.00000000000E+00 -0.35527136788E-14  0.91188000000E+02  0.91188000000E+02 0.  0.
    9900012    2    3    3    0    0 -0.24851820720E+02 -0.15991129513E+01 -0.27122127504E+02  0.54367082634E+02  0.39999996480E+02 0.  0.
        -12    1    3    3    0    0  0.24851820720E+02  0.15991129513E+01  0.27122127504E+02  0.36820917366E+02  0.00000000000E+00 0.  1.
         11    1    4    4    0    0 -0.15573366099E+02 -0.13156286892E+02 -0.32515781743E+02  0.38378296979E+02  0.51100000000E-03 0. -1.
        -11    1    4    4    0    0 -0.70944678313E+01  0.74566398383E+01  0.46085314932E+01  0.11277034817E+02  0.51100000000E-03 0.  1.
         12    1    4    4    0    0 -0.21839867903E+01  0.41005341022E+01  0.78512274560E+00  0.47117508369E+01  0.00000000000E+00 0. -1.
</event>
<event>
 8    1  0.1248739E-006  0.9118800E+02  0.7816164E-02  0.1184000E+00
        -11   -1    0    0    0    0  0.00000000000E+00  0.00000000000E+00  0.45593999997E+02  0.45594000000E+02  0.51100000000E-03 0.  1.
         11   -1    0    0    0    0 -0.00000000000E+00 -0.00000000000E+00 -0.45593999997E+02  0.45594000000E+02  0.51100000000E-03 0. -1.
         23    2    1    2    0    0  0.88817841970E-15 -0.71054273576E-14 -0.35527136788E-14  0.91188000000E+02  0.91188000000E+02 0.  0.
    9900012    2    3    3    0    0 -0.43617676479E+01 -0.28054201893E+02 -0.23446029478E+02  0.54367088018E+02  0.40000008755E+02 0.  0.
        -12    1    3    3    0    0  0.43617676479E+01  0.28054201893E+02  0.23446029478E+02  0.36820911982E+02  0.00000000000E+00 0.  1.
         11    1    4    4    0    0  0.39521984265E+01 -0.26423641234E+02 -0.12895733114E+02  0.29666961780E+02  0.51100000000E-03 0. -1.
        -11    1    4    4    0    0 -0.10281847989E+02 -0.15824520695E+01  0.31420062082E+01  0.10867049089E+02  0.51100000000E-03 0.  1.
        -12    1    4    4    0    0  0.19678819148E+01 -0.48108589516E-01 -0.13692302573E+02  0.13833077149E+02  0.00000000000E+00 0.  1.
</event>
<event>
 8    1  0.1248739E-006  0.9118800E+02  0.7816164E-02  0.1184000E+00
        -11   -1    0    0    0    0  0.00000000000E+00  0.00000000000E+00  0.45593999997E+02  0.45594000000E+02  0.51100000000E-03 0.  1.
         11   -1    0    0    0    0 -0.00000000000E+00 -0.00000000000E+00 -0.45593999997E+02  0.45594000000E+02  0.51100000000E-03 0. -1.
         23    2    1    2    0    0  0.00000000000E+00  0.66613381478E-15  0.00000000000E+00  0.91188000000E+02  0.91188000000E+02 0.  0.
    9900012    2    3    3    0    0  0.42403639893E+01  0.66762825313E+00  0.36569865880E+02  0.54367061599E+02  0.39999948528E+02 0.  0.
         12    1    3    3    0    0 -0.42403639893E+01 -0.66762825313E+00 -0.36569865880E+02  0.36820938401E+02  0.00000000000E+00 0. -1.
         11    1    4    4    0    0 -0.43212688220E+01 -0.95837547842E+00  0.10453691838E+02  0.11352159314E+02  0.51100000000E-03 0. -1.
        -11    1    4    4    0    0  0.92970935716E+01 -0.10887554544E+02  0.26881551869E+02  0.30456405303E+02  0.51100000000E-03 0.  1.
         12    1    4    4    0    0 -0.73546076032E+00  0.12513558275E+02 -0.76537782689E+00  0.12558496982E+02  0.00000000000E+00 0. -1.
</event>
<event>
 8    1  0.1248739E-006  0.9118800E+02  0.7816164E-02  0.1184000E+00
        -11   -1    0    0    0    0  0.00000000000E+00  0.00000000000E+00  0.45593999997E+02  0.45594000000E+02  0.51100000000E-03 0. -1.
         11   -1    0    0    0    0 -0.00000000000E+00 -0.00000000000E+00 -0.45593999997E+02  0.45594000000E+02  0.51100000000E-03 0.  1.
         23    2    1    2    0    0 -0.71054273576E-14  0.00000000000E+00 -0.13877787808E-14  0.91188000000E+02  0.91188000000E+02 0.  0.
    9900012    2    3    3    0    0 -0.16424422663E+02  0.32954205472E+02  0.19846760811E+00  0.54367072425E+02  0.39999973207E+02 0.  0.
        -12    1    3    3    0    0  0.16424422663E+02 -0.32954205472E+02 -0.19846760811E+00  0.36820927575E+02  0.00000000000E+00 0.  1.
         11    1    4    4    0    0 -0.20440382533E+02  0.30335603668E+02 -0.55789398184E+01  0.37002468266E+02  0.51100000000E-03 0. -1.
        -11    1    4    4    0    0  0.57904917599E+01  0.27950548814E+01  0.10502383025E+02  0.12314307779E+02  0.51100000000E-03 0.  1.
        -12    1    4    4    0    0 -0.17745318894E+01 -0.17645307731E+00 -0.47249755988E+01  0.50502963799E+01  0.00000000000E+00 0.  1.
</event>
<event>
 8    1  0.1248739E-006  0.9118800E+02  0.7816164E-02  0.1184000E+00
        -11   -1    0    0    0    0  0.00000000000E+00  0.00000000000E+00  0.45593999997E+02  0.45594000000E+02  0.51100000000E-03 0.  1.
         11   -1    0    0    0    0 -0.00000000000E+00 -0.00000000000E+00 -0.45593999997E+02  0.45594000000E+02  0.51100000000E-03 0. -1.
         23    2    1    2    0    0  0.35527136788E-14  0.00000000000E+00  0.00000000000E+00  0.91188000000E+02  0.91188000000E+02 0.  0.
    9900012    2    3    3    0    0 -0.21040126470E+02  0.18838055912E+02  0.23626664335E+02  0.54367101858E+02  0.40000040305E+02 0.  0.
         12    1    3    3    0    0  0.21040126470E+02 -0.18838055912E+02 -0.23626664335E+02  0.36820898142E+02  0.00000000000E+00 0. -1.
         11    1    4    4    0    0  0.55420073484E+01  0.34769573850E+01  0.13041472877E+02  0.14590513808E+02  0.51100000000E-03 0.  1.
        -11    1    4    4    0    0 -0.81181219030E+01  0.17098400525E+02  0.11341470945E+01  0.18961684884E+02  0.51100000000E-03 0. -1.
        -12    1    4    4    0    0 -0.18464011915E+02 -0.17373019986E+01  0.94510443637E+01  0.20814903166E+02  0.00000000000E+00 0.  1.
</event>
<event>
 8    1  0.1248739E-006  0.9118800E+02  0.7816164E-02  0.1184000E+00
        -11   -1    0    0    0    0  0.00000000000E+00  0.00000000000E+00  0.45593999997E+02  0.45594000000E+02  0.51100000000E-03 0.  1.
         11   -1    0    0    0    0 -0.00000000000E+00 -0.00000000000E+00 -0.45593999997E+02  0.45594000000E+02  0.51100000000E-03 0. -1.
         23    2    1    2    0    0  0.00000000000E+00 -0.35527136788E-14  0.00000000000E+00  0.91188000000E+02  0.91188000000E+02 0.  0.
    9900012    2    3    3    0    0 -0.24454241521E+02 -0.26135940479E+02  0.86419215683E+01  0.54367080382E+02  0.39999991347E+02 0.  0.
         12    1    3    3    0    0  0.24454241521E+02  0.26135940479E+02 -0.86419215683E+01  0.36820919618E+02  0.00000000000E+00 0. -1.
         11    1    4    4    0    0 -0.88229752205E+01  0.14127804289E+01 -0.84836773005E+01  0.12321267024E+02  0.51100000000E-03 0. -1.
        -11    1    4    4    0    0 -0.55645903173E+00 -0.22444820015E+02  0.91610768988E+01  0.24248812803E+02  0.51100000000E-03 0.  1.
        -12    1    4    4    0    0 -0.15074807269E+02 -0.51039008928E+01  0.79645219700E+01  0.17797000554E+02  0.00000000000E+00 0.  1.
</event>
<event>
 8    1  0.1248739E-006  0.9118800E+02  0.7816164E-02  0.1184000E+00
        -11   -1    0    0    0    0  0.00000000000E+00  0.00000000000E+00  0.45593999997E+02  0.45594000000E+02  0.51100000000E-03 0. -1.
         11   -1    0    0    0    0 -0.00000000000E+00 -0.00000000000E+00 -0.45593999997E+02  0.45594000000E+02  0.51100000000E-03 0.  1.
         23    2    1    2    0    0  0.00000000000E+00  0.00000000000E+00  0.17763568394E-14  0.91188000000E+02  0.91188000000E+02 0.  0.
    9900012    2    3    3    0    0  0.32834322258E+02  0.13796707428E+02 -0.93455249614E+01  0.54367072652E+02  0.39999973724E+02 0.  0.
        -12    1    3    3    0    0 -0.32834322258E+02 -0.13796707428E+02  0.93455249614E+01  0.36820927348E+02  0.00000000000E+00 0.  1.
         11    1    4    4    0    0 -0.37658645344E+01 -0.14225879959E+01 -0.16506632067E+01  0.43508828508E+01  0.51100000000E-03 0. -1.
        -11    1    4    4    0    0 -0.39777754620E+01  0.51192777433E+01 -0.48632672674E+01  0.81043859122E+01  0.51100000000E-03 0.  1.
         12    1    4    4    0    0  0.40577962254E+02  0.10100017681E+02 -0.28315944873E+01  0.41911803889E+02  0.00000000000E+00 0. -1.
</event>
<event>
 8    1  0.1248739E-006  0.9118800E+02  0.7816164E-02  0.1184000E+00
        -11   -1    0    0    0    0  0.00000000000E+00  0.00000000000E+00  0.45593999997E+02  0.45594000000E+02  0.51100000000E-03 0.  1.
         11   -1    0    0    0    0 -0.00000000000E+00 -0.00000000000E+00 -0.45593999997E+02  0.45594000000E+02  0.51100000000E-03 0. -1.
         23    2    1    2    0    0 -0.35527136788E-14  0.00000000000E+00  0.00000000000E+00  0.91188000000E+02  0.91188000000E+02 0.  0.
    9900012    2    3    3    0    0 -0.27151612121E+02 -0.17436233882E+02  0.17735493703E+02  0.54367081630E+02  0.39999994191E+02 0.  0.
        -12    1    3    3    0    0  0.27151612121E+02  0.17436233882E+02 -0.17735493703E+02  0.36820918370E+02  0.00000000000E+00 0.  1.
         11    1    4    4    0    0 -0.18111804748E+02 -0.83909848692E+01 -0.10510598210E+01  0.19988767478E+02  0.51100000000E-03 0. -1.
        -11    1    4    4    0    0 -0.16872367851E+01  0.80140654915E+01  0.12149231907E+02  0.14651820701E+02  0.51100000000E-03 0.  1.
        -12    1    4    4    0    0 -0.73525705880E+01 -0.17059314504E+02  0.66373216173E+01  0.19726493450E+02  0.00000000000E+00 0.  1.
</event>
<event>
 8    1  0.1248739E-006  0.9118800E+02  0.7816164E-02  0.1184000E+00
        -11   -1    0    0    0    0  0.00000000000E+00  0.00000000000E+00  0.45593999997E+02  0.45594000000E+02  0.51100000000E-03 0.  1.
         11   -1    0    0    0    0 -0.00000000000E+00 -0.00000000000E+00 -0.45593999997E+02  0.45594000000E+02  0.51100000000E-03 0. -1.
         23    2    1    2    0    0  0.00000000000E+00  0.00000000000E+00  0.00000000000E+00  0.91188000000E+02  0.91188000000E+02 0.  0.
    9900012    2    3    3    0    0  0.24308676418E+02 -0.19137927269E+02  0.19965235589E+02  0.54367046163E+02  0.39999913338E+02 0.  0.
         12    1    3    3    0    0 -0.24308676418E+02  0.19137927269E+02 -0.19965235589E+02  0.36820953837E+02  0.00000000000E+00 0. -1.
         11    1    4    4    0    0  0.43355400498E+01  0.61605026011E+01 -0.44263188433E+01  0.87373336084E+01  0.51100000000E-03 0. -1.
        -11    1    4    4    0    0  0.31670540585E+01 -0.58180127053E+01  0.17912978916E+02  0.19098542279E+02  0.51100000000E-03 0.  1.
        -12    1    4    4    0    0  0.16806082310E+02 -0.19480417165E+02  0.64785755161E+01  0.26531170276E+02  0.00000000000E+00 0.  1.
</event>
<event>
 8    1  0.1248739E-006  0.9118800E+02  0.7816164E-02  0.1184000E+00
        -11   -1    0    0    0    0  0.00000000000E+00  0.00000000000E+00  0.45593999997E+02  0.45594000000E+02  0.51100000000E-03 0.  1.
         11   -1    0    0    0    0 -0.00000000000E+00 -0.00000000000E+00 -0.45593999997E+02  0.45594000000E+02  0.51100000000E-03 0. -1.
         23    2    1    2    0    0  0.00000000000E+00  0.00000000000E+00  0.21649348980E-14  0.91188000000E+02  0.91188000000E+02 0.  0.
    9900012    2    3    3    0    0 -0.29069903473E+02 -0.22597579611E+02 -0.26674478026E+00  0.54367067842E+02  0.39999962760E+02 0.  0.
         12    1    3    3    0    0  0.29069903473E+02  0.22597579611E+02  0.26674478026E+00  0.36820932158E+02  0.00000000000E+00 0. -1.
         11    1    4    4    0    0 -0.16725837394E+02 -0.15564771452E+02 -0.18071720589E+02  0.29130788389E+02  0.51100000000E-03 0. -1.
        -11    1    4    4    0    0 -0.12431351640E+01  0.22828319733E+01  0.60209196396E+01  0.65580622460E+01  0.51100000000E-03 0.  1.
         12    1    4    4    0    0 -0.11100930915E+02 -0.93156401315E+01  0.11784056169E+02  0.18678217207E+02  0.00000000000E+00 0. -1.
</event>
<event>
 8    1  0.1248739E-006  0.9118800E+02  0.7816164E-02  0.1184000E+00
        -11   -1    0    0    0    0  0.00000000000E+00  0.00000000000E+00  0.45593999997E+02  0.45594000000E+02  0.51100000000E-03 0.  1.
         11   -1    0    0    0    0 -0.00000000000E+00 -0.00000000000E+00 -0.45593999997E+02  0.45594000000E+02  0.51100000000E-03 0. -1.
         23    2    1    2    0    0  0.00000000000E+00  0.00000000000E+00  0.00000000000E+00  0.91188000000E+02  0.91188000000E+02 0.  0.
    9900012    2    3    3    0    0 -0.71519735328E+01 -0.25631990719E+02  0.25448577251E+02  0.54367085322E+02  0.40000002608E+02 0.  0.
         12    1    3    3    0    0  0.71519735328E+01  0.25631990719E+02 -0.25448577251E+02  0.36820914678E+02  0.00000000000E+00 0. -1.
         11    1    4    4    0    0  0.17919587607E+01 -0.11769475294E+02  0.74046528756E+01  0.14020005327E+02  0.51100000000E-03 0. -1.
        -11    1    4    4    0    0  0.94490505755E+01  0.37415646862E+01  0.81696741710E+01  0.13039457021E+02  0.51100000000E-03 0.  1.
         12    1    4    4    0    0 -0.18392982869E+02 -0.17604080112E+02  0.98742502041E+01  0.27307622974E+02  0.00000000000E+00 0. -1.
</event>
<event>
 8    1  0.1248739E-006  0.9118800E+02  0.7816164E-02  0.1184000E+00
        -11   -1    0    0    0    0  0.00000000000E+00  0.00000000000E+00  0.45593999997E+02  0.45594000000E+02  0.51100000000E-03 0. -1.
         11   -1    0    0    0    0 -0.00000000000E+00 -0.00000000000E+00 -0.45593999997E+02  0.45594000000E+02  0.51100000000E-03 0.  1.
         23    2    1    2    0    0  0.00000000000E+00  0.00000000000E+00  0.00000000000E+00  0.91188000000E+02  0.91188000000E+02 0.  0.
    9900012    2    3    3    0    0  0.35109229814E+02  0.51266755574E+01 -0.98406562409E+01  0.54367091053E+02  0.40000015674E+02 0.  0.
         12    1    3    3    0    0 -0.35109229814E+02 -0.51266755574E+01  0.98406562409E+01  0.36820908947E+02  0.00000000000E+00 0. -1.
         11    1    4    4    0    0 -0.88736475270E+00  0.14390499796E+02  0.17645049847E+01  0.14525404596E+02  0.51100000000E-03 0. -1.
        -11    1    4    4    0    0  0.10220351483E+02 -0.62802638532E+01 -0.54367247417E+01  0.13170242013E+02  0.51100000000E-03 0.  1.
         12    1    4    4    0    0  0.25776243084E+02 -0.29835603855E+01 -0.61684364839E+01  0.26671444444E+02  0.00000000000E+00 0. -1.
</event>
<event>
 8    1  0.1248739E-006  0.9118800E+02  0.7816164E-02  0.1184000E+00
        -11   -1    0    0    0    0  0.00000000000E+00  0.00000000000E+00  0.45593999997E+02  0.45594000000E+02  0.51100000000E-03 0.  1.
         11   -1    0    0    0    0 -0.00000000000E+00 -0.00000000000E+00 -0.45593999997E+02  0.45594000000E+02  0.51100000000E-03 0. -1.
         23    2    1    2    0    0  0.35527136788E-14  0.00000000000E+00  0.00000000000E+00  0.91188000000E+02  0.91188000000E+02 0.  0.
    9900012    2    3    3    0    0  0.30915502431E+02  0.48957326614E+01 -0.19391829112E+02  0.54367088480E+02  0.40000009809E+02 0.  0.
        -12    1    3    3    0    0 -0.30915502431E+02 -0.48957326614E+01  0.19391829112E+02  0.36820911520E+02  0.00000000000E+00 0.  1.
         11    1    4    4    0    0  0.77674834158E+01 -0.15397923980E+01 -0.12716873058E+02  0.14980775009E+02  0.51100000000E-03 0. -1.
        -11    1    4    4    0    0  0.19461994029E+02 -0.91379623800E+01  0.12320926634E+01  0.21535775366E+02  0.51100000000E-03 0.  1.
        -12    1    4    4    0    0  0.36860249864E+01  0.15573487439E+02 -0.79070487173E+01  0.17850538105E+02  0.00000000000E+00 0.  1.
</event>
<event>
 8    1  0.1248739E-006  0.9118800E+02  0.7816164E-02  0.1184000E+00
        -11   -1    0    0    0    0  0.00000000000E+00  0.00000000000E+00  0.45593999997E+02  0.45594000000E+02  0.51100000000E-03 0.  1.
         11   -1    0    0    0    0 -0.00000000000E+00 -0.00000000000E+00 -0.45593999997E+02  0.45594000000E+02  0.51100000000E-03 0. -1.
         23    2    1    2    0    0  0.00000000000E+00  0.00000000000E+00 -0.35527136788E-14  0.91188000000E+02  0.91188000000E+02 0.  0.
    9900012    2    3    3    0    0 -0.19397703431E+02  0.10213218587E+02 -0.29583743287E+02  0.54367101054E+02  0.40000038473E+02 0.  0.
        -12    1    3    3    0    0  0.19397703431E+02 -0.10213218587E+02  0.29583743287E+02  0.36820898946E+02  0.00000000000E+00 0.  1.
         11    1    4    4    0    0  0.47875844551E+01 -0.49115607788E+01 -0.90548393596E+01  0.11359335821E+02  0.51100000000E-03 0. -1.
        -11    1    4    4    0    0 -0.23162314472E+02  0.13914885669E+02 -0.25887218128E+02  0.37420113810E+02  0.51100000000E-03 0.  1.
        -12    1    4    4    0    0 -0.10229734143E+01  0.12098936971E+01  0.53583142005E+01  0.55876514240E+01  0.00000000000E+00 0.  1.
</event>
<event>
 8    1  0.1248739E-006  0.9118800E+02  0.7816164E-02  0.1184000E+00
        -11   -1    0    0    0    0  0.00000000000E+00  0.00000000000E+00  0.45593999997E+02  0.45594000000E+02  0.51100000000E-03 0. -1.
         11   -1    0    0    0    0 -0.00000000000E+00 -0.00000000000E+00 -0.45593999997E+02  0.45594000000E+02  0.51100000000E-03 0.  1.
         23    2    1    2    0    0  0.00000000000E+00  0.71054273576E-14  0.17763568394E-14  0.91188000000E+02  0.91188000000E+02 0.  0.
    9900012    2    3    3    0    0  0.95044860820E+01 -0.32659465499E+02  0.14099780207E+02  0.54367085505E+02  0.40000003025E+02 0.  0.
        -12    1    3    3    0    0 -0.95044860820E+01  0.32659465499E+02 -0.14099780207E+02  0.36820914495E+02  0.00000000000E+00 0.  1.
         11    1    4    4    0    0  0.37784838275E+01 -0.23474710827E+02  0.16636523104E+02  0.29019181410E+02  0.51100000000E-03 0. -1.
        -11    1    4    4    0    0  0.87163888570E+01  0.32927810785E+01  0.48898258605E+01  0.10522748650E+02  0.51100000000E-03 0.  1.
        -12    1    4    4    0    0 -0.29903866026E+01 -0.12477535751E+02 -0.74265687579E+01  0.14825155445E+02  0.00000000000E+00 0.  1.
</event>
<event>
 8    1  0.1248739E-006  0.9118800E+02  0.7816164E-02  0.1184000E+00
        -11   -1    0    0    0    0  0.00000000000E+00  0.00000000000E+00  0.45593999997E+02  0.45594000000E+02  0.51100000000E-03 0. -1.
         11   -1    0    0    0    0 -0.00000000000E+00 -0.00000000000E+00 -0.45593999997E+02  0.45594000000E+02  0.51100000000E-03 0.  1.
         23    2    1    2    0    0 -0.71054273576E-14  0.00000000000E+00  0.00000000000E+00  0.91188000000E+02  0.91188000000E+02 0.  0.
    9900012    2    3    3    0    0 -0.33421066367E+02  0.12214879213E+01 -0.15405209813E+02  0.54367079327E+02  0.39999988941E+02 0.  0.
         12    1    3    3    0    0  0.33421066367E+02 -0.12214879213E+01  0.15405209813E+02  0.36820920673E+02  0.00000000000E+00 0. -1.
         11    1    4    4    0    0 -0.17336861828E+02 -0.90573166195E+01  0.15020942608E+01  0.19617799311E+02  0.51100000000E-03 0. -1.
        -11    1    4    4    0    0 -0.59366623627E+01 -0.51749940708E+01 -0.13959861925E+02  0.16028171101E+02  0.51100000000E-03 0.  1.
         12    1    4    4    0    0 -0.10147542177E+02  0.15453798612E+02 -0.29474421492E+01  0.18721108914E+02  0.00000000000E+00 0. -1.
</event>
<event>
 8    1  0.1248739E-006  0.9118800E+02  0.7816164E-02  0.1184000E+00
        -11   -1    0    0    0    0  0.00000000000E+00  0.00000000000E+00  0.45593999997E+02  0.45594000000E+02  0.51100000000E-03 0. -1.
         11   -1    0    0    0    0 -0.00000000000E+00 -0.00000000000E+00 -0.45593999997E+02  0.45594000000E+02  0.51100000000E-03 0.  1.
         23    2    1    2    0    0  0.00000000000E+00  0.00000000000E+00  0.00000000000E+00  0.91188000000E+02  0.91188000000E+02 0.  0.
    9900012    2    3    3    0    0  0.26905966075E+02  0.14852245449E+02  0.20279538116E+02  0.54367083778E+02  0.39999999088E+02 0.  0.
        -12    1    3    3    0    0 -0.26905966075E+02 -0.14852245449E+02 -0.20279538116E+02  0.36820916222E+02  0.00000000000E+00 0.  1.
         11    1    4    4    0    0  0.46046041231E+01 -0.39581732619E+01 -0.85177246963E+01  0.10460456442E+02  0.51100000000E-03 0. -1.
        -11    1    4    4    0    0  0.20096641922E+01 -0.11144976101E+01  0.89166421967E+01  0.92080053982E+01  0.51100000000E-03 0.  1.
         12    1    4    4    0    0  0.20291697759E+02  0.19924916321E+02  0.19880620615E+02  0.34698621938E+02  0.00000000000E+00 0. -1.
</event>
<event>
 8    1  0.1248739E-006  0.9118800E+02  0.7816164E-02  0.1184000E+00
        -11   -1    0    0    0    0  0.00000000000E+00  0.00000000000E+00  0.45593999997E+02  0.45594000000E+02  0.51100000000E-03 0.  1.
         11   -1    0    0    0    0 -0.00000000000E+00 -0.00000000000E+00 -0.45593999997E+02  0.45594000000E+02  0.51100000000E-03 0. -1.
         23    2    1    2    0    0  0.00000000000E+00  0.44408920985E-15  0.35527136788E-14  0.91188000000E+02  0.91188000000E+02 0.  0.
    9900012    2    3    3    0    0 -0.29968307006E+02 -0.36622884734E+01 -0.21077662974E+02  0.54367086675E+02  0.40000005692E+02 0.  0.
        -12    1    3    3    0    0  0.29968307006E+02  0.36622884734E+01  0.21077662974E+02  0.36820913325E+02  0.00000000000E+00 0.  1.
         11    1    4    4    0    0 -0.11971112758E+02  0.79372068693E+01  0.50411966871E+00  0.14372227748E+02  0.51100000000E-03 0. -1.
        -11    1    4    4    0    0 -0.11108897966E+02 -0.11695032767E+02 -0.26849865599E+02  0.31322462999E+02  0.51100000000E-03 0.  1.
        -12    1    4    4    0    0 -0.68882962824E+01  0.95537423804E-01  0.52680829564E+01  0.86723959267E+01  0.00000000000E+00 0.  1.
</event>
<event>
 8    1  0.1248739E-006  0.9118800E+02  0.7816164E-02  0.1184000E+00
        -11   -1    0    0    0    0  0.00000000000E+00  0.00000000000E+00  0.45593999997E+02  0.45594000000E+02  0.51100000000E-03 0.  1.
         11   -1    0    0    0    0 -0.00000000000E+00 -0.00000000000E+00 -0.45593999997E+02  0.45594000000E+02  0.51100000000E-03 0. -1.
         23    2    1    2    0    0  0.35527136788E-14  0.71054273576E-14  0.88817841970E-15  0.91188000000E+02  0.91188000000E+02 0.  0.
    9900012    2    3    3    0    0 -0.23975150759E+02 -0.27333375566E+02 -0.58188111950E+01  0.54367084239E+02  0.40000000140E+02 0.  0.
        -12    1    3    3    0    0  0.23975150759E+02  0.27333375566E+02  0.58188111950E+01  0.36820915761E+02  0.00000000000E+00 0.  1.
         11    1    4    4    0    0 -0.11260534468E+02 -0.19700484000E+02 -0.24798696298E+01  0.22826704974E+02  0.51100000000E-03 0. -1.
        -11    1    4    4    0    0 -0.17259892583E+02  0.46890711419E+01  0.38306049567E+00  0.17889606361E+02  0.51100000000E-03 0.  1.
        -12    1    4    4    0    0  0.45452762916E+01 -0.12321962708E+02 -0.37220020608E+01  0.13650772904E+02  0.00000000000E+00 0.  1.
</event>
<event>
 8    1  0.1248739E-006  0.9118800E+02  0.7816164E-02  0.1184000E+00
        -11   -1    0    0    0    0  0.00000000000E+00  0.00000000000E+00  0.45593999997E+02  0.45594000000E+02  0.51100000000E-03 0.  1.
         11   -1    0    0    0    0 -0.00000000000E+00 -0.00000000000E+00 -0.45593999997E+02  0.45594000000E+02  0.51100000000E-03 0. -1.
         23    2    1    2    0    0  0.00000000000E+00  0.17763568394E-14  0.00000000000E+00  0.91188000000E+02  0.91188000000E+02 0.  0.
    9900012    2    3    3    0    0 -0.20537588182E+02 -0.13941157163E+02  0.27196165715E+02  0.54367084463E+02  0.40000000649E+02 0.  0.
        -12    1    3    3    0    0  0.20537588182E+02  0.13941157163E+02 -0.27196165715E+02  0.36820915537E+02  0.00000000000E+00 0.  1.
         11    1    4    4    0    0 -0.16716631511E+01  0.55098783296E+00  0.63132155992E+00  0.18699231149E+01  0.51100000000E-03 0. -1.
        -11    1    4    4    0    0  0.55241206557E+00 -0.16249695798E+02  0.28594783223E+02  0.32894063301E+02  0.51100000000E-03 0.  1.
        -12    1    4    4    0    0 -0.19418337097E+02  0.17575508014E+01 -0.20299390675E+01  0.19603098047E+02  0.00000000000E+00 0.  1.
</event>
<event>
 8    1  0.1248739E-006  0.9118800E+02  0.7816164E-02  0.1184000E+00
        -11   -1    0    0    0    0  0.00000000000E+00  0.00000000000E+00  0.45593999997E+02  0.45594000000E+02  0.51100000000E-03 0.  1.
         11   -1    0    0    0    0 -0.00000000000E+00 -0.00000000000E+00 -0.45593999997E+02  0.45594000000E+02  0.51100000000E-03 0. -1.
         23    2    1    2    0    0  0.00000000000E+00  0.17763568394E-14 -0.71054273576E-14  0.91188000000E+02  0.91188000000E+02 0.  0.
    9900012    2    3    3    0    0 -0.18153800026E+02  0.14244971953E+02 -0.28693175769E+02  0.54367108959E+02  0.40000056494E+02 0.  0.
        -12    1    3    3    0    0  0.18153800026E+02 -0.14244971953E+02  0.28693175769E+02  0.36820891041E+02  0.00000000000E+00 0.  1.
         11    1    4    4    0    0  0.26457270050E+01  0.20804938587E+02 -0.48945967728E+01  0.21536072502E+02  0.51100000000E-03 0.  1.
        -11    1    4    4    0    0 -0.84152111609E+01  0.33212142939E+00 -0.81799462656E+01  0.11740426087E+02  0.51100000000E-03 0. -1.
        -12    1    4    4    0    0 -0.12384315870E+02 -0.68920880625E+01 -0.15618632730E+02  0.21090610371E+02  0.00000000000E+00 0.  1.
</event>
<event>
 8    1  0.1248739E-006  0.9118800E+02  0.7816164E-02  0.1184000E+00
        -11   -1    0    0    0    0  0.00000000000E+00  0.00000000000E+00  0.45593999997E+02  0.45594000000E+02  0.51100000000E-03 0.  1.
         11   -1    0    0    0    0 -0.00000000000E+00 -0.00000000000E+00 -0.45593999997E+02  0.45594000000E+02  0.51100000000E-03 0. -1.
         23    2    1    2    0    0 -0.35527136788E-14  0.88817841970E-15  0.35527136788E-14  0.91188000000E+02  0.91188000000E+02 0.  0.
    9900012    2    3    3    0    0 -0.21039794343E+02 -0.85705988190E+00  0.30205507124E+02  0.54367079883E+02  0.39999990209E+02 0.  0.
         12    1    3    3    0    0  0.21039794343E+02  0.85705988190E+00 -0.30205507124E+02  0.36820920117E+02  0.00000000000E+00 0. -1.
         11    1    4    4    0    0 -0.51010155706E+01 -0.11785064544E+02  0.16189055331E+02  0.20663823919E+02  0.51100000000E-03 0. -1.
        -11    1    4    4    0    0 -0.64053653667E+01 -0.31074279256E+01  0.15107774719E+02  0.16701187713E+02  0.51100000000E-03 0.  1.
        -12    1    4    4    0    0 -0.95334134055E+01  0.14035432588E+02 -0.10913229259E+01  0.17002068251E+02  0.00000000000E+00 0.  1.
</event>
<event>
 8    1  0.1248739E-006  0.9118800E+02  0.7816164E-02  0.1184000E+00
        -11   -1    0    0    0    0  0.00000000000E+00  0.00000000000E+00  0.45593999997E+02  0.45594000000E+02  0.51100000000E-03 0.  1.
         11   -1    0    0    0    0 -0.00000000000E+00 -0.00000000000E+00 -0.45593999997E+02  0.45594000000E+02  0.51100000000E-03 0. -1.
         23    2    1    2    0    0 -0.88817841970E-15  0.00000000000E+00  0.00000000000E+00  0.91188000000E+02  0.91188000000E+02 0.  0.
    9900012    2    3    3    0    0 -0.57429926303E+01  0.25164736169E+02  0.26258986919E+02  0.54367077893E+02  0.39999985672E+02 0.  0.
         12    1    3    3    0    0  0.57429926303E+01 -0.25164736169E+02 -0.26258986919E+02  0.36820922107E+02  0.00000000000E+00 0. -1.
         11    1    4    4    0    0 -0.13877144741E+02  0.31121780713E+00  0.12180089015E+01  0.13933971029E+02  0.51100000000E-03 0. -1.
        -11    1    4    4    0    0 -0.53834930359E+01  0.11722025199E+02  0.10040391352E+02  0.16346171747E+02  0.51100000000E-03 0.  1.
        -12    1    4    4    0    0  0.13517645147E+02  0.13131493163E+02  0.15000586665E+02  0.24086935117E+02  0.00000000000E+00 0.  1.
</event>
<event>
 8    1  0.1248739E-006  0.9118800E+02  0.7816164E-02  0.1184000E+00
        -11   -1    0    0    0    0  0.00000000000E+00  0.00000000000E+00  0.45593999997E+02  0.45594000000E+02  0.51100000000E-03 0.  1.
         11   -1    0    0    0    0 -0.00000000000E+00 -0.00000000000E+00 -0.45593999997E+02  0.45594000000E+02  0.51100000000E-03 0. -1.
         23    2    1    2    0    0  0.71054273576E-14 -0.35527136788E-14 -0.17763568394E-14  0.91188000000E+02  0.91188000000E+02 0.  0.
    9900012    2    3    3    0    0  0.27318021484E+02 -0.23956321357E+02 -0.59665878014E+01  0.54367084737E+02  0.40000001276E+02 0.  0.
        -12    1    3    3    0    0 -0.27318021484E+02  0.23956321357E+02  0.59665878014E+01  0.36820915263E+02  0.00000000000E+00 0.  1.
         11    1    4    4    0    0 -0.30899591568E+01  0.41314085883E+00  0.11290110029E+01  0.33155993524E+01  0.51100000000E-03 0. -1.
        -11    1    4    4    0    0  0.21771975410E+02 -0.27603748203E+02  0.53503631636E+01  0.35561386564E+02  0.51100000000E-03 0.  1.
         12    1    4    4    0    0  0.86360052308E+01  0.32342859862E+01 -0.12445961968E+02  0.15490098821E+02  0.00000000000E+00 0. -1.
</event>
<event>
 8    1  0.1248739E-006  0.9118800E+02  0.7816164E-02  0.1184000E+00
        -11   -1    0    0    0    0  0.00000000000E+00  0.00000000000E+00  0.45593999997E+02  0.45594000000E+02  0.51100000000E-03 0.  1.
         11   -1    0    0    0    0 -0.00000000000E+00 -0.00000000000E+00 -0.45593999997E+02  0.45594000000E+02  0.51100000000E-03 0. -1.
         23    2    1    2    0    0  0.35527136788E-14  0.35527136788E-14  0.35527136788E-14  0.91188000000E+02  0.91188000000E+02 0.  0.
    9900012    2    3    3    0    0 -0.18833746835E+02 -0.26958836806E+02 -0.16561746114E+02  0.54367077468E+02  0.39999984704E+02 0.  0.
        -12    1    3    3    0    0  0.18833746835E+02  0.26958836806E+02  0.16561746114E+02  0.36820922532E+02  0.00000000000E+00 0.  1.
         11    1    4    4    0    0 -0.58229206136E+01 -0.13205413863E+02 -0.23180764541E+02  0.27306358321E+02  0.51100000000E-03 0. -1.
        -11    1    4    4    0    0 -0.17136359840E+02 -0.80494986446E+01  0.65088249027E+01  0.20020341128E+02  0.51100000000E-03 0.  1.
        -12    1    4    4    0    0  0.41255336195E+01 -0.57039242982E+01  0.11019352439E+00  0.70403780195E+01  0.00000000000E+00 0.  1.
</event>
<event>
 8    1  0.1248739E-006  0.9118800E+02  0.7816164E-02  0.1184000E+00
        -11   -1    0    0    0    0  0.00000000000E+00  0.00000000000E+00  0.45593999997E+02  0.45594000000E+02  0.51100000000E-03 0. -1.
         11   -1    0    0    0    0 -0.00000000000E+00 -0.00000000000E+00 -0.45593999997E+02  0.45594000000E+02  0.51100000000E-03 0.  1.
         23    2    1    2    0    0  0.00000000000E+00  0.00000000000E+00  0.00000000000E+00  0.91188000000E+02  0.91188000000E+02 0.  0.
    9900012    2    3    3    0    0 -0.31004199865E+02  0.69664513525E+01 -0.18600753523E+02  0.54367083590E+02  0.39999998659E+02 0.  0.
         12    1    3    3    0    0  0.31004199865E+02 -0.69664513525E+01  0.18600753523E+02  0.36820916410E+02  0.00000000000E+00 0. -1.
         11    1    4    4    0    0 -0.15659084442E+02  0.74362855397E+01 -0.29408450967E+02  0.34137402607E+02  0.51100000000E-03 0. -1.
        -11    1    4    4    0    0 -0.42402882812E+01 -0.31525108671E+01  0.55193165501E+01  0.76407607551E+01  0.51100000000E-03 0.  1.
         12    1    4    4    0    0 -0.11104827142E+02  0.26826766799E+01  0.52883808944E+01  0.12588920228E+02  0.00000000000E+00 0. -1.
</event>
<event>
 8    1  0.1248739E-006  0.9118800E+02  0.7816164E-02  0.1184000E+00
        -11   -1    0    0    0    0  0.00000000000E+00  0.00000000000E+00  0.45593999997E+02  0.45594000000E+02  0.51100000000E-03 0.  1.
         11   -1    0    0    0    0 -0.00000000000E+00 -0.00000000000E+00 -0.45593999997E+02  0.45594000000E+02  0.51100000000E-03 0. -1.
         23    2    1    2    0    0  0.00000000000E+00  0.00000000000E+00  0.44408920985E-15  0.91188000000E+02  0.91188000000E+02 0.  0.
    9900012    2    3    3    0    0  0.36369649210E+02  0.46980557598E+01  0.33100178168E+01  0.54367091136E+02  0.40000015863E+02 0.  0.
         12    1    3    3    0    0 -0.36369649210E+02 -0.46980557598E+01 -0.33100178168E+01  0.36820908864E+02  0.00000000000E+00 0. -1.
         11    1    4    4    0    0  0.66597408783E+01 -0.90777969253E+00 -0.80199949192E+01  0.10464059026E+02  0.51100000000E-03 0. -1.
        -11    1    4    4    0    0  0.31381905778E+02 -0.37437777230E+01  0.38999404368E+01  0.31844142594E+02  0.51100000000E-03 0.  1.
        -12    1    4    4    0    0 -0.16719974456E+01  0.93496131753E+01  0.74300722992E+01  0.12058889516E+02  0.00000000000E+00 0.  1.
</event>
<event>
 8    1  0.1248739E-006  0.9118800E+02  0.7816164E-02  0.1184000E+00
        -11   -1    0    0    0    0  0.00000000000E+00  0.00000000000E+00  0.45593999997E+02  0.45594000000E+02  0.51100000000E-03 0. -1.
         11   -1    0    0    0    0 -0.00000000000E+00 -0.00000000000E+00 -0.45593999997E+02  0.45594000000E+02  0.51100000000E-03 0.  1.
         23    2    1    2    0    0 -0.35527136788E-14  0.88817841970E-15  0.00000000000E+00  0.91188000000E+02  0.91188000000E+02 0.  0.
    9900012    2    3    3    0    0 -0.31128469171E+02  0.55501380276E+01 -0.18867806985E+02  0.54367085217E+02  0.40000002369E+02 0.  0.
         12    1    3    3    0    0  0.31128469171E+02 -0.55501380276E+01  0.18867806985E+02  0.36820914783E+02  0.00000000000E+00 0. -1.
         11    1    4    4    0    0 -0.22975688923E+02  0.11872892697E+02 -0.18763557569E+01  0.25930070838E+02  0.51100000000E-03 0. -1.
        -11    1    4    4    0    0 -0.62382236788E+01 -0.56401369846E+01  0.25516567721E+01  0.87884886308E+01  0.51100000000E-03 0.  1.
        -12    1    4    4    0    0 -0.19145565688E+01 -0.68261768440E+00 -0.19543108000E+02  0.19648525748E+02  0.00000000000E+00 0.  1.
</event>
<event>
 8    1  0.1248739E-006  0.9118800E+02  0.7816164E-02  0.1184000E+00
        -11   -1    0    0    0    0  0.00000000000E+00  0.00000000000E+00  0.45593999997E+02  0.45594000000E+02  0.51100000000E-03 0.  1.
         11   -1    0    0    0    0 -0.00000000000E+00 -0.00000000000E+00 -0.45593999997E+02  0.45594000000E+02  0.51100000000E-03 0. -1.
         23    2    1    2    0    0 -0.35527136788E-14  0.00000000000E+00  0.00000000000E+00  0.91188000000E+02  0.91188000000E+02 0.  0.
    9900012    2    3    3    0    0 -0.28532574693E+02  0.18928050866E+02  0.13542565398E+02  0.54367081954E+02  0.39999994931E+02 0.  0.
         12    1    3    3    0    0  0.28532574693E+02 -0.18928050866E+02 -0.13542565398E+02  0.36820918046E+02  0.00000000000E+00 0. -1.
         11    1    4    4    0    0 -0.25784736073E+02  0.46470029422E+01  0.50134370617E+01  0.26675490664E+02  0.51100000000E-03 0. -1.
        -11    1    4    4    0    0 -0.11881917786E+02  0.96672142259E+01  0.83736717112E+01  0.17457187040E+02  0.51100000000E-03 0.  1.
         12    1    4    4    0    0  0.91340791663E+01  0.46138336975E+01  0.15545662560E+00  0.10234404251E+02  0.00000000000E+00 0. -1.
</event>
<event>
 8    1  0.1248739E-006  0.9118800E+02  0.7816164E-02  0.1184000E+00
        -11   -1    0    0    0    0  0.00000000000E+00  0.00000000000E+00  0.45593999997E+02  0.45594000000E+02  0.51100000000E-03 0. -1.
         11   -1    0    0    0    0 -0.00000000000E+00 -0.00000000000E+00 -0.45593999997E+02  0.45594000000E+02  0.51100000000E-03 0.  1.
         23    2    1    2    0    0  0.00000000000E+00  0.00000000000E+00  0.35527136788E-14  0.91188000000E+02  0.91188000000E+02 0.  0.
    9900012    2    3    3    0    0 -0.33429988578E+02 -0.10232997266E+02  0.11554266285E+02  0.54367089653E+02  0.40000012483E+02 0.  0.
        -12    1    3    3    0    0  0.33429988578E+02  0.10232997266E+02 -0.11554266285E+02  0.36820910347E+02  0.00000000000E+00 0.  1.
         11    1    4    4    0    0 -0.37118772977E+01 -0.32280644839E+01 -0.93376911807E+01  0.10554189227E+02  0.51100000000E-03 0. -1.
        -11    1    4    4    0    0 -0.20050180130E+02 -0.22960803952E+01 -0.15055934097E+00  0.20181783291E+02  0.51100000000E-03 0.  1.
         12    1    4    4    0    0 -0.96679311504E+01 -0.47088523872E+01  0.21042516807E+02  0.23631117136E+02  0.00000000000E+00 0. -1.
</event>
<event>
 8    1  0.1248739E-006  0.9118800E+02  0.7816164E-02  0.1184000E+00
        -11   -1    0    0    0    0  0.00000000000E+00  0.00000000000E+00  0.45593999997E+02  0.45594000000E+02  0.51100000000E-03 0. -1.
         11   -1    0    0    0    0 -0.00000000000E+00 -0.00000000000E+00 -0.45593999997E+02  0.45594000000E+02  0.51100000000E-03 0.  1.
         23    2    1    2    0    0  0.17763568394E-14 -0.35527136788E-14  0.35527136788E-14  0.91188000000E+02  0.91188000000E+02 0.  0.
    9900012    2    3    3    0    0 -0.56094882532E+01  0.18976027595E+02 -0.31052027064E+02  0.54367022738E+02  0.39999859935E+02 0.  0.
         12    1    3    3    0    0  0.56094882532E+01 -0.18976027595E+02  0.31052027064E+02  0.36820977262E+02  0.00000000000E+00 0. -1.
         11    1    4    4    0    0 -0.95918497129E+00 -0.23616986865E+01 -0.16563177386E+02  0.16758177164E+02  0.51100000000E-03 0. -1.
        -11    1    4    4    0    0  0.92885777857E+01  0.74214266699E+00 -0.69423091442E+01  0.11619987501E+02  0.51100000000E-03 0.  1.
        -12    1    4    4    0    0 -0.13938881068E+02  0.20595583615E+02 -0.75465405342E+01  0.25988858072E+02  0.00000000000E+00 0.  1.
</event>
<event>
 8    1  0.1248739E-006  0.9118800E+02  0.7816164E-02  0.1184000E+00
        -11   -1    0    0    0    0  0.00000000000E+00  0.00000000000E+00  0.45593999997E+02  0.45594000000E+02  0.51100000000E-03 0.  1.
         11   -1    0    0    0    0 -0.00000000000E+00 -0.00000000000E+00 -0.45593999997E+02  0.45594000000E+02  0.51100000000E-03 0. -1.
         23    2    1    2    0    0  0.00000000000E+00  0.00000000000E+00  0.00000000000E+00  0.91188000000E+02  0.91188000000E+02 0.  0.
    9900012    2    3    3    0    0  0.16573585832E+02 -0.26921838693E+02  0.18876135398E+02  0.54367114168E+02  0.40000068368E+02 0.  0.
         12    1    3    3    0    0 -0.16573585832E+02  0.26921838693E+02 -0.18876135398E+02  0.36820885832E+02  0.00000000000E+00 0. -1.
         11    1    4    4    0    0  0.42426454304E+01 -0.78668827206E+01  0.15714447953E+02  0.18078488839E+02  0.51100000000E-03 0.  1.
        -11    1    4    4    0    0  0.93295854024E+01  0.49980436935E+01  0.55157771906E+01  0.11935049343E+02  0.51100000000E-03 0. -1.
         12    1    4    4    0    0  0.30013549990E+01 -0.24052999666E+02 -0.23540897456E+01  0.24353575985E+02  0.00000000000E+00 0. -1.
</event>
<event>
 8    1  0.1248739E-006  0.9118800E+02  0.7816164E-02  0.1184000E+00
        -11   -1    0    0    0    0  0.00000000000E+00  0.00000000000E+00  0.45593999997E+02  0.45594000000E+02  0.51100000000E-03 0. -1.
         11   -1    0    0    0    0 -0.00000000000E+00 -0.00000000000E+00 -0.45593999997E+02  0.45594000000E+02  0.51100000000E-03 0.  1.
         23    2    1    2    0    0 -0.17763568394E-14 -0.71054273576E-14  0.00000000000E+00  0.91188000000E+02  0.91188000000E+02 0.  0.
    9900012    2    3    3    0    0 -0.74297771823E+01 -0.35906659041E+02 -0.33601335036E+01  0.54367078643E+02  0.39999987382E+02 0.  0.
         12    1    3    3    0    0  0.74297771823E+01  0.35906659041E+02  0.33601335036E+01  0.36820921357E+02  0.00000000000E+00 0. -1.
         11    1    4    4    0    0  0.33513610280E+01 -0.31538847286E+02  0.16618527211E+01  0.31759915989E+02  0.51100000000E-03 0. -1.
        -11    1    4    4    0    0  0.30928537685E+01  0.90105643594E-01 -0.72337061740E+01  0.78676787385E+01  0.51100000000E-03 0.  1.
        -12    1    4    4    0    0 -0.13873991979E+02 -0.44579173977E+01  0.22117199493E+01  0.14739483915E+02  0.00000000000E+00 0.  1.
</event>
<event>
 8    1  0.1248739E-006  0.9118800E+02  0.7816164E-02  0.1184000E+00
        -11   -1    0    0    0    0  0.00000000000E+00  0.00000000000E+00  0.45593999997E+02  0.45594000000E+02  0.51100000000E-03 0. -1.
         11   -1    0    0    0    0 -0.00000000000E+00 -0.00000000000E+00 -0.45593999997E+02  0.45594000000E+02  0.51100000000E-03 0.  1.
         23    2    1    2    0    0 -0.17763568394E-14  0.35527136788E-14  0.17763568394E-14  0.91188000000E+02  0.91188000000E+02 0.  0.
    9900012    2    3    3    0    0  0.14464082143E+02 -0.30751307258E+02 -0.14174902493E+02  0.54367076179E+02  0.39999981766E+02 0.  0.
         12    1    3    3    0    0 -0.14464082143E+02  0.30751307258E+02  0.14174902493E+02  0.36820923821E+02  0.00000000000E+00 0. -1.
         11    1    4    4    0    0 -0.27088081548E+01  0.11251588541E+00  0.45218883877E+01  0.52723596516E+01  0.51100000000E-03 0. -1.
        -11    1    4    4    0    0  0.24238422284E+02 -0.27523203986E+02 -0.18937845442E+02  0.41275535886E+02  0.51100000000E-03 0.  1.
        -12    1    4    4    0    0 -0.70655319857E+01 -0.33406191577E+01  0.24105456145E+00  0.78191806412E+01  0.00000000000E+00 0.  1.
</event>
<event>
 8    1  0.1248739E-006  0.9118800E+02  0.7816164E-02  0.1184000E+00
        -11   -1    0    0    0    0  0.00000000000E+00  0.00000000000E+00  0.45593999997E+02  0.45594000000E+02  0.51100000000E-03 0. -1.
         11   -1    0    0    0    0 -0.00000000000E+00 -0.00000000000E+00 -0.45593999997E+02  0.45594000000E+02  0.51100000000E-03 0.  1.
         23    2    1    2    0    0 -0.13322676296E-14  0.00000000000E+00  0.00000000000E+00  0.91188000000E+02  0.91188000000E+02 0.  0.
    9900012    2    3    3    0    0  0.17998931742E+01 -0.77402472187E+01 -0.35953098259E+02  0.54367132046E+02  0.40000109126E+02 0.  0.
         12    1    3    3    0    0 -0.17998931742E+01  0.77402472187E+01  0.35953098259E+02  0.36820867954E+02  0.00000000000E+00 0. -1.
         11    1    4    4    0    0 -0.11777874821E+02 -0.94313581407E+01 -0.13614281760E+02  0.20322832474E+02  0.51100000000E-03 0. -1.
        -11    1    4    4    0    0  0.90843832340E+00  0.96012599256E+01 -0.13811964223E+02  0.16845765293E+02  0.51100000000E-03 0.  1.
         12    1    4    4    0    0  0.12669329672E+02 -0.79101490036E+01 -0.85268522756E+01  0.17198534279E+02  0.00000000000E+00 0. -1.
</event>
<event>
 8    1  0.1248739E-006  0.9118800E+02  0.7816164E-02  0.1184000E+00
        -11   -1    0    0    0    0  0.00000000000E+00  0.00000000000E+00  0.45593999997E+02  0.45594000000E+02  0.51100000000E-03 0.  1.
         11   -1    0    0    0    0 -0.00000000000E+00 -0.00000000000E+00 -0.45593999997E+02  0.45594000000E+02  0.51100000000E-03 0. -1.
         23    2    1    2    0    0  0.00000000000E+00  0.00000000000E+00  0.00000000000E+00  0.91188000000E+02  0.91188000000E+02 0.  0.
    9900012    2    3    3    0    0  0.46260122615E+01 -0.58118579141E+01  0.36063852334E+02  0.54367093887E+02  0.40000022134E+02 0.  0.
         12    1    3    3    0    0 -0.46260122615E+01  0.58118579141E+01 -0.36063852334E+02  0.36820906113E+02  0.00000000000E+00 0. -1.
         11    1    4    4    0    0  0.10446574155E+02 -0.11081733374E+02 -0.10045968786E+01  0.15262533908E+02  0.51100000000E-03 0. -1.
        -11    1    4    4    0    0 -0.68511620306E+01  0.25970031620E+00  0.15687426034E+02  0.17120198633E+02  0.51100000000E-03 0.  1.
         12    1    4    4    0    0  0.10306001373E+01  0.50101751437E+01  0.21381023179E+02  0.21984361346E+02  0.00000000000E+00 0. -1.
</event>
<event>
 8    1  0.1248739E-006  0.9118800E+02  0.7816164E-02  0.1184000E+00
        -11   -1    0    0    0    0  0.00000000000E+00  0.00000000000E+00  0.45593999997E+02  0.45594000000E+02  0.51100000000E-03 0. -1.
         11   -1    0    0    0    0 -0.00000000000E+00 -0.00000000000E+00 -0.45593999997E+02  0.45594000000E+02  0.51100000000E-03 0.  1.
         23    2    1    2    0    0  0.00000000000E+00  0.00000000000E+00 -0.35527136788E-14  0.91188000000E+02  0.91188000000E+02 0.  0.
    9900012    2    3    3    0    0  0.28142204153E+01 -0.31375587747E+02 -0.19063915284E+02  0.54367079195E+02  0.39999988640E+02 0.  0.
        -12    1    3    3    0    0 -0.28142204153E+01  0.31375587747E+02  0.19063915284E+02  0.36820920805E+02  0.00000000000E+00 0.  1.
         11    1    4    4    0    0  0.36056319685E+01 -0.16073462773E+02  0.42227808065E+01  0.17005548078E+02  0.51100000000E-03 0. -1.
        -11    1    4    4    0    0  0.22242203922E+01  0.62896556496E+01 -0.93506887747E+01  0.11486614182E+02  0.51100000000E-03 0.  1.
         12    1    4    4    0    0 -0.30156319454E+01 -0.21591780623E+02 -0.13936007316E+02  0.25874916935E+02  0.00000000000E+00 0. -1.
</event>
<event>
 8    1  0.1248739E-006  0.9118800E+02  0.7816164E-02  0.1184000E+00
        -11   -1    0    0    0    0  0.00000000000E+00  0.00000000000E+00  0.45593999997E+02  0.45594000000E+02  0.51100000000E-03 0. -1.
         11   -1    0    0    0    0 -0.00000000000E+00 -0.00000000000E+00 -0.45593999997E+02  0.45594000000E+02  0.51100000000E-03 0.  1.
         23    2    1    2    0    0 -0.17763568394E-14  0.35527136788E-14 -0.35527136788E-14  0.91188000000E+02  0.91188000000E+02 0.  0.
    9900012    2    3    3    0    0 -0.74990493641E+01  0.29561788229E+02  0.20631187149E+02  0.54367069161E+02  0.39999965767E+02 0.  0.
        -12    1    3    3    0    0  0.74990493641E+01 -0.29561788229E+02 -0.20631187149E+02  0.36820930839E+02  0.00000000000E+00 0.  1.
         11    1    4    4    0    0 -0.90390900164E+01 -0.38722192290E+01 -0.38462622830E+01  0.10559022866E+02  0.51100000000E-03 0. -1.
        -11    1    4    4    0    0  0.46903942472E+01  0.18654097832E+02  0.64565210051E+01  0.20289451147E+02  0.51100000000E-03 0.  1.
         12    1    4    4    0    0 -0.31503535950E+01  0.14779909626E+02  0.18020928427E+02  0.23518595147E+02  0.00000000000E+00 0. -1.
</event>
<event>
 8    1  0.1248739E-006  0.9118800E+02  0.7816164E-02  0.1184000E+00
        -11   -1    0    0    0    0  0.00000000000E+00  0.00000000000E+00  0.45593999997E+02  0.45594000000E+02  0.51100000000E-03 0. -1.
         11   -1    0    0    0    0 -0.00000000000E+00 -0.00000000000E+00 -0.45593999997E+02  0.45594000000E+02  0.51100000000E-03 0.  1.
         23    2    1    2    0    0  0.00000000000E+00  0.00000000000E+00  0.00000000000E+00  0.91188000000E+02  0.91188000000E+02 0.  0.
    9900012    2    3    3    0    0 -0.18742957999E+02  0.67319347790E+01 -0.30970300921E+02  0.54367123319E+02  0.40000089229E+02 0.  0.
         12    1    3    3    0    0  0.18742957999E+02 -0.67319347790E+01  0.30970300921E+02  0.36820876681E+02  0.00000000000E+00 0. -1.
         11    1    4    4    0    0 -0.12910768353E+02 -0.40397159493E+01 -0.51607182840E+01  0.14478959144E+02  0.51100000000E-03 0. -1.
        -11    1    4    4    0    0  0.91936078027E+01 -0.31911103626E+01 -0.63914608413E+01  0.11642868277E+02  0.51100000000E-03 0.  1.
        -12    1    4    4    0    0 -0.15025797449E+02  0.13962761091E+02 -0.19418121796E+02  0.28245295897E+02  0.00000000000E+00 0.  1.
</event>
<event>
 8    1  0.1248739E-006  0.9118800E+02  0.7816164E-02  0.1184000E+00
        -11   -1    0    0    0    0  0.00000000000E+00  0.00000000000E+00  0.45593999997E+02  0.45594000000E+02  0.51100000000E-03 0.  1.
         11   -1    0    0    0    0 -0.00000000000E+00 -0.00000000000E+00 -0.45593999997E+02  0.45594000000E+02  0.51100000000E-03 0. -1.
         23    2    1    2    0    0  0.17763568394E-14  0.00000000000E+00  0.00000000000E+00  0.91188000000E+02  0.91188000000E+02 0.  0.
    9900012    2    3    3    0    0 -0.14308066954E+02  0.17769522179E+02 -0.28901613592E+02  0.54367082485E+02  0.39999996140E+02 0.  0.
        -12    1    3    3    0    0  0.14308066954E+02 -0.17769522179E+02  0.28901613592E+02  0.36820917515E+02  0.00000000000E+00 0.  1.
         11    1    4    4    0    0 -0.82462855887E+01  0.58768578389E+01 -0.50483252175E+01  0.11314781122E+02  0.51100000000E-03 0. -1.
        -11    1    4    4    0    0  0.13040647047E+02  0.89689731138E+01 -0.66071830584E+01  0.17150971470E+02  0.51100000000E-03 0.  1.
        -12    1    4    4    0    0 -0.19102428413E+02  0.29236912267E+01 -0.17246105316E+02  0.25901329893E+02  0.00000000000E+00 0.  1.
</event>
<event>
 8    1  0.1248739E-006  0.9118800E+02  0.7816164E-02  0.1184000E+00
        -11   -1    0    0    0    0  0.00000000000E+00  0.00000000000E+00  0.45593999997E+02  0.45594000000E+02  0.51100000000E-03 0.  1.
         11   -1    0    0    0    0 -0.00000000000E+00 -0.00000000000E+00 -0.45593999997E+02  0.45594000000E+02  0.51100000000E-03 0. -1.
         23    2    1    2    0    0  0.88817841970E-15 -0.88817841970E-15  0.00000000000E+00  0.91188000000E+02  0.91188000000E+02 0.  0.
    9900012    2    3    3    0    0 -0.46230777240E+01 -0.79295820397E+01 -0.35658504320E+02  0.54367081363E+02  0.39999993583E+02 0.  0.
        -12    1    3    3    0    0  0.46230777240E+01  0.79295820397E+01  0.35658504320E+02  0.36820918637E+02  0.00000000000E+00 0.  1.
         11    1    4    4    0    0 -0.89168934715E+01 -0.25068013710E+01  0.21349356743E+01  0.95054191329E+01  0.51100000000E-03 0. -1.
        -11    1    4    4    0    0 -0.12401674460E+01 -0.10446682761E+02 -0.58126428643E+01  0.12019068738E+02  0.51100000000E-03 0.  1.
        -12    1    4    4    0    0  0.55339831936E+01  0.50239020924E+01 -0.31980797130E+02  0.32842593492E+02  0.00000000000E+00 0.  1.
</event>
<event>
 8    1  0.1248739E-006  0.9118800E+02  0.7816164E-02  0.1184000E+00
        -11   -1    0    0    0    0  0.00000000000E+00  0.00000000000E+00  0.45593999997E+02  0.45594000000E+02  0.51100000000E-03 0. -1.
         11   -1    0    0    0    0 -0.00000000000E+00 -0.00000000000E+00 -0.45593999997E+02  0.45594000000E+02  0.51100000000E-03 0.  1.
         23    2    1    2    0    0  0.35527136788E-14 -0.17763568394E-14  0.00000000000E+00  0.91188000000E+02  0.91188000000E+02 0.  0.
    9900012    2    3    3    0    0 -0.16208195025E+02 -0.10782438307E+02  0.31254005631E+02  0.54367089775E+02  0.40000012759E+02 0.  0.
        -12    1    3    3    0    0  0.16208195025E+02  0.10782438307E+02 -0.31254005631E+02  0.36820910225E+02  0.00000000000E+00 0.  1.
         11    1    4    4    0    0  0.17430758834E+01 -0.68046759193E+01 -0.18915601023E+01  0.72746084282E+01  0.51100000000E-03 0. -1.
        -11    1    4    4    0    0 -0.12262587551E+01 -0.12387382798E+02  0.22077809967E+02  0.25345229459E+02  0.51100000000E-03 0.  1.
        -12    1    4    4    0    0 -0.16725012153E+02  0.84096204097E+01  0.11067755766E+02  0.21747251888E+02  0.00000000000E+00 0.  1.
</event>
<event>
 8    1  0.1248739E-006  0.9118800E+02  0.7816164E-02  0.1184000E+00
        -11   -1    0    0    0    0  0.00000000000E+00  0.00000000000E+00  0.45593999997E+02  0.45594000000E+02  0.51100000000E-03 0.  1.
         11   -1    0    0    0    0 -0.00000000000E+00 -0.00000000000E+00 -0.45593999997E+02  0.45594000000E+02  0.51100000000E-03 0. -1.
         23    2    1    2    0    0 -0.35527136788E-14  0.00000000000E+00  0.00000000000E+00  0.91188000000E+02  0.91188000000E+02 0.  0.
    9900012    2    3    3    0    0 -0.22239163627E+02 -0.19175715554E+02 -0.22214616421E+02  0.54367113963E+02  0.40000067901E+02 0.  0.
        -12    1    3    3    0    0  0.22239163627E+02  0.19175715554E+02  0.22214616421E+02  0.36820886037E+02  0.00000000000E+00 0.  1.
         11    1    4    4    0    0 -0.10568471598E+00 -0.10363026551E+02 -0.21680818730E+02  0.24030426331E+02  0.51100000000E-03 0. -1.
        -11    1    4    4    0    0 -0.22141323767E+02 -0.29548930812E+01 -0.50964216490E+01  0.22911637331E+02  0.51100000000E-03 0.  1.
         12    1    4    4    0    0  0.78448557688E-02 -0.58577959209E+01  0.45626239587E+01  0.74250503016E+01  0.00000000000E+00 0. -1.
</event>
<event>
 8    1  0.1248739E-006  0.9118800E+02  0.7816164E-02  0.1184000E+00
        -11   -1    0    0    0    0  0.00000000000E+00  0.00000000000E+00  0.45593999997E+02  0.45594000000E+02  0.51100000000E-03 0.  1.
         11   -1    0    0    0    0 -0.00000000000E+00 -0.00000000000E+00 -0.45593999997E+02  0.45594000000E+02  0.51100000000E-03 0. -1.
         23    2    1    2    0    0 -0.11102230246E-14  0.35527136788E-14  0.35527136788E-14  0.91188000000E+02  0.91188000000E+02 0.  0.
    9900012    2    3    3    0    0 -0.94156780362E+00  0.28504474206E+02  0.23289212924E+02  0.54367095090E+02  0.40000024878E+02 0.  0.
         12    1    3    3    0    0  0.94156780362E+00 -0.28504474206E+02 -0.23289212924E+02  0.36820904910E+02  0.00000000000E+00 0. -1.
         11    1    4    4    0    0 -0.11509242396E+02  0.12319915455E-01  0.28507102708E+01  0.11857038485E+02  0.51100000000E-03 0. -1.
        -11    1    4    4    0    0 -0.30521691514E+01 -0.12416605667E+01  0.58174770268E+01  0.66858430067E+01  0.51100000000E-03 0.  1.
        -12    1    4    4    0    0  0.13619843744E+02  0.29733814858E+02  0.14621025627E+02  0.35824213599E+02  0.00000000000E+00 0.  1.
</event>
<event>
 8    1  0.1248739E-006  0.9118800E+02  0.7816164E-02  0.1184000E+00
        -11   -1    0    0    0    0  0.00000000000E+00  0.00000000000E+00  0.45593999997E+02  0.45594000000E+02  0.51100000000E-03 0. -1.
         11   -1    0    0    0    0 -0.00000000000E+00 -0.00000000000E+00 -0.45593999997E+02  0.45594000000E+02  0.51100000000E-03 0.  1.
         23    2    1    2    0    0  0.35527136788E-14 -0.35527136788E-14  0.00000000000E+00  0.91188000000E+02  0.91188000000E+02 0.  0.
    9900012    2    3    3    0    0 -0.11255419206E+02 -0.24121182787E+02  0.25441381835E+02  0.54367084338E+02  0.40000000364E+02 0.  0.
        -12    1    3    3    0    0  0.11255419206E+02  0.24121182787E+02 -0.25441381835E+02  0.36820915662E+02  0.00000000000E+00 0.  1.
         11    1    4    4    0    0  0.55606535270E+01 -0.71477190318E+01  0.41179343326E+01  0.99482731383E+01  0.51100000000E-03 0.  1.
        -11    1    4    4    0    0 -0.11833083412E+02 -0.25911480573E+02  0.13417664508E+02  0.31487464326E+02  0.51100000000E-03 0. -1.
         12    1    4    4    0    0 -0.49829893206E+01  0.89380168182E+01  0.79057829940E+01  0.12931346873E+02  0.00000000000E+00 0. -1.
</event>
<event>
 8    1  0.1248739E-006  0.9118800E+02  0.7816164E-02  0.1184000E+00
        -11   -1    0    0    0    0  0.00000000000E+00  0.00000000000E+00  0.45593999997E+02  0.45594000000E+02  0.51100000000E-03 0.  1.
         11   -1    0    0    0    0 -0.00000000000E+00 -0.00000000000E+00 -0.45593999997E+02  0.45594000000E+02  0.51100000000E-03 0. -1.
         23    2    1    2    0    0  0.44408920985E-15  0.00000000000E+00  0.00000000000E+00  0.91188000000E+02  0.91188000000E+02 0.  0.
    9900012    2    3    3    0    0 -0.34245822493E+01 -0.15705596214E+02  0.33126827480E+02  0.54367079113E+02  0.39999988455E+02 0.  0.
         12    1    3    3    0    0  0.34245822493E+01  0.15705596214E+02 -0.33126827480E+02  0.36820920887E+02  0.00000000000E+00 0. -1.
         11    1    4    4    0    0  0.96235603371E+01 -0.75429187537E+01 -0.22804359815E+00  0.12229494717E+02  0.51100000000E-03 0. -1.
        -11    1    4    4    0    0 -0.16494812662E+02 -0.10126502727E+01  0.15763500891E+02  0.22838394557E+02  0.51100000000E-03 0.  1.
         12    1    4    4    0    0  0.34466700758E+01 -0.71500271875E+01  0.17591370187E+02  0.19299189839E+02  0.00000000000E+00 0. -1.
</event>
<event>
 8    1  0.1248739E-006  0.9118800E+02  0.7816164E-02  0.1184000E+00
        -11   -1    0    0    0    0  0.00000000000E+00  0.00000000000E+00  0.45593999997E+02  0.45594000000E+02  0.51100000000E-03 0. -1.
         11   -1    0    0    0    0 -0.00000000000E+00 -0.00000000000E+00 -0.45593999997E+02  0.45594000000E+02  0.51100000000E-03 0.  1.
         23    2    1    2    0    0  0.00000000000E+00 -0.35527136788E-14  0.00000000000E+00  0.91188000000E+02  0.91188000000E+02 0.  0.
    9900012    2    3    3    0    0  0.25308861656E+02  0.23161637236E+02  0.13370882985E+02  0.54367076199E+02  0.39999981811E+02 0.  0.
        -12    1    3    3    0    0 -0.25308861656E+02 -0.23161637236E+02 -0.13370882985E+02  0.36820923801E+02  0.00000000000E+00 0.  1.
         11    1    4    4    0    0  0.88121225910E+01  0.22838621261E+02  0.12166005335E+02  0.27336199658E+02  0.51100000000E-03 0. -1.
        -11    1    4    4    0    0  0.62443667803E+01 -0.11161462378E+01  0.11051879733E+02  0.12742917437E+02  0.51100000000E-03 0.  1.
        -12    1    4    4    0    0  0.10252372284E+02  0.14391622129E+01 -0.98470020833E+01  0.14287959104E+02  0.00000000000E+00 0.  1.
</event>
<event>
 8    1  0.1248739E-006  0.9118800E+02  0.7816164E-02  0.1184000E+00
        -11   -1    0    0    0    0  0.00000000000E+00  0.00000000000E+00  0.45593999997E+02  0.45594000000E+02  0.51100000000E-03 0.  1.
         11   -1    0    0    0    0 -0.00000000000E+00 -0.00000000000E+00 -0.45593999997E+02  0.45594000000E+02  0.51100000000E-03 0. -1.
         23    2    1    2    0    0 -0.35527136788E-14  0.00000000000E+00  0.00000000000E+00  0.91188000000E+02  0.91188000000E+02 0.  0.
    9900012    2    3    3    0    0  0.25155022295E+02  0.20198272089E+02 -0.17749222676E+02  0.54367078669E+02  0.39999987442E+02 0.  0.
        -12    1    3    3    0    0 -0.25155022295E+02 -0.20198272089E+02  0.17749222676E+02  0.36820921331E+02  0.00000000000E+00 0.  1.
         11    1    4    4    0    0  0.25535635757E+01  0.59229386729E+01 -0.98982579999E+01  0.11814288009E+02  0.51100000000E-03 0. -1.
        -11    1    4    4    0    0 -0.51591325061E+00  0.15442311934E+02  0.47935768787E+01  0.16177439349E+02  0.51100000000E-03 0.  1.
        -12    1    4    4    0    0  0.23117371970E+02 -0.11669785176E+01 -0.12644541555E+02  0.26375351311E+02  0.00000000000E+00 0.  1.
</event>
<event>
 8    1  0.1248739E-006  0.9118800E+02  0.7816164E-02  0.1184000E+00
        -11   -1    0    0    0    0  0.00000000000E+00  0.00000000000E+00  0.45593999997E+02  0.45594000000E+02  0.51100000000E-03 0.  1.
         11   -1    0    0    0    0 -0.00000000000E+00 -0.00000000000E+00 -0.45593999997E+02  0.45594000000E+02  0.51100000000E-03 0. -1.
         23    2    1    2    0    0  0.44408920985E-15  0.71054273576E-14  0.35527136788E-14  0.91188000000E+02  0.91188000000E+02 0.  0.
    9900012    2    3    3    0    0 -0.25574765384E+01  0.26215897490E+02  0.25728707576E+02  0.54367077130E+02  0.39999983933E+02 0.  0.
         12    1    3    3    0    0  0.25574765384E+01 -0.26215897490E+02 -0.25728707576E+02  0.36820922870E+02  0.00000000000E+00 0. -1.
         11    1    4    4    0    0 -0.19661802368E+01  0.20769241706E+01 -0.31435814777E+01  0.42498921753E+01  0.51100000000E-03 0. -1.
        -11    1    4    4    0    0 -0.15671938092E+02  0.18686204375E+02  0.13368426040E+02  0.27811844466E+02  0.51100000000E-03 0.  1.
         12    1    4    4    0    0  0.15080641791E+02  0.54527689437E+01  0.15503863014E+02  0.22305340489E+02  0.00000000000E+00 0. -1.
</event>
<event>
 8    1  0.1248739E-006  0.9118800E+02  0.7816164E-02  0.1184000E+00
        -11   -1    0    0    0    0  0.00000000000E+00  0.00000000000E+00  0.45593999997E+02  0.45594000000E+02  0.51100000000E-03 0. -1.
         11   -1    0    0    0    0 -0.00000000000E+00 -0.00000000000E+00 -0.45593999997E+02  0.45594000000E+02  0.51100000000E-03 0.  1.
         23    2    1    2    0    0 -0.22204460493E-15  0.71054273576E-14  0.00000000000E+00  0.91188000000E+02  0.91188000000E+02 0.  0.
    9900012    2    3    3    0    0 -0.61529374025E+00 -0.34836154656E+02 -0.11909792112E+02  0.54367090102E+02  0.40000013504E+02 0.  0.
         12    1    3    3    0    0  0.61529374025E+00  0.34836154656E+02  0.11909792112E+02  0.36820909898E+02  0.00000000000E+00 0. -1.
         11    1    4    4    0    0  0.51190291318E+01 -0.16613961703E+02 -0.68119104985E+01  0.18671644481E+02  0.51100000000E-03 0. -1.
        -11    1    4    4    0    0 -0.66592851545E+01  0.46074537524E+01 -0.94408072119E+01  0.12437988178E+02  0.51100000000E-03 0.  1.
        -12    1    4    4    0    0  0.92496228244E+00 -0.22829646705E+02  0.43429255989E+01  0.23257457442E+02  0.00000000000E+00 0.  1.
</event>
<event>
 8    1  0.1248739E-006  0.9118800E+02  0.7816164E-02  0.1184000E+00
        -11   -1    0    0    0    0  0.00000000000E+00  0.00000000000E+00  0.45593999997E+02  0.45594000000E+02  0.51100000000E-03 0. -1.
         11   -1    0    0    0    0 -0.00000000000E+00 -0.00000000000E+00 -0.45593999997E+02  0.45594000000E+02  0.51100000000E-03 0.  1.
         23    2    1    2    0    0  0.00000000000E+00  0.17763568394E-14  0.35527136788E-14  0.91188000000E+02  0.91188000000E+02 0.  0.
    9900012    2    3    3    0    0  0.15470437293E+02 -0.12360737391E+02  0.31042801216E+02  0.54367112365E+02  0.40000064258E+02 0.  0.
        -12    1    3    3    0    0 -0.15470437293E+02  0.12360737391E+02 -0.31042801216E+02  0.36820887635E+02  0.00000000000E+00 0.  1.
         11    1    4    4    0    0 -0.17554524767E+01  0.20264465732E+01  0.17793015641E+02  0.17993874096E+02  0.51100000000E-03 0. -1.
        -11    1    4    4    0    0  0.11475501011E+02 -0.21302352655E+02  0.62892013341E+01  0.25000628107E+02  0.51100000000E-03 0.  1.
        -12    1    4    4    0    0  0.57503887591E+01  0.69151686914E+01  0.69605842415E+01  0.11372610162E+02  0.00000000000E+00 0.  1.
</event>
<event>
 8    1  0.1248739E-006  0.9118800E+02  0.7816164E-02  0.1184000E+00
        -11   -1    0    0    0    0  0.00000000000E+00  0.00000000000E+00  0.45593999997E+02  0.45594000000E+02  0.51100000000E-03 0.  1.
         11   -1    0    0    0    0 -0.00000000000E+00 -0.00000000000E+00 -0.45593999997E+02  0.45594000000E+02  0.51100000000E-03 0. -1.
         23    2    1    2    0    0  0.00000000000E+00  0.00000000000E+00  0.17763568394E-14  0.91188000000E+02  0.91188000000E+02 0.  0.
    9900012    2    3    3    0    0 -0.18388273110E+02  0.28853823960E+02  0.13605413691E+02  0.54367095247E+02  0.40000025235E+02 0.  0.
         12    1    3    3    0    0  0.18388273110E+02 -0.28853823960E+02 -0.13605413691E+02  0.36820904753E+02  0.00000000000E+00 0. -1.
         11    1    4    4    0    0 -0.15010696703E+01  0.12945615854E+02  0.13501783662E+02  0.18765402802E+02  0.51100000000E-03 0. -1.
        -11    1    4    4    0    0 -0.18458963319E+02  0.20889563188E+02  0.51390374061E+01  0.28346373361E+02  0.51100000000E-03 0.  1.
        -12    1    4    4    0    0  0.15717598791E+01 -0.49813550819E+01 -0.50354073768E+01  0.72553190846E+01  0.00000000000E+00 0.  1.
</event>
<event>
 8    1  0.1248739E-006  0.9118800E+02  0.7816164E-02  0.1184000E+00
        -11   -1    0    0    0    0  0.00000000000E+00  0.00000000000E+00  0.45593999997E+02  0.45594000000E+02  0.51100000000E-03 0. -1.
         11   -1    0    0    0    0 -0.00000000000E+00 -0.00000000000E+00 -0.45593999997E+02  0.45594000000E+02  0.51100000000E-03 0.  1.
         23    2    1    2    0    0  0.00000000000E+00 -0.66613381478E-15  0.00000000000E+00  0.91188000000E+02  0.91188000000E+02 0.  0.
    9900012    2    3    3    0    0  0.26036567509E+02  0.13101260199E+01  0.26003131499E+02  0.54367053168E+02  0.39999929308E+02 0.  0.
        -12    1    3    3    0    0 -0.26036567509E+02 -0.13101260199E+01 -0.26003131499E+02  0.36820946832E+02  0.00000000000E+00 0.  1.
         11    1    4    4    0    0  0.17675128150E+02 -0.13506092204E+02  0.61730594290E+01  0.23085305818E+02  0.51100000000E-03 0. -1.
        -11    1    4    4    0    0 -0.12191187370E+01  0.13177208209E-01 -0.25283274032E+01  0.28069313944E+01  0.51100000000E-03 0.  1.
         12    1    4    4    0    0  0.95805580959E+01  0.14803041015E+02  0.22358399473E+02  0.28474815956E+02  0.00000000000E+00 0. -1.
</event>
<event>
 8    1  0.1248739E-006  0.9118800E+02  0.7816164E-02  0.1184000E+00
        -11   -1    0    0    0    0  0.00000000000E+00  0.00000000000E+00  0.45593999997E+02  0.45594000000E+02  0.51100000000E-03 0. -1.
         11   -1    0    0    0    0 -0.00000000000E+00 -0.00000000000E+00 -0.45593999997E+02  0.45594000000E+02  0.51100000000E-03 0.  1.
         23    2    1    2    0    0  0.00000000000E+00  0.35527136788E-14  0.00000000000E+00  0.91188000000E+02  0.91188000000E+02 0.  0.
    9900012    2    3    3    0    0 -0.25368449383E+02 -0.19322494566E+02 -0.18408251131E+02  0.54367072119E+02  0.39999972509E+02 0.  0.
         12    1    3    3    0    0  0.25368449383E+02  0.19322494566E+02  0.18408251131E+02  0.36820927881E+02  0.00000000000E+00 0. -1.
         11    1    4    4    0    0 -0.10328736588E+02 -0.95024349964E+01  0.84730614888E+01  0.16394262460E+02  0.51100000000E-03 0. -1.
        -11    1    4    4    0    0 -0.17510882248E+02 -0.28047940280E+01 -0.24334878423E+02  0.30111196834E+02  0.51100000000E-03 0.  1.
        -12    1    4    4    0    0  0.24711694537E+01 -0.70152655412E+01 -0.25464341970E+01  0.78616128245E+01  0.00000000000E+00 0.  1.
</event>
<event>
 8    1  0.1248739E-006  0.9118800E+02  0.7816164E-02  0.1184000E+00
        -11   -1    0    0    0    0  0.00000000000E+00  0.00000000000E+00  0.45593999997E+02  0.45594000000E+02  0.51100000000E-03 0.  1.
         11   -1    0    0    0    0 -0.00000000000E+00 -0.00000000000E+00 -0.45593999997E+02  0.45594000000E+02  0.51100000000E-03 0. -1.
         23    2    1    2    0    0  0.00000000000E+00 -0.35527136788E-14  0.35527136788E-14  0.91188000000E+02  0.91188000000E+02 0.  0.
    9900012    2    3    3    0    0  0.14884293790E+02 -0.26752097833E+02  0.20458809192E+02  0.54367084563E+02  0.40000000878E+02 0.  0.
        -12    1    3    3    0    0 -0.14884293790E+02  0.26752097833E+02 -0.20458809192E+02  0.36820915437E+02  0.00000000000E+00 0.  1.
         11    1    4    4    0    0 -0.77478365006E+01 -0.11476374206E+02  0.20909246654E+02  0.25078531282E+02  0.51100000000E-03 0.  1.
        -11    1    4    4    0    0  0.34366039763E+01 -0.76338245727E+01  0.16106702632E+01  0.85252438941E+01  0.51100000000E-03 0. -1.
        -12    1    4    4    0    0  0.19195526314E+02 -0.76418990543E+01 -0.20611077259E+01  0.20763309387E+02  0.00000000000E+00 0.  1.
</event>
<event>
 8    1  0.1248739E-006  0.9118800E+02  0.7816164E-02  0.1184000E+00
        -11   -1    0    0    0    0  0.00000000000E+00  0.00000000000E+00  0.45593999997E+02  0.45594000000E+02  0.51100000000E-03 0. -1.
         11   -1    0    0    0    0 -0.00000000000E+00 -0.00000000000E+00 -0.45593999997E+02  0.45594000000E+02  0.51100000000E-03 0.  1.
         23    2    1    2    0    0 -0.35527136788E-14 -0.88817841970E-15  0.00000000000E+00  0.91188000000E+02  0.91188000000E+02 0.  0.
    9900012    2    3    3    0    0 -0.14727038959E+02  0.43678816510E+01 -0.33463644857E+02  0.54367087549E+02  0.40000007685E+02 0.  0.
         12    1    3    3    0    0  0.14727038959E+02 -0.43678816510E+01  0.33463644857E+02  0.36820912451E+02  0.00000000000E+00 0. -1.
         11    1    4    4    0    0 -0.18744047552E+02  0.47331946655E+01 -0.12912844862E+02  0.23248312048E+02  0.51100000000E-03 0. -1.
        -11    1    4    4    0    0  0.43771298281E+01  0.10914564861E+02 -0.13056032811E+02  0.17571197588E+02  0.51100000000E-03 0.  1.
         12    1    4    4    0    0 -0.36012123532E+00 -0.11279877876E+02 -0.74947671834E+01  0.13547577914E+02  0.00000000000E+00 0. -1.
</event>
<event>
 8    1  0.1248739E-006  0.9118800E+02  0.7816164E-02  0.1184000E+00
        -11   -1    0    0    0    0  0.00000000000E+00  0.00000000000E+00  0.45593999997E+02  0.45594000000E+02  0.51100000000E-03 0. -1.
         11   -1    0    0    0    0 -0.00000000000E+00 -0.00000000000E+00 -0.45593999997E+02  0.45594000000E+02  0.51100000000E-03 0.  1.
         23    2    1    2    0    0  0.00000000000E+00 -0.35527136788E-14  0.35527136788E-14  0.91188000000E+02  0.91188000000E+02 0.  0.
    9900012    2    3    3    0    0 -0.89314405167E+01  0.16361813965E+02 -0.31753735276E+02  0.54367091674E+02  0.40000017090E+02 0.  0.
         12    1    3    3    0    0  0.89314405167E+01 -0.16361813965E+02  0.31753735276E+02  0.36820908326E+02  0.00000000000E+00 0. -1.
         11    1    4    4    0    0  0.92745213667E+01  0.86418779559E+01 -0.93160637463E+01  0.15731746412E+02  0.51100000000E-03 0. -1.
        -11    1    4    4    0    0 -0.68806119275E+01 -0.85591896183E+01 -0.11844621825E+02  0.16152325339E+02  0.51100000000E-03 0.  1.
         12    1    4    4    0    0 -0.11325349956E+02  0.16279125628E+02 -0.10593049704E+02  0.22483019923E+02  0.00000000000E+00 0. -1.
</event>
<event>
 8    1  0.1248739E-006  0.9118800E+02  0.7816164E-02  0.1184000E+00
        -11   -1    0    0    0    0  0.00000000000E+00  0.00000000000E+00  0.45593999997E+02  0.45594000000E+02  0.51100000000E-03 0. -1.
         11   -1    0    0    0    0 -0.00000000000E+00 -0.00000000000E+00 -0.45593999997E+02  0.45594000000E+02  0.51100000000E-03 0.  1.
         23    2    1    2    0    0  0.00000000000E+00  0.88817841970E-15 -0.71054273576E-14  0.91188000000E+02  0.91188000000E+02 0.  0.
    9900012    2    3    3    0    0 -0.11803100275E+02 -0.43474332597E+01  0.34605805867E+02  0.54367147867E+02  0.40000145193E+02 0.  0.
        -12    1    3    3    0    0  0.11803100275E+02  0.43474332597E+01 -0.34605805867E+02  0.36820852133E+02  0.00000000000E+00 0.  1.
         11    1    4    4    0    0 -0.42914930242E+01  0.48882284973E+01 -0.31570362301E+01  0.72303919837E+01  0.51100000000E-03 0. -1.
        -11    1    4    4    0    0  0.44722409772E+01  0.68205418025E+01  0.10145171667E+02  0.13017113284E+02  0.51100000000E-03 0.  1.
        -12    1    4    4    0    0 -0.11983848228E+02 -0.16056203560E+02  0.27617670431E+02  0.34119642600E+02  0.00000000000E+00 0.  1.
</event>
<event>
 8    1  0.1248739E-006  0.9118800E+02  0.7816164E-02  0.1184000E+00
        -11   -1    0    0    0    0  0.00000000000E+00  0.00000000000E+00  0.45593999997E+02  0.45594000000E+02  0.51100000000E-03 0. -1.
         11   -1    0    0    0    0 -0.00000000000E+00 -0.00000000000E+00 -0.45593999997E+02  0.45594000000E+02  0.51100000000E-03 0.  1.
         23    2    1    2    0    0 -0.35527136788E-14  0.00000000000E+00  0.35527136788E-14  0.91188000000E+02  0.91188000000E+02 0.  0.
    9900012    2    3    3    0    0  0.18637494781E+02 -0.12335470742E+02 -0.29261905187E+02  0.54367093638E+02  0.40000021567E+02 0.  0.
         12    1    3    3    0    0 -0.18637494781E+02  0.12335470742E+02  0.29261905187E+02  0.36820906362E+02  0.00000000000E+00 0. -1.
         11    1    4    4    0    0  0.22487091304E+02 -0.88018803020E+01 -0.33741224153E+01  0.24382925881E+02  0.51100000000E-03 0. -1.
        -11    1    4    4    0    0  0.49022866609E+01  0.43506948389E+00 -0.51253331542E+01  0.71056836521E+01  0.51100000000E-03 0.  1.
        -12    1    4    4    0    0 -0.87518831836E+01 -0.39686599237E+01 -0.20762449617E+02  0.22878484105E+02  0.00000000000E+00 0.  1.
</event>
<event>
 8    1  0.1248739E-006  0.9118800E+02  0.7816164E-02  0.1184000E+00
        -11   -1    0    0    0    0  0.00000000000E+00  0.00000000000E+00  0.45593999997E+02  0.45594000000E+02  0.51100000000E-03 0. -1.
         11   -1    0    0    0    0 -0.00000000000E+00 -0.00000000000E+00 -0.45593999997E+02  0.45594000000E+02  0.51100000000E-03 0.  1.
         23    2    1    2    0    0  0.00000000000E+00  0.00000000000E+00  0.00000000000E+00  0.91188000000E+02  0.91188000000E+02 0.  0.
    9900012    2    3    3    0    0  0.97692837627E+01  0.26301307740E+02  0.23844972400E+02  0.54367076562E+02  0.39999982637E+02 0.  0.
        -12    1    3    3    0    0 -0.97692837627E+01 -0.26301307740E+02 -0.23844972400E+02  0.36820923438E+02  0.00000000000E+00 0.  1.
         11    1    4    4    0    0 -0.60638642363E+01  0.45937608296E+01  0.17070169716E+02  0.18688600333E+02  0.51100000000E-03 0. -1.
        -11    1    4    4    0    0  0.50829423220E+01  0.33819073880E+01 -0.78062984564E+01  0.99101915259E+01  0.51100000000E-03 0.  1.
        -12    1    4    4    0    0  0.10750205677E+02  0.18325639523E+02  0.14581101141E+02  0.25768284702E+02  0.00000000000E+00 0.  1.
</event>
<event>
 8    1  0.1248739E-006  0.9118800E+02  0.7816164E-02  0.1184000E+00
        -11   -1    0    0    0    0  0.00000000000E+00  0.00000000000E+00  0.45593999997E+02  0.45594000000E+02  0.51100000000E-03 0.  1.
         11   -1    0    0    0    0 -0.00000000000E+00 -0.00000000000E+00 -0.45593999997E+02  0.45594000000E+02  0.51100000000E-03 0. -1.
         23    2    1    2    0    0 -0.17763568394E-14  0.77715611724E-15  0.71054273576E-14  0.91188000000E+02  0.91188000000E+02 0.  0.
    9900012    2    3    3    0    0 -0.12970275729E+02 -0.78928812117E+00  0.34451843464E+02  0.54367074614E+02  0.39999978197E+02 0.  0.
         12    1    3    3    0    0  0.12970275729E+02  0.78928812117E+00 -0.34451843464E+02  0.36820925386E+02  0.00000000000E+00 0. -1.
         11    1    4    4    0    0 -0.18162999429E+00 -0.98232152874E+01 -0.36270571719E+01  0.10473017332E+02  0.51100000000E-03 0. -1.
        -11    1    4    4    0    0 -0.15019086396E+01  0.66753353764E+01  0.27179182265E+02  0.28027197163E+02  0.51100000000E-03 0.  1.
         12    1    4    4    0    0 -0.11286737095E+02  0.23585917898E+01  0.10899718371E+02  0.15866860119E+02  0.00000000000E+00 0. -1.
</event>
<event>
 8    1  0.1248739E-006  0.9118800E+02  0.7816164E-02  0.1184000E+00
        -11   -1    0    0    0    0  0.00000000000E+00  0.00000000000E+00  0.45593999997E+02  0.45594000000E+02  0.51100000000E-03 0. -1.
         11   -1    0    0    0    0 -0.00000000000E+00 -0.00000000000E+00 -0.45593999997E+02  0.45594000000E+02  0.51100000000E-03 0.  1.
         23    2    1    2    0    0  0.35527136788E-14  0.35527136788E-14  0.00000000000E+00  0.91188000000E+02  0.91188000000E+02 0.  0.
    9900012    2    3    3    0    0 -0.25784469483E+02 -0.16105019109E+02  0.20774278595E+02  0.54367066305E+02  0.39999959255E+02 0.  0.
        -12    1    3    3    0    0  0.25784469483E+02  0.16105019109E+02 -0.20774278595E+02  0.36820933695E+02  0.00000000000E+00 0.  1.
         11    1    4    4    0    0  0.66006167008E+01 -0.54856625957E+01  0.91462733528E+01  0.12542525721E+02  0.51100000000E-03 0.  1.
        -11    1    4    4    0    0 -0.21389815561E+02 -0.16820211702E+02  0.10441500551E+02  0.29145645737E+02  0.51100000000E-03 0. -1.
         12    1    4    4    0    0 -0.10995270623E+02  0.62008551887E+01  0.11865046914E+01  0.12678894847E+02  0.00000000000E+00 0. -1.
</event>
<event>
 8    1  0.1248739E-006  0.9118800E+02  0.7816164E-02  0.1184000E+00
        -11   -1    0    0    0    0  0.00000000000E+00  0.00000000000E+00  0.45593999997E+02  0.45594000000E+02  0.51100000000E-03 0.  1.
         11   -1    0    0    0    0 -0.00000000000E+00 -0.00000000000E+00 -0.45593999997E+02  0.45594000000E+02  0.51100000000E-03 0. -1.
         23    2    1    2    0    0  0.53290705182E-14  0.35527136788E-14  0.00000000000E+00  0.91188000000E+02  0.91188000000E+02 0.  0.
    9900012    2    3    3    0    0  0.10859205337E+02  0.21941175036E+02  0.27503554657E+02  0.54367041005E+02  0.39999901579E+02 0.  0.
         12    1    3    3    0    0 -0.10859205337E+02 -0.21941175036E+02 -0.27503554657E+02  0.36820958995E+02  0.00000000000E+00 0. -1.
         11    1    4    4    0    0 -0.12201243025E+02  0.49085568177E+00  0.16091189684E+02  0.20199941989E+02  0.51100000000E-03 0. -1.
        -11    1    4    4    0    0  0.18571307245E+02  0.19771492160E+02  0.79905628849E+01  0.28278162078E+02  0.51100000000E-03 0.  1.
         12    1    4    4    0    0  0.44891411175E+01  0.16788271938E+01  0.34218020887E+01  0.58889369374E+01  0.00000000000E+00 0. -1.
</event>
<event>
 8    1  0.1248739E-006  0.9118800E+02  0.7816164E-02  0.1184000E+00
        -11   -1    0    0    0    0  0.00000000000E+00  0.00000000000E+00  0.45593999997E+02  0.45594000000E+02  0.51100000000E-03 0. -1.
         11   -1    0    0    0    0 -0.00000000000E+00 -0.00000000000E+00 -0.45593999997E+02  0.45594000000E+02  0.51100000000E-03 0.  1.
         23    2    1    2    0    0  0.00000000000E+00  0.00000000000E+00  0.00000000000E+00  0.91188000000E+02  0.91188000000E+02 0.  0.
    9900012    2    3    3    0    0  0.26808390911E+02 -0.14120492608E+02  0.20921354464E+02  0.54367065637E+02  0.39999957734E+02 0.  0.
        -12    1    3    3    0    0 -0.26808390911E+02  0.14120492608E+02 -0.20921354464E+02  0.36820934363E+02  0.00000000000E+00 0.  1.
         11    1    4    4    0    0  0.34258452195E+01  0.20175508009E+01 -0.73777164435E+01  0.83807891564E+01  0.51100000000E-03 0. -1.
        -11    1    4    4    0    0 -0.25835355261E+01  0.23110478599E+01  0.13690107859E+00  0.34690546539E+01  0.51100000000E-03 0.  1.
        -12    1    4    4    0    0  0.25966081218E+02 -0.18449091269E+02  0.28162169829E+02  0.42517221827E+02  0.00000000000E+00 0.  1.
</event>
<event>
 8    1  0.1248739E-006  0.9118800E+02  0.7816164E-02  0.1184000E+00
        -11   -1    0    0    0    0  0.00000000000E+00  0.00000000000E+00  0.45593999997E+02  0.45594000000E+02  0.51100000000E-03 0.  1.
         11   -1    0    0    0    0 -0.00000000000E+00 -0.00000000000E+00 -0.45593999997E+02  0.45594000000E+02  0.51100000000E-03 0. -1.
         23    2    1    2    0    0 -0.35527136788E-14 -0.35527136788E-14  0.00000000000E+00  0.91188000000E+02  0.91188000000E+02 0.  0.
    9900012    2    3    3    0    0  0.29614758924E+02  0.12330660657E+02 -0.18074825706E+02  0.54367102908E+02  0.40000042698E+02 0.  0.
         12    1    3    3    0    0 -0.29614758924E+02 -0.12330660657E+02  0.18074825706E+02  0.36820897092E+02  0.00000000000E+00 0. -1.
         11    1    4    4    0    0  0.51769291293E+01  0.31546251825E+01 -0.17922200323E+02  0.18919765325E+02  0.51100000000E-03 0. -1.
        -11    1    4    4    0    0  0.28991256493E+01  0.13062659825E+02 -0.17895415597E+01  0.13499647051E+02  0.51100000000E-03 0.  1.
         12    1    4    4    0    0  0.21538704146E+02 -0.38866243513E+01  0.16369161764E+01  0.21947690532E+02  0.00000000000E+00 0. -1.
</event>
<event>
 8    1  0.1248739E-006  0.9118800E+02  0.7816164E-02  0.1184000E+00
        -11   -1    0    0    0    0  0.00000000000E+00  0.00000000000E+00  0.45593999997E+02  0.45594000000E+02  0.51100000000E-03 0.  1.
         11   -1    0    0    0    0 -0.00000000000E+00 -0.00000000000E+00 -0.45593999997E+02  0.45594000000E+02  0.51100000000E-03 0. -1.
         23    2    1    2    0    0  0.00000000000E+00  0.17763568394E-14  0.00000000000E+00  0.91188000000E+02  0.91188000000E+02 0.  0.
    9900012    2    3    3    0    0  0.10187307151E+02 -0.15953099298E+02  0.31583199865E+02  0.54367066852E+02  0.39999960503E+02 0.  0.
         12    1    3    3    0    0 -0.10187307151E+02  0.15953099298E+02 -0.31583199865E+02  0.36820933148E+02  0.00000000000E+00 0. -1.
         11    1    4    4    0    0 -0.79157622548E+01 -0.14339633042E+02  0.24568880928E+01  0.16562628633E+02  0.51100000000E-03 0. -1.
        -11    1    4    4    0    0  0.33376088289E+01  0.64599696170E+01  0.89233010457E+01  0.11510696849E+02  0.51100000000E-03 0.  1.
        -12    1    4    4    0    0  0.14765460577E+02 -0.80734358725E+01  0.20203010726E+02  0.26293741370E+02  0.00000000000E+00 0.  1.
</event>
<event>
 8    1  0.1248739E-006  0.9118800E+02  0.7816164E-02  0.1184000E+00
        -11   -1    0    0    0    0  0.00000000000E+00  0.00000000000E+00  0.45593999997E+02  0.45594000000E+02  0.51100000000E-03 0. -1.
         11   -1    0    0    0    0 -0.00000000000E+00 -0.00000000000E+00 -0.45593999997E+02  0.45594000000E+02  0.51100000000E-03 0.  1.
         23    2    1    2    0    0  0.35527136788E-14 -0.17763568394E-14  0.35527136788E-14  0.91188000000E+02  0.91188000000E+02 0.  0.
    9900012    2    3    3    0    0 -0.26043802443E+02  0.11632589641E+02 -0.23284839686E+02  0.54367074609E+02  0.39999978186E+02 0.  0.
         12    1    3    3    0    0  0.26043802443E+02 -0.11632589641E+02  0.23284839686E+02  0.36820925391E+02  0.00000000000E+00 0. -1.
         11    1    4    4    0    0 -0.33158383917E+01  0.14794905366E+02 -0.13542034627E+02  0.20329060753E+02  0.51100000000E-03 0. -1.
        -11    1    4    4    0    0 -0.21544514324E+02 -0.72282430194E+01 -0.15043947860E+02  0.27253145912E+02  0.51100000000E-03 0.  1.
        -12    1    4    4    0    0 -0.11834497274E+01  0.40659272947E+01  0.53011428007E+01  0.67848679439E+01  0.00000000000E+00 0.  1.
</event>
<event>
 8    1  0.1248739E-006  0.9118800E+02  0.7816164E-02  0.1184000E+00
        -11   -1    0    0    0    0  0.00000000000E+00  0.00000000000E+00  0.45593999997E+02  0.45594000000E+02  0.51100000000E-03 0.  1.
         11   -1    0    0    0    0 -0.00000000000E+00 -0.00000000000E+00 -0.45593999997E+02  0.45594000000E+02  0.51100000000E-03 0. -1.
         23    2    1    2    0    0  0.88817841970E-15 -0.35527136788E-14  0.35527136788E-14  0.91188000000E+02  0.91188000000E+02 0.  0.
    9900012    2    3    3    0    0  0.33974609156E+01 -0.28953752122E+02 -0.22492571591E+02  0.54367105397E+02  0.40000048373E+02 0.  0.
        -12    1    3    3    0    0 -0.33974609156E+01  0.28953752122E+02  0.22492571591E+02  0.36820894603E+02  0.00000000000E+00 0.  1.
         11    1    4    4    0    0 -0.71455227334E+01 -0.13627691467E+02 -0.19559517525E+02  0.24886687122E+02  0.51100000000E-03 0. -1.
        -11    1    4    4    0    0  0.11391217166E+02 -0.18458471159E+02  0.37863077460E+01  0.22018426662E+02  0.51100000000E-03 0.  1.
        -12    1    4    4    0    0 -0.84823351718E+00  0.31324105039E+01 -0.67193618122E+01  0.74619916127E+01  0.00000000000E+00 0.  1.
</event>
<event>
 8    1  0.1248739E-006  0.9118800E+02  0.7816164E-02  0.1184000E+00
        -11   -1    0    0    0    0  0.00000000000E+00  0.00000000000E+00  0.45593999997E+02  0.45594000000E+02  0.51100000000E-03 0. -1.
         11   -1    0    0    0    0 -0.00000000000E+00 -0.00000000000E+00 -0.45593999997E+02  0.45594000000E+02  0.51100000000E-03 0.  1.
         23    2    1    2    0    0 -0.44408920985E-15  0.00000000000E+00  0.00000000000E+00  0.91188000000E+02  0.91188000000E+02 0.  0.
    9900012    2    3    3    0    0  0.30128590278E+01  0.11816171008E+02 -0.34743063311E+02  0.54367086581E+02  0.40000005478E+02 0.  0.
         12    1    3    3    0    0 -0.30128590278E+01 -0.11816171008E+02  0.34743063311E+02  0.36820913419E+02  0.00000000000E+00 0. -1.
         11    1    4    4    0    0 -0.66538287957E+01  0.57506469655E+01  0.26735390672E+01  0.91919089187E+01  0.51100000000E-03 0. -1.
        -11    1    4    4    0    0  0.21433659265E+01 -0.41394686035E+01 -0.30258836582E+02  0.30615786930E+02  0.51100000000E-03 0.  1.
        -12    1    4    4    0    0  0.75233218970E+01  0.10204992646E+02 -0.71577657962E+01  0.14559390731E+02  0.00000000000E+00 0.  1.
</event>
<event>
 8    1  0.1248739E-006  0.9118800E+02  0.7816164E-02  0.1184000E+00
        -11   -1    0    0    0    0  0.00000000000E+00  0.00000000000E+00  0.45593999997E+02  0.45594000000E+02  0.51100000000E-03 0. -1.
         11   -1    0    0    0    0 -0.00000000000E+00 -0.00000000000E+00 -0.45593999997E+02  0.45594000000E+02  0.51100000000E-03 0.  1.
         23    2    1    2    0    0  0.00000000000E+00  0.35527136788E-14  0.17763568394E-14  0.91188000000E+02  0.91188000000E+02 0.  0.
    9900012    2    3    3    0    0  0.34880253740E+02  0.53320958325E+01  0.10522196199E+02  0.54367082578E+02  0.39999996353E+02 0.  0.
         12    1    3    3    0    0 -0.34880253740E+02 -0.53320958325E+01 -0.10522196199E+02  0.36820917422E+02  0.00000000000E+00 0. -1.
         11    1    4    4    0    0  0.53712699230E+01 -0.15325544127E+02  0.12860417900E+01  0.16290388182E+02  0.51100000000E-03 0. -1.
        -11    1    4    4    0    0  0.64163037393E+01  0.36797625762E+01  0.54019889937E+01  0.91592080248E+01  0.51100000000E-03 0.  1.
         12    1    4    4    0    0  0.23092680078E+02  0.16977877383E+02  0.38341654151E+01  0.28917486371E+02  0.00000000000E+00 0. -1.
</event>
<event>
 8    1  0.1248739E-006  0.9118800E+02  0.7816164E-02  0.1184000E+00
        -11   -1    0    0    0    0  0.00000000000E+00  0.00000000000E+00  0.45593999997E+02  0.45594000000E+02  0.51100000000E-03 0.  1.
         11   -1    0    0    0    0 -0.00000000000E+00 -0.00000000000E+00 -0.45593999997E+02  0.45594000000E+02  0.51100000000E-03 0. -1.
         23    2    1    2    0    0  0.00000000000E+00  0.00000000000E+00  0.00000000000E+00  0.91188000000E+02  0.91188000000E+02 0.  0.
    9900012    2    3    3    0    0 -0.10425531038E+02 -0.30625634949E+02  0.17582897804E+02  0.54367088704E+02  0.40000010319E+02 0.  0.
         12    1    3    3    0    0  0.10425531038E+02  0.30625634949E+02 -0.17582897804E+02  0.36820911296E+02  0.00000000000E+00 0. -1.
         11    1    4    4    0    0 -0.64778766467E+01 -0.57848146496E+01 -0.40334254226E+00  0.86942309520E+01  0.51100000000E-03 0. -1.
        -11    1    4    4    0    0  0.36829942169E+00 -0.10904072758E+02  0.26585723656E+02  0.28737347646E+02  0.51100000000E-03 0.  1.
        -12    1    4    4    0    0 -0.43159538128E+01 -0.13936747541E+02 -0.85994833098E+01  0.16935510106E+02  0.00000000000E+00 0.  1.
</event>
<event>
 8    1  0.1248739E-006  0.9118800E+02  0.7816164E-02  0.1184000E+00
        -11   -1    0    0    0    0  0.00000000000E+00  0.00000000000E+00  0.45593999997E+02  0.45594000000E+02  0.51100000000E-03 0.  1.
         11   -1    0    0    0    0 -0.00000000000E+00 -0.00000000000E+00 -0.45593999997E+02  0.45594000000E+02  0.51100000000E-03 0. -1.
         23    2    1    2    0    0  0.00000000000E+00 -0.35527136788E-14  0.88817841970E-15  0.91188000000E+02  0.91188000000E+02 0.  0.
    9900012    2    3    3    0    0  0.26380934466E+02  0.24683843604E+02  0.71077317420E+01  0.54367276366E+02  0.40000438130E+02 0.  0.
         12    1    3    3    0    0 -0.26380934466E+02 -0.24683843604E+02 -0.71077317420E+01  0.36820723634E+02  0.00000000000E+00 0. -1.
         11    1    4    4    0    0  0.90073003481E+01  0.50377330718E+01 -0.79724060382E+01  0.13041068682E+02  0.51100000000E-03 0. -1.
        -11    1    4    4    0    0  0.90471727155E+01  0.20776262812E+02 -0.15293375940E+01  0.22712184050E+02  0.51100000000E-03 0.  1.
        -12    1    4    4    0    0  0.83264614026E+01 -0.11301522794E+01  0.16609475374E+02  0.18614023635E+02  0.00000000000E+00 0.  1.
</event>
<event>
 8    1  0.1248739E-006  0.9118800E+02  0.7816164E-02  0.1184000E+00
        -11   -1    0    0    0    0  0.00000000000E+00  0.00000000000E+00  0.45593999997E+02  0.45594000000E+02  0.51100000000E-03 0. -1.
         11   -1    0    0    0    0 -0.00000000000E+00 -0.00000000000E+00 -0.45593999997E+02  0.45594000000E+02  0.51100000000E-03 0.  1.
         23    2    1    2    0    0  0.71054273576E-14  0.17763568394E-14  0.00000000000E+00  0.91188000000E+02  0.91188000000E+02 0.  0.
    9900012    2    3    3    0    0 -0.24981304704E+02 -0.13175353499E+02  0.23624663642E+02  0.54367078545E+02  0.39999987159E+02 0.  0.
        -12    1    3    3    0    0  0.24981304704E+02  0.13175353499E+02 -0.23624663642E+02  0.36820921455E+02  0.00000000000E+00 0.  1.
         11    1    4    4    0    0  0.55631675105E+01 -0.15018834640E+02  0.98905231458E+01  0.18823832635E+02  0.51100000000E-03 0. -1.
        -11    1    4    4    0    0 -0.30999286393E+00 -0.65406544688E+00 -0.14480803418E+01  0.16188990463E+01  0.51100000000E-03 0.  1.
         12    1    4    4    0    0 -0.30234479351E+02  0.24975465877E+01  0.15182220838E+02  0.33924346864E+02  0.00000000000E+00 0. -1.
</event>
<event>
 8    1  0.1248739E-006  0.9118800E+02  0.7816164E-02  0.1184000E+00
        -11   -1    0    0    0    0  0.00000000000E+00  0.00000000000E+00  0.45593999997E+02  0.45594000000E+02  0.51100000000E-03 0. -1.
         11   -1    0    0    0    0 -0.00000000000E+00 -0.00000000000E+00 -0.45593999997E+02  0.45594000000E+02  0.51100000000E-03 0.  1.
         23    2    1    2    0    0  0.35527136788E-14 -0.88817841970E-15  0.35527136788E-14  0.91188000000E+02  0.91188000000E+02 0.  0.
    9900012    2    3    3    0    0 -0.28262461898E+02  0.61159280194E+01  0.22794697738E+02  0.54367223622E+02  0.40000317891E+02 0.  0.
        -12    1    3    3    0    0  0.28262461898E+02 -0.61159280194E+01 -0.22794697738E+02  0.36820776378E+02  0.00000000000E+00 0.  1.
         11    1    4    4    0    0 -0.54212481498E+01  0.10406941191E+02  0.18658972941E+02  0.22042042281E+02  0.51100000000E-03 0. -1.
        -11    1    4    4    0    0  0.31008782468E+01 -0.50535095996E+01 -0.54183111609E+00  0.59537371788E+01  0.51100000000E-03 0.  1.
         12    1    4    4    0    0 -0.25942091995E+02  0.76249642768E+00  0.46775559132E+01  0.26371444162E+02  0.00000000000E+00 0. -1.
</event>
<event>
 8    1  0.1248739E-006  0.9118800E+02  0.7816164E-02  0.1184000E+00
        -11   -1    0    0    0    0  0.00000000000E+00  0.00000000000E+00  0.45593999997E+02  0.45594000000E+02  0.51100000000E-03 0. -1.
         11   -1    0    0    0    0 -0.00000000000E+00 -0.00000000000E+00 -0.45593999997E+02  0.45594000000E+02  0.51100000000E-03 0.  1.
         23    2    1    2    0    0  0.00000000000E+00 -0.17763568394E-14  0.00000000000E+00  0.91188000000E+02  0.91188000000E+02 0.  0.
    9900012    2    3    3    0    0 -0.17334672155E+02 -0.10985462413E+02  0.30571664675E+02  0.54366838637E+02  0.39999440236E+02 0.  0.
        -12    1    3    3    0    0  0.17334672155E+02  0.10985462413E+02 -0.30571664675E+02  0.36821161363E+02  0.00000000000E+00 0.  1.
         11    1    4    4    0    0 -0.20336844769E+01 -0.53242096799E+01  0.10387977001E+02  0.11848761442E+02  0.51100000000E-03 0. -1.
        -11    1    4    4    0    0 -0.39580787593E+01 -0.44334123675E+01 -0.92250666658E+01  0.10973759061E+02  0.51100000000E-03 0.  1.
        -12    1    4    4    0    0 -0.11342908919E+02 -0.12278403653E+01  0.29408754340E+02  0.31544318134E+02  0.00000000000E+00 0.  1.
</event>
<event>
 8    1  0.1248739E-006  0.9118800E+02  0.7816164E-02  0.1184000E+00
        -11   -1    0    0    0    0  0.00000000000E+00  0.00000000000E+00  0.45593999997E+02  0.45594000000E+02  0.51100000000E-03 0.  1.
         11   -1    0    0    0    0 -0.00000000000E+00 -0.00000000000E+00 -0.45593999997E+02  0.45594000000E+02  0.51100000000E-03 0. -1.
         23    2    1    2    0    0 -0.35527136788E-14  0.35527136788E-14  0.88817841970E-15  0.91188000000E+02  0.91188000000E+02 0.  0.
    9900012    2    3    3    0    0  0.28515897108E+02  0.21945480136E+02  0.78115052895E+01  0.54367080658E+02  0.39999991977E+02 0.  0.
         12    1    3    3    0    0 -0.28515897108E+02 -0.21945480136E+02 -0.78115052895E+01  0.36820919342E+02  0.00000000000E+00 0. -1.
         11    1    4    4    0    0  0.19212139789E+02 -0.93238638587E+00  0.84515277479E+01  0.21009616397E+02  0.51100000000E-03 0. -1.
        -11    1    4    4    0    0 -0.48453832093E+00  0.21405597345E+02  0.49692870474E+01  0.21980177186E+02  0.51100000000E-03 0.  1.
         12    1    4    4    0    0  0.97882956400E+01  0.14722691772E+01 -0.56093095058E+01  0.11377287075E+02  0.00000000000E+00 0. -1.
</event>
<event>
 8    1  0.1248739E-006  0.9118800E+02  0.7816164E-02  0.1184000E+00
        -11   -1    0    0    0    0  0.00000000000E+00  0.00000000000E+00  0.45593999997E+02  0.45594000000E+02  0.51100000000E-03 0.  1.
         11   -1    0    0    0    0 -0.00000000000E+00 -0.00000000000E+00 -0.45593999997E+02  0.45594000000E+02  0.51100000000E-03 0. -1.
         23    2    1    2    0    0  0.71054273576E-14  0.26645352591E-14  0.17763568394E-14  0.91188000000E+02  0.91188000000E+02 0.  0.
    9900012    2    3    3    0    0  0.32960046306E+02  0.78920236766E+01  0.14392062301E+02  0.54367080029E+02  0.39999990543E+02 0.  0.
         12    1    3    3    0    0 -0.32960046306E+02 -0.78920236766E+01 -0.14392062301E+02  0.36820919971E+02  0.00000000000E+00 0. -1.
         11    1    4    4    0    0  0.45007443788E+01 -0.18632798338E+01  0.91059202000E+01  0.10326969287E+02  0.51100000000E-03 0. -1.
        -11    1    4    4    0    0  0.30422641048E+02  0.17780452616E+02  0.60111195538E+01  0.35746540282E+02  0.51100000000E-03 0.  1.
         12    1    4    4    0    0 -0.19633391212E+01 -0.80251491057E+01 -0.72497745277E+00  0.82935704603E+01  0.00000000000E+00 0. -1.
</event>
<event>
 8    1  0.1248739E-006  0.9118800E+02  0.7816164E-02  0.1184000E+00
        -11   -1    0    0    0    0  0.00000000000E+00  0.00000000000E+00  0.45593999997E+02  0.45594000000E+02  0.51100000000E-03 0.  1.
         11   -1    0    0    0    0 -0.00000000000E+00 -0.00000000000E+00 -0.45593999997E+02  0.45594000000E+02  0.51100000000E-03 0. -1.
         23    2    1    2    0    0  0.35527136788E-14  0.00000000000E+00  0.66613381478E-15  0.91188000000E+02  0.91188000000E+02 0.  0.
    9900012    2    3    3    0    0  0.26915391485E+02 -0.25106412311E+02 -0.10045676110E+01  0.54367090261E+02  0.40000013867E+02 0.  0.
        -12    1    3    3    0    0 -0.26915391485E+02  0.25106412311E+02  0.10045676110E+01  0.36820909739E+02  0.00000000000E+00 0.  1.
         11    1    4    4    0    0  0.15620715155E+01  0.28464416029E+01 -0.10114375825E+02  0.10622753683E+02  0.51100000000E-03 0. -1.
        -11    1    4    4    0    0 -0.28547530278E+01 -0.19479994280E+01  0.35901905763E+01  0.49833508061E+01  0.51100000000E-03 0.  1.
        -12    1    4    4    0    0  0.28208072998E+02 -0.26004854486E+02  0.55196176378E+01  0.38760985771E+02  0.00000000000E+00 0.  1.
</event>
<event>
 8    1  0.1248739E-006  0.9118800E+02  0.7816164E-02  0.1184000E+00
        -11   -1    0    0    0    0  0.00000000000E+00  0.00000000000E+00  0.45593999997E+02  0.45594000000E+02  0.51100000000E-03 0.  1.
         11   -1    0    0    0    0 -0.00000000000E+00 -0.00000000000E+00 -0.45593999997E+02  0.45594000000E+02  0.51100000000E-03 0. -1.
         23    2    1    2    0    0  0.00000000000E+00  0.44408920985E-15  0.00000000000E+00  0.91188000000E+02  0.91188000000E+02 0.  0.
    9900012    2    3    3    0    0  0.36007087518E+02 -0.25014878743E+01  0.72809898872E+01  0.54367073792E+02  0.39999976323E+02 0.  0.
        -12    1    3    3    0    0 -0.36007087518E+02  0.25014878743E+01 -0.72809898872E+01  0.36820926208E+02  0.00000000000E+00 0.  1.
         11    1    4    4    0    0  0.22516755681E+02  0.25494569265E-02 -0.69086742504E+01  0.23552793318E+02  0.51100000000E-03 0. -1.
        -11    1    4    4    0    0  0.10033582983E+02  0.10120045177E+02  0.69204386785E+01  0.15842366415E+02  0.51100000000E-03 0.  1.
        -12    1    4    4    0    0  0.34567488534E+01 -0.12624082508E+02  0.72692254592E+01  0.14971914059E+02  0.00000000000E+00 0.  1.
</event>
<event>
 8    1  0.1248739E-006  0.9118800E+02  0.7816164E-02  0.1184000E+00
        -11   -1    0    0    0    0  0.00000000000E+00  0.00000000000E+00  0.45593999997E+02  0.45594000000E+02  0.51100000000E-03 0.  1.
         11   -1    0    0    0    0 -0.00000000000E+00 -0.00000000000E+00 -0.45593999997E+02  0.45594000000E+02  0.51100000000E-03 0. -1.
         23    2    1    2    0    0  0.88817841970E-15 -0.35527136788E-14 -0.35527136788E-14  0.91188000000E+02  0.91188000000E+02 0.  0.
    9900012    2    3    3    0    0  0.78016118836E+01  0.24801493500E+02  0.26072999630E+02  0.54367074733E+02  0.39999978468E+02 0.  0.
         12    1    3    3    0    0 -0.78016118836E+01 -0.24801493500E+02 -0.26072999630E+02  0.36820925267E+02  0.00000000000E+00 0. -1.
         11    1    4    4    0    0 -0.19063233355E+01  0.37093610060E+01  0.26390540950E+01  0.49353859534E+01  0.51100000000E-03 0. -1.
        -11    1    4    4    0    0 -0.92372823574E+01  0.11899000338E+02  0.24034813663E+02  0.28365222764E+02  0.51100000000E-03 0.  1.
         12    1    4    4    0    0  0.18945217576E+02  0.91931321560E+01 -0.60086812782E+00  0.21066466015E+02  0.00000000000E+00 0. -1.
</event>
<event>
 8    1  0.1248739E-006  0.9118800E+02  0.7816164E-02  0.1184000E+00
        -11   -1    0    0    0    0  0.00000000000E+00  0.00000000000E+00  0.45593999997E+02  0.45594000000E+02  0.51100000000E-03 0. -1.
         11   -1    0    0    0    0 -0.00000000000E+00 -0.00000000000E+00 -0.45593999997E+02  0.45594000000E+02  0.51100000000E-03 0.  1.
         23    2    1    2    0    0  0.00000000000E+00  0.35527136788E-14  0.00000000000E+00  0.91188000000E+02  0.91188000000E+02 0.  0.
    9900012    2    3    3    0    0  0.32837999499E+02 -0.16479499236E+02  0.24235267520E+01  0.54367060468E+02  0.39999945948E+02 0.  0.
        -12    1    3    3    0    0 -0.32837999499E+02  0.16479499236E+02 -0.24235267520E+01  0.36820939532E+02  0.00000000000E+00 0.  1.
         11    1    4    4    0    0  0.14022073749E+02 -0.20680825684E+02  0.72194584978E-02  0.24986299358E+02  0.51100000000E-03 0. -1.
        -11    1    4    4    0    0  0.25431127475E+01  0.78463942445E+00 -0.88856938803E+01  0.92757014542E+01  0.51100000000E-03 0.  1.
         12    1    4    4    0    0  0.16272813002E+02  0.34166870241E+01  0.11302001174E+02  0.20105059656E+02  0.00000000000E+00 0. -1.
</event>
<event>
 8    1  0.1248739E-006  0.9118800E+02  0.7816164E-02  0.1184000E+00
        -11   -1    0    0    0    0  0.00000000000E+00  0.00000000000E+00  0.45593999997E+02  0.45594000000E+02  0.51100000000E-03 0.  1.
         11   -1    0    0    0    0 -0.00000000000E+00 -0.00000000000E+00 -0.45593999997E+02  0.45594000000E+02  0.51100000000E-03 0. -1.
         23    2    1    2    0    0  0.27755575616E-15  0.00000000000E+00 -0.44408920985E-15  0.91188000000E+02  0.91188000000E+02 0.  0.
    9900012    2    3    3    0    0 -0.48061939646E+00 -0.36649672561E+02 -0.35131851207E+01  0.54367191162E+02  0.40000243890E+02 0.  0.
        -12    1    3    3    0    0  0.48061939646E+00  0.36649672561E+02  0.35131851207E+01  0.36820808838E+02  0.00000000000E+00 0.  1.
         11    1    4    4    0    0  0.22696759294E+01 -0.20575100959E+00  0.68837503462E+01  0.72511917222E+01  0.51100000000E-03 0. -1.
        -11    1    4    4    0    0 -0.12890995803E+02 -0.72570347830E+01 -0.10304204984E+01  0.14829163608E+02  0.51100000000E-03 0.  1.
         12    1    4    4    0    0  0.10140700477E+02 -0.29186886768E+02 -0.93665149685E+01  0.32286835832E+02  0.00000000000E+00 0. -1.
</event>
<event>
 8    1  0.1248739E-006  0.9118800E+02  0.7816164E-02  0.1184000E+00
        -11   -1    0    0    0    0  0.00000000000E+00  0.00000000000E+00  0.45593999997E+02  0.45594000000E+02  0.51100000000E-03 0.  1.
         11   -1    0    0    0    0 -0.00000000000E+00 -0.00000000000E+00 -0.45593999997E+02  0.45594000000E+02  0.51100000000E-03 0. -1.
         23    2    1    2    0    0  0.00000000000E+00 -0.17763568394E-14 -0.44408920985E-15  0.91188000000E+02  0.91188000000E+02 0.  0.
    9900012    2    3    3    0    0 -0.34607662157E+02  0.12523018627E+02 -0.11290625371E+01  0.54366931876E+02  0.39999652797E+02 0.  0.
        -12    1    3    3    0    0  0.34607662157E+02 -0.12523018627E+02  0.11290625371E+01  0.36821068124E+02  0.00000000000E+00 0.  1.
         11    1    4    4    0    0 -0.30326504443E+00 -0.54823884486E+01  0.28772076959E+00  0.54983030374E+01  0.51100000000E-03 0. -1.
        -11    1    4    4    0    0 -0.27353548058E+02 -0.37236003354E+00  0.57503729153E+01  0.27953926957E+02  0.51100000000E-03 0.  1.
         12    1    4    4    0    0 -0.69508490548E+01  0.18377767110E+02 -0.71671562220E+01  0.20914701882E+02  0.00000000000E+00 0. -1.
</event>
<event>
 8    1  0.1248739E-006  0.9118800E+02  0.7816164E-02  0.1184000E+00
        -11   -1    0    0    0    0  0.00000000000E+00  0.00000000000E+00  0.45593999997E+02  0.45594000000E+02  0.51100000000E-03 0. -1.
         11   -1    0    0    0    0 -0.00000000000E+00 -0.00000000000E+00 -0.45593999997E+02  0.45594000000E+02  0.51100000000E-03 0.  1.
         23    2    1    2    0    0 -0.35527136788E-14  0.00000000000E+00 -0.35527136788E-14  0.91188000000E+02  0.91188000000E+02 0.  0.
    9900012    2    3    3    0    0 -0.18845870363E+02 -0.21676306276E+02 -0.23038014516E+02  0.54367092945E+02  0.40000019987E+02 0.  0.
         12    1    3    3    0    0  0.18845870363E+02  0.21676306276E+02  0.23038014516E+02  0.36820907055E+02  0.00000000000E+00 0. -1.
         11    1    4    4    0    0 -0.86565953321E+01 -0.25052169070E+02  0.24278768499E+01  0.26616581375E+02  0.51100000000E-03 0. -1.
        -11    1    4    4    0    0 -0.17362750079E+01 -0.27247187913E+00 -0.52630611138E+01  0.55487570118E+01  0.51100000000E-03 0.  1.
         12    1    4    4    0    0 -0.84530000234E+01  0.36483346731E+01 -0.20202830252E+02  0.22201754558E+02  0.00000000000E+00 0. -1.
</event>
<event>
 8    1  0.1248739E-006  0.9118800E+02  0.7816164E-02  0.1184000E+00
        -11   -1    0    0    0    0  0.00000000000E+00  0.00000000000E+00  0.45593999997E+02  0.45594000000E+02  0.51100000000E-03 0. -1.
         11   -1    0    0    0    0 -0.00000000000E+00 -0.00000000000E+00 -0.45593999997E+02  0.45594000000E+02  0.51100000000E-03 0.  1.
         23    2    1    2    0    0  0.00000000000E+00 -0.35527136788E-14  0.00000000000E+00  0.91188000000E+02  0.91188000000E+02 0.  0.
    9900012    2    3    3    0    0  0.18731114461E+02 -0.23447915509E+02  0.21333618441E+02  0.54367045824E+02  0.39999912565E+02 0.  0.
        -12    1    3    3    0    0 -0.18731114461E+02  0.23447915509E+02 -0.21333618441E+02  0.36820954176E+02  0.00000000000E+00 0.  1.
         11    1    4    4    0    0  0.13856397838E+02 -0.38917985442E+01  0.22458403700E+02  0.26674440088E+02  0.51100000000E-03 0. -1.
        -11    1    4    4    0    0 -0.66593494402E+01 -0.25960892674E+01  0.63844545411E-01  0.71477752370E+01  0.51100000000E-03 0.  1.
         12    1    4    4    0    0  0.11534066062E+02 -0.16960027697E+02 -0.11886298046E+01  0.20544830499E+02  0.00000000000E+00 0. -1.
</event>
<event>
 8    1  0.1248739E-006  0.9118800E+02  0.7816164E-02  0.1184000E+00
        -11   -1    0    0    0    0  0.00000000000E+00  0.00000000000E+00  0.45593999997E+02  0.45594000000E+02  0.51100000000E-03 0.  1.
         11   -1    0    0    0    0 -0.00000000000E+00 -0.00000000000E+00 -0.45593999997E+02  0.45594000000E+02  0.51100000000E-03 0. -1.
         23    2    1    2    0    0  0.00000000000E+00  0.12490009027E-15  0.00000000000E+00  0.91188000000E+02  0.91188000000E+02 0.  0.
    9900012    2    3    3    0    0 -0.52148742095E+01  0.11680759683E+00 -0.36449592376E+02  0.54367063817E+02  0.39999953583E+02 0.  0.
        -12    1    3    3    0    0  0.52148742095E+01 -0.11680759683E+00  0.36449592376E+02  0.36820936183E+02  0.00000000000E+00 0.  1.
         11    1    4    4    0    0  0.64516191386E+01 -0.20521962045E+01  0.27278975865E+01  0.72990632463E+01  0.51100000000E-03 0. -1.
        -11    1    4    4    0    0 -0.78280663993E+01  0.48667914193E+01 -0.17931350785E+01  0.93904002013E+01  0.51100000000E-03 0.  1.
         12    1    4    4    0    0 -0.38384269488E+01 -0.26977876180E+01 -0.37384354884E+02  0.37677600369E+02  0.00000000000E+00 0. -1.
</event>
<event>
 8    1  0.1248739E-006  0.9118800E+02  0.7816164E-02  0.1184000E+00
        -11   -1    0    0    0    0  0.00000000000E+00  0.00000000000E+00  0.45593999997E+02  0.45594000000E+02  0.51100000000E-03 0.  1.
         11   -1    0    0    0    0 -0.00000000000E+00 -0.00000000000E+00 -0.45593999997E+02  0.45594000000E+02  0.51100000000E-03 0. -1.
         23    2    1    2    0    0 -0.35527136788E-14  0.35527136788E-14  0.00000000000E+00  0.91188000000E+02  0.91188000000E+02 0.  0.
    9900012    2    3    3    0    0 -0.31459436069E+02 -0.16684457019E+02  0.93655278560E+01  0.54367077472E+02  0.39999984712E+02 0.  0.
        -12    1    3    3    0    0  0.31459436069E+02  0.16684457019E+02 -0.93655278560E+01  0.36820922528E+02  0.00000000000E+00 0.  1.
         11    1    4    4    0    0  0.28050369493E+01  0.13171109658E+01  0.31459606109E+01  0.44158897189E+01  0.51100000000E-03 0. -1.
        -11    1    4    4    0    0 -0.44809602160E+01 -0.54555330299E+00  0.13874749479E+02  0.14590589646E+02  0.51100000000E-03 0.  1.
         12    1    4    4    0    0 -0.29783512802E+02 -0.17456014682E+02 -0.76551822335E+01  0.35360598107E+02  0.00000000000E+00 0. -1.
</event>
<event>
 8    1  0.1248739E-006  0.9118800E+02  0.7816164E-02  0.1184000E+00
        -11   -1    0    0    0    0  0.00000000000E+00  0.00000000000E+00  0.45593999997E+02  0.45594000000E+02  0.51100000000E-03 0.  1.
         11   -1    0    0    0    0 -0.00000000000E+00 -0.00000000000E+00 -0.45593999997E+02  0.45594000000E+02  0.51100000000E-03 0. -1.
         23    2    1    2    0    0  0.00000000000E+00  0.00000000000E+00  0.00000000000E+00  0.91188000000E+02  0.91188000000E+02 0.  0.
    9900012    2    3    3    0    0 -0.22285453604E+02 -0.24384454348E+02  0.16264593770E+02  0.54367081127E+02  0.39999993044E+02 0.  0.
         12    1    3    3    0    0  0.22285453604E+02  0.24384454348E+02 -0.16264593770E+02  0.36820918873E+02  0.00000000000E+00 0. -1.
         11    1    4    4    0    0  0.51961497050E+01  0.77044480378E+01  0.49822052834E+01  0.10544233546E+02  0.51100000000E-03 0. -1.
        -11    1    4    4    0    0 -0.13418892183E+02 -0.16831156043E+02  0.44850359345E+01  0.21987951900E+02  0.51100000000E-03 0.  1.
         12    1    4    4    0    0 -0.14062711126E+02 -0.15257746342E+02  0.67973525519E+01  0.21834895681E+02  0.00000000000E+00 0. -1.
</event>
<event>
 8    1  0.1248739E-006  0.9118800E+02  0.7816164E-02  0.1184000E+00
        -11   -1    0    0    0    0  0.00000000000E+00  0.00000000000E+00  0.45593999997E+02  0.45594000000E+02  0.51100000000E-03 0.  1.
         11   -1    0    0    0    0 -0.00000000000E+00 -0.00000000000E+00 -0.45593999997E+02  0.45594000000E+02  0.51100000000E-03 0. -1.
         23    2    1    2    0    0 -0.17763568394E-14  0.00000000000E+00 -0.71054273576E-14  0.91188000000E+02  0.91188000000E+02 0.  0.
    9900012    2    3    3    0    0 -0.10778751921E+02  0.24963134014E+02  0.24828203434E+02  0.54367092372E+02  0.40000018680E+02 0.  0.
         12    1    3    3    0    0  0.10778751921E+02 -0.24963134014E+02 -0.24828203434E+02  0.36820907628E+02  0.00000000000E+00 0. -1.
         11    1    4    4    0    0  0.77699471915E+01  0.13644274448E+01  0.34211889183E+01  0.85987368541E+01  0.51100000000E-03 0.  1.
        -11    1    4    4    0    0 -0.21184042507E+02  0.20912324545E+02  0.26213421212E+02  0.39663994084E+02  0.51100000000E-03 0. -1.
         12    1    4    4    0    0  0.26353433942E+01  0.26863820244E+01 -0.48064066957E+01  0.61043614335E+01  0.00000000000E+00 0. -1.
</event>
<event>
 8    1  0.1248739E-006  0.9118800E+02  0.7816164E-02  0.1184000E+00
        -11   -1    0    0    0    0  0.00000000000E+00  0.00000000000E+00  0.45593999997E+02  0.45594000000E+02  0.51100000000E-03 0.  1.
         11   -1    0    0    0    0 -0.00000000000E+00 -0.00000000000E+00 -0.45593999997E+02  0.45594000000E+02  0.51100000000E-03 0. -1.
         23    2    1    2    0    0 -0.17763568394E-14 -0.26645352591E-14 -0.71054273576E-14  0.91188000000E+02  0.91188000000E+02 0.  0.
    9900012    2    3    3    0    0  0.60178110043E+01  0.40127029491E+01  0.36103516863E+02  0.54367085236E+02  0.40000002411E+02 0.  0.
         12    1    3    3    0    0 -0.60178110043E+01 -0.40127029491E+01 -0.36103516863E+02  0.36820914764E+02  0.00000000000E+00 0. -1.
         11    1    4    4    0    0  0.38661846803E+01  0.14809314780E+02  0.39060027636E+01  0.15796203534E+02  0.51100000000E-03 0. -1.
        -11    1    4    4    0    0 -0.34504055380E+01  0.25020947562E+01  0.17351109852E+02  0.17866918870E+02  0.51100000000E-03 0.  1.
        -12    1    4    4    0    0  0.56020318619E+01 -0.13298706587E+02  0.14846404247E+02  0.20703962831E+02  0.00000000000E+00 0.  1.
</event>
<event>
 8    1  0.1248739E-006  0.9118800E+02  0.7816164E-02  0.1184000E+00
        -11   -1    0    0    0    0  0.00000000000E+00  0.00000000000E+00  0.45593999997E+02  0.45594000000E+02  0.51100000000E-03 0.  1.
         11   -1    0    0    0    0 -0.00000000000E+00 -0.00000000000E+00 -0.45593999997E+02  0.45594000000E+02  0.51100000000E-03 0. -1.
         23    2    1    2    0    0  0.00000000000E+00  0.00000000000E+00  0.17763568394E-14  0.91188000000E+02  0.91188000000E+02 0.  0.
    9900012    2    3    3    0    0  0.32778286602E+02 -0.12279924744E+02 -0.11426577658E+02  0.54367091520E+02  0.40000016738E+02 0.  0.
        -12    1    3    3    0    0 -0.32778286602E+02  0.12279924744E+02  0.11426577658E+02  0.36820908480E+02  0.00000000000E+00 0.  1.
         11    1    4    4    0    0  0.11269885545E+02 -0.16193170316E+02 -0.17366516543E+02  0.26283549649E+02  0.51100000000E-03 0. -1.
        -11    1    4    4    0    0  0.20891357182E+02  0.70924644577E+01  0.88504451840E+00  0.22080198393E+02  0.51100000000E-03 0.  1.
        -12    1    4    4    0    0  0.61704387499E+00 -0.31792188862E+01  0.50548943657E+01  0.60033434783E+01  0.00000000000E+00 0.  1.
</event>
<event>
 8    1  0.1248739E-006  0.9118800E+02  0.7816164E-02  0.1184000E+00
        -11   -1    0    0    0    0  0.00000000000E+00  0.00000000000E+00  0.45593999997E+02  0.45594000000E+02  0.51100000000E-03 0. -1.
         11   -1    0    0    0    0 -0.00000000000E+00 -0.00000000000E+00 -0.45593999997E+02  0.45594000000E+02  0.51100000000E-03 0.  1.
         23    2    1    2    0    0  0.17763568394E-14  0.17763568394E-14 -0.71054273576E-14  0.91188000000E+02  0.91188000000E+02 0.  0.
    9900012    2    3    3    0    0 -0.11117067851E+02 -0.10044701909E+02 -0.33634724027E+02  0.54367083466E+02  0.39999998377E+02 0.  0.
         12    1    3    3    0    0  0.11117067851E+02  0.10044701909E+02  0.33634724027E+02  0.36820916534E+02  0.00000000000E+00 0. -1.
         11    1    4    4    0    0 -0.11295106525E+02  0.28563926226E+01  0.28034756525E+01  0.11983233546E+02  0.51100000000E-03 0. -1.
        -11    1    4    4    0    0  0.12059450800E+01 -0.16976352145E+02 -0.32165343191E+02  0.36390385249E+02  0.51100000000E-03 0.  1.
        -12    1    4    4    0    0 -0.10279064067E+01  0.40752576136E+01 -0.42728564879E+01  0.59934646712E+01  0.00000000000E+00 0.  1.
</event>
<event>
 8    1  0.1248739E-006  0.9118800E+02  0.7816164E-02  0.1184000E+00
        -11   -1    0    0    0    0  0.00000000000E+00  0.00000000000E+00  0.45593999997E+02  0.45594000000E+02  0.51100000000E-03 0. -1.
         11   -1    0    0    0    0 -0.00000000000E+00 -0.00000000000E+00 -0.45593999997E+02  0.45594000000E+02  0.51100000000E-03 0.  1.
         23    2    1    2    0    0  0.00000000000E+00 -0.35527136788E-14 -0.17763568394E-14  0.91188000000E+02  0.91188000000E+02 0.  0.
    9900012    2    3    3    0    0  0.26475332384E+02  0.21470047190E+02 -0.13923885583E+02  0.54367071971E+02  0.39999972173E+02 0.  0.
         12    1    3    3    0    0 -0.26475332384E+02 -0.21470047190E+02  0.13923885583E+02  0.36820928029E+02  0.00000000000E+00 0. -1.
         11    1    4    4    0    0  0.47753428437E+01  0.97297821334E+01 -0.49622809815E+01  0.11920435916E+02  0.51100000000E-03 0. -1.
        -11    1    4    4    0    0  0.47488936940E+01  0.21044195935E+02 -0.82498543743E+01  0.23096975372E+02  0.51100000000E-03 0.  1.
         12    1    4    4    0    0  0.16951095846E+02 -0.93039308784E+01 -0.71175022756E+00  0.19349660683E+02  0.00000000000E+00 0. -1.
</event>
<event>
 8    1  0.1248739E-006  0.9118800E+02  0.7816164E-02  0.1184000E+00
        -11   -1    0    0    0    0  0.00000000000E+00  0.00000000000E+00  0.45593999997E+02  0.45594000000E+02  0.51100000000E-03 0. -1.
         11   -1    0    0    0    0 -0.00000000000E+00 -0.00000000000E+00 -0.45593999997E+02  0.45594000000E+02  0.51100000000E-03 0.  1.
         23    2    1    2    0    0  0.00000000000E+00  0.00000000000E+00  0.00000000000E+00  0.91188000000E+02  0.91188000000E+02 0.  0.
    9900012    2    3    3    0    0 -0.43222702188E+01  0.57711761992E+01 -0.36108052732E+02  0.54367082484E+02  0.39999996140E+02 0.  0.
         12    1    3    3    0    0  0.43222702188E+01 -0.57711761992E+01  0.36108052732E+02  0.36820917516E+02  0.00000000000E+00 0. -1.
         11    1    4    4    0    0  0.67892452049E+01  0.76006635177E+01 -0.10230252084E+02  0.14440290660E+02  0.51100000000E-03 0. -1.
        -11    1    4    4    0    0  0.56644661079E+01  0.63636757394E+01 -0.65312149382E+00  0.85445370354E+01  0.51100000000E-03 0.  1.
        -12    1    4    4    0    0 -0.16775981532E+02 -0.81931630578E+01 -0.25224679154E+02  0.31382254789E+02  0.00000000000E+00 0.  1.
</event>
<event>
 8    1  0.1248739E-006  0.9118800E+02  0.7816164E-02  0.1184000E+00
        -11   -1    0    0    0    0  0.00000000000E+00  0.00000000000E+00  0.45593999997E+02  0.45594000000E+02  0.51100000000E-03 0. -1.
         11   -1    0    0    0    0 -0.00000000000E+00 -0.00000000000E+00 -0.45593999997E+02  0.45594000000E+02  0.51100000000E-03 0.  1.
         23    2    1    2    0    0  0.22204460493E-15  0.00000000000E+00  0.71054273576E-14  0.91188000000E+02  0.91188000000E+02 0.  0.
    9900012    2    3    3    0    0  0.15649859759E+01 -0.11669136743E+02 -0.34887872834E+02  0.54367060247E+02  0.39999945444E+02 0.  0.
         12    1    3    3    0    0 -0.15649859759E+01  0.11669136743E+02  0.34887872834E+02  0.36820939753E+02  0.00000000000E+00 0. -1.
         11    1    4    4    0    0  0.78973965997E+01  0.12308284165E+02 -0.19740362103E+02  0.24567145304E+02  0.51100000000E-03 0. -1.
        -11    1    4    4    0    0 -0.18013806786E+01 -0.18216395438E+02 -0.11442338405E+02  0.21587244927E+02  0.51100000000E-03 0.  1.
         12    1    4    4    0    0 -0.45310299452E+01 -0.57610254698E+01 -0.37051723257E+01  0.82126700160E+01  0.00000000000E+00 0. -1.
</event>
<event>
 8    1  0.1248739E-006  0.9118800E+02  0.7816164E-02  0.1184000E+00
        -11   -1    0    0    0    0  0.00000000000E+00  0.00000000000E+00  0.45593999997E+02  0.45594000000E+02  0.51100000000E-03 0.  1.
         11   -1    0    0    0    0 -0.00000000000E+00 -0.00000000000E+00 -0.45593999997E+02  0.45594000000E+02  0.51100000000E-03 0. -1.
         23    2    1    2    0    0  0.00000000000E+00 -0.71054273576E-14  0.00000000000E+00  0.91188000000E+02  0.91188000000E+02 0.  0.
    9900012    2    3    3    0    0  0.14471311429E+02 -0.21535239554E+02  0.26126504920E+02  0.54367086697E+02  0.40000005742E+02 0.  0.
         12    1    3    3    0    0 -0.14471311429E+02  0.21535239554E+02 -0.26126504920E+02  0.36820913303E+02  0.00000000000E+00 0. -1.
         11    1    4    4    0    0  0.79957788750E+00 -0.48106571825E+00  0.47243357900E+01  0.48156098203E+01  0.51100000000E-03 0.  1.
        -11    1    4    4    0    0  0.23862287140E+02 -0.42037153864E+01  0.72158263442E+01  0.25281378932E+02  0.51100000000E-03 0. -1.
         12    1    4    4    0    0 -0.10190553598E+02 -0.16850458450E+02  0.14186342786E+02  0.24270097945E+02  0.00000000000E+00 0. -1.
</event>
<event>
 8    1  0.1248739E-006  0.9118800E+02  0.7816164E-02  0.1184000E+00
        -11   -1    0    0    0    0  0.00000000000E+00  0.00000000000E+00  0.45593999997E+02  0.45594000000E+02  0.51100000000E-03 0. -1.
         11   -1    0    0    0    0 -0.00000000000E+00 -0.00000000000E+00 -0.45593999997E+02  0.45594000000E+02  0.51100000000E-03 0.  1.
         23    2    1    2    0    0 -0.35527136788E-14  0.00000000000E+00 -0.17763568394E-14  0.91188000000E+02  0.91188000000E+02 0.  0.
    9900012    2    3    3    0    0  0.28946014096E+02 -0.19054741444E+02  0.12442811822E+02  0.54367102814E+02  0.40000042486E+02 0.  0.
        -12    1    3    3    0    0 -0.28946014096E+02  0.19054741444E+02 -0.12442811822E+02  0.36820897186E+02  0.00000000000E+00 0.  1.
         11    1    4    4    0    0 -0.13442873827E+01 -0.91608383340E+01  0.10897975041E+02  0.14300137335E+02  0.51100000000E-03 0. -1.
        -11    1    4    4    0    0  0.39592788560E+01  0.65161032308E+01  0.45773841688E+01  0.88931398541E+01  0.51100000000E-03 0.  1.
        -12    1    4    4    0    0  0.26331022623E+02 -0.16410006340E+02 -0.30325473874E+01  0.31173825625E+02  0.00000000000E+00 0.  1.
</event>
<event>
 8    1  0.1248739E-006  0.9118800E+02  0.7816164E-02  0.1184000E+00
        -11   -1    0    0    0    0  0.00000000000E+00  0.00000000000E+00  0.45593999997E+02  0.45594000000E+02  0.51100000000E-03 0. -1.
         11   -1    0    0    0    0 -0.00000000000E+00 -0.00000000000E+00 -0.45593999997E+02  0.45594000000E+02  0.51100000000E-03 0.  1.
         23    2    1    2    0    0  0.00000000000E+00  0.35527136788E-14  0.00000000000E+00  0.91188000000E+02  0.91188000000E+02 0.  0.
    9900012    2    3    3    0    0 -0.19055002628E+02 -0.25679279509E+02  0.18255434351E+02  0.54367090117E+02  0.40000013540E+02 0.  0.
        -12    1    3    3    0    0  0.19055002628E+02  0.25679279509E+02 -0.18255434351E+02  0.36820909883E+02  0.00000000000E+00 0.  1.
         11    1    4    4    0    0  0.76238819358E+00 -0.10893001493E+02  0.14450304202E+02  0.18112150868E+02  0.51100000000E-03 0. -1.
        -11    1    4    4    0    0 -0.17259376437E+02 -0.83555741988E+01  0.14134096141E+02  0.23821720533E+02  0.51100000000E-03 0.  1.
        -12    1    4    4    0    0 -0.25580143841E+01 -0.64307038179E+01 -0.10328965991E+02  0.12433218716E+02  0.00000000000E+00 0.  1.
</event>
<event>
 8    1  0.1248739E-006  0.9118800E+02  0.7816164E-02  0.1184000E+00
        -11   -1    0    0    0    0  0.00000000000E+00  0.00000000000E+00  0.45593999997E+02  0.45594000000E+02  0.51100000000E-03 0.  1.
         11   -1    0    0    0    0 -0.00000000000E+00 -0.00000000000E+00 -0.45593999997E+02  0.45594000000E+02  0.51100000000E-03 0. -1.
         23    2    1    2    0    0  0.35527136788E-14  0.00000000000E+00  0.00000000000E+00  0.91188000000E+02  0.91188000000E+02 0.  0.
    9900012    2    3    3    0    0 -0.29111577377E+02  0.18220229638E+02 -0.13278521315E+02  0.54367084289E+02  0.40000000255E+02 0.  0.
         12    1    3    3    0    0  0.29111577377E+02 -0.18220229638E+02  0.13278521315E+02  0.36820915711E+02  0.00000000000E+00 0. -1.
         11    1    4    4    0    0 -0.60267192004E+00 -0.25356624811E+01 -0.75168606596E+01  0.79558778332E+01  0.51100000000E-03 0. -1.
        -11    1    4    4    0    0 -0.20126355085E+02  0.12370953050E+02 -0.17750506331E+02  0.29549807506E+02  0.51100000000E-03 0.  1.
        -12    1    4    4    0    0 -0.83825503721E+01  0.83849390691E+01  0.11988845675E+02  0.16861398950E+02  0.00000000000E+00 0.  1.
</event>
<event>
 8    1  0.1248739E-006  0.9118800E+02  0.7816164E-02  0.1184000E+00
        -11   -1    0    0    0    0  0.00000000000E+00  0.00000000000E+00  0.45593999997E+02  0.45594000000E+02  0.51100000000E-03 0. -1.
         11   -1    0    0    0    0 -0.00000000000E+00 -0.00000000000E+00 -0.45593999997E+02  0.45594000000E+02  0.51100000000E-03 0.  1.
         23    2    1    2    0    0  0.17763568394E-14  0.71054273576E-14  0.00000000000E+00  0.91188000000E+02  0.91188000000E+02 0.  0.
    9900012    2    3    3    0    0  0.14690551428E+02  0.29426259019E+02  0.16554813348E+02  0.54367097429E+02  0.40000030210E+02 0.  0.
        -12    1    3    3    0    0 -0.14690551428E+02 -0.29426259019E+02 -0.16554813348E+02  0.36820902571E+02  0.00000000000E+00 0.  1.
         11    1    4    4    0    0  0.90123539101E+01  0.32124593551E+02  0.22559359747E+02  0.40275758792E+02  0.51100000000E-03 0. -1.
        -11    1    4    4    0    0  0.36300032148E+01  0.27543709001E+01 -0.68278783326E+01  0.82087395610E+01  0.51100000000E-03 0.  1.
         12    1    4    4    0    0  0.20481943031E+01 -0.54527054313E+01  0.82333193309E+00  0.58825990766E+01  0.00000000000E+00 0. -1.
</event>
<event>
 8    1  0.1248739E-006  0.9118800E+02  0.7816164E-02  0.1184000E+00
        -11   -1    0    0    0    0  0.00000000000E+00  0.00000000000E+00  0.45593999997E+02  0.45594000000E+02  0.51100000000E-03 0.  1.
         11   -1    0    0    0    0 -0.00000000000E+00 -0.00000000000E+00 -0.45593999997E+02  0.45594000000E+02  0.51100000000E-03 0. -1.
         23    2    1    2    0    0  0.35527136788E-14 -0.35527136788E-14  0.00000000000E+00  0.91188000000E+02  0.91188000000E+02 0.  0.
    9900012    2    3    3    0    0  0.22850709878E+02 -0.24346189340E+02 -0.15520578524E+02  0.54367078841E+02  0.39999987833E+02 0.  0.
        -12    1    3    3    0    0 -0.22850709878E+02  0.24346189340E+02  0.15520578524E+02  0.36820921159E+02  0.00000000000E+00 0.  1.
         11    1    4    4    0    0  0.50134573102E+01 -0.30502023244E+01 -0.61095899604E+01  0.84714566732E+01  0.51100000000E-03 0. -1.
        -11    1    4    4    0    0 -0.76127347238E+00 -0.32553150237E+01  0.11891254238E+02  0.12352268651E+02  0.51100000000E-03 0.  1.
        -12    1    4    4    0    0  0.18598526040E+02 -0.18040671991E+02 -0.21302242802E+02  0.33543353517E+02  0.00000000000E+00 0.  1.
</event>
<event>
 8    1  0.1248739E-006  0.9118800E+02  0.7816164E-02  0.1184000E+00
        -11   -1    0    0    0    0  0.00000000000E+00  0.00000000000E+00  0.45593999997E+02  0.45594000000E+02  0.51100000000E-03 0.  1.
         11   -1    0    0    0    0 -0.00000000000E+00 -0.00000000000E+00 -0.45593999997E+02  0.45594000000E+02  0.51100000000E-03 0. -1.
         23    2    1    2    0    0  0.00000000000E+00 -0.44408920985E-15  0.00000000000E+00  0.91188000000E+02  0.91188000000E+02 0.  0.
    9900012    2    3    3    0    0  0.27316702261E+02  0.38563427322E+01 -0.24386640310E+02  0.54367057219E+02  0.39999938542E+02 0.  0.
        -12    1    3    3    0    0 -0.27316702261E+02 -0.38563427322E+01  0.24386640310E+02  0.36820942781E+02  0.00000000000E+00 0.  1.
         11    1    4    4    0    0 -0.30932768106E+01  0.97672084561E+01 -0.90136668269E+01  0.13645985211E+02  0.51100000000E-03 0. -1.
        -11    1    4    4    0    0  0.13305457813E+02  0.78001291974E+01 -0.35986739756E+01  0.15837540142E+02  0.51100000000E-03 0.  1.
         12    1    4    4    0    0  0.17104521259E+02 -0.13710994921E+02 -0.11774299507E+02  0.24883531866E+02  0.00000000000E+00 0. -1.
</event>
<event>
 8    1  0.1248739E-006  0.9118800E+02  0.7816164E-02  0.1184000E+00
        -11   -1    0    0    0    0  0.00000000000E+00  0.00000000000E+00  0.45593999997E+02  0.45594000000E+02  0.51100000000E-03 0. -1.
         11   -1    0    0    0    0 -0.00000000000E+00 -0.00000000000E+00 -0.45593999997E+02  0.45594000000E+02  0.51100000000E-03 0.  1.
         23    2    1    2    0    0  0.00000000000E+00  0.00000000000E+00 -0.35527136788E-14  0.91188000000E+02  0.91188000000E+02 0.  0.
    9900012    2    3    3    0    0  0.29387871891E+02  0.79423141576E+01  0.20713585043E+02  0.54367082388E+02  0.39999995920E+02 0.  0.
        -12    1    3    3    0    0 -0.29387871891E+02 -0.79423141576E+01 -0.20713585043E+02  0.36820917612E+02  0.00000000000E+00 0.  1.
         11    1    4    4    0    0  0.26723724939E+01 -0.14250713717E+00  0.21058968965E+02  0.21228331474E+02  0.51100000000E-03 0.  1.
        -11    1    4    4    0    0  0.58005798795E+01  0.91204650198E+01  0.43953591038E+01  0.11668281409E+02  0.51100000000E-03 0. -1.
        -12    1    4    4    0    0  0.20914919518E+02 -0.10356437251E+01 -0.47407430260E+01  0.21470469506E+02  0.00000000000E+00 0.  1.
</event>
<event>
 8    1  0.1248739E-006  0.9118800E+02  0.7816164E-02  0.1184000E+00
        -11   -1    0    0    0    0  0.00000000000E+00  0.00000000000E+00  0.45593999997E+02  0.45594000000E+02  0.51100000000E-03 0. -1.
         11   -1    0    0    0    0 -0.00000000000E+00 -0.00000000000E+00 -0.45593999997E+02  0.45594000000E+02  0.51100000000E-03 0.  1.
         23    2    1    2    0    0 -0.71054273576E-14  0.00000000000E+00 -0.35527136788E-14  0.91188000000E+02  0.91188000000E+02 0.  0.
    9900012    2    3    3    0    0  0.24598462822E+02  0.40142490762E+01  0.27103154182E+02  0.54367088340E+02  0.40000009488E+02 0.  0.
        -12    1    3    3    0    0 -0.24598462822E+02 -0.40142490762E+01 -0.27103154182E+02  0.36820911660E+02  0.00000000000E+00 0.  1.
         11    1    4    4    0    0  0.61983829290E+01  0.73817247890E+01  0.98781533427E+01  0.13801729077E+02  0.51100000000E-03 0. -1.
        -11    1    4    4    0    0 -0.48040746853E+01  0.23456830317E+00  0.16376232665E+02  0.17067956891E+02  0.51100000000E-03 0.  1.
         12    1    4    4    0    0  0.23204154579E+02 -0.36020440159E+01  0.84876817423E+00  0.23497402372E+02  0.00000000000E+00 0. -1.
</event>
<event>
 8    1  0.1248739E-006  0.9118800E+02  0.7816164E-02  0.1184000E+00
        -11   -1    0    0    0    0  0.00000000000E+00  0.00000000000E+00  0.45593999997E+02  0.45594000000E+02  0.51100000000E-03 0.  1.
         11   -1    0    0    0    0 -0.00000000000E+00 -0.00000000000E+00 -0.45593999997E+02  0.45594000000E+02  0.51100000000E-03 0. -1.
         23    2    1    2    0    0  0.00000000000E+00  0.00000000000E+00  0.88817841970E-15  0.91188000000E+02  0.91188000000E+02 0.  0.
    9900012    2    3    3    0    0 -0.22615291438E+02  0.28299006648E+02 -0.65950620023E+01  0.54367081666E+02  0.39999994275E+02 0.  0.
         12    1    3    3    0    0  0.22615291438E+02 -0.28299006648E+02  0.65950620023E+01  0.36820918334E+02  0.00000000000E+00 0. -1.
         11    1    4    4    0    0 -0.50951949899E+01  0.15546568766E+02 -0.13172232173E+02  0.21003916612E+02  0.51100000000E-03 0. -1.
        -11    1    4    4    0    0 -0.16991218442E+02  0.17192910107E+02  0.11452084087E+02  0.26747857714E+02  0.51100000000E-03 0.  1.
        -12    1    4    4    0    0 -0.52887800656E+00 -0.44404722239E+01 -0.48749139162E+01  0.66153073403E+01  0.00000000000E+00 0.  1.
</event>
<event>
 8    1  0.1248739E-006  0.9118800E+02  0.7816164E-02  0.1184000E+00
        -11   -1    0    0    0    0  0.00000000000E+00  0.00000000000E+00  0.45593999997E+02  0.45594000000E+02  0.51100000000E-03 0.  1.
         11   -1    0    0    0    0 -0.00000000000E+00 -0.00000000000E+00 -0.45593999997E+02  0.45594000000E+02  0.51100000000E-03 0. -1.
         23    2    1    2    0    0 -0.17763568394E-14 -0.35527136788E-14  0.00000000000E+00  0.91188000000E+02  0.91188000000E+02 0.  0.
    9900012    2    3    3    0    0 -0.14359756858E+02  0.31363760092E+02  0.12879870570E+02  0.54367093845E+02  0.40000022039E+02 0.  0.
         12    1    3    3    0    0  0.14359756858E+02 -0.31363760092E+02 -0.12879870570E+02  0.36820906155E+02  0.00000000000E+00 0. -1.
         11    1    4    4    0    0  0.15749163468E+00  0.28034356246E+01 -0.13934773316E+01  0.31346186772E+01  0.51100000000E-03 0. -1.
        -11    1    4    4    0    0  0.11402539885E+02  0.14277189398E+02  0.11312221015E+02  0.21490053454E+02  0.51100000000E-03 0.  1.
         12    1    4    4    0    0 -0.25919788378E+02  0.14283135070E+02  0.29611268867E+01  0.29742421714E+02  0.00000000000E+00 0. -1.
</event>
<event>
 8    1  0.1248739E-006  0.9118800E+02  0.7816164E-02  0.1184000E+00
        -11   -1    0    0    0    0  0.00000000000E+00  0.00000000000E+00  0.45593999997E+02  0.45594000000E+02  0.51100000000E-03 0.  1.
         11   -1    0    0    0    0 -0.00000000000E+00 -0.00000000000E+00 -0.45593999997E+02  0.45594000000E+02  0.51100000000E-03 0. -1.
         23    2    1    2    0    0  0.17763568394E-14  0.00000000000E+00 -0.17763568394E-14  0.91188000000E+02  0.91188000000E+02 0.  0.
    9900012    2    3    3    0    0 -0.13709658776E+02  0.32724576114E+02  0.98451724033E+01  0.54367081418E+02  0.39999993708E+02 0.  0.
         12    1    3    3    0    0  0.13709658776E+02 -0.32724576114E+02 -0.98451724033E+01  0.36820918582E+02  0.00000000000E+00 0. -1.
         11    1    4    4    0    0  0.63093004738E+01  0.95259961257E+01  0.18218131320E+02  0.21504701433E+02  0.51100000000E-03 0. -1.
        -11    1    4    4    0    0 -0.64243717070E+01  0.13054533444E+02 -0.17559744169E+01  0.14655266687E+02  0.51100000000E-03 0.  1.
         12    1    4    4    0    0 -0.13594587543E+02  0.10144046544E+02 -0.66169844997E+01  0.18207113298E+02  0.00000000000E+00 0. -1.
</event>
<event>
 8    1  0.1248739E-006  0.9118800E+02  0.7816164E-02  0.1184000E+00
        -11   -1    0    0    0    0  0.00000000000E+00  0.00000000000E+00  0.45593999997E+02  0.45594000000E+02  0.51100000000E-03 0. -1.
         11   -1    0    0    0    0 -0.00000000000E+00 -0.00000000000E+00 -0.45593999997E+02  0.45594000000E+02  0.51100000000E-03 0.  1.
         23    2    1    2    0    0  0.35527136788E-14  0.00000000000E+00  0.00000000000E+00  0.91188000000E+02  0.91188000000E+02 0.  0.
    9900012    2    3    3    0    0 -0.31609329780E+02  0.18688211491E+02  0.27193801091E+01  0.54366891841E+02  0.39999561527E+02 0.  0.
        -12    1    3    3    0    0  0.31609329780E+02 -0.18688211491E+02 -0.27193801091E+01  0.36821108159E+02  0.00000000000E+00 0.  1.
         11    1    4    4    0    0 -0.87706736131E+01 -0.20340264940E+01  0.82517865260E+01  0.12212860457E+02  0.51100000000E-03 0. -1.
        -11    1    4    4    0    0 -0.18969589996E+02 -0.16845440032E+01 -0.29004388288E+01  0.19263841225E+02  0.51100000000E-03 0.  1.
        -12    1    4    4    0    0 -0.38690661717E+01  0.22406781988E+02 -0.26319675882E+01  0.22890190159E+02  0.00000000000E+00 0.  1.
</event>
<event>
 8    1  0.1248739E-006  0.9118800E+02  0.7816164E-02  0.1184000E+00
        -11   -1    0    0    0    0  0.00000000000E+00  0.00000000000E+00  0.45593999997E+02  0.45594000000E+02  0.51100000000E-03 0.  1.
         11   -1    0    0    0    0 -0.00000000000E+00 -0.00000000000E+00 -0.45593999997E+02  0.45594000000E+02  0.51100000000E-03 0. -1.
         23    2    1    2    0    0  0.17763568394E-14  0.00000000000E+00 -0.88817841970E-15  0.91188000000E+02  0.91188000000E+02 0.  0.
    9900012    2    3    3    0    0 -0.13230102326E+02  0.34278993035E+02 -0.23867014408E+01  0.54367064177E+02  0.39999954405E+02 0.  0.
         12    1    3    3    0    0  0.13230102326E+02 -0.34278993035E+02  0.23867014408E+01  0.36820935823E+02  0.00000000000E+00 0. -1.
         11    1    4    4    0    0 -0.13313805807E+02  0.29171078613E+02 -0.38296111272E+01  0.32293577909E+02  0.51100000000E-03 0.  1.
        -11    1    4    4    0    0 -0.61047430758E+00 -0.21221592065E+01 -0.90480106826E+01  0.93135780531E+01  0.51100000000E-03 0. -1.
        -12    1    4    4    0    0  0.69417778771E+00  0.72300736291E+01  0.10490920369E+02  0.12759908216E+02  0.00000000000E+00 0.  1.
</event>
<event>
 8    1  0.1248739E-006  0.9118800E+02  0.7816164E-02  0.1184000E+00
        -11   -1    0    0    0    0  0.00000000000E+00  0.00000000000E+00  0.45593999997E+02  0.45594000000E+02  0.51100000000E-03 0.  1.
         11   -1    0    0    0    0 -0.00000000000E+00 -0.00000000000E+00 -0.45593999997E+02  0.45594000000E+02  0.51100000000E-03 0. -1.
         23    2    1    2    0    0  0.66613381478E-15  0.00000000000E+00 -0.35527136788E-14  0.91188000000E+02  0.91188000000E+02 0.  0.
    9900012    2    3    3    0    0  0.12558343332E+01  0.31458429969E+02 -0.19093678765E+02  0.54367102336E+02  0.40000041395E+02 0.  0.
         12    1    3    3    0    0 -0.12558343332E+01 -0.31458429969E+02  0.19093678765E+02  0.36820897664E+02  0.00000000000E+00 0. -1.
         11    1    4    4    0    0 -0.36374397512E+01 -0.69271999367E+00 -0.56202956090E+01  0.67304198923E+01  0.51100000000E-03 0. -1.
        -11    1    4    4    0    0  0.15183764818E+02  0.31963791004E+02 -0.10901585766E+02  0.37028032919E+02  0.51100000000E-03 0.  1.
        -12    1    4    4    0    0 -0.10290490733E+02  0.18735895888E+00 -0.25717973906E+01  0.10608649524E+02  0.00000000000E+00 0.  1.
</event>
<event>
 8    1  0.1248739E-006  0.9118800E+02  0.7816164E-02  0.1184000E+00
        -11   -1    0    0    0    0  0.00000000000E+00  0.00000000000E+00  0.45593999997E+02  0.45594000000E+02  0.51100000000E-03 0.  1.
         11   -1    0    0    0    0 -0.00000000000E+00 -0.00000000000E+00 -0.45593999997E+02  0.45594000000E+02  0.51100000000E-03 0. -1.
         23    2    1    2    0    0 -0.35527136788E-14  0.35527136788E-14  0.35527136788E-14  0.91188000000E+02  0.91188000000E+02 0.  0.
    9900012    2    3    3    0    0 -0.35446814850E+01  0.23516386191E+02  0.28110411136E+02  0.54367076593E+02  0.39999982709E+02 0.  0.
         12    1    3    3    0    0  0.35446814850E+01 -0.23516386191E+02 -0.28110411136E+02  0.36820923407E+02  0.00000000000E+00 0. -1.
         11    1    4    4    0    0  0.10111674178E+02  0.17369628423E+01  0.68190923394E+01  0.12319213254E+02  0.51100000000E-03 0. -1.
        -11    1    4    4    0    0 -0.10395086285E+02 -0.33058854827E+01  0.53717236642E+01  0.12159034217E+02  0.51100000000E-03 0.  1.
         12    1    4    4    0    0 -0.32612693779E+01  0.25085308831E+02  0.15919595133E+02  0.29888829122E+02  0.00000000000E+00 0. -1.
</event>
<event>
 8    1  0.1248739E-006  0.9118800E+02  0.7816164E-02  0.1184000E+00
        -11   -1    0    0    0    0  0.00000000000E+00  0.00000000000E+00  0.45593999997E+02  0.45594000000E+02  0.51100000000E-03 0.  1.
         11   -1    0    0    0    0 -0.00000000000E+00 -0.00000000000E+00 -0.45593999997E+02  0.45594000000E+02  0.51100000000E-03 0. -1.
         23    2    1    2    0    0  0.00000000000E+00 -0.17763568394E-14  0.00000000000E+00  0.91188000000E+02  0.91188000000E+02 0.  0.
    9900012    2    3    3    0    0  0.24219121017E+02 -0.94041032014E+01  0.26091697589E+02  0.54367086609E+02  0.40000005542E+02 0.  0.
         12    1    3    3    0    0 -0.24219121017E+02  0.94041032014E+01 -0.26091697589E+02  0.36820913391E+02  0.00000000000E+00 0. -1.
         11    1    4    4    0    0  0.28854266591E+02 -0.20345385262E+02  0.17139863418E+02  0.39246379708E+02  0.51100000000E-03 0. -1.
        -11    1    4    4    0    0 -0.38341147537E+01  0.84738739399E+01  0.82516668678E+01  0.12433703465E+02  0.51100000000E-03 0.  1.
         12    1    4    4    0    0 -0.80103081961E+00  0.24674081211E+01  0.70016730349E+00  0.26870034356E+01  0.00000000000E+00 0. -1.
</event>
<event>
 8    1  0.1248739E-006  0.9118800E+02  0.7816164E-02  0.1184000E+00
        -11   -1    0    0    0    0  0.00000000000E+00  0.00000000000E+00  0.45593999997E+02  0.45594000000E+02  0.51100000000E-03 0.  1.
         11   -1    0    0    0    0 -0.00000000000E+00 -0.00000000000E+00 -0.45593999997E+02  0.45594000000E+02  0.51100000000E-03 0. -1.
         23    2    1    2    0    0 -0.17763568394E-14  0.00000000000E+00  0.00000000000E+00  0.91188000000E+02  0.91188000000E+02 0.  0.
    9900012    2    3    3    0    0  0.11343977355E+02  0.35009672032E+02 -0.11901258563E+01  0.54367090756E+02  0.40000014996E+02 0.  0.
         12    1    3    3    0    0 -0.11343977355E+02 -0.35009672032E+02  0.11901258563E+01  0.36820909244E+02  0.00000000000E+00 0. -1.
         11    1    4    4    0    0 -0.27439686046E+01  0.11334645750E+02 -0.15912088952E+02  0.19728105156E+02  0.51100000000E-03 0. -1.
        -11    1    4    4    0    0  0.24379668070E+01  0.16807991121E+02  0.41759312979E+01  0.17489729847E+02  0.51100000000E-03 0.  1.
         12    1    4    4    0    0  0.11649979153E+02  0.68670351611E+01  0.10546031798E+02  0.17149255752E+02  0.00000000000E+00 0. -1.
</event>
<event>
 8    1  0.1248739E-006  0.9118800E+02  0.7816164E-02  0.1184000E+00
        -11   -1    0    0    0    0  0.00000000000E+00  0.00000000000E+00  0.45593999997E+02  0.45594000000E+02  0.51100000000E-03 0.  1.
         11   -1    0    0    0    0 -0.00000000000E+00 -0.00000000000E+00 -0.45593999997E+02  0.45594000000E+02  0.51100000000E-03 0. -1.
         23    2    1    2    0    0  0.00000000000E+00  0.00000000000E+00  0.00000000000E+00  0.91188000000E+02  0.91188000000E+02 0.  0.
    9900012    2    3    3    0    0  0.17804418945E+02 -0.21334717841E+02 -0.24158061759E+02  0.54367089266E+02  0.40000011599E+02 0.  0.
        -12    1    3    3    0    0 -0.17804418945E+02  0.21334717841E+02  0.24158061759E+02  0.36820910734E+02  0.00000000000E+00 0.  1.
         11    1    4    4    0    0 -0.40999286220E+01  0.29948901011E+01 -0.10766170295E+02  0.11903327455E+02  0.51100000000E-03 0. -1.
        -11    1    4    4    0    0  0.20289971580E+02 -0.59234421053E+01 -0.11014469290E+02  0.23834610278E+02  0.51100000000E-03 0.  1.
        -12    1    4    4    0    0  0.16143759869E+01 -0.18406165837E+02 -0.23774221741E+01  0.18629151533E+02  0.00000000000E+00 0.  1.
</event>
<event>
 8    1  0.1248739E-006  0.9118800E+02  0.7816164E-02  0.1184000E+00
        -11   -1    0    0    0    0  0.00000000000E+00  0.00000000000E+00  0.45593999997E+02  0.45594000000E+02  0.51100000000E-03 0.  1.
         11   -1    0    0    0    0 -0.00000000000E+00 -0.00000000000E+00 -0.45593999997E+02  0.45594000000E+02  0.51100000000E-03 0. -1.
         23    2    1    2    0    0  0.00000000000E+00  0.88817841970E-15  0.00000000000E+00  0.91188000000E+02  0.91188000000E+02 0.  0.
    9900012    2    3    3    0    0  0.24068885427E+02  0.71118386263E+01 -0.26942367051E+02  0.54367073387E+02  0.39999975400E+02 0.  0.
        -12    1    3    3    0    0 -0.24068885427E+02 -0.71118386263E+01  0.26942367051E+02  0.36820926613E+02  0.00000000000E+00 0.  1.
         11    1    4    4    0    0  0.24316750242E+02  0.11874070070E+02 -0.97690890935E+01  0.28770349048E+02  0.51100000000E-03 0. -1.
        -11    1    4    4    0    0 -0.38419989975E+01 -0.45743452029E+01  0.18361742913E+01  0.62495701149E+01  0.51100000000E-03 0.  1.
         12    1    4    4    0    0  0.35941341818E+01 -0.18788624066E+00 -0.19009452249E+02  0.19347154224E+02  0.00000000000E+00 0. -1.
</event>
<event>
 8    1  0.1248739E-006  0.9118800E+02  0.7816164E-02  0.1184000E+00
        -11   -1    0    0    0    0  0.00000000000E+00  0.00000000000E+00  0.45593999997E+02  0.45594000000E+02  0.51100000000E-03 0.  1.
         11   -1    0    0    0    0 -0.00000000000E+00 -0.00000000000E+00 -0.45593999997E+02  0.45594000000E+02  0.51100000000E-03 0. -1.
         23    2    1    2    0    0 -0.35527136788E-14  0.44408920985E-15  0.35527136788E-14  0.91188000000E+02  0.91188000000E+02 0.  0.
    9900012    2    3    3    0    0  0.19044531368E+02  0.33189616015E+01 -0.31338002585E+02  0.54367080849E+02  0.39999992410E+02 0.  0.
        -12    1    3    3    0    0 -0.19044531368E+02 -0.33189616015E+01  0.31338002585E+02  0.36820919151E+02  0.00000000000E+00 0.  1.
         11    1    4    4    0    0  0.10242939670E+02  0.45330351181E+01 -0.11462550193E+02  0.16026736338E+02  0.51100000000E-03 0. -1.
        -11    1    4    4    0    0  0.27131746533E+01  0.14163261006E+02 -0.30350136016E+01  0.14736708820E+02  0.51100000000E-03 0.  1.
         12    1    4    4    0    0  0.60884170450E+01 -0.15377334523E+02 -0.16840438791E+02  0.23603635690E+02  0.00000000000E+00 0. -1.
</event>
<event>
 8    1  0.1248739E-006  0.9118800E+02  0.7816164E-02  0.1184000E+00
        -11   -1    0    0    0    0  0.00000000000E+00  0.00000000000E+00  0.45593999997E+02  0.45594000000E+02  0.51100000000E-03 0. -1.
         11   -1    0    0    0    0 -0.00000000000E+00 -0.00000000000E+00 -0.45593999997E+02  0.45594000000E+02  0.51100000000E-03 0.  1.
         23    2    1    2    0    0  0.00000000000E+00  0.00000000000E+00  0.14210854715E-13  0.91188000000E+02  0.91188000000E+02 0.  0.
    9900012    2    3    3    0    0 -0.20074904466E+02  0.74667212371E+01  0.29950121793E+02  0.54367305944E+02  0.40000505557E+02 0.  0.
        -12    1    3    3    0    0  0.20074904466E+02 -0.74667212371E+01 -0.29950121793E+02  0.36820694056E+02  0.00000000000E+00 0.  1.
         11    1    4    4    0    0 -0.13324297804E+02  0.15333701019E+01  0.16923476260E+02  0.21593799685E+02  0.51100000000E-03 0. -1.
        -11    1    4    4    0    0 -0.10686816081E+02  0.29903514605E+01 -0.63483820179E+01  0.12784842366E+02  0.51100000000E-03 0.  1.
        -12    1    4    4    0    0  0.39362094185E+01  0.29429996746E+01  0.19375027551E+02  0.19988663894E+02  0.00000000000E+00 0.  1.
</event>
<event>
 8    1  0.1248739E-006  0.9118800E+02  0.7816164E-02  0.1184000E+00
        -11   -1    0    0    0    0  0.00000000000E+00  0.00000000000E+00  0.45593999997E+02  0.45594000000E+02  0.51100000000E-03 0.  1.
         11   -1    0    0    0    0 -0.00000000000E+00 -0.00000000000E+00 -0.45593999997E+02  0.45594000000E+02  0.51100000000E-03 0. -1.
         23    2    1    2    0    0  0.00000000000E+00  0.00000000000E+00  0.44408920985E-15  0.91188000000E+02  0.91188000000E+02 0.  0.
    9900012    2    3    3    0    0 -0.22523293614E+02  0.28946131830E+02  0.32562367308E+01  0.54367076862E+02  0.39999983321E+02 0.  0.
         12    1    3    3    0    0  0.22523293614E+02 -0.28946131830E+02 -0.32562367308E+01  0.36820923138E+02  0.00000000000E+00 0. -1.
         11    1    4    4    0    0 -0.10293246338E+02  0.24277849773E+02 -0.31438855861E+01  0.26556523241E+02  0.51100000000E-03 0. -1.
        -11    1    4    4    0    0 -0.10890780203E+02  0.12978152375E+02 -0.46519617883E+00  0.16948685501E+02  0.51100000000E-03 0.  1.
         12    1    4    4    0    0 -0.13392670732E+01 -0.83098703182E+01  0.68653184957E+01  0.10861868120E+02  0.00000000000E+00 0. -1.
</event>
<event>
 8    1  0.1248739E-006  0.9118800E+02  0.7816164E-02  0.1184000E+00
        -11   -1    0    0    0    0  0.00000000000E+00  0.00000000000E+00  0.45593999997E+02  0.45594000000E+02  0.51100000000E-03 0.  1.
         11   -1    0    0    0    0 -0.00000000000E+00 -0.00000000000E+00 -0.45593999997E+02  0.45594000000E+02  0.51100000000E-03 0. -1.
         23    2    1    2    0    0  0.44408920985E-15 -0.71054273576E-14 -0.35527136788E-14  0.91188000000E+02  0.91188000000E+02 0.  0.
    9900012    2    3    3    0    0  0.23201844871E+01  0.28461714452E+02  0.23244971133E+02  0.54367066707E+02  0.39999960171E+02 0.  0.
        -12    1    3    3    0    0 -0.23201844871E+01 -0.28461714452E+02 -0.23244971133E+02  0.36820933293E+02  0.00000000000E+00 0.  1.
         11    1    4    4    0    0  0.92898112439E+01  0.19453547153E+01  0.93586387519E+01  0.13329257949E+02  0.51100000000E-03 0. -1.
        -11    1    4    4    0    0  0.64024168433E+01 -0.10562148332E+01  0.71624608457E+01  0.96647491864E+01  0.51100000000E-03 0.  1.
         12    1    4    4    0    0 -0.13372043600E+02  0.27572574570E+02  0.67238715352E+01  0.31373059572E+02  0.00000000000E+00 0. -1.
</event>
<event>
 8    1  0.1248739E-006  0.9118800E+02  0.7816164E-02  0.1184000E+00
        -11   -1    0    0    0    0  0.00000000000E+00  0.00000000000E+00  0.45593999997E+02  0.45594000000E+02  0.51100000000E-03 0. -1.
         11   -1    0    0    0    0 -0.00000000000E+00 -0.00000000000E+00 -0.45593999997E+02  0.45594000000E+02  0.51100000000E-03 0.  1.
         23    2    1    2    0    0  0.00000000000E+00  0.35527136788E-14 -0.35527136788E-14  0.91188000000E+02  0.91188000000E+02 0.  0.
    9900012    2    3    3    0    0  0.16789325046E+02  0.22466531723E+02  0.23856942520E+02  0.54367079458E+02  0.39999989241E+02 0.  0.
        -12    1    3    3    0    0 -0.16789325046E+02 -0.22466531723E+02 -0.23856942520E+02  0.36820920542E+02  0.00000000000E+00 0.  1.
         11    1    4    4    0    0 -0.50023435825E+01  0.12549033509E+01 -0.18047611355E+01  0.54640083048E+01  0.51100000000E-03 0. -1.
        -11    1    4    4    0    0  0.70157375485E+01  0.85040603996E+01 -0.53671496915E+01  0.12261562409E+02  0.51100000000E-03 0.  1.
         12    1    4    4    0    0  0.14775931080E+02  0.12707567972E+02  0.31028853347E+02  0.36641508745E+02  0.00000000000E+00 0. -1.
</event>
<event>
 8    1  0.1248739E-006  0.9118800E+02  0.7816164E-02  0.1184000E+00
        -11   -1    0    0    0    0  0.00000000000E+00  0.00000000000E+00  0.45593999997E+02  0.45594000000E+02  0.51100000000E-03 0.  1.
         11   -1    0    0    0    0 -0.00000000000E+00 -0.00000000000E+00 -0.45593999997E+02  0.45594000000E+02  0.51100000000E-03 0. -1.
         23    2    1    2    0    0 -0.17763568394E-14  0.00000000000E+00  0.00000000000E+00  0.91188000000E+02  0.91188000000E+02 0.  0.
    9900012    2    3    3    0    0  0.13808688617E+02  0.10772902168E+02 -0.32389041846E+02  0.54367009599E+02  0.39999829982E+02 0.  0.
        -12    1    3    3    0    0 -0.13808688617E+02 -0.10772902168E+02  0.32389041846E+02  0.36820990401E+02  0.00000000000E+00 0.  1.
         11    1    4    4    0    0  0.30298232379E+01  0.38215052456E+01 -0.29839566092E+02  0.30235466525E+02  0.51100000000E-03 0. -1.
        -11    1    4    4    0    0  0.83824040335E+01  0.70792963383E+01 -0.10886312846E+02  0.15456161932E+02  0.51100000000E-03 0.  1.
         12    1    4    4    0    0  0.23964613459E+01 -0.12789941627E+00  0.83368370925E+01  0.86753811415E+01  0.00000000000E+00 0. -1.
</event>
<event>
 8    1  0.1248739E-006  0.9118800E+02  0.7816164E-02  0.1184000E+00
        -11   -1    0    0    0    0  0.00000000000E+00  0.00000000000E+00  0.45593999997E+02  0.45594000000E+02  0.51100000000E-03 0. -1.
         11   -1    0    0    0    0 -0.00000000000E+00 -0.00000000000E+00 -0.45593999997E+02  0.45594000000E+02  0.51100000000E-03 0.  1.
         23    2    1    2    0    0 -0.17763568394E-14  0.00000000000E+00  0.00000000000E+00  0.91188000000E+02  0.91188000000E+02 0.  0.
    9900012    2    3    3    0    0  0.15606089082E+02 -0.32715197671E+02  0.64765203793E+01  0.54367088940E+02  0.40000010856E+02 0.  0.
        -12    1    3    3    0    0 -0.15606089082E+02  0.32715197671E+02 -0.64765203793E+01  0.36820911060E+02  0.00000000000E+00 0.  1.
         11    1    4    4    0    0 -0.31732437577E+01  0.45100735898E+01  0.54085925337E+01  0.77241901316E+01  0.51100000000E-03 0. -1.
        -11    1    4    4    0    0  0.78375823959E+01 -0.67407241511E+01 -0.79285497582E+01  0.13027930051E+02  0.51100000000E-03 0.  1.
         12    1    4    4    0    0  0.10941750444E+02 -0.30484547110E+02  0.89964776038E+01  0.33614968757E+02  0.00000000000E+00 0. -1.
</event>
<event>
 8    1  0.1248739E-006  0.9118800E+02  0.7816164E-02  0.1184000E+00
        -11   -1    0    0    0    0  0.00000000000E+00  0.00000000000E+00  0.45593999997E+02  0.45594000000E+02  0.51100000000E-03 0. -1.
         11   -1    0    0    0    0 -0.00000000000E+00 -0.00000000000E+00 -0.45593999997E+02  0.45594000000E+02  0.51100000000E-03 0.  1.
         23    2    1    2    0    0  0.35527136788E-14  0.00000000000E+00 -0.35527136788E-14  0.91188000000E+02  0.91188000000E+02 0.  0.
    9900012    2    3    3    0    0  0.28588336619E+02 -0.16186732082E+02 -0.16627605654E+02  0.54367074483E+02  0.39999977900E+02 0.  0.
         12    1    3    3    0    0 -0.28588336619E+02  0.16186732082E+02  0.16627605654E+02  0.36820925517E+02  0.00000000000E+00 0. -1.
         11    1    4    4    0    0 -0.39785752589E+00  0.44220781069E+01 -0.43196971410E+01  0.61945822333E+01  0.51100000000E-03 0.  1.
        -11    1    4    4    0    0  0.43963846075E+01 -0.81461245687E+01  0.93181094949E+01  0.13134485446E+02  0.51100000000E-03 0. -1.
         12    1    4    4    0    0  0.24589809537E+02 -0.12462685620E+02 -0.21626018008E+02  0.35038006804E+02  0.00000000000E+00 0. -1.
</event>
<event>
 8    1  0.1248739E-006  0.9118800E+02  0.7816164E-02  0.1184000E+00
        -11   -1    0    0    0    0  0.00000000000E+00  0.00000000000E+00  0.45593999997E+02  0.45594000000E+02  0.51100000000E-03 0.  1.
         11   -1    0    0    0    0 -0.00000000000E+00 -0.00000000000E+00 -0.45593999997E+02  0.45594000000E+02  0.51100000000E-03 0. -1.
         23    2    1    2    0    0 -0.35527136788E-14 -0.88817841970E-15  0.00000000000E+00  0.91188000000E+02  0.91188000000E+02 0.  0.
    9900012    2    3    3    0    0  0.18737536286E+02 -0.49863319699E+01 -0.31302090265E+02  0.54367087089E+02  0.40000006638E+02 0.  0.
        -12    1    3    3    0    0 -0.18737536286E+02  0.49863319699E+01  0.31302090265E+02  0.36820912911E+02  0.00000000000E+00 0.  1.
         11    1    4    4    0    0 -0.12764821214E+01  0.48820496001E+01 -0.19882143623E+02  0.20512519353E+02  0.51100000000E-03 0. -1.
        -11    1    4    4    0    0  0.19447984853E+02 -0.13275018880E+02 -0.15740590475E+02  0.28323425461E+02  0.51100000000E-03 0.  1.
        -12    1    4    4    0    0  0.56603355469E+00  0.34066373101E+01  0.43206438321E+01  0.55311422754E+01  0.00000000000E+00 0.  1.
</event>
<event>
 8    1  0.1248739E-006  0.9118800E+02  0.7816164E-02  0.1184000E+00
        -11   -1    0    0    0    0  0.00000000000E+00  0.00000000000E+00  0.45593999997E+02  0.45594000000E+02  0.51100000000E-03 0.  1.
         11   -1    0    0    0    0 -0.00000000000E+00 -0.00000000000E+00 -0.45593999997E+02  0.45594000000E+02  0.51100000000E-03 0. -1.
         23    2    1    2    0    0  0.00000000000E+00  0.00000000000E+00 -0.35527136788E-14  0.91188000000E+02  0.91188000000E+02 0.  0.
    9900012    2    3    3    0    0 -0.29818484414E+02  0.88506387181E+01  0.19705429458E+02  0.54367085175E+02  0.40000002273E+02 0.  0.
         12    1    3    3    0    0  0.29818484414E+02 -0.88506387181E+01 -0.19705429458E+02  0.36820914825E+02  0.00000000000E+00 0. -1.
         11    1    4    4    0    0 -0.16829667027E+02  0.17883527429E+02  0.36901684221E+01  0.24832953686E+02  0.51100000000E-03 0. -1.
        -11    1    4    4    0    0 -0.15141987672E+01 -0.12001142890E+02  0.42161434363E+01  0.12809999778E+02  0.51100000000E-03 0.  1.
         12    1    4    4    0    0 -0.11474618620E+02  0.29682541787E+01  0.11799117600E+02  0.16724131710E+02  0.00000000000E+00 0. -1.
</event>
<event>
 8    1  0.1248739E-006  0.9118800E+02  0.7816164E-02  0.1184000E+00
        -11   -1    0    0    0    0  0.00000000000E+00  0.00000000000E+00  0.45593999997E+02  0.45594000000E+02  0.51100000000E-03 0.  1.
         11   -1    0    0    0    0 -0.00000000000E+00 -0.00000000000E+00 -0.45593999997E+02  0.45594000000E+02  0.51100000000E-03 0. -1.
         23    2    1    2    0    0  0.88817841970E-15  0.00000000000E+00  0.00000000000E+00  0.91188000000E+02  0.91188000000E+02 0.  0.
    9900012    2    3    3    0    0 -0.60347856949E+01 -0.16920795495E+02  0.32141062405E+02  0.54367084055E+02  0.39999999719E+02 0.  0.
         12    1    3    3    0    0  0.60347856949E+01  0.16920795495E+02 -0.32141062405E+02  0.36820915945E+02  0.00000000000E+00 0. -1.
         11    1    4    4    0    0 -0.19756417592E+02 -0.53535864834E+01  0.20782935976E+02  0.29170316288E+02  0.51100000000E-03 0. -1.
        -11    1    4    4    0    0  0.54721035490E+01 -0.63866161494E+01  0.12834088232E+02  0.15344269422E+02  0.51100000000E-03 0.  1.
         12    1    4    4    0    0  0.82495283479E+01 -0.51805928622E+01 -0.14759618043E+01  0.98524983438E+01  0.00000000000E+00 0. -1.
</event>
<event>
 8    1  0.1248739E-006  0.9118800E+02  0.7816164E-02  0.1184000E+00
        -11   -1    0    0    0    0  0.00000000000E+00  0.00000000000E+00  0.45593999997E+02  0.45594000000E+02  0.51100000000E-03 0. -1.
         11   -1    0    0    0    0 -0.00000000000E+00 -0.00000000000E+00 -0.45593999997E+02  0.45594000000E+02  0.51100000000E-03 0.  1.
         23    2    1    2    0    0  0.00000000000E+00  0.00000000000E+00  0.35527136788E-14  0.91188000000E+02  0.91188000000E+02 0.  0.
    9900012    2    3    3    0    0 -0.25967153636E+02 -0.45928958474E+01 -0.25698126947E+02  0.54367061815E+02  0.39999949020E+02 0.  0.
         12    1    3    3    0    0  0.25967153636E+02  0.45928958474E+01  0.25698126947E+02  0.36820938185E+02  0.00000000000E+00 0. -1.
         11    1    4    4    0    0 -0.14500762685E+02  0.30993896339E+01  0.53449163787E+01  0.15762184680E+02  0.51100000000E-03 0. -1.
        -11    1    4    4    0    0 -0.14592224442E+02 -0.63730791258E+00 -0.15780891200E+02  0.21502923124E+02  0.51100000000E-03 0.  1.
        -12    1    4    4    0    0  0.31258334902E+01 -0.70549775687E+01 -0.15262152125E+02  0.17101954011E+02  0.00000000000E+00 0.  1.
</event>
<event>
 8    1  0.1248739E-006  0.9118800E+02  0.7816164E-02  0.1184000E+00
        -11   -1    0    0    0    0  0.00000000000E+00  0.00000000000E+00  0.45593999997E+02  0.45594000000E+02  0.51100000000E-03 0.  1.
         11   -1    0    0    0    0 -0.00000000000E+00 -0.00000000000E+00 -0.45593999997E+02  0.45594000000E+02  0.51100000000E-03 0. -1.
         23    2    1    2    0    0  0.00000000000E+00  0.00000000000E+00  0.00000000000E+00  0.91188000000E+02  0.91188000000E+02 0.  0.
    9900012    2    3    3    0    0  0.18559892266E+02  0.28611320445E+02 -0.13881722441E+02  0.54367089142E+02  0.40000011316E+02 0.  0.
        -12    1    3    3    0    0 -0.18559892266E+02 -0.28611320445E+02  0.13881722441E+02  0.36820910858E+02  0.00000000000E+00 0.  1.
         11    1    4    4    0    0  0.10582771620E+01  0.13093415497E+02 -0.15826148101E+02  0.20567558044E+02  0.51100000000E-03 0.  1.
        -11    1    4    4    0    0  0.11035085201E+02  0.40245611750E+01 -0.10435088129E+02  0.15711819199E+02  0.51100000000E-03 0. -1.
        -12    1    4    4    0    0  0.64665299036E+01  0.11493343772E+02  0.12379513789E+02  0.18087711898E+02  0.00000000000E+00 0.  1.
</event>
<event>
 8    1  0.1248739E-006  0.9118800E+02  0.7816164E-02  0.1184000E+00
        -11   -1    0    0    0    0  0.00000000000E+00  0.00000000000E+00  0.45593999997E+02  0.45594000000E+02  0.51100000000E-03 0. -1.
         11   -1    0    0    0    0 -0.00000000000E+00 -0.00000000000E+00 -0.45593999997E+02  0.45594000000E+02  0.51100000000E-03 0.  1.
         23    2    1    2    0    0  0.35527136788E-14  0.35527136788E-14 -0.11102230246E-15  0.91188000000E+02  0.91188000000E+02 0.  0.
    9900012    2    3    3    0    0 -0.31707670148E+02 -0.18695074387E+02 -0.94690464643E+00  0.54367098586E+02  0.40000032846E+02 0.  0.
         12    1    3    3    0    0  0.31707670148E+02  0.18695074387E+02  0.94690464643E+00  0.36820901414E+02  0.00000000000E+00 0. -1.
         11    1    4    4    0    0 -0.11693261194E+01 -0.20872787443E+02 -0.17479620527E+01  0.20978463976E+02  0.51100000000E-03 0. -1.
        -11    1    4    4    0    0 -0.25937974839E+01 -0.38365334157E+01  0.12640154789E+01  0.48004697092E+01  0.51100000000E-03 0.  1.
         12    1    4    4    0    0 -0.27944546544E+02  0.60142464710E+01 -0.46295807267E+00  0.28588164900E+02  0.00000000000E+00 0. -1.
</event>
<event>
 8    1  0.1248739E-006  0.9118800E+02  0.7816164E-02  0.1184000E+00
        -11   -1    0    0    0    0  0.00000000000E+00  0.00000000000E+00  0.45593999997E+02  0.45594000000E+02  0.51100000000E-03 0.  1.
         11   -1    0    0    0    0 -0.00000000000E+00 -0.00000000000E+00 -0.45593999997E+02  0.45594000000E+02  0.51100000000E-03 0. -1.
         23    2    1    2    0    0  0.00000000000E+00  0.71054273576E-14 -0.17763568394E-14  0.91188000000E+02  0.91188000000E+02 0.  0.
    9900012    2    3    3    0    0 -0.11625684660E+02 -0.32976676631E+02 -0.11539798820E+02  0.54367018180E+02  0.39999849544E+02 0.  0.
         12    1    3    3    0    0  0.11625684660E+02  0.32976676631E+02  0.11539798820E+02  0.36820981820E+02  0.00000000000E+00 0. -1.
         11    1    4    4    0    0 -0.14837425184E+02 -0.17242737152E+02  0.68955609078E+01  0.23769937549E+02  0.51100000000E-03 0.  1.
        -11    1    4    4    0    0 -0.37861184683E+01 -0.62261339103E+00 -0.12242786793E+02  0.12829971520E+02  0.51100000000E-03 0. -1.
         12    1    4    4    0    0  0.69978589922E+01 -0.15111326087E+02 -0.61925729348E+01  0.17767109111E+02  0.00000000000E+00 0. -1.
</event>
<event>
 8    1  0.1248739E-006  0.9118800E+02  0.7816164E-02  0.1184000E+00
        -11   -1    0    0    0    0  0.00000000000E+00  0.00000000000E+00  0.45593999997E+02  0.45594000000E+02  0.51100000000E-03 0. -1.
         11   -1    0    0    0    0 -0.00000000000E+00 -0.00000000000E+00 -0.45593999997E+02  0.45594000000E+02  0.51100000000E-03 0.  1.
         23    2    1    2    0    0  0.35527136788E-14  0.00000000000E+00  0.35527136788E-14  0.91188000000E+02  0.91188000000E+02 0.  0.
    9900012    2    3    3    0    0  0.28102790539E+02  0.12187311340E+02  0.20432351162E+02  0.54367104197E+02  0.40000045637E+02 0.  0.
        -12    1    3    3    0    0 -0.28102790539E+02 -0.12187311340E+02 -0.20432351162E+02  0.36820895803E+02  0.00000000000E+00 0.  1.
         11    1    4    4    0    0  0.20968454600E+02 -0.68466277906E+01  0.20917823373E+02  0.30399140372E+02  0.51100000000E-03 0. -1.
        -11    1    4    4    0    0 -0.23330163979E+01  0.11317667887E+02 -0.17567319891E+01  0.11688399354E+02  0.51100000000E-03 0.  1.
         12    1    4    4    0    0  0.94673523366E+01  0.77162712442E+01  0.12712597772E+01  0.12279564471E+02  0.00000000000E+00 0. -1.
</event>
<event>
 8    1  0.1248739E-006  0.9118800E+02  0.7816164E-02  0.1184000E+00
        -11   -1    0    0    0    0  0.00000000000E+00  0.00000000000E+00  0.45593999997E+02  0.45594000000E+02  0.51100000000E-03 0. -1.
         11   -1    0    0    0    0 -0.00000000000E+00 -0.00000000000E+00 -0.45593999997E+02  0.45594000000E+02  0.51100000000E-03 0.  1.
         23    2    1    2    0    0  0.00000000000E+00 -0.35527136788E-14 -0.17763568394E-14  0.91188000000E+02  0.91188000000E+02 0.  0.
    9900012    2    3    3    0    0  0.19988662697E+02 -0.27571686126E+02 -0.14001232838E+02  0.54367095160E+02  0.40000025036E+02 0.  0.
         12    1    3    3    0    0 -0.19988662697E+02  0.27571686126E+02  0.14001232838E+02  0.36820904840E+02  0.00000000000E+00 0. -1.
         11    1    4    4    0    0  0.77997732640E+01 -0.93361497760E+01 -0.15856254612E+02  0.19985518912E+02  0.51100000000E-03 0. -1.
        -11    1    4    4    0    0  0.10855323459E+01 -0.22260104428E+00 -0.10044247548E+02  0.10105188804E+02  0.51100000000E-03 0.  1.
         12    1    4    4    0    0  0.11103357087E+02 -0.18012935306E+02  0.11899269322E+02  0.24276387444E+02  0.00000000000E+00 0. -1.
</event>
<event>
 8    1  0.1248739E-006  0.9118800E+02  0.7816164E-02  0.1184000E+00
        -11   -1    0    0    0    0  0.00000000000E+00  0.00000000000E+00  0.45593999997E+02  0.45594000000E+02  0.51100000000E-03 0.  1.
         11   -1    0    0    0    0 -0.00000000000E+00 -0.00000000000E+00 -0.45593999997E+02  0.45594000000E+02  0.51100000000E-03 0. -1.
         23    2    1    2    0    0  0.00000000000E+00 -0.17763568394E-14  0.00000000000E+00  0.91188000000E+02  0.91188000000E+02 0.  0.
    9900012    2    3    3    0    0  0.23088209027E+02  0.13936966988E+02 -0.25069427710E+02  0.54367073197E+02  0.39999974968E+02 0.  0.
        -12    1    3    3    0    0 -0.23088209027E+02 -0.13936966988E+02  0.25069427710E+02  0.36820926803E+02  0.00000000000E+00 0.  1.
         11    1    4    4    0    0  0.11581651044E+02  0.21785973989E+02 -0.11526064285E+02  0.27232580886E+02  0.51100000000E-03 0. -1.
        -11    1    4    4    0    0  0.10020757142E+02 -0.73381566761E+01  0.10427465948E+01  0.12464005689E+02  0.51100000000E-03 0.  1.
         12    1    4    4    0    0  0.14858008413E+01 -0.51085032549E+00 -0.14586110020E+02  0.14670486622E+02  0.00000000000E+00 0. -1.
</event>
<event>
 8    1  0.1248739E-006  0.9118800E+02  0.7816164E-02  0.1184000E+00
        -11   -1    0    0    0    0  0.00000000000E+00  0.00000000000E+00  0.45593999997E+02  0.45594000000E+02  0.51100000000E-03 0.  1.
         11   -1    0    0    0    0 -0.00000000000E+00 -0.00000000000E+00 -0.45593999997E+02  0.45594000000E+02  0.51100000000E-03 0. -1.
         23    2    1    2    0    0 -0.35527136788E-14 -0.17763568394E-14  0.35527136788E-14  0.91188000000E+02  0.91188000000E+02 0.  0.
    9900012    2    3    3    0    0 -0.20939086272E+02  0.10653990208E+02 -0.28351846931E+02  0.54367081141E+02  0.39999993077E+02 0.  0.
        -12    1    3    3    0    0  0.20939086272E+02 -0.10653990208E+02  0.28351846931E+02  0.36820918859E+02  0.00000000000E+00 0.  1.
         11    1    4    4    0    0 -0.61745667425E+01  0.46134116723E+01 -0.56827588175E+01  0.95761469159E+01  0.51100000000E-03 0. -1.
        -11    1    4    4    0    0 -0.27325948512E+01  0.16206322329E+02  0.88100936014E+00  0.16458679650E+02  0.51100000000E-03 0.  1.
        -12    1    4    4    0    0 -0.12031924678E+02 -0.10165743793E+02 -0.23550097473E+02  0.28332254575E+02  0.00000000000E+00 0.  1.
</event>
<event>
 8    1  0.1248739E-006  0.9118800E+02  0.7816164E-02  0.1184000E+00
        -11   -1    0    0    0    0  0.00000000000E+00  0.00000000000E+00  0.45593999997E+02  0.45594000000E+02  0.51100000000E-03 0. -1.
         11   -1    0    0    0    0 -0.00000000000E+00 -0.00000000000E+00 -0.45593999997E+02  0.45594000000E+02  0.51100000000E-03 0.  1.
         23    2    1    2    0    0 -0.13322676296E-14  0.00000000000E+00 -0.88817841970E-15  0.91188000000E+02  0.91188000000E+02 0.  0.
    9900012    2    3    3    0    0  0.20974415446E+01  0.36359991703E+02  0.54156154574E+01  0.54367120754E+02  0.40000083382E+02 0.  0.
        -12    1    3    3    0    0 -0.20974415446E+01 -0.36359991703E+02 -0.54156154574E+01  0.36820879246E+02  0.00000000000E+00 0.  1.
         11    1    4    4    0    0 -0.37979648448E+01 -0.16644517755E+00 -0.31154703224E+00  0.38143548306E+01  0.51100000000E-03 0. -1.
        -11    1    4    4    0    0  0.15608177835E+02  0.34289696912E+02 -0.23148231591E+01  0.37745952580E+02  0.51100000000E-03 0.  1.
         12    1    4    4    0    0 -0.97127714455E+01  0.22367399690E+01  0.80419856487E+01  0.12806813344E+02  0.00000000000E+00 0. -1.
</event>
<event>
 8    1  0.1248739E-006  0.9118800E+02  0.7816164E-02  0.1184000E+00
        -11   -1    0    0    0    0  0.00000000000E+00  0.00000000000E+00  0.45593999997E+02  0.45594000000E+02  0.51100000000E-03 0. -1.
         11   -1    0    0    0    0 -0.00000000000E+00 -0.00000000000E+00 -0.45593999997E+02  0.45594000000E+02  0.51100000000E-03 0.  1.
         23    2    1    2    0    0 -0.17763568394E-14 -0.35527136788E-14  0.35527136788E-14  0.91188000000E+02  0.91188000000E+02 0.  0.
    9900012    2    3    3    0    0 -0.13672834900E+02  0.24409122317E+02 -0.23937990543E+02  0.54367094827E+02  0.40000024277E+02 0.  0.
         12    1    3    3    0    0  0.13672834900E+02 -0.24409122317E+02  0.23937990543E+02  0.36820905173E+02  0.00000000000E+00 0. -1.
         11    1    4    4    0    0  0.37094926969E+01  0.10292584374E+01  0.54229686699E+01  0.66504359597E+01  0.51100000000E-03 0. -1.
        -11    1    4    4    0    0 -0.19505807098E+02  0.80226235219E+01 -0.11346528202E+02  0.23949586661E+02  0.51100000000E-03 0.  1.
        -12    1    4    4    0    0  0.21234795011E+01  0.15357240358E+02 -0.18014431011E+02  0.23767072207E+02  0.00000000000E+00 0.  1.
</event>
<event>
 8    1  0.1248739E-006  0.9118800E+02  0.7816164E-02  0.1184000E+00
        -11   -1    0    0    0    0  0.00000000000E+00  0.00000000000E+00  0.45593999997E+02  0.45594000000E+02  0.51100000000E-03 0.  1.
         11   -1    0    0    0    0 -0.00000000000E+00 -0.00000000000E+00 -0.45593999997E+02  0.45594000000E+02  0.51100000000E-03 0. -1.
         23    2    1    2    0    0 -0.35527136788E-14  0.00000000000E+00  0.35527136788E-14  0.91188000000E+02  0.91188000000E+02 0.  0.
    9900012    2    3    3    0    0 -0.21076238276E+02 -0.62302003207E+01 -0.29542468314E+02  0.54367073205E+02  0.39999974986E+02 0.  0.
        -12    1    3    3    0    0  0.21076238276E+02  0.62302003207E+01  0.29542468314E+02  0.36820926795E+02  0.00000000000E+00 0.  1.
         11    1    4    4    0    0 -0.10027986794E+02 -0.11789156096E+02 -0.25020382706E+02  0.29420473681E+02  0.51100000000E-03 0. -1.
        -11    1    4    4    0    0 -0.51678567169E+01  0.49871317862E+01 -0.12858914108E+02  0.14728540281E+02  0.51100000000E-03 0.  1.
        -12    1    4    4    0    0 -0.58803947652E+01  0.57182398861E+00  0.83368285000E+01  0.10218059244E+02  0.00000000000E+00 0.  1.
</event>
<event>
 8    1  0.1248739E-006  0.9118800E+02  0.7816164E-02  0.1184000E+00
        -11   -1    0    0    0    0  0.00000000000E+00  0.00000000000E+00  0.45593999997E+02  0.45594000000E+02  0.51100000000E-03 0.  1.
         11   -1    0    0    0    0 -0.00000000000E+00 -0.00000000000E+00 -0.45593999997E+02  0.45594000000E+02  0.51100000000E-03 0. -1.
         23    2    1    2    0    0  0.00000000000E+00  0.88817841970E-15  0.00000000000E+00  0.91188000000E+02  0.91188000000E+02 0.  0.
    9900012    2    3    3    0    0 -0.34051227381E+02 -0.32295949517E+00  0.14006713874E+02  0.54367103452E+02  0.40000043940E+02 0.  0.
         12    1    3    3    0    0  0.34051227381E+02  0.32295949517E+00 -0.14006713874E+02  0.36820896548E+02  0.00000000000E+00 0. -1.
         11    1    4    4    0    0 -0.21316884837E+02  0.14409203646E+02  0.13107519233E+02  0.28876318837E+02  0.51100000000E-03 0.  1.
        -11    1    4    4    0    0 -0.31523044071E+01  0.28106351430E+01  0.32976444731E+01  0.53582788574E+01  0.51100000000E-03 0. -1.
         12    1    4    4    0    0 -0.95820381375E+01 -0.17542798284E+02 -0.23984498315E+01  0.20132505758E+02  0.00000000000E+00 0. -1.
</event>
<event>
 8    1  0.1248739E-006  0.9118800E+02  0.7816164E-02  0.1184000E+00
        -11   -1    0    0    0    0  0.00000000000E+00  0.00000000000E+00  0.45593999997E+02  0.45594000000E+02  0.51100000000E-03 0.  1.
         11   -1    0    0    0    0 -0.00000000000E+00 -0.00000000000E+00 -0.45593999997E+02  0.45594000000E+02  0.51100000000E-03 0. -1.
         23    2    1    2    0    0  0.00000000000E+00  0.00000000000E+00  0.00000000000E+00  0.91188000000E+02  0.91188000000E+02 0.  0.
    9900012    2    3    3    0    0 -0.21059867904E+02  0.13150780647E+02 -0.27190414774E+02  0.54367085789E+02  0.40000003673E+02 0.  0.
        -12    1    3    3    0    0  0.21059867904E+02 -0.13150780647E+02  0.27190414774E+02  0.36820914211E+02  0.00000000000E+00 0.  1.
         11    1    4    4    0    0 -0.95189149913E+01  0.12110195744E+02 -0.22305068964E+02  0.27106875241E+02  0.51100000000E-03 0. -1.
        -11    1    4    4    0    0 -0.18413304007E+02  0.12368217605E+01  0.60060309168E+00  0.18464566523E+02  0.51100000000E-03 0.  1.
        -12    1    4    4    0    0  0.68723510946E+01 -0.19623685805E+00 -0.54859489013E+01  0.87956440253E+01  0.00000000000E+00 0.  1.
</event>
<event>
 8    1  0.1248739E-006  0.9118800E+02  0.7816164E-02  0.1184000E+00
        -11   -1    0    0    0    0  0.00000000000E+00  0.00000000000E+00  0.45593999997E+02  0.45594000000E+02  0.51100000000E-03 0.  1.
         11   -1    0    0    0    0 -0.00000000000E+00 -0.00000000000E+00 -0.45593999997E+02  0.45594000000E+02  0.51100000000E-03 0. -1.
         23    2    1    2    0    0  0.00000000000E+00 -0.88817841970E-15  0.00000000000E+00  0.91188000000E+02  0.91188000000E+02 0.  0.
    9900012    2    3    3    0    0  0.33041496803E+02  0.67169813689E+01 -0.14796002435E+02  0.54367081519E+02  0.39999993940E+02 0.  0.
         12    1    3    3    0    0 -0.33041496803E+02 -0.67169813689E+01  0.14796002435E+02  0.36820918481E+02  0.00000000000E+00 0. -1.
         11    1    4    4    0    0 -0.44964932785E+01 -0.58426385070E+01 -0.53348627407E+01  0.91003097338E+01  0.51100000000E-03 0. -1.
        -11    1    4    4    0    0  0.31177677740E+02  0.14970816653E+01 -0.90517715087E+01  0.32499590928E+02  0.51100000000E-03 0.  1.
        -12    1    4    4    0    0  0.63603123419E+01  0.11062538211E+02 -0.40936818522E+00  0.12767180858E+02  0.00000000000E+00 0.  1.
</event>
<event>
 8    1  0.1248739E-006  0.9118800E+02  0.7816164E-02  0.1184000E+00
        -11   -1    0    0    0    0  0.00000000000E+00  0.00000000000E+00  0.45593999997E+02  0.45594000000E+02  0.51100000000E-03 0. -1.
         11   -1    0    0    0    0 -0.00000000000E+00 -0.00000000000E+00 -0.45593999997E+02  0.45594000000E+02  0.51100000000E-03 0.  1.
         23    2    1    2    0    0  0.13322676296E-14  0.35527136788E-14 -0.35527136788E-14  0.91188000000E+02  0.91188000000E+02 0.  0.
    9900012    2    3    3    0    0  0.28448504633E+01  0.19375169197E+02 -0.31181564821E+02  0.54367077412E+02  0.39999984575E+02 0.  0.
         12    1    3    3    0    0 -0.28448504633E+01 -0.19375169197E+02  0.31181564821E+02  0.36820922588E+02  0.00000000000E+00 0. -1.
         11    1    4    4    0    0  0.10948350403E+01 -0.31872833443E+01 -0.22610361897E+02  0.22860137888E+02  0.51100000000E-03 0.  1.
        -11    1    4    4    0    0 -0.42847437866E+01  0.11281787697E+02 -0.13215532531E+02  0.17896593623E+02  0.51100000000E-03 0. -1.
        -12    1    4    4    0    0  0.60347592096E+01  0.11280664844E+02  0.46443296069E+01  0.13610345901E+02  0.00000000000E+00 0.  1.
</event>
<event>
 8    1  0.1248739E-006  0.9118800E+02  0.7816164E-02  0.1184000E+00
        -11   -1    0    0    0    0  0.00000000000E+00  0.00000000000E+00  0.45593999997E+02  0.45594000000E+02  0.51100000000E-03 0.  1.
         11   -1    0    0    0    0 -0.00000000000E+00 -0.00000000000E+00 -0.45593999997E+02  0.45594000000E+02  0.51100000000E-03 0. -1.
         23    2    1    2    0    0  0.71054273576E-14  0.00000000000E+00  0.00000000000E+00  0.91188000000E+02  0.91188000000E+02 0.  0.
    9900012    2    3    3    0    0  0.33437882616E+02  0.72662912043E+01  0.13597336312E+02  0.54367101906E+02  0.40000040414E+02 0.  0.
         12    1    3    3    0    0 -0.33437882616E+02 -0.72662912043E+01 -0.13597336312E+02  0.36820898094E+02  0.00000000000E+00 0. -1.
         11    1    4    4    0    0  0.93445082607E+01  0.50303890947E+01 -0.84325808967E+01  0.13554817222E+02  0.51100000000E-03 0. -1.
        -11    1    4    4    0    0  0.16309213122E+02  0.13086503418E+02  0.14882568110E+02  0.25665888611E+02  0.51100000000E-03 0.  1.
         12    1    4    4    0    0  0.77841612331E+01 -0.10850601308E+02  0.71473490990E+01  0.15146396073E+02  0.00000000000E+00 0. -1.
</event>
<event>
 8    1  0.1248739E-006  0.9118800E+02  0.7816164E-02  0.1184000E+00
        -11   -1    0    0    0    0  0.00000000000E+00  0.00000000000E+00  0.45593999997E+02  0.45594000000E+02  0.51100000000E-03 0.  1.
         11   -1    0    0    0    0 -0.00000000000E+00 -0.00000000000E+00 -0.45593999997E+02  0.45594000000E+02  0.51100000000E-03 0. -1.
         23    2    1    2    0    0  0.00000000000E+00  0.00000000000E+00  0.26645352591E-14  0.91188000000E+02  0.91188000000E+02 0.  0.
    9900012    2    3    3    0    0 -0.25384712055E+02 -0.25820805486E+02  0.66845353869E+01  0.54367073675E+02  0.39999976058E+02 0.  0.
         12    1    3    3    0    0  0.25384712055E+02  0.25820805486E+02 -0.66845353869E+01  0.36820926325E+02  0.00000000000E+00 0. -1.
         11    1    4    4    0    0 -0.22074561044E+02 -0.19944098717E+02 -0.82322978152E+01  0.30867848103E+02  0.51100000000E-03 0. -1.
        -11    1    4    4    0    0  0.40331995844E+01 -0.50612814906E+01  0.14751720052E+02  0.16108895492E+02  0.51100000000E-03 0.  1.
         12    1    4    4    0    0 -0.73433505954E+01 -0.81542527823E+00  0.16511315023E+00  0.73903300808E+01  0.00000000000E+00 0. -1.
</event>
<event>
 8    1  0.1248739E-006  0.9118800E+02  0.7816164E-02  0.1184000E+00
        -11   -1    0    0    0    0  0.00000000000E+00  0.00000000000E+00  0.45593999997E+02  0.45594000000E+02  0.51100000000E-03 0.  1.
         11   -1    0    0    0    0 -0.00000000000E+00 -0.00000000000E+00 -0.45593999997E+02  0.45594000000E+02  0.51100000000E-03 0. -1.
         23    2    1    2    0    0  0.00000000000E+00  0.35527136788E-14  0.00000000000E+00  0.91188000000E+02  0.91188000000E+02 0.  0.
    9900012    2    3    3    0    0  0.15300848514E+02  0.25986378391E+02  0.21127518966E+02  0.54367083597E+02  0.39999998677E+02 0.  0.
         12    1    3    3    0    0 -0.15300848514E+02 -0.25986378391E+02 -0.21127518966E+02  0.36820916403E+02  0.00000000000E+00 0. -1.
         11    1    4    4    0    0 -0.19649202606E+01  0.12014513762E+02  0.60310774519E+01  0.13586145446E+02  0.51100000000E-03 0. -1.
        -11    1    4    4    0    0  0.24670151443E+02  0.15856672420E+02  0.15420218437E+02  0.33133571637E+02  0.51100000000E-03 0.  1.
         12    1    4    4    0    0 -0.74043826690E+01 -0.18848077923E+01 -0.32377692368E+00  0.76473665152E+01  0.00000000000E+00 0. -1.
</event>
<event>
 8    1  0.1248739E-006  0.9118800E+02  0.7816164E-02  0.1184000E+00
        -11   -1    0    0    0    0  0.00000000000E+00  0.00000000000E+00  0.45593999997E+02  0.45594000000E+02  0.51100000000E-03 0. -1.
         11   -1    0    0    0    0 -0.00000000000E+00 -0.00000000000E+00 -0.45593999997E+02  0.45594000000E+02  0.51100000000E-03 0.  1.
         23    2    1    2    0    0  0.71054273576E-14  0.35527136788E-14  0.13322676296E-14  0.91188000000E+02  0.91188000000E+02 0.  0.
    9900012    2    3    3    0    0  0.33011343300E+02  0.16051516405E+02 -0.28948518593E+01  0.54367080231E+02  0.39999991002E+02 0.  0.
        -12    1    3    3    0    0 -0.33011343300E+02 -0.16051516405E+02  0.28948518593E+01  0.36820919769E+02  0.00000000000E+00 0.  1.
         11    1    4    4    0    0  0.14127906753E+02  0.14318462848E+02  0.98897221613E+01  0.22414788249E+02  0.51100000000E-03 0. -1.
        -11    1    4    4    0    0  0.78925139175E+01 -0.61351047966E+01 -0.15228237925E+02  0.18216215780E+02  0.51100000000E-03 0.  1.
        -12    1    4    4    0    0  0.10990922630E+02  0.78681583535E+01  0.24436639043E+01  0.13736076201E+02  0.00000000000E+00 0.  1.
</event>
<event>
 8    1  0.1248739E-006  0.9118800E+02  0.7816164E-02  0.1184000E+00
        -11   -1    0    0    0    0  0.00000000000E+00  0.00000000000E+00  0.45593999997E+02  0.45594000000E+02  0.51100000000E-03 0. -1.
         11   -1    0    0    0    0 -0.00000000000E+00 -0.00000000000E+00 -0.45593999997E+02  0.45594000000E+02  0.51100000000E-03 0.  1.
         23    2    1    2    0    0 -0.88817841970E-15  0.00000000000E+00  0.00000000000E+00  0.91188000000E+02  0.91188000000E+02 0.  0.
    9900012    2    3    3    0    0 -0.59059535166E+01  0.36172957900E+02 -0.35236642493E+01  0.54367090452E+02  0.40000014303E+02 0.  0.
         12    1    3    3    0    0  0.59059535166E+01 -0.36172957900E+02  0.35236642493E+01  0.36820909548E+02  0.00000000000E+00 0. -1.
         11    1    4    4    0    0  0.96684079835E+01 -0.24480809617E+01 -0.19167620102E+01  0.10156042054E+02  0.51100000000E-03 0. -1.
        -11    1    4    4    0    0  0.24115606751E+01  0.37296425134E+01  0.18362312713E+01  0.48059966407E+01  0.51100000000E-03 0.  1.
         12    1    4    4    0    0 -0.17985922175E+02  0.34891396349E+02 -0.34431335105E+01  0.39405051758E+02  0.00000000000E+00 0. -1.
</event>
<event>
 8    1  0.1248739E-006  0.9118800E+02  0.7816164E-02  0.1184000E+00
        -11   -1    0    0    0    0  0.00000000000E+00  0.00000000000E+00  0.45593999997E+02  0.45594000000E+02  0.51100000000E-03 0.  1.
         11   -1    0    0    0    0 -0.00000000000E+00 -0.00000000000E+00 -0.45593999997E+02  0.45594000000E+02  0.51100000000E-03 0. -1.
         23    2    1    2    0    0  0.00000000000E+00 -0.17763568394E-14  0.00000000000E+00  0.91188000000E+02  0.91188000000E+02 0.  0.
    9900012    2    3    3    0    0  0.27645744976E+02 -0.11016034424E+02  0.21682700978E+02  0.54367085408E+02  0.40000002805E+02 0.  0.
         12    1    3    3    0    0 -0.27645744976E+02  0.11016034424E+02 -0.21682700978E+02  0.36820914592E+02  0.00000000000E+00 0. -1.
         11    1    4    4    0    0  0.22603840034E+02  0.47958411055E+01  0.22323697413E+02  0.32129132304E+02  0.51100000000E-03 0. -1.
        -11    1    4    4    0    0  0.50169915267E+01 -0.14308432467E+02  0.53365320902E+01  0.16074203516E+02  0.51100000000E-03 0.  1.
         12    1    4    4    0    0  0.24913414751E-01 -0.15034430622E+01 -0.59775285250E+01  0.61637495883E+01  0.00000000000E+00 0. -1.
</event>
<event>
 8    1  0.1248739E-006  0.9118800E+02  0.7816164E-02  0.1184000E+00
        -11   -1    0    0    0    0  0.00000000000E+00  0.00000000000E+00  0.45593999997E+02  0.45594000000E+02  0.51100000000E-03 0. -1.
         11   -1    0    0    0    0 -0.00000000000E+00 -0.00000000000E+00 -0.45593999997E+02  0.45594000000E+02  0.51100000000E-03 0.  1.
         23    2    1    2    0    0  0.00000000000E+00 -0.17763568394E-14  0.17763568394E-14  0.91188000000E+02  0.91188000000E+02 0.  0.
    9900012    2    3    3    0    0  0.32066691097E+02  0.13649422064E+02 -0.11882875727E+02  0.54367053025E+02  0.39999928981E+02 0.  0.
        -12    1    3    3    0    0 -0.32066691097E+02 -0.13649422064E+02  0.11882875727E+02  0.36820946975E+02  0.00000000000E+00 0.  1.
         11    1    4    4    0    0  0.61228597956E+01  0.16680588690E+02 -0.46816697157E+01  0.18375241024E+02  0.51100000000E-03 0. -1.
        -11    1    4    4    0    0  0.24456778051E+02 -0.40981823893E+01  0.35813322132E+01  0.25055040056E+02  0.51100000000E-03 0.  1.
         12    1    4    4    0    0  0.14870532501E+01  0.10670157633E+01 -0.10782538224E+02  0.10936771945E+02  0.00000000000E+00 0. -1.
</event>
<event>
 8    1  0.1248739E-006  0.9118800E+02  0.7816164E-02  0.1184000E+00
        -11   -1    0    0    0    0  0.00000000000E+00  0.00000000000E+00  0.45593999997E+02  0.45594000000E+02  0.51100000000E-03 0. -1.
         11   -1    0    0    0    0 -0.00000000000E+00 -0.00000000000E+00 -0.45593999997E+02  0.45594000000E+02  0.51100000000E-03 0.  1.
         23    2    1    2    0    0  0.00000000000E+00  0.17763568394E-14 -0.35527136788E-14  0.91188000000E+02  0.91188000000E+02 0.  0.
    9900012    2    3    3    0    0  0.25315178326E+02 -0.10102372744E+02  0.24756404231E+02  0.54366868307E+02  0.39999507876E+02 0.  0.
        -12    1    3    3    0    0 -0.25315178326E+02  0.10102372744E+02 -0.24756404231E+02  0.36821131693E+02  0.00000000000E+00 0.  1.
         11    1    4    4    0    0 -0.71908414383E+01 -0.11211510477E+01  0.17843445233E+01  0.74932680388E+01  0.51100000000E-03 0. -1.
        -11    1    4    4    0    0  0.20943566021E+00  0.54472760424E+01  0.24287410508E+01  0.59678692120E+01  0.51100000000E-03 0.  1.
        -12    1    4    4    0    0  0.32296584104E+02 -0.14428497738E+02  0.20543318657E+02  0.40905731056E+02  0.00000000000E+00 0.  1.
</event>
<event>
 8    1  0.1248739E-006  0.9118800E+02  0.7816164E-02  0.1184000E+00
        -11   -1    0    0    0    0  0.00000000000E+00  0.00000000000E+00  0.45593999997E+02  0.45594000000E+02  0.51100000000E-03 0.  1.
         11   -1    0    0    0    0 -0.00000000000E+00 -0.00000000000E+00 -0.45593999997E+02  0.45594000000E+02  0.51100000000E-03 0. -1.
         23    2    1    2    0    0  0.17763568394E-14  0.00000000000E+00  0.35527136788E-14  0.91188000000E+02  0.91188000000E+02 0.  0.
    9900012    2    3    3    0    0 -0.12476189787E+02  0.22755538751E+02  0.26121063040E+02  0.54367084886E+02  0.40000001615E+02 0.  0.
         12    1    3    3    0    0  0.12476189787E+02 -0.22755538751E+02 -0.26121063040E+02  0.36820915114E+02  0.00000000000E+00 0. -1.
         11    1    4    4    0    0  0.69225180647E+01  0.11459858902E+01  0.10796365779E+02  0.12876181667E+02  0.51100000000E-03 0. -1.
        -11    1    4    4    0    0 -0.11079585225E+02  0.21856465834E+01  0.16873328583E+02  0.20303779881E+02  0.51100000000E-03 0.  1.
        -12    1    4    4    0    0 -0.83191226264E+01  0.19423906278E+02 -0.15486313215E+01  0.21187123338E+02  0.00000000000E+00 0.  1.
</event>
<event>
 8    1  0.1248739E-006  0.9118800E+02  0.7816164E-02  0.1184000E+00
        -11   -1    0    0    0    0  0.00000000000E+00  0.00000000000E+00  0.45593999997E+02  0.45594000000E+02  0.51100000000E-03 0.  1.
         11   -1    0    0    0    0 -0.00000000000E+00 -0.00000000000E+00 -0.45593999997E+02  0.45594000000E+02  0.51100000000E-03 0. -1.
         23    2    1    2    0    0 -0.35527136788E-14  0.00000000000E+00  0.17763568394E-14  0.91188000000E+02  0.91188000000E+02 0.  0.
    9900012    2    3    3    0    0  0.18616983391E+02 -0.31436004229E+02  0.45788258541E+01  0.54367080964E+02  0.39999992674E+02 0.  0.
         12    1    3    3    0    0 -0.18616983391E+02  0.31436004229E+02 -0.45788258541E+01  0.36820919036E+02  0.00000000000E+00 0. -1.
         11    1    4    4    0    0  0.36379460232E+01 -0.39148240329E+01  0.12593994657E+02  0.13680979503E+02  0.51100000000E-03 0. -1.
        -11    1    4    4    0    0  0.16485971277E+02 -0.28885734025E+02 -0.88411233408E+00  0.33270926257E+02  0.51100000000E-03 0.  1.
         12    1    4    4    0    0 -0.15069339094E+01  0.13645538289E+01 -0.71310564686E+01  0.74151752048E+01  0.00000000000E+00 0. -1.
</event>
<event>
 8    1  0.1248739E-006  0.9118800E+02  0.7816164E-02  0.1184000E+00
        -11   -1    0    0    0    0  0.00000000000E+00  0.00000000000E+00  0.45593999997E+02  0.45594000000E+02  0.51100000000E-03 0.  1.
         11   -1    0    0    0    0 -0.00000000000E+00 -0.00000000000E+00 -0.45593999997E+02  0.45594000000E+02  0.51100000000E-03 0. -1.
         23    2    1    2    0    0 -0.17763568394E-14  0.00000000000E+00  0.00000000000E+00  0.91188000000E+02  0.91188000000E+02 0.  0.
    9900012    2    3    3    0    0  0.99961770138E+01 -0.34788360269E+02 -0.67545550276E+01  0.54367114912E+02  0.40000070064E+02 0.  0.
        -12    1    3    3    0    0 -0.99961770138E+01  0.34788360269E+02  0.67545550276E+01  0.36820885088E+02  0.00000000000E+00 0.  1.
         11    1    4    4    0    0 -0.13814479661E+02 -0.18384448117E+02 -0.83951345838E+01  0.24480728457E+02  0.51100000000E-03 0. -1.
        -11    1    4    4    0    0  0.15785027293E+02 -0.11457271199E+02  0.45338713911E+01  0.20024788139E+02  0.51100000000E-03 0.  1.
         12    1    4    4    0    0  0.80256293810E+01 -0.49466409534E+01 -0.28932918350E+01  0.98615983149E+01  0.00000000000E+00 0. -1.
</event>
<event>
 8    1  0.1248739E-006  0.9118800E+02  0.7816164E-02  0.1184000E+00
        -11   -1    0    0    0    0  0.00000000000E+00  0.00000000000E+00  0.45593999997E+02  0.45594000000E+02  0.51100000000E-03 0.  1.
         11   -1    0    0    0    0 -0.00000000000E+00 -0.00000000000E+00 -0.45593999997E+02  0.45594000000E+02  0.51100000000E-03 0. -1.
         23    2    1    2    0    0  0.35527136788E-14  0.00000000000E+00  0.17763568394E-14  0.91188000000E+02  0.91188000000E+02 0.  0.
    9900012    2    3    3    0    0  0.17658992291E+02  0.30508492827E+02  0.10638384731E+02  0.54367036230E+02  0.39999890693E+02 0.  0.
         12    1    3    3    0    0 -0.17658992291E+02 -0.30508492827E+02 -0.10638384731E+02  0.36820963770E+02  0.00000000000E+00 0. -1.
         11    1    4    4    0    0 -0.39499994287E+01  0.88570901381E+01  0.12313494036E+01  0.97758254289E+01  0.51100000000E-03 0. -1.
        -11    1    4    4    0    0  0.26076746367E+02  0.54492883427E+01  0.40167457661E+01  0.26941152376E+02  0.51100000000E-03 0.  1.
        -12    1    4    4    0    0 -0.44677546469E+01  0.16202114346E+02  0.53902895613E+01  0.17650058425E+02  0.00000000000E+00 0.  1.
</event>
<event>
 8    1  0.1248739E-006  0.9118800E+02  0.7816164E-02  0.1184000E+00
        -11   -1    0    0    0    0  0.00000000000E+00  0.00000000000E+00  0.45593999997E+02  0.45594000000E+02  0.51100000000E-03 0. -1.
         11   -1    0    0    0    0 -0.00000000000E+00 -0.00000000000E+00 -0.45593999997E+02  0.45594000000E+02  0.51100000000E-03 0.  1.
         23    2    1    2    0    0  0.35527136788E-14  0.00000000000E+00  0.00000000000E+00  0.91188000000E+02  0.91188000000E+02 0.  0.
    9900012    2    3    3    0    0  0.18981177154E+02 -0.24639838065E+02  0.19707008009E+02  0.54367178843E+02  0.40000215808E+02 0.  0.
        -12    1    3    3    0    0 -0.18981177154E+02  0.24639838065E+02 -0.19707008009E+02  0.36820821157E+02  0.00000000000E+00 0.  1.
         11    1    4    4    0    0  0.10879246315E+02 -0.26145832126E+02  0.34572002919E+01  0.28529191578E+02  0.51100000000E-03 0. -1.
        -11    1    4    4    0    0 -0.57600741331E+01 -0.62893191753E+00  0.67612845109E+01  0.89044358538E+01  0.51100000000E-03 0.  1.
        -12    1    4    4    0    0  0.13862004972E+02  0.21349259788E+01  0.94885232062E+01  0.16933551412E+02  0.00000000000E+00 0.  1.
</event>
<event>
 8    1  0.1248739E-006  0.9118800E+02  0.7816164E-02  0.1184000E+00
        -11   -1    0    0    0    0  0.00000000000E+00  0.00000000000E+00  0.45593999997E+02  0.45594000000E+02  0.51100000000E-03 0. -1.
         11   -1    0    0    0    0 -0.00000000000E+00 -0.00000000000E+00 -0.45593999997E+02  0.45594000000E+02  0.51100000000E-03 0.  1.
         23    2    1    2    0    0  0.71054273576E-14 -0.17763568394E-14  0.00000000000E+00  0.91188000000E+02  0.91188000000E+02 0.  0.
    9900012    2    3    3    0    0 -0.32094969375E+02  0.63946980544E+01  0.16876047140E+02  0.54367079460E+02  0.39999989244E+02 0.  0.
        -12    1    3    3    0    0  0.32094969375E+02 -0.63946980544E+01 -0.16876047140E+02  0.36820920540E+02  0.00000000000E+00 0.  1.
         11    1    4    4    0    0 -0.48428624117E+01 -0.71984924825E+01  0.67842671015E+01  0.11013532164E+02  0.51100000000E-03 0. -1.
        -11    1    4    4    0    0 -0.12907090984E+02  0.59099777183E+01 -0.10098848089E+02  0.17421468574E+02  0.51100000000E-03 0.  1.
         12    1    4    4    0    0 -0.14345015979E+02  0.76832128186E+01  0.20190628127E+02  0.25932078722E+02  0.00000000000E+00 0. -1.
</event>
<event>
 8    1  0.1248739E-006  0.9118800E+02  0.7816164E-02  0.1184000E+00
        -11   -1    0    0    0    0  0.00000000000E+00  0.00000000000E+00  0.45593999997E+02  0.45594000000E+02  0.51100000000E-03 0.  1.
         11   -1    0    0    0    0 -0.00000000000E+00 -0.00000000000E+00 -0.45593999997E+02  0.45594000000E+02  0.51100000000E-03 0. -1.
         23    2    1    2    0    0 -0.35527136788E-14  0.35527136788E-14 -0.35527136788E-14  0.91188000000E+02  0.91188000000E+02 0.  0.
    9900012    2    3    3    0    0 -0.17096396906E+02 -0.19678559192E+02  0.26004741417E+02  0.54367094862E+02  0.40000024357E+02 0.  0.
         12    1    3    3    0    0  0.17096396906E+02  0.19678559192E+02 -0.26004741417E+02  0.36820905138E+02  0.00000000000E+00 0. -1.
         11    1    4    4    0    0 -0.16331651372E+01  0.98616953529E+01  0.11212302962E+02  0.15021185092E+02  0.51100000000E-03 0. -1.
        -11    1    4    4    0    0 -0.10356441080E+02 -0.23713174158E+02  0.41885407546E+01  0.26212866581E+02  0.51100000000E-03 0.  1.
         12    1    4    4    0    0 -0.51067906883E+01 -0.58270803866E+01  0.10603897700E+02  0.13133043189E+02  0.00000000000E+00 0. -1.
</event>
<event>
 8    1  0.1248739E-006  0.9118800E+02  0.7816164E-02  0.1184000E+00
        -11   -1    0    0    0    0  0.00000000000E+00  0.00000000000E+00  0.45593999997E+02  0.45594000000E+02  0.51100000000E-03 0. -1.
         11   -1    0    0    0    0 -0.00000000000E+00 -0.00000000000E+00 -0.45593999997E+02  0.45594000000E+02  0.51100000000E-03 0.  1.
         23    2    1    2    0    0  0.00000000000E+00 -0.35527136788E-14  0.71054273576E-14  0.91188000000E+02  0.91188000000E+02 0.  0.
    9900012    2    3    3    0    0 -0.12631557217E+02  0.67312236861E+01 -0.33925066517E+02  0.54367139768E+02  0.40000126728E+02 0.  0.
         12    1    3    3    0    0  0.12631557217E+02 -0.67312236861E+01  0.33925066517E+02  0.36820860232E+02  0.00000000000E+00 0. -1.
         11    1    4    4    0    0 -0.79258210076E+01  0.17281817467E+02 -0.18002000544E+02  0.26183045611E+02  0.51100000000E-03 0.  1.
        -11    1    4    4    0    0 -0.77097354648E+01  0.36417766695E+01 -0.78096365845E+01  0.11562568144E+02  0.51100000000E-03 0. -1.
         12    1    4    4    0    0  0.30039992550E+01 -0.14192370451E+02 -0.81134293894E+01  0.16621526013E+02  0.00000000000E+00 0. -1.
</event>
<event>
 8    1  0.1248739E-006  0.9118800E+02  0.7816164E-02  0.1184000E+00
        -11   -1    0    0    0    0  0.00000000000E+00  0.00000000000E+00  0.45593999997E+02  0.45594000000E+02  0.51100000000E-03 0. -1.
         11   -1    0    0    0    0 -0.00000000000E+00 -0.00000000000E+00 -0.45593999997E+02  0.45594000000E+02  0.51100000000E-03 0.  1.
         23    2    1    2    0    0  0.00000000000E+00  0.00000000000E+00 -0.88817841970E-15  0.91188000000E+02  0.91188000000E+02 0.  0.
    9900012    2    3    3    0    0  0.16605515059E+02  0.32548713261E+02  0.45405079863E+01  0.54367108130E+02  0.40000054604E+02 0.  0.
        -12    1    3    3    0    0 -0.16605515059E+02 -0.32548713261E+02 -0.45405079863E+01  0.36820891870E+02  0.00000000000E+00 0.  1.
         11    1    4    4    0    0  0.14582312482E+02  0.23894163134E+02  0.16753733299E+02  0.32623035557E+02  0.51100000000E-03 0. -1.
        -11    1    4    4    0    0 -0.35908220326E+01 -0.62720952083E+00 -0.10039690655E+02  0.10680954234E+02  0.51100000000E-03 0.  1.
         12    1    4    4    0    0  0.56140246091E+01  0.92817596479E+01 -0.21735346583E+01  0.11063118339E+02  0.00000000000E+00 0. -1.
</event>
<event>
 8    1  0.1248739E-006  0.9118800E+02  0.7816164E-02  0.1184000E+00
        -11   -1    0    0    0    0  0.00000000000E+00  0.00000000000E+00  0.45593999997E+02  0.45594000000E+02  0.51100000000E-03 0. -1.
         11   -1    0    0    0    0 -0.00000000000E+00 -0.00000000000E+00 -0.45593999997E+02  0.45594000000E+02  0.51100000000E-03 0.  1.
         23    2    1    2    0    0  0.17763568394E-14  0.00000000000E+00  0.00000000000E+00  0.91188000000E+02  0.91188000000E+02 0.  0.
    9900012    2    3    3    0    0  0.74134230792E+01 -0.25826456785E+02 -0.25175677232E+02  0.54367089692E+02  0.40000012571E+02 0.  0.
         12    1    3    3    0    0 -0.74134230792E+01  0.25826456785E+02  0.25175677232E+02  0.36820910308E+02  0.00000000000E+00 0. -1.
         11    1    4    4    0    0 -0.56416876809E+01 -0.36536593805E+00 -0.24720623774E+01  0.61703504614E+01  0.51100000000E-03 0. -1.
        -11    1    4    4    0    0 -0.29530061060E+01 -0.15712115775E+02 -0.24620676113E+02  0.29355894122E+02  0.51100000000E-03 0.  1.
         12    1    4    4    0    0  0.16008116866E+02 -0.97489750721E+01  0.19170612579E+01  0.18840845109E+02  0.00000000000E+00 0. -1.
</event>
<event>
 8    1  0.1248739E-006  0.9118800E+02  0.7816164E-02  0.1184000E+00
        -11   -1    0    0    0    0  0.00000000000E+00  0.00000000000E+00  0.45593999997E+02  0.45594000000E+02  0.51100000000E-03 0. -1.
         11   -1    0    0    0    0 -0.00000000000E+00 -0.00000000000E+00 -0.45593999997E+02  0.45594000000E+02  0.51100000000E-03 0.  1.
         23    2    1    2    0    0  0.00000000000E+00 -0.88817841970E-15  0.00000000000E+00  0.91188000000E+02  0.91188000000E+02 0.  0.
    9900012    2    3    3    0    0  0.27518479805E+02 -0.78743803165E+01  0.23162646545E+02  0.54367071289E+02  0.39999970617E+02 0.  0.
        -12    1    3    3    0    0 -0.27518479805E+02  0.78743803165E+01 -0.23162646545E+02  0.36820928711E+02  0.00000000000E+00 0.  1.
         11    1    4    4    0    0  0.55291641256E+01  0.60657594482E+00  0.66017833652E+01  0.86326782730E+01  0.51100000000E-03 0. -1.
        -11    1    4    4    0    0  0.21579369726E+02 -0.85269130274E+01 -0.53564398043E+01  0.23813208335E+02  0.51100000000E-03 0.  1.
        -12    1    4    4    0    0  0.40994595337E+00  0.45956766081E-01  0.21917302984E+02  0.21921184681E+02  0.00000000000E+00 0.  1.
</event>
<event>
 8    1  0.1248739E-006  0.9118800E+02  0.7816164E-02  0.1184000E+00
        -11   -1    0    0    0    0  0.00000000000E+00  0.00000000000E+00  0.45593999997E+02  0.45594000000E+02  0.51100000000E-03 0. -1.
         11   -1    0    0    0    0 -0.00000000000E+00 -0.00000000000E+00 -0.45593999997E+02  0.45594000000E+02  0.51100000000E-03 0.  1.
         23    2    1    2    0    0  0.35527136788E-14  0.00000000000E+00  0.00000000000E+00  0.91188000000E+02  0.91188000000E+02 0.  0.
    9900012    2    3    3    0    0  0.16026064681E+02  0.88424190635E+01  0.31949277728E+02  0.54367089210E+02  0.40000011471E+02 0.  0.
        -12    1    3    3    0    0 -0.16026064681E+02 -0.88424190635E+01 -0.31949277728E+02  0.36820910790E+02  0.00000000000E+00 0.  1.
         11    1    4    4    0    0  0.88976915951E+01  0.10823519803E+02  0.91484033088E+01  0.16733522642E+02  0.51100000000E-03 0. -1.
        -11    1    4    4    0    0  0.30151664208E+01 -0.13344825672E+02  0.21492797623E+02  0.25477754035E+02  0.51100000000E-03 0.  1.
        -12    1    4    4    0    0  0.41132066654E+01  0.11363724933E+02  0.13080767966E+01  0.12155812532E+02  0.00000000000E+00 0.  1.
</event>
<event>
 8    1  0.1248739E-006  0.9118800E+02  0.7816164E-02  0.1184000E+00
        -11   -1    0    0    0    0  0.00000000000E+00  0.00000000000E+00  0.45593999997E+02  0.45594000000E+02  0.51100000000E-03 0. -1.
         11   -1    0    0    0    0 -0.00000000000E+00 -0.00000000000E+00 -0.45593999997E+02  0.45594000000E+02  0.51100000000E-03 0.  1.
         23    2    1    2    0    0  0.35527136788E-14  0.00000000000E+00  0.10658141036E-13  0.91188000000E+02  0.91188000000E+02 0.  0.
    9900012    2    3    3    0    0 -0.27032059756E+02  0.72126118651E+01 -0.23937966627E+02  0.54367078355E+02  0.39999986726E+02 0.  0.
         12    1    3    3    0    0  0.27032059756E+02 -0.72126118651E+01  0.23937966627E+02  0.36820921645E+02  0.00000000000E+00 0. -1.
         11    1    4    4    0    0 -0.14457978261E+02  0.13332386804E+02  0.42329410573E+00  0.19671422202E+02  0.51100000000E-03 0. -1.
        -11    1    4    4    0    0 -0.16158401074E+02 -0.30755066072E+01 -0.25024715461E+02  0.29946436355E+02  0.51100000000E-03 0.  1.
         12    1    4    4    0    0  0.35843195789E+01 -0.30442683320E+01  0.66345472887E+00  0.47492197989E+01  0.00000000000E+00 0. -1.
</event>
<event>
 8    1  0.1248739E-006  0.9118800E+02  0.7816164E-02  0.1184000E+00
        -11   -1    0    0    0    0  0.00000000000E+00  0.00000000000E+00  0.45593999997E+02  0.45594000000E+02  0.51100000000E-03 0.  1.
         11   -1    0    0    0    0 -0.00000000000E+00 -0.00000000000E+00 -0.45593999997E+02  0.45594000000E+02  0.51100000000E-03 0. -1.
         23    2    1    2    0    0 -0.26645352591E-14 -0.35527136788E-14  0.00000000000E+00  0.91188000000E+02  0.91188000000E+02 0.  0.
    9900012    2    3    3    0    0  0.74105087187E+01  0.29917489809E+02 -0.20144584687E+02  0.54367134609E+02  0.40000114968E+02 0.  0.
        -12    1    3    3    0    0 -0.74105087187E+01 -0.29917489809E+02  0.20144584687E+02  0.36820865391E+02  0.00000000000E+00 0.  1.
         11    1    4    4    0    0 -0.14110714188E+02  0.10914992639E+02 -0.60843499609E+01  0.18848571137E+02  0.51100000000E-03 0. -1.
        -11    1    4    4    0    0  0.23957106721E+02  0.17055778563E+02 -0.13464234691E+02  0.32343904540E+02  0.51100000000E-03 0.  1.
        -12    1    4    4    0    0 -0.24358838141E+01  0.19467186067E+01 -0.59600003465E+00  0.31746589314E+01  0.00000000000E+00 0.  1.
</event>
<event>
 8    1  0.1248739E-006  0.9118800E+02  0.7816164E-02  0.1184000E+00
        -11   -1    0    0    0    0  0.00000000000E+00  0.00000000000E+00  0.45593999997E+02  0.45594000000E+02  0.51100000000E-03 0.  1.
         11   -1    0    0    0    0 -0.00000000000E+00 -0.00000000000E+00 -0.45593999997E+02  0.45594000000E+02  0.51100000000E-03 0. -1.
         23    2    1    2    0    0  0.71054273576E-14  0.00000000000E+00 -0.35527136788E-14  0.91188000000E+02  0.91188000000E+02 0.  0.
    9900012    2    3    3    0    0 -0.29207437248E+02 -0.16265008092E+02  0.15432193290E+02  0.54367116407E+02  0.40000073474E+02 0.  0.
         12    1    3    3    0    0  0.29207437248E+02  0.16265008092E+02 -0.15432193290E+02  0.36820883593E+02  0.00000000000E+00 0. -1.
         11    1    4    4    0    0 -0.20366049646E+01 -0.37685559686E+01  0.26282679689E+01  0.50256906638E+01  0.51100000000E-03 0. -1.
        -11    1    4    4    0    0 -0.13564438829E+02 -0.19861603578E+02  0.20914042087E+02  0.31872785478E+02  0.51100000000E-03 0.  1.
         12    1    4    4    0    0 -0.13606393454E+02  0.73651514550E+01 -0.81101167658E+01  0.17468640266E+02  0.00000000000E+00 0. -1.
</event>
<event>
 8    1  0.1248739E-006  0.9118800E+02  0.7816164E-02  0.1184000E+00
        -11   -1    0    0    0    0  0.00000000000E+00  0.00000000000E+00  0.45593999997E+02  0.45594000000E+02  0.51100000000E-03 0. -1.
         11   -1    0    0    0    0 -0.00000000000E+00 -0.00000000000E+00 -0.45593999997E+02  0.45594000000E+02  0.51100000000E-03 0.  1.
         23    2    1    2    0    0 -0.66613381478E-15  0.00000000000E+00  0.26645352591E-14  0.91188000000E+02  0.91188000000E+02 0.  0.
    9900012    2    3    3    0    0 -0.16899954530E+01  0.36490661742E+02  0.46210391708E+01  0.54367102645E+02  0.40000042099E+02 0.  0.
        -12    1    3    3    0    0  0.16899954530E+01 -0.36490661742E+02 -0.46210391708E+01  0.36820897355E+02  0.00000000000E+00 0.  1.
         11    1    4    4    0    0  0.14400546394E+01  0.89436271162E+01  0.12976468193E+02  0.15825642179E+02  0.51100000000E-03 0. -1.
        -11    1    4    4    0    0  0.66140713667E+01  0.23533273306E+02 -0.12204214960E+02  0.27322220913E+02  0.51100000000E-03 0.  1.
        -12    1    4    4    0    0 -0.97441214591E+01  0.40137613199E+01  0.38487859383E+01  0.11219239553E+02  0.00000000000E+00 0.  1.
</event>
<event>
 8    1  0.1248739E-006  0.9118800E+02  0.7816164E-02  0.1184000E+00
        -11   -1    0    0    0    0  0.00000000000E+00  0.00000000000E+00  0.45593999997E+02  0.45594000000E+02  0.51100000000E-03 0.  1.
         11   -1    0    0    0    0 -0.00000000000E+00 -0.00000000000E+00 -0.45593999997E+02  0.45594000000E+02  0.51100000000E-03 0. -1.
         23    2    1    2    0    0  0.00000000000E+00  0.35527136788E-14  0.00000000000E+00  0.91188000000E+02  0.91188000000E+02 0.  0.
    9900012    2    3    3    0    0  0.18983277643E+02  0.26729442915E+02  0.16761678229E+02  0.54367057512E+02  0.39999939210E+02 0.  0.
         12    1    3    3    0    0 -0.18983277643E+02 -0.26729442915E+02 -0.16761678229E+02  0.36820942488E+02  0.00000000000E+00 0. -1.
         11    1    4    4    0    0  0.60659681941E+01 -0.42631740160E+01  0.21990778514E-01  0.74142502438E+01  0.51100000000E-03 0. -1.
        -11    1    4    4    0    0  0.19457647801E+02  0.30177369824E+02  0.18119039582E+02  0.40219066413E+02  0.51100000000E-03 0.  1.
         12    1    4    4    0    0 -0.65403383521E+01  0.81524710703E+00 -0.13793521315E+01  0.67337408555E+01  0.00000000000E+00 0. -1.
</event>
<event>
 8    1  0.1248739E-006  0.9118800E+02  0.7816164E-02  0.1184000E+00
        -11   -1    0    0    0    0  0.00000000000E+00  0.00000000000E+00  0.45593999997E+02  0.45594000000E+02  0.51100000000E-03 0. -1.
         11   -1    0    0    0    0 -0.00000000000E+00 -0.00000000000E+00 -0.45593999997E+02  0.45594000000E+02  0.51100000000E-03 0.  1.
         23    2    1    2    0    0  0.35527136788E-14  0.17763568394E-14  0.00000000000E+00  0.91188000000E+02  0.91188000000E+02 0.  0.
    9900012    2    3    3    0    0  0.26393689330E+02 -0.58995930834E+01  0.24986960843E+02  0.54367078676E+02  0.39999987458E+02 0.  0.
        -12    1    3    3    0    0 -0.26393689330E+02  0.58995930834E+01 -0.24986960843E+02  0.36820921324E+02  0.00000000000E+00 0.  1.
         11    1    4    4    0    0 -0.13932220408E+01  0.67786200181E+01  0.70948384310E+01  0.99109782377E+01  0.51100000000E-03 0. -1.
        -11    1    4    4    0    0 -0.25738696542E+01  0.48252527837E+01  0.10278618659E+01  0.55645637475E+01  0.51100000000E-03 0.  1.
         12    1    4    4    0    0  0.30360781025E+02 -0.17503465885E+02  0.16864260546E+02  0.38891536691E+02  0.00000000000E+00 0. -1.
</event>
<event>
 8    1  0.1248739E-006  0.9118800E+02  0.7816164E-02  0.1184000E+00
        -11   -1    0    0    0    0  0.00000000000E+00  0.00000000000E+00  0.45593999997E+02  0.45594000000E+02  0.51100000000E-03 0.  1.
         11   -1    0    0    0    0 -0.00000000000E+00 -0.00000000000E+00 -0.45593999997E+02  0.45594000000E+02  0.51100000000E-03 0. -1.
         23    2    1    2    0    0  0.00000000000E+00  0.71054273576E-14 -0.44408920985E-15  0.91188000000E+02  0.91188000000E+02 0.  0.
    9900012    2    3    3    0    0 -0.32960079368E+02 -0.16232601871E+02  0.24315079561E+01  0.54367130559E+02  0.40000105734E+02 0.  0.
        -12    1    3    3    0    0  0.32960079368E+02  0.16232601871E+02 -0.24315079561E+01  0.36820869441E+02  0.00000000000E+00 0.  1.
         11    1    4    4    0    0  0.63785646344E+01  0.11434629697E+01  0.86034000067E+00  0.65371078877E+01  0.51100000000E-03 0. -1.
        -11    1    4    4    0    0 -0.79778634509E+00  0.37202232496E+01 -0.53734522230E+00  0.38425595933E+01  0.51100000000E-03 0.  1.
         12    1    4    4    0    0 -0.38540857658E+02 -0.21096288091E+02  0.21085131777E+01  0.43987463078E+02  0.00000000000E+00 0. -1.
</event>
<event>
 8    1  0.1248739E-006  0.9118800E+02  0.7816164E-02  0.1184000E+00
        -11   -1    0    0    0    0  0.00000000000E+00  0.00000000000E+00  0.45593999997E+02  0.45594000000E+02  0.51100000000E-03 0.  1.
         11   -1    0    0    0    0 -0.00000000000E+00 -0.00000000000E+00 -0.45593999997E+02  0.45594000000E+02  0.51100000000E-03 0. -1.
         23    2    1    2    0    0 -0.17763568394E-14  0.88817841970E-15 -0.71054273576E-14  0.91188000000E+02  0.91188000000E+02 0.  0.
    9900012    2    3    3    0    0  0.13725544326E+02 -0.25424402961E+01  0.34072352536E+02  0.54367085059E+02  0.40000002010E+02 0.  0.
         12    1    3    3    0    0 -0.13725544326E+02  0.25424402961E+01 -0.34072352536E+02  0.36820914941E+02  0.00000000000E+00 0. -1.
         11    1    4    4    0    0  0.11052668820E+02  0.94577010123E+01  0.14141359728E+01  0.14615381531E+02  0.51100000000E-03 0. -1.
        -11    1    4    4    0    0  0.64389299476E+00  0.46548543046E+01  0.13451517853E+02  0.14248705190E+02  0.51100000000E-03 0.  1.
         12    1    4    4    0    0  0.20289825119E+01 -0.16654995613E+02  0.19206698710E+02  0.25502998338E+02  0.00000000000E+00 0. -1.
</event>
<event>
 8    1  0.1248739E-006  0.9118800E+02  0.7816164E-02  0.1184000E+00
        -11   -1    0    0    0    0  0.00000000000E+00  0.00000000000E+00  0.45593999997E+02  0.45594000000E+02  0.51100000000E-03 0.  1.
         11   -1    0    0    0    0 -0.00000000000E+00 -0.00000000000E+00 -0.45593999997E+02  0.45594000000E+02  0.51100000000E-03 0. -1.
         23    2    1    2    0    0  0.00000000000E+00 -0.35527136788E-14  0.00000000000E+00  0.91188000000E+02  0.91188000000E+02 0.  0.
    9900012    2    3    3    0    0 -0.13344437285E+02  0.86446813193E+01 -0.33211065766E+02  0.54367090032E+02  0.40000013345E+02 0.  0.
        -12    1    3    3    0    0  0.13344437285E+02 -0.86446813193E+01  0.33211065766E+02  0.36820909968E+02  0.00000000000E+00 0.  1.
         11    1    4    4    0    0  0.17702357476E+01  0.76547111604E+01  0.45629493849E+00  0.78699773115E+01  0.51100000000E-03 0. -1.
        -11    1    4    4    0    0 -0.78559686352E+01 -0.13636407433E+02 -0.16896255608E+02  0.23090069396E+02  0.51100000000E-03 0.  1.
        -12    1    4    4    0    0 -0.72587043979E+01  0.14626377592E+02 -0.16771105096E+02  0.23407043324E+02  0.00000000000E+00 0.  1.
</event>
<event>
 8    1  0.1248739E-006  0.9118800E+02  0.7816164E-02  0.1184000E+00
        -11   -1    0    0    0    0  0.00000000000E+00  0.00000000000E+00  0.45593999997E+02  0.45594000000E+02  0.51100000000E-03 0. -1.
         11   -1    0    0    0    0 -0.00000000000E+00 -0.00000000000E+00 -0.45593999997E+02  0.45594000000E+02  0.51100000000E-03 0.  1.
         23    2    1    2    0    0  0.00000000000E+00  0.00000000000E+00  0.35527136788E-14  0.91188000000E+02  0.91188000000E+02 0.  0.
    9900012    2    3    3    0    0  0.12200438044E+02 -0.23879943977E+02  0.25232459812E+02  0.54367089623E+02  0.40000012413E+02 0.  0.
        -12    1    3    3    0    0 -0.12200438044E+02  0.23879943977E+02 -0.25232459812E+02  0.36820910377E+02  0.00000000000E+00 0.  1.
         11    1    4    4    0    0  0.52212471590E+01  0.55249420508E+01 -0.33416832381E+01  0.83038095887E+01  0.51100000000E-03 0. -1.
        -11    1    4    4    0    0  0.49471702370E+01  0.18162979590E+00  0.10163692573E+00  0.49515465324E+01  0.51100000000E-03 0.  1.
         12    1    4    4    0    0  0.20320206482E+01 -0.29586515824E+02  0.28472506125E+02  0.41111733502E+02  0.00000000000E+00 0. -1.
</event>
<event>
 8    1  0.1248739E-006  0.9118800E+02  0.7816164E-02  0.1184000E+00
        -11   -1    0    0    0    0  0.00000000000E+00  0.00000000000E+00  0.45593999997E+02  0.45594000000E+02  0.51100000000E-03 0.  1.
         11   -1    0    0    0    0 -0.00000000000E+00 -0.00000000000E+00 -0.45593999997E+02  0.45594000000E+02  0.51100000000E-03 0. -1.
         23    2    1    2    0    0  0.35527136788E-14  0.00000000000E+00  0.35527136788E-14  0.91188000000E+02  0.91188000000E+02 0.  0.
    9900012    2    3    3    0    0 -0.27668409658E+02 -0.11279134052E+02 -0.21517909441E+02  0.54367079524E+02  0.39999989391E+02 0.  0.
        -12    1    3    3    0    0  0.27668409658E+02  0.11279134052E+02  0.21517909441E+02  0.36820920476E+02  0.00000000000E+00 0.  1.
         11    1    4    4    0    0 -0.67005658148E+01 -0.40606089121E+01 -0.15959212116E+02  0.17778711387E+02  0.51100000000E-03 0. -1.
        -11    1    4    4    0    0 -0.16180781791E+02 -0.12347039478E+01  0.10128702766E+02  0.19129370434E+02  0.51100000000E-03 0.  1.
        -12    1    4    4    0    0 -0.47870620523E+01 -0.59838211925E+01 -0.15687400092E+02  0.17458997703E+02  0.00000000000E+00 0.  1.
</event>
<event>
 8    1  0.1248739E-006  0.9118800E+02  0.7816164E-02  0.1184000E+00
        -11   -1    0    0    0    0  0.00000000000E+00  0.00000000000E+00  0.45593999997E+02  0.45594000000E+02  0.51100000000E-03 0. -1.
         11   -1    0    0    0    0 -0.00000000000E+00 -0.00000000000E+00 -0.45593999997E+02  0.45594000000E+02  0.51100000000E-03 0.  1.
         23    2    1    2    0    0  0.22204460493E-15  0.00000000000E+00  0.00000000000E+00  0.91188000000E+02  0.91188000000E+02 0.  0.
    9900012    2    3    3    0    0 -0.18171371779E+01 -0.23575377735E+02 -0.28225501070E+02  0.54367091082E+02  0.40000015741E+02 0.  0.
         12    1    3    3    0    0  0.18171371779E+01  0.23575377735E+02  0.28225501070E+02  0.36820908918E+02  0.00000000000E+00 0. -1.
         11    1    4    4    0    0  0.13447522051E+01 -0.15933640906E+02 -0.54894536941E+01  0.16906311636E+02  0.51100000000E-03 0. -1.
        -11    1    4    4    0    0 -0.11940491663E+02 -0.97312424870E+01 -0.23825674974E+02  0.28371380117E+02  0.51100000000E-03 0.  1.
         12    1    4    4    0    0  0.87786022796E+01  0.20895056576E+01  0.10896275985E+01  0.90893993300E+01  0.00000000000E+00 0. -1.
</event>
<event>
 8    1  0.1248739E-006  0.9118800E+02  0.7816164E-02  0.1184000E+00
        -11   -1    0    0    0    0  0.00000000000E+00  0.00000000000E+00  0.45593999997E+02  0.45594000000E+02  0.51100000000E-03 0.  1.
         11   -1    0    0    0    0 -0.00000000000E+00 -0.00000000000E+00 -0.45593999997E+02  0.45594000000E+02  0.51100000000E-03 0. -1.
         23    2    1    2    0    0  0.00000000000E+00  0.00000000000E+00 -0.35527136788E-14  0.91188000000E+02  0.91188000000E+02 0.  0.
    9900012    2    3    3    0    0  0.55588124279E+01  0.31752983500E+02  0.17794007897E+02  0.54367094609E+02  0.40000023780E+02 0.  0.
         12    1    3    3    0    0 -0.55588124279E+01 -0.31752983500E+02 -0.17794007897E+02  0.36820905391E+02  0.00000000000E+00 0. -1.
         11    1    4    4    0    0 -0.48358302483E+01  0.13527946994E+01  0.15528417351E+01  0.52561036334E+01  0.51100000000E-03 0.  1.
        -11    1    4    4    0    0  0.23596181843E+00 -0.68413454466E+01 -0.84324878285E+00  0.68971555202E+01  0.51100000000E-03 0. -1.
        -12    1    4    4    0    0  0.10158680858E+02  0.37241534247E+02  0.17084414944E+02  0.42213835456E+02  0.00000000000E+00 0.  1.
</event>
<event>
 8    1  0.1248739E-006  0.9118800E+02  0.7816164E-02  0.1184000E+00
        -11   -1    0    0    0    0  0.00000000000E+00  0.00000000000E+00  0.45593999997E+02  0.45594000000E+02  0.51100000000E-03 0.  1.
         11   -1    0    0    0    0 -0.00000000000E+00 -0.00000000000E+00 -0.45593999997E+02  0.45594000000E+02  0.51100000000E-03 0. -1.
         23    2    1    2    0    0  0.35527136788E-14 -0.35527136788E-14  0.00000000000E+00  0.91188000000E+02  0.91188000000E+02 0.  0.
    9900012    2    3    3    0    0  0.13509837157E+02 -0.30651648468E+02 -0.15288579360E+02  0.54367083218E+02  0.39999997813E+02 0.  0.
         12    1    3    3    0    0 -0.13509837157E+02  0.30651648468E+02  0.15288579360E+02  0.36820916782E+02  0.00000000000E+00 0. -1.
         11    1    4    4    0    0 -0.43655344638E+01  0.19018474982E+00 -0.73496876273E+01  0.85505537758E+01  0.51100000000E-03 0. -1.
        -11    1    4    4    0    0  0.48474239570E+01  0.47649170963E+01  0.97700433641E+00  0.68670584451E+01  0.51100000000E-03 0.  1.
         12    1    4    4    0    0  0.13027947664E+02 -0.35606750314E+02 -0.89158960693E+01  0.38949470997E+02  0.00000000000E+00 0. -1.
</event>
<event>
 8    1  0.1248739E-006  0.9118800E+02  0.7816164E-02  0.1184000E+00
        -11   -1    0    0    0    0  0.00000000000E+00  0.00000000000E+00  0.45593999997E+02  0.45594000000E+02  0.51100000000E-03 0.  1.
         11   -1    0    0    0    0 -0.00000000000E+00 -0.00000000000E+00 -0.45593999997E+02  0.45594000000E+02  0.51100000000E-03 0. -1.
         23    2    1    2    0    0  0.00000000000E+00  0.00000000000E+00 -0.35527136788E-14  0.91188000000E+02  0.91188000000E+02 0.  0.
    9900012    2    3    3    0    0 -0.85365622171E+01  0.29269268653E+02 -0.20645026759E+02  0.54367080513E+02  0.39999991646E+02 0.  0.
        -12    1    3    3    0    0  0.85365622171E+01 -0.29269268653E+02  0.20645026759E+02  0.36820919487E+02  0.00000000000E+00 0.  1.
         11    1    4    4    0    0  0.12013176505E+01  0.28835563598E+02 -0.83923169240E+01  0.30056012306E+02  0.51100000000E-03 0. -1.
        -11    1    4    4    0    0 -0.31317657216E+01 -0.21561458166E+01  0.46339559322E+01  0.59942029628E+01  0.51100000000E-03 0.  1.
         12    1    4    4    0    0 -0.66061141460E+01  0.25898508715E+01 -0.16886665767E+02  0.18316865244E+02  0.00000000000E+00 0. -1.
</event>
<event>
 8    1  0.1248739E-006  0.9118800E+02  0.7816164E-02  0.1184000E+00
        -11   -1    0    0    0    0  0.00000000000E+00  0.00000000000E+00  0.45593999997E+02  0.45594000000E+02  0.51100000000E-03 0.  1.
         11   -1    0    0    0    0 -0.00000000000E+00 -0.00000000000E+00 -0.45593999997E+02  0.45594000000E+02  0.51100000000E-03 0. -1.
         23    2    1    2    0    0  0.00000000000E+00  0.00000000000E+00  0.00000000000E+00  0.91188000000E+02  0.91188000000E+02 0.  0.
    9900012    2    3    3    0    0  0.26296864022E+02  0.14390820028E+02  0.21381306931E+02  0.54367067848E+02  0.39999962772E+02 0.  0.
         12    1    3    3    0    0 -0.26296864022E+02 -0.14390820028E+02 -0.21381306931E+02  0.36820932152E+02  0.00000000000E+00 0. -1.
         11    1    4    4    0    0  0.12297470404E+02 -0.59284759701E+01  0.13659283784E+02  0.19311929976E+02  0.51100000000E-03 0. -1.
        -11    1    4    4    0    0 -0.37895796828E+01  0.15222122415E+02  0.33326292093E+01  0.16036843290E+02  0.51100000000E-03 0.  1.
        -12    1    4    4    0    0  0.17788973301E+02  0.50971735822E+01  0.43893939383E+01  0.19018294582E+02  0.00000000000E+00 0.  1.
</event>
<event>
 8    1  0.1248739E-006  0.9118800E+02  0.7816164E-02  0.1184000E+00
        -11   -1    0    0    0    0  0.00000000000E+00  0.00000000000E+00  0.45593999997E+02  0.45594000000E+02  0.51100000000E-03 0.  1.
         11   -1    0    0    0    0 -0.00000000000E+00 -0.00000000000E+00 -0.45593999997E+02  0.45594000000E+02  0.51100000000E-03 0. -1.
         23    2    1    2    0    0 -0.35527136788E-14 -0.44408920985E-15  0.00000000000E+00  0.91188000000E+02  0.91188000000E+02 0.  0.
    9900012    2    3    3    0    0  0.27473482691E+02  0.24721262378E+01  0.24390093407E+02  0.54367077745E+02  0.39999985335E+02 0.  0.
         12    1    3    3    0    0 -0.27473482691E+02 -0.24721262378E+01 -0.24390093407E+02  0.36820922255E+02  0.00000000000E+00 0. -1.
         11    1    4    4    0    0  0.61088199496E+01  0.35146110837E+01  0.18461808791E+01  0.72855031635E+01  0.51100000000E-03 0. -1.
        -11    1    4    4    0    0  0.19217891571E+02  0.12919322314E+02  0.23411284802E+02  0.32929082918E+02  0.51100000000E-03 0.  1.
         12    1    4    4    0    0  0.21467711705E+01 -0.13961807160E+02 -0.86737227370E+00  0.14152491663E+02  0.00000000000E+00 0. -1.
</event>
<event>
 8    1  0.1248739E-006  0.9118800E+02  0.7816164E-02  0.1184000E+00
        -11   -1    0    0    0    0  0.00000000000E+00  0.00000000000E+00  0.45593999997E+02  0.45594000000E+02  0.51100000000E-03 0.  1.
         11   -1    0    0    0    0 -0.00000000000E+00 -0.00000000000E+00 -0.45593999997E+02  0.45594000000E+02  0.51100000000E-03 0. -1.
         23    2    1    2    0    0  0.35527136788E-14  0.00000000000E+00  0.00000000000E+00  0.91188000000E+02  0.91188000000E+02 0.  0.
    9900012    2    3    3    0    0  0.23319146699E+02  0.22783268353E+02  0.17114903495E+02  0.54367084188E+02  0.40000000023E+02 0.  0.
         12    1    3    3    0    0 -0.23319146699E+02 -0.22783268353E+02 -0.17114903495E+02  0.36820915812E+02  0.00000000000E+00 0. -1.
         11    1    4    4    0    0  0.79315842250E+01  0.23071305334E+01 -0.54680275072E+01  0.99061700318E+01  0.51100000000E-03 0. -1.
        -11    1    4    4    0    0 -0.45658534663E+01 -0.43353306599E+01  0.22660485999E+01  0.66915683008E+01  0.51100000000E-03 0.  1.
        -12    1    4    4    0    0  0.19953415940E+02  0.24811468479E+02  0.20316882402E+02  0.37769345855E+02  0.00000000000E+00 0.  1.
</event>
<event>
 8    1  0.1248739E-006  0.9118800E+02  0.7816164E-02  0.1184000E+00
        -11   -1    0    0    0    0  0.00000000000E+00  0.00000000000E+00  0.45593999997E+02  0.45594000000E+02  0.51100000000E-03 0.  1.
         11   -1    0    0    0    0 -0.00000000000E+00 -0.00000000000E+00 -0.45593999997E+02  0.45594000000E+02  0.51100000000E-03 0. -1.
         23    2    1    2    0    0  0.35527136788E-14  0.35527136788E-14  0.71054273576E-14  0.91188000000E+02  0.91188000000E+02 0.  0.
    9900012    2    3    3    0    0 -0.18579375750E+02 -0.19217801080E+02 -0.25323177070E+02  0.54367076892E+02  0.39999983390E+02 0.  0.
        -12    1    3    3    0    0  0.18579375750E+02  0.19217801080E+02  0.25323177070E+02  0.36820923108E+02  0.00000000000E+00 0.  1.
         11    1    4    4    0    0  0.25023066286E+01 -0.63466123126E+01 -0.25699097822E+02  0.26589183053E+02  0.51100000000E-03 0.  1.
        -11    1    4    4    0    0 -0.70860754370E+01 -0.11701485484E+02 -0.65684018126E+00  0.13695571069E+02  0.51100000000E-03 0. -1.
        -12    1    4    4    0    0 -0.13995606942E+02 -0.11697032836E+01  0.10327609327E+01  0.14082322770E+02  0.00000000000E+00 0.  1.
</event>
<event>
 8    1  0.1248739E-006  0.9118800E+02  0.7816164E-02  0.1184000E+00
        -11   -1    0    0    0    0  0.00000000000E+00  0.00000000000E+00  0.45593999997E+02  0.45594000000E+02  0.51100000000E-03 0. -1.
         11   -1    0    0    0    0 -0.00000000000E+00 -0.00000000000E+00 -0.45593999997E+02  0.45594000000E+02  0.51100000000E-03 0.  1.
         23    2    1    2    0    0  0.35527136788E-14  0.35527136788E-14 -0.17763568394E-14  0.91188000000E+02  0.91188000000E+02 0.  0.
    9900012    2    3    3    0    0 -0.15763385824E+02  0.29772446181E+02  0.14862599368E+02  0.54367085505E+02  0.40000003026E+02 0.  0.
        -12    1    3    3    0    0  0.15763385824E+02 -0.29772446181E+02 -0.14862599368E+02  0.36820914495E+02  0.00000000000E+00 0.  1.
         11    1    4    4    0    0 -0.15311439591E+01  0.26352201516E+02  0.74563716601E+01  0.27429553499E+02  0.51100000000E-03 0. -1.
        -11    1    4    4    0    0 -0.11190817975E+01  0.16184870345E+01 -0.70602738080E+01  0.73293458681E+01  0.51100000000E-03 0.  1.
        -12    1    4    4    0    0 -0.13113160068E+02  0.18017576313E+01  0.14466501516E+02  0.19608186138E+02  0.00000000000E+00 0.  1.
</event>
<event>
 8    1  0.1248739E-006  0.9118800E+02  0.7816164E-02  0.1184000E+00
        -11   -1    0    0    0    0  0.00000000000E+00  0.00000000000E+00  0.45593999997E+02  0.45594000000E+02  0.51100000000E-03 0.  1.
         11   -1    0    0    0    0 -0.00000000000E+00 -0.00000000000E+00 -0.45593999997E+02  0.45594000000E+02  0.51100000000E-03 0. -1.
         23    2    1    2    0    0 -0.71054273576E-14 -0.17763568394E-14  0.88817841970E-15  0.91188000000E+02  0.91188000000E+02 0.  0.
    9900012    2    3    3    0    0 -0.33978770027E+02 -0.13606589929E+02  0.40106791537E+01  0.54367059635E+02  0.39999944051E+02 0.  0.
        -12    1    3    3    0    0  0.33978770027E+02  0.13606589929E+02 -0.40106791537E+01  0.36820940365E+02  0.00000000000E+00 0.  1.
         11    1    4    4    0    0 -0.64100836723E+01  0.53653709107E+01 -0.71333633432E+01  0.10989142393E+02  0.51100000000E-03 0. -1.
        -11    1    4    4    0    0 -0.14048020732E+02  0.45691556264E+01  0.41288267226E+01  0.15338555342E+02  0.51100000000E-03 0.  1.
         12    1    4    4    0    0 -0.13520665623E+02 -0.23541116466E+02  0.70152157742E+01  0.28039361899E+02  0.00000000000E+00 0. -1.
</event>
<event>
 8    1  0.1248739E-006  0.9118800E+02  0.7816164E-02  0.1184000E+00
        -11   -1    0    0    0    0  0.00000000000E+00  0.00000000000E+00  0.45593999997E+02  0.45594000000E+02  0.51100000000E-03 0.  1.
         11   -1    0    0    0    0 -0.00000000000E+00 -0.00000000000E+00 -0.45593999997E+02  0.45594000000E+02  0.51100000000E-03 0. -1.
         23    2    1    2    0    0 -0.35527136788E-14 -0.17763568394E-14  0.00000000000E+00  0.91188000000E+02  0.91188000000E+02 0.  0.
    9900012    2    3    3    0    0 -0.21824578613E+02 -0.73206048642E+01 -0.28738067777E+02  0.54367081669E+02  0.39999994280E+02 0.  0.
        -12    1    3    3    0    0  0.21824578613E+02  0.73206048642E+01  0.28738067777E+02  0.36820918331E+02  0.00000000000E+00 0.  1.
         11    1    4    4    0    0 -0.19844538139E+02 -0.16928835922E+02 -0.79310155385E+01  0.27263385471E+02  0.51100000000E-03 0. -1.
        -11    1    4    4    0    0 -0.62577514435E+01 -0.32717795845E+00 -0.53614000196E+01  0.82468848044E+01  0.51100000000E-03 0.  1.
        -12    1    4    4    0    0  0.42777109693E+01  0.99354090161E+01 -0.15445652219E+02  0.18856811393E+02  0.00000000000E+00 0.  1.
</event>
<event>
 8    1  0.1248739E-006  0.9118800E+02  0.7816164E-02  0.1184000E+00
        -11   -1    0    0    0    0  0.00000000000E+00  0.00000000000E+00  0.45593999997E+02  0.45594000000E+02  0.51100000000E-03 0. -1.
         11   -1    0    0    0    0 -0.00000000000E+00 -0.00000000000E+00 -0.45593999997E+02  0.45594000000E+02  0.51100000000E-03 0.  1.
         23    2    1    2    0    0  0.00000000000E+00  0.35527136788E-14 -0.35527136788E-14  0.91188000000E+02  0.91188000000E+02 0.  0.
    9900012    2    3    3    0    0  0.86686211163E+01 -0.19853661557E+02  0.29773564051E+02  0.54367109387E+02  0.40000057469E+02 0.  0.
        -12    1    3    3    0    0 -0.86686211163E+01  0.19853661557E+02 -0.29773564051E+02  0.36820890613E+02  0.00000000000E+00 0.  1.
         11    1    4    4    0    0  0.63503169177E+01 -0.88332160416E+01  0.53672960400E+01  0.12130956171E+02  0.51100000000E-03 0. -1.
        -11    1    4    4    0    0  0.13500019897E+02 -0.16018513970E+02  0.96650351805E+01  0.23070679060E+02  0.51100000000E-03 0.  1.
        -12    1    4    4    0    0 -0.11181715698E+02  0.49980684544E+01  0.14741232830E+02  0.19165474155E+02  0.00000000000E+00 0.  1.
</event>
<event>
 8    1  0.1248739E-006  0.9118800E+02  0.7816164E-02  0.1184000E+00
        -11   -1    0    0    0    0  0.00000000000E+00  0.00000000000E+00  0.45593999997E+02  0.45594000000E+02  0.51100000000E-03 0.  1.
         11   -1    0    0    0    0 -0.00000000000E+00 -0.00000000000E+00 -0.45593999997E+02  0.45594000000E+02  0.51100000000E-03 0. -1.
         23    2    1    2    0    0 -0.44408920985E-15  0.88817841970E-15  0.71054273576E-14  0.91188000000E+02  0.91188000000E+02 0.  0.
    9900012    2    3    3    0    0  0.31945487283E+01  0.56836822888E+01  0.36239148538E+02  0.54367010433E+02  0.39999831883E+02 0.  0.
         12    1    3    3    0    0 -0.31945487283E+01 -0.56836822888E+01 -0.36239148538E+02  0.36820989567E+02  0.00000000000E+00 0. -1.
         11    1    4    4    0    0  0.80085498956E+01  0.10185890879E+02  0.55831465982E+01  0.14108889773E+02  0.51100000000E-03 0. -1.
        -11    1    4    4    0    0 -0.13922695494E+02 -0.31981090292E+00  0.95298111856E+01  0.16874863861E+02  0.51100000000E-03 0.  1.
        -12    1    4    4    0    0  0.91086943264E+01 -0.41823976873E+01  0.21126190754E+02  0.23383256799E+02  0.00000000000E+00 0.  1.
</event>
<event>
 8    1  0.1248739E-006  0.9118800E+02  0.7816164E-02  0.1184000E+00
        -11   -1    0    0    0    0  0.00000000000E+00  0.00000000000E+00  0.45593999997E+02  0.45594000000E+02  0.51100000000E-03 0. -1.
         11   -1    0    0    0    0 -0.00000000000E+00 -0.00000000000E+00 -0.45593999997E+02  0.45594000000E+02  0.51100000000E-03 0.  1.
         23    2    1    2    0    0 -0.35527136788E-14  0.00000000000E+00 -0.88817841970E-15  0.91188000000E+02  0.91188000000E+02 0.  0.
    9900012    2    3    3    0    0  0.19947360498E+02 -0.30226944192E+02  0.66494940823E+01  0.54367066857E+02  0.39999960514E+02 0.  0.
        -12    1    3    3    0    0 -0.19947360498E+02  0.30226944192E+02 -0.66494940823E+01  0.36820933143E+02  0.00000000000E+00 0.  1.
         11    1    4    4    0    0  0.98380098302E+00  0.81939558356E+01  0.35065544828E+01  0.89668668560E+01  0.51100000000E-03 0. -1.
        -11    1    4    4    0    0  0.10407364549E+02 -0.13569477193E+02 -0.51162974929E+01  0.17849942534E+02  0.51100000000E-03 0.  1.
         12    1    4    4    0    0  0.85561949651E+01 -0.24851422834E+02  0.82592370924E+01  0.27550257467E+02  0.00000000000E+00 0. -1.
</event>
<event>
 8    1  0.1248739E-006  0.9118800E+02  0.7816164E-02  0.1184000E+00
        -11   -1    0    0    0    0  0.00000000000E+00  0.00000000000E+00  0.45593999997E+02  0.45594000000E+02  0.51100000000E-03 0. -1.
         11   -1    0    0    0    0 -0.00000000000E+00 -0.00000000000E+00 -0.45593999997E+02  0.45594000000E+02  0.51100000000E-03 0.  1.
         23    2    1    2    0    0  0.00000000000E+00 -0.17763568394E-14  0.35527136788E-14  0.91188000000E+02  0.91188000000E+02 0.  0.
    9900012    2    3    3    0    0  0.17444426767E+02  0.15341913451E+02  0.28567253626E+02  0.54367213571E+02  0.40000294976E+02 0.  0.
        -12    1    3    3    0    0 -0.17444426767E+02 -0.15341913451E+02 -0.28567253626E+02  0.36820786429E+02  0.00000000000E+00 0.  1.
         11    1    4    4    0    0 -0.63992236963E+01  0.14930634287E+02  0.13017942851E+02  0.20816837907E+02  0.51100000000E-03 0. -1.
        -11    1    4    4    0    0  0.84855031719E+01  0.45643012566E+01  0.14753059217E+02  0.17620708458E+02  0.51100000000E-03 0.  1.
        -12    1    4    4    0    0  0.15358147291E+02 -0.41530220926E+01  0.79625155768E+00  0.15929667205E+02  0.00000000000E+00 0.  1.
</event>
<event>
 8    1  0.1248739E-006  0.9118800E+02  0.7816164E-02  0.1184000E+00
        -11   -1    0    0    0    0  0.00000000000E+00  0.00000000000E+00  0.45593999997E+02  0.45594000000E+02  0.51100000000E-03 0.  1.
         11   -1    0    0    0    0 -0.00000000000E+00 -0.00000000000E+00 -0.45593999997E+02  0.45594000000E+02  0.51100000000E-03 0. -1.
         23    2    1    2    0    0 -0.44408920985E-15  0.00000000000E+00  0.00000000000E+00  0.91188000000E+02  0.91188000000E+02 0.  0.
    9900012    2    3    3    0    0 -0.86438602321E+00  0.36658039849E+02  0.33477940646E+01  0.54367261633E+02  0.40000404543E+02 0.  0.
         12    1    3    3    0    0  0.86438602321E+00 -0.36658039849E+02 -0.33477940646E+01  0.36820738367E+02  0.00000000000E+00 0. -1.
         11    1    4    4    0    0  0.15798065168E+02  0.30088683920E+02  0.11707060178E+01  0.34004092635E+02  0.51100000000E-03 0. -1.
        -11    1    4    4    0    0 -0.61985051183E+01 -0.13323224071E+01  0.33996963739E+01  0.71940589651E+01  0.51100000000E-03 0.  1.
         12    1    4    4    0    0 -0.10463946073E+02  0.79016783364E+01 -0.12226083271E+01  0.13169110033E+02  0.00000000000E+00 0. -1.
</event>
<event>
 8    1  0.1248739E-006  0.9118800E+02  0.7816164E-02  0.1184000E+00
        -11   -1    0    0    0    0  0.00000000000E+00  0.00000000000E+00  0.45593999997E+02  0.45594000000E+02  0.51100000000E-03 0. -1.
         11   -1    0    0    0    0 -0.00000000000E+00 -0.00000000000E+00 -0.45593999997E+02  0.45594000000E+02  0.51100000000E-03 0.  1.
         23    2    1    2    0    0 -0.88817841970E-15  0.00000000000E+00  0.00000000000E+00  0.91188000000E+02  0.91188000000E+02 0.  0.
    9900012    2    3    3    0    0  0.79256151855E+01 -0.17967222270E+02 -0.31147119098E+02  0.54367089090E+02  0.40000011198E+02 0.  0.
         12    1    3    3    0    0 -0.79256151855E+01  0.17967222270E+02  0.31147119098E+02  0.36820910910E+02  0.00000000000E+00 0. -1.
         11    1    4    4    0    0  0.61557642154E+01 -0.47369134910E+01 -0.79092853141E+01  0.11085512029E+02  0.51100000000E-03 0. -1.
        -11    1    4    4    0    0 -0.11395719508E+02 -0.15021235747E+02 -0.30295113915E+01  0.19096541206E+02  0.51100000000E-03 0.  1.
         12    1    4    4    0    0  0.13165570478E+02  0.17909269685E+01 -0.20208322392E+02  0.24185035855E+02  0.00000000000E+00 0. -1.
</event>
<event>
 8    1  0.1248739E-006  0.9118800E+02  0.7816164E-02  0.1184000E+00
        -11   -1    0    0    0    0  0.00000000000E+00  0.00000000000E+00  0.45593999997E+02  0.45594000000E+02  0.51100000000E-03 0.  1.
         11   -1    0    0    0    0 -0.00000000000E+00 -0.00000000000E+00 -0.45593999997E+02  0.45594000000E+02  0.51100000000E-03 0. -1.
         23    2    1    2    0    0 -0.17763568394E-14  0.00000000000E+00 -0.35527136788E-14  0.91188000000E+02  0.91188000000E+02 0.  0.
    9900012    2    3    3    0    0  0.10479574291E+02 -0.31058180563E+02  0.16773457085E+02  0.54367069543E+02  0.39999966636E+02 0.  0.
        -12    1    3    3    0    0 -0.10479574291E+02  0.31058180563E+02 -0.16773457085E+02  0.36820930457E+02  0.00000000000E+00 0.  1.
         11    1    4    4    0    0  0.59013843260E+01 -0.11338175357E+02 -0.81405915376E+01  0.15154200350E+02  0.51100000000E-03 0. -1.
        -11    1    4    4    0    0 -0.25136290753E+01  0.44102702853E+01  0.50887030321E+01  0.71877474863E+01  0.51100000000E-03 0.  1.
         12    1    4    4    0    0  0.70918190402E+01 -0.24130275491E+02  0.19825345590E+02  0.32025121707E+02  0.00000000000E+00 0. -1.
</event>
<event>
 8    1  0.1248739E-006  0.9118800E+02  0.7816164E-02  0.1184000E+00
        -11   -1    0    0    0    0  0.00000000000E+00  0.00000000000E+00  0.45593999997E+02  0.45594000000E+02  0.51100000000E-03 0.  1.
         11   -1    0    0    0    0 -0.00000000000E+00 -0.00000000000E+00 -0.45593999997E+02  0.45594000000E+02  0.51100000000E-03 0. -1.
         23    2    1    2    0    0 -0.71054273576E-14 -0.17763568394E-14  0.00000000000E+00  0.91188000000E+02  0.91188000000E+02 0.  0.
    9900012    2    3    3    0    0  0.33599868029E+02  0.11864236899E+02  0.92772175393E+01  0.54367109000E+02  0.40000056587E+02 0.  0.
         12    1    3    3    0    0 -0.33599868029E+02 -0.11864236899E+02 -0.92772175393E+01  0.36820891000E+02  0.00000000000E+00 0. -1.
         11    1    4    4    0    0  0.33101206238E+02  0.78712277823E+01  0.67784597680E+01  0.34692846501E+02  0.51100000000E-03 0. -1.
        -11    1    4    4    0    0  0.32280938238E+01 -0.42209362400E+01 -0.56713175287E+01  0.77717909937E+01  0.51100000000E-03 0.  1.
        -12    1    4    4    0    0 -0.27294320330E+01  0.82139453563E+01  0.81700753001E+01  0.11902471506E+02  0.00000000000E+00 0.  1.
</event>
<event>
 8    1  0.1248739E-006  0.9118800E+02  0.7816164E-02  0.1184000E+00
        -11   -1    0    0    0    0  0.00000000000E+00  0.00000000000E+00  0.45593999997E+02  0.45594000000E+02  0.51100000000E-03 0. -1.
         11   -1    0    0    0    0 -0.00000000000E+00 -0.00000000000E+00 -0.45593999997E+02  0.45594000000E+02  0.51100000000E-03 0.  1.
         23    2    1    2    0    0  0.00000000000E+00  0.44408920985E-15 -0.35527136788E-14  0.91188000000E+02  0.91188000000E+02 0.  0.
    9900012    2    3    3    0    0  0.20734516246E+02  0.28602663279E+01  0.30293220675E+02  0.54367075158E+02  0.39999979437E+02 0.  0.
        -12    1    3    3    0    0 -0.20734516246E+02 -0.28602663279E+01 -0.30293220675E+02  0.36820924842E+02  0.00000000000E+00 0.  1.
         11    1    4    4    0    0 -0.43846139256E+01  0.19580949353E+00  0.21286263771E+02  0.21734033363E+02  0.51100000000E-03 0.  1.
        -11    1    4    4    0    0  0.14265289489E+02  0.10723456203E+02  0.52146294041E+01  0.18592561879E+02  0.51100000000E-03 0. -1.
        -12    1    4    4    0    0  0.10853840683E+02 -0.80589993691E+01  0.37923274999E+01  0.14040479916E+02  0.00000000000E+00 0.  1.
</event>
<event>
 8    1  0.1248739E-006  0.9118800E+02  0.7816164E-02  0.1184000E+00
        -11   -1    0    0    0    0  0.00000000000E+00  0.00000000000E+00  0.45593999997E+02  0.45594000000E+02  0.51100000000E-03 0. -1.
         11   -1    0    0    0    0 -0.00000000000E+00 -0.00000000000E+00 -0.45593999997E+02  0.45594000000E+02  0.51100000000E-03 0.  1.
         23    2    1    2    0    0 -0.17763568394E-14 -0.17763568394E-14  0.00000000000E+00  0.91188000000E+02  0.91188000000E+02 0.  0.
    9900012    2    3    3    0    0  0.15897951379E+02  0.53496767112E+01  0.32778269150E+02  0.54367097955E+02  0.40000031408E+02 0.  0.
        -12    1    3    3    0    0 -0.15897951379E+02 -0.53496767112E+01 -0.32778269150E+02  0.36820902045E+02  0.00000000000E+00 0.  1.
         11    1    4    4    0    0 -0.87827816814E+01  0.18341103418E+01  0.12888315458E+02  0.15703817702E+02  0.51100000000E-03 0. -1.
        -11    1    4    4    0    0  0.16084892895E+02 -0.54258438223E+01  0.22858147689E+01  0.17128587509E+02  0.51100000000E-03 0.  1.
         12    1    4    4    0    0  0.85958401647E+01  0.89414101916E+01  0.17604138923E+02  0.21534692744E+02  0.00000000000E+00 0. -1.
</event>
<event>
 8    1  0.1248739E-006  0.9118800E+02  0.7816164E-02  0.1184000E+00
        -11   -1    0    0    0    0  0.00000000000E+00  0.00000000000E+00  0.45593999997E+02  0.45594000000E+02  0.51100000000E-03 0. -1.
         11   -1    0    0    0    0 -0.00000000000E+00 -0.00000000000E+00 -0.45593999997E+02  0.45594000000E+02  0.51100000000E-03 0.  1.
         23    2    1    2    0    0  0.00000000000E+00  0.00000000000E+00  0.00000000000E+00  0.91188000000E+02  0.91188000000E+02 0.  0.
    9900012    2    3    3    0    0  0.16839552344E+02  0.14213751763E+02  0.29498795960E+02  0.54367078971E+02  0.39999988131E+02 0.  0.
        -12    1    3    3    0    0 -0.16839552344E+02 -0.14213751763E+02 -0.29498795960E+02  0.36820921029E+02  0.00000000000E+00 0.  1.
         11    1    4    4    0    0  0.10703532305E+02  0.24794788890E+02  0.20002607415E+02  0.33607312650E+02  0.51100000000E-03 0. -1.
        -11    1    4    4    0    0 -0.11112706067E+01 -0.17557878754E+01 -0.31163172323E+01  0.37455502638E+01  0.51100000000E-03 0.  1.
         12    1    4    4    0    0  0.72472906457E+01 -0.88252492518E+01  0.12612505778E+02  0.17014216058E+02  0.00000000000E+00 0. -1.
</event>
<event>
 8    1  0.1248739E-006  0.9118800E+02  0.7816164E-02  0.1184000E+00
        -11   -1    0    0    0    0  0.00000000000E+00  0.00000000000E+00  0.45593999997E+02  0.45594000000E+02  0.51100000000E-03 0. -1.
         11   -1    0    0    0    0 -0.00000000000E+00 -0.00000000000E+00 -0.45593999997E+02  0.45594000000E+02  0.51100000000E-03 0.  1.
         23    2    1    2    0    0 -0.35527136788E-14  0.17763568394E-14  0.35527136788E-14  0.91188000000E+02  0.91188000000E+02 0.  0.
    9900012    2    3    3    0    0 -0.29373200912E+02  0.10429759676E+02  0.19601378179E+02  0.54367097713E+02  0.40000030857E+02 0.  0.
        -12    1    3    3    0    0  0.29373200912E+02 -0.10429759676E+02 -0.19601378179E+02  0.36820902287E+02  0.00000000000E+00 0.  1.
         11    1    4    4    0    0 -0.26332914313E+02  0.13581363968E+02  0.47275975765E+01  0.30003766473E+02  0.51100000000E-03 0. -1.
        -11    1    4    4    0    0 -0.69060964060E+01  0.61234700098E+01  0.65987244739E+01  0.11346110235E+02  0.51100000000E-03 0.  1.
         12    1    4    4    0    0  0.38658098073E+01 -0.92750743019E+01  0.82750561283E+01  0.13017221005E+02  0.00000000000E+00 0. -1.
</event>
<event>
 8    1  0.1248739E-006  0.9118800E+02  0.7816164E-02  0.1184000E+00
        -11   -1    0    0    0    0  0.00000000000E+00  0.00000000000E+00  0.45593999997E+02  0.45594000000E+02  0.51100000000E-03 0. -1.
         11   -1    0    0    0    0 -0.00000000000E+00 -0.00000000000E+00 -0.45593999997E+02  0.45594000000E+02  0.51100000000E-03 0.  1.
         23    2    1    2    0    0  0.00000000000E+00  0.00000000000E+00 -0.17763568394E-14  0.91188000000E+02  0.91188000000E+02 0.  0.
    9900012    2    3    3    0    0 -0.14243460025E+02  0.30838638835E+02  0.14208505851E+02  0.54367089674E+02  0.40000012531E+02 0.  0.
        -12    1    3    3    0    0  0.14243460025E+02 -0.30838638835E+02 -0.14208505851E+02  0.36820910326E+02  0.00000000000E+00 0.  1.
         11    1    4    4    0    0 -0.71110792408E+01  0.13330059291E+02  0.24947595330E+02  0.29165740890E+02  0.51100000000E-03 0. -1.
        -11    1    4    4    0    0 -0.48664639471E+01  0.10594316760E+02  0.66087275309E+00  0.11677275881E+02  0.51100000000E-03 0.  1.
         12    1    4    4    0    0 -0.22659168368E+01  0.69142627854E+01 -0.11399962233E+02  0.13524072903E+02  0.00000000000E+00 0. -1.
</event>
<event>
 8    1  0.1248739E-006  0.9118800E+02  0.7816164E-02  0.1184000E+00
        -11   -1    0    0    0    0  0.00000000000E+00  0.00000000000E+00  0.45593999997E+02  0.45594000000E+02  0.51100000000E-03 0.  1.
         11   -1    0    0    0    0 -0.00000000000E+00 -0.00000000000E+00 -0.45593999997E+02  0.45594000000E+02  0.51100000000E-03 0. -1.
         23    2    1    2    0    0  0.00000000000E+00 -0.35527136788E-14  0.00000000000E+00  0.91188000000E+02  0.91188000000E+02 0.  0.
    9900012    2    3    3    0    0  0.17549971758E+02 -0.30594312462E+02 -0.10571976195E+02  0.54367080072E+02  0.39999990639E+02 0.  0.
        -12    1    3    3    0    0 -0.17549971758E+02  0.30594312462E+02  0.10571976195E+02  0.36820919928E+02  0.00000000000E+00 0.  1.
         11    1    4    4    0    0  0.16156833338E+02 -0.19434034286E+02  0.46850845393E+01  0.25703598377E+02  0.51100000000E-03 0. -1.
        -11    1    4    4    0    0 -0.32903985676E+01 -0.12330063069E+02 -0.18767038263E+02  0.22694909197E+02  0.51100000000E-03 0.  1.
        -12    1    4    4    0    0  0.46835369875E+01  0.11697848930E+01  0.35099775286E+01  0.59685724977E+01  0.00000000000E+00 0.  1.
</event>
<event>
 8    1  0.1248739E-006  0.9118800E+02  0.7816164E-02  0.1184000E+00
        -11   -1    0    0    0    0  0.00000000000E+00  0.00000000000E+00  0.45593999997E+02  0.45594000000E+02  0.51100000000E-03 0.  1.
         11   -1    0    0    0    0 -0.00000000000E+00 -0.00000000000E+00 -0.45593999997E+02  0.45594000000E+02  0.51100000000E-03 0. -1.
         23    2    1    2    0    0  0.00000000000E+00  0.88817841970E-15  0.88817841970E-15  0.91188000000E+02  0.91188000000E+02 0.  0.
    9900012    2    3    3    0    0 -0.36309320301E+02 -0.29666321320E+01  0.53487281152E+01  0.54367129025E+02  0.40000102238E+02 0.  0.
        -12    1    3    3    0    0  0.36309320301E+02  0.29666321320E+01 -0.53487281152E+01  0.36820870975E+02  0.00000000000E+00 0.  1.
         11    1    4    4    0    0  0.54969201516E+00  0.40168660102E+01  0.44167841674E+01  0.59954446456E+01  0.51100000000E-03 0. -1.
        -11    1    4    4    0    0 -0.10878112231E+02 -0.12259554367E+02 -0.10538293503E+02  0.19485523580E+02  0.51100000000E-03 0.  1.
         12    1    4    4    0    0 -0.25980900085E+02  0.52760562248E+01  0.11470237451E+02  0.28886160799E+02  0.00000000000E+00 0. -1.
</event>
<event>
 8    1  0.1248739E-006  0.9118800E+02  0.7816164E-02  0.1184000E+00
        -11   -1    0    0    0    0  0.00000000000E+00  0.00000000000E+00  0.45593999997E+02  0.45594000000E+02  0.51100000000E-03 0.  1.
         11   -1    0    0    0    0 -0.00000000000E+00 -0.00000000000E+00 -0.45593999997E+02  0.45594000000E+02  0.51100000000E-03 0. -1.
         23    2    1    2    0    0  0.00000000000E+00  0.00000000000E+00 -0.17763568394E-14  0.91188000000E+02  0.91188000000E+02 0.  0.
    9900012    2    3    3    0    0  0.17766579942E+02  0.31203275599E+02  0.81537540888E+01  0.54367089138E+02  0.40000011308E+02 0.  0.
         12    1    3    3    0    0 -0.17766579942E+02 -0.31203275599E+02 -0.81537540888E+01  0.36820910862E+02  0.00000000000E+00 0. -1.
         11    1    4    4    0    0  0.87540342291E+00  0.33093194126E+00 -0.56361073312E+01  0.57132786745E+01  0.51100000000E-03 0. -1.
        -11    1    4    4    0    0  0.77483241701E+01  0.33036651792E+02  0.25855582011E+01  0.34031485430E+02  0.51100000000E-03 0.  1.
         12    1    4    4    0    0  0.91428523494E+01 -0.21643081342E+01  0.11204303219E+02  0.14622325034E+02  0.00000000000E+00 0. -1.
</event>
<event>
 8    1  0.1248739E-006  0.9118800E+02  0.7816164E-02  0.1184000E+00
        -11   -1    0    0    0    0  0.00000000000E+00  0.00000000000E+00  0.45593999997E+02  0.45594000000E+02  0.51100000000E-03 0.  1.
         11   -1    0    0    0    0 -0.00000000000E+00 -0.00000000000E+00 -0.45593999997E+02  0.45594000000E+02  0.51100000000E-03 0. -1.
         23    2    1    2    0    0  0.00000000000E+00  0.00000000000E+00  0.00000000000E+00  0.91188000000E+02  0.91188000000E+02 0.  0.
    9900012    2    3    3    0    0  0.35726623928E+02 -0.27480687775E+01 -0.84754909585E+01  0.54367116167E+02  0.40000072925E+02 0.  0.
        -12    1    3    3    0    0 -0.35726623928E+02  0.27480687775E+01  0.84754909585E+01  0.36820883833E+02  0.00000000000E+00 0.  1.
         11    1    4    4    0    0  0.22324254198E+02  0.61074751541E+01 -0.10641084667E+02  0.25473638559E+02  0.51100000000E-03 0. -1.
        -11    1    4    4    0    0  0.19484455992E+01 -0.10692136909E+01 -0.10131368456E+02  0.10372284475E+02  0.51100000000E-03 0.  1.
         12    1    4    4    0    0  0.11453924130E+02 -0.77863302407E+01  0.12296962165E+02  0.18521193133E+02  0.00000000000E+00 0. -1.
</event>
<event>
 8    1  0.1248739E-006  0.9118800E+02  0.7816164E-02  0.1184000E+00
        -11   -1    0    0    0    0  0.00000000000E+00  0.00000000000E+00  0.45593999997E+02  0.45594000000E+02  0.51100000000E-03 0. -1.
         11   -1    0    0    0    0 -0.00000000000E+00 -0.00000000000E+00 -0.45593999997E+02  0.45594000000E+02  0.51100000000E-03 0.  1.
         23    2    1    2    0    0  0.00000000000E+00  0.00000000000E+00  0.17763568394E-14  0.91188000000E+02  0.91188000000E+02 0.  0.
    9900012    2    3    3    0    0 -0.34586347214E+02  0.32425442779E+01 -0.12208602892E+02  0.54367088936E+02  0.40000010848E+02 0.  0.
         12    1    3    3    0    0  0.34586347214E+02 -0.32425442779E+01  0.12208602892E+02  0.36820911064E+02  0.00000000000E+00 0. -1.
         11    1    4    4    0    0 -0.10089546208E+02  0.17243606655E+02  0.15477864241E+01  0.20038377085E+02  0.51100000000E-03 0. -1.
        -11    1    4    4    0    0 -0.36566118074E+01 -0.68665443744E+01  0.95847386304E+00  0.78382978996E+01  0.51100000000E-03 0.  1.
         12    1    4    4    0    0 -0.20840189198E+02 -0.71345180022E+01 -0.14714863179E+02  0.26490413951E+02  0.00000000000E+00 0. -1.
</event>
<event>
 8    1  0.1248739E-006  0.9118800E+02  0.7816164E-02  0.1184000E+00
        -11   -1    0    0    0    0  0.00000000000E+00  0.00000000000E+00  0.45593999997E+02  0.45594000000E+02  0.51100000000E-03 0. -1.
         11   -1    0    0    0    0 -0.00000000000E+00 -0.00000000000E+00 -0.45593999997E+02  0.45594000000E+02  0.51100000000E-03 0.  1.
         23    2    1    2    0    0 -0.71054273576E-14 -0.17763568394E-14  0.00000000000E+00  0.91188000000E+02  0.91188000000E+02 0.  0.
    9900012    2    3    3    0    0  0.33827729911E+02  0.81482490871E+01  0.12044522319E+02  0.54367084857E+02  0.40000001547E+02 0.  0.
        -12    1    3    3    0    0 -0.33827729911E+02 -0.81482490871E+01 -0.12044522319E+02  0.36820915143E+02  0.00000000000E+00 0.  1.
         11    1    4    4    0    0 -0.27356416562E+00 -0.18243311363E+01  0.87070384945E+01  0.89003112897E+01  0.51100000000E-03 0. -1.
        -11    1    4    4    0    0  0.26568541404E+02  0.38930427151E-01  0.13109272651E+02  0.29626709868E+02  0.51100000000E-03 0.  1.
        -12    1    4    4    0    0  0.75327526724E+01  0.99336497962E+01 -0.97717888268E+01  0.15840063699E+02  0.00000000000E+00 0.  1.
</event>
<event>
 8    1  0.1248739E-006  0.9118800E+02  0.7816164E-02  0.1184000E+00
        -11   -1    0    0    0    0  0.00000000000E+00  0.00000000000E+00  0.45593999997E+02  0.45594000000E+02  0.51100000000E-03 0.  1.
         11   -1    0    0    0    0 -0.00000000000E+00 -0.00000000000E+00 -0.45593999997E+02  0.45594000000E+02  0.51100000000E-03 0. -1.
         23    2    1    2    0    0  0.00000000000E+00  0.17763568394E-14  0.00000000000E+00  0.91188000000E+02  0.91188000000E+02 0.  0.
    9900012    2    3    3    0    0 -0.20176993867E+02  0.88502489869E+01 -0.29501412163E+02  0.54367200059E+02  0.40000264175E+02 0.  0.
        -12    1    3    3    0    0  0.20176993867E+02 -0.88502489869E+01  0.29501412163E+02  0.36820799941E+02  0.00000000000E+00 0.  1.
         11    1    4    4    0    0 -0.15679865429E+02 -0.65718091374E+01 -0.78834477411E+01  0.18740213546E+02  0.51100000000E-03 0. -1.
        -11    1    4    4    0    0  0.65411993971E+01  0.14051148366E+02 -0.63793137474E+01  0.16760599754E+02  0.51100000000E-03 0.  1.
         12    1    4    4    0    0 -0.11038327835E+02  0.13709097580E+01 -0.15238650675E+02  0.18866386759E+02  0.00000000000E+00 0. -1.
</event>
<event>
 8    1  0.1248739E-006  0.9118800E+02  0.7816164E-02  0.1184000E+00
        -11   -1    0    0    0    0  0.00000000000E+00  0.00000000000E+00  0.45593999997E+02  0.45594000000E+02  0.51100000000E-03 0. -1.
         11   -1    0    0    0    0 -0.00000000000E+00 -0.00000000000E+00 -0.45593999997E+02  0.45594000000E+02  0.51100000000E-03 0.  1.
         23    2    1    2    0    0  0.00000000000E+00  0.88817841970E-15  0.00000000000E+00  0.91188000000E+02  0.91188000000E+02 0.  0.
    9900012    2    3    3    0    0  0.18761687203E+02  0.50555392422E+01  0.31276519958E+02  0.54367080886E+02  0.39999992496E+02 0.  0.
        -12    1    3    3    0    0 -0.18761687203E+02 -0.50555392422E+01 -0.31276519958E+02  0.36820919114E+02  0.00000000000E+00 0.  1.
         11    1    4    4    0    0  0.15565706155E+02 -0.50402458013E+01  0.22849835080E+02  0.28103562928E+02  0.51100000000E-03 0.  1.
        -11    1    4    4    0    0  0.29495568684E+01  0.27284189019E+01  0.15521079866E+02  0.16032718918E+02  0.51100000000E-03 0. -1.
        -12    1    4    4    0    0  0.24642418043E+00  0.73673661416E+01 -0.70943949884E+01  0.10230799040E+02  0.00000000000E+00 0.  1.
</event>
<event>
 8    1  0.1248739E-006  0.9118800E+02  0.7816164E-02  0.1184000E+00
        -11   -1    0    0    0    0  0.00000000000E+00  0.00000000000E+00  0.45593999997E+02  0.45594000000E+02  0.51100000000E-03 0. -1.
         11   -1    0    0    0    0 -0.00000000000E+00 -0.00000000000E+00 -0.45593999997E+02  0.45594000000E+02  0.51100000000E-03 0.  1.
         23    2    1    2    0    0  0.00000000000E+00  0.00000000000E+00  0.00000000000E+00  0.91188000000E+02  0.91188000000E+02 0.  0.
    9900012    2    3    3    0    0  0.26256726394E+01  0.81789015380E+01 -0.35804909734E+02  0.54367080019E+02  0.39999990519E+02 0.  0.
         12    1    3    3    0    0 -0.26256726394E+01 -0.81789015380E+01  0.35804909734E+02  0.36820919981E+02  0.00000000000E+00 0. -1.
         11    1    4    4    0    0  0.12487415667E+02  0.73727437700E+01 -0.21567099888E+01  0.14660978786E+02  0.51100000000E-03 0. -1.
        -11    1    4    4    0    0 -0.40120039153E+01  0.96624902816E+01 -0.17089362688E+02  0.20037619898E+02  0.51100000000E-03 0.  1.
         12    1    4    4    0    0 -0.58497391124E+01 -0.88563325136E+01 -0.16558837058E+02  0.19668481334E+02  0.00000000000E+00 0. -1.
</event>
<event>
 8    1  0.1248739E-006  0.9118800E+02  0.7816164E-02  0.1184000E+00
        -11   -1    0    0    0    0  0.00000000000E+00  0.00000000000E+00  0.45593999997E+02  0.45594000000E+02  0.51100000000E-03 0. -1.
         11   -1    0    0    0    0 -0.00000000000E+00 -0.00000000000E+00 -0.45593999997E+02  0.45594000000E+02  0.51100000000E-03 0.  1.
         23    2    1    2    0    0  0.17763568394E-14 -0.35527136788E-14 -0.35527136788E-14  0.91188000000E+02  0.91188000000E+02 0.  0.
    9900012    2    3    3    0    0 -0.92921137567E+01  0.22186878206E+02 -0.27877934670E+02  0.54367079532E+02  0.39999989409E+02 0.  0.
         12    1    3    3    0    0  0.92921137567E+01 -0.22186878206E+02  0.27877934670E+02  0.36820920468E+02  0.00000000000E+00 0. -1.
         11    1    4    4    0    0  0.90955906383E+01  0.14711441874E+02 -0.21256322711E+01  0.17426261902E+02  0.51100000000E-03 0. -1.
        -11    1    4    4    0    0 -0.10436323230E+02  0.13081026604E+02 -0.17004937752E+02  0.23857870982E+02  0.51100000000E-03 0.  1.
         12    1    4    4    0    0 -0.79513811651E+01 -0.56055902715E+01 -0.87473646469E+01  0.13082946648E+02  0.00000000000E+00 0. -1.
</event>
<event>
 8    1  0.1248739E-006  0.9118800E+02  0.7816164E-02  0.1184000E+00
        -11   -1    0    0    0    0  0.00000000000E+00  0.00000000000E+00  0.45593999997E+02  0.45594000000E+02  0.51100000000E-03 0.  1.
         11   -1    0    0    0    0 -0.00000000000E+00 -0.00000000000E+00 -0.45593999997E+02  0.45594000000E+02  0.51100000000E-03 0. -1.
         23    2    1    2    0    0  0.00000000000E+00  0.00000000000E+00 -0.35527136788E-14  0.91188000000E+02  0.91188000000E+02 0.  0.
    9900012    2    3    3    0    0  0.98058720837E+01 -0.17195726418E+02  0.31047248413E+02  0.54367085177E+02  0.40000002279E+02 0.  0.
         12    1    3    3    0    0 -0.98058720837E+01  0.17195726418E+02 -0.31047248413E+02  0.36820914823E+02  0.00000000000E+00 0. -1.
         11    1    4    4    0    0  0.97122291311E+01 -0.19167728635E+02  0.61738506577E+01  0.22357228092E+02  0.51100000000E-03 0. -1.
        -11    1    4    4    0    0 -0.96088089978E+01  0.36916495858E+01  0.12854764314E+02  0.16468225553E+02  0.51100000000E-03 0.  1.
        -12    1    4    4    0    0  0.97024519504E+01 -0.17196473688E+01  0.12018633441E+02  0.15541631533E+02  0.00000000000E+00 0.  1.
</event>
<event>
 8    1  0.1248739E-006  0.9118800E+02  0.7816164E-02  0.1184000E+00
        -11   -1    0    0    0    0  0.00000000000E+00  0.00000000000E+00  0.45593999997E+02  0.45594000000E+02  0.51100000000E-03 0.  1.
         11   -1    0    0    0    0 -0.00000000000E+00 -0.00000000000E+00 -0.45593999997E+02  0.45594000000E+02  0.51100000000E-03 0. -1.
         23    2    1    2    0    0  0.88817841970E-15  0.88817841970E-15 -0.71054273576E-14  0.91188000000E+02  0.91188000000E+02 0.  0.
    9900012    2    3    3    0    0 -0.32138188491E+01  0.29002540769E+00 -0.36679272254E+02  0.54367058141E+02  0.39999940644E+02 0.  0.
        -12    1    3    3    0    0  0.32138188491E+01 -0.29002540769E+00  0.36679272254E+02  0.36820941859E+02  0.00000000000E+00 0.  1.
         11    1    4    4    0    0  0.43729243171E+01  0.75782847866E+01  0.28808625277E-01  0.87494969906E+01  0.51100000000E-03 0. -1.
        -11    1    4    4    0    0  0.65827130401E+01  0.11745300670E+01 -0.16777094895E+01  0.68939351055E+01  0.51100000000E-03 0.  1.
         12    1    4    4    0    0 -0.14169456206E+02 -0.84627894459E+01 -0.35030371389E+02  0.38723626045E+02  0.00000000000E+00 0. -1.
</event>
<event>
 8    1  0.1248739E-006  0.9118800E+02  0.7816164E-02  0.1184000E+00
        -11   -1    0    0    0    0  0.00000000000E+00  0.00000000000E+00  0.45593999997E+02  0.45594000000E+02  0.51100000000E-03 0.  1.
         11   -1    0    0    0    0 -0.00000000000E+00 -0.00000000000E+00 -0.45593999997E+02  0.45594000000E+02  0.51100000000E-03 0. -1.
         23    2    1    2    0    0 -0.44408920985E-15  0.71054273576E-14  0.00000000000E+00  0.91188000000E+02  0.91188000000E+02 0.  0.
    9900012    2    3    3    0    0 -0.35544415169E+01 -0.33555194120E+02  0.14737537189E+02  0.54367080547E+02  0.39999991724E+02 0.  0.
         12    1    3    3    0    0  0.35544415169E+01  0.33555194120E+02 -0.14737537189E+02  0.36820919453E+02  0.00000000000E+00 0. -1.
         11    1    4    4    0    0 -0.73334445017E+01 -0.10648198486E+02 -0.38168605468E+01  0.13480799826E+02  0.51100000000E-03 0. -1.
        -11    1    4    4    0    0  0.72984687740E+00 -0.27934082172E+02  0.20540010629E+02  0.34680508361E+02  0.51100000000E-03 0.  1.
         12    1    4    4    0    0  0.30491561074E+01  0.50270865380E+01 -0.19856128930E+01  0.62057723603E+01  0.00000000000E+00 0. -1.
</event>
<event>
 8    1  0.1248739E-006  0.9118800E+02  0.7816164E-02  0.1184000E+00
        -11   -1    0    0    0    0  0.00000000000E+00  0.00000000000E+00  0.45593999997E+02  0.45594000000E+02  0.51100000000E-03 0. -1.
         11   -1    0    0    0    0 -0.00000000000E+00 -0.00000000000E+00 -0.45593999997E+02  0.45594000000E+02  0.51100000000E-03 0.  1.
         23    2    1    2    0    0  0.71054273576E-14 -0.26645352591E-14  0.00000000000E+00  0.91188000000E+02  0.91188000000E+02 0.  0.
    9900012    2    3    3    0    0 -0.35118864657E+02  0.72996137082E+01 -0.83163693551E+01  0.54367068258E+02  0.39999963708E+02 0.  0.
        -12    1    3    3    0    0  0.35118864657E+02 -0.72996137082E+01  0.83163693551E+01  0.36820931742E+02  0.00000000000E+00 0.  1.
         11    1    4    4    0    0 -0.15529718747E+02 -0.14710121211E+01 -0.71786962297E+01  0.17171771045E+02  0.51100000000E-03 0. -1.
        -11    1    4    4    0    0 -0.85869823744E+01 -0.36150689096E+01 -0.13585470285E+02  0.16473311527E+02  0.51100000000E-03 0.  1.
         12    1    4    4    0    0 -0.11002163536E+02  0.12385694739E+02  0.12447797160E+02  0.20721985686E+02  0.00000000000E+00 0. -1.
</event>
<event>
 8    1  0.1248739E-006  0.9118800E+02  0.7816164E-02  0.1184000E+00
        -11   -1    0    0    0    0  0.00000000000E+00  0.00000000000E+00  0.45593999997E+02  0.45594000000E+02  0.51100000000E-03 0.  1.
         11   -1    0    0    0    0 -0.00000000000E+00 -0.00000000000E+00 -0.45593999997E+02  0.45594000000E+02  0.51100000000E-03 0. -1.
         23    2    1    2    0    0  0.35527136788E-14 -0.17763568394E-14  0.00000000000E+00  0.91188000000E+02  0.91188000000E+02 0.  0.
    9900012    2    3    3    0    0  0.27150683225E+02 -0.11713817890E+02  0.21940984548E+02  0.54367082954E+02  0.39999997210E+02 0.  0.
         12    1    3    3    0    0 -0.27150683225E+02  0.11713817890E+02 -0.21940984548E+02  0.36820917046E+02  0.00000000000E+00 0. -1.
         11    1    4    4    0    0  0.29233191816E+01 -0.13898100421E+01 -0.89450365990E+01  0.95126782248E+01  0.51100000000E-03 0. -1.
        -11    1    4    4    0    0  0.11250578450E+02 -0.13304232924E+02  0.10011223394E+02  0.20094843200E+02  0.51100000000E-03 0.  1.
        -12    1    4    4    0    0  0.12976785594E+02  0.29802250754E+01  0.20874797754E+02  0.24759561529E+02  0.00000000000E+00 0.  1.
</event>
<event>
 8    1  0.1248739E-006  0.9118800E+02  0.7816164E-02  0.1184000E+00
        -11   -1    0    0    0    0  0.00000000000E+00  0.00000000000E+00  0.45593999997E+02  0.45594000000E+02  0.51100000000E-03 0. -1.
         11   -1    0    0    0    0 -0.00000000000E+00 -0.00000000000E+00 -0.45593999997E+02  0.45594000000E+02  0.51100000000E-03 0.  1.
         23    2    1    2    0    0  0.35527136788E-14  0.00000000000E+00  0.17763568394E-14  0.91188000000E+02  0.91188000000E+02 0.  0.
    9900012    2    3    3    0    0 -0.23764216134E+02 -0.24400048777E+02  0.13988543178E+02  0.54367086255E+02  0.40000004734E+02 0.  0.
        -12    1    3    3    0    0  0.23764216134E+02  0.24400048777E+02 -0.13988543178E+02  0.36820913745E+02  0.00000000000E+00 0.  1.
         11    1    4    4    0    0  0.17350630705E+01  0.71436805248E+00 -0.53222908903E+01  0.56433630182E+01  0.51100000000E-03 0. -1.
        -11    1    4    4    0    0 -0.12605538415E+01 -0.11026516362E+00  0.13329719319E+02  0.13389644199E+02  0.51100000000E-03 0.  1.
         12    1    4    4    0    0 -0.24238725363E+02 -0.25004151666E+02  0.59811147498E+01  0.35334079037E+02  0.00000000000E+00 0. -1.
</event>
<event>
 8    1  0.1248739E-006  0.9118800E+02  0.7816164E-02  0.1184000E+00
        -11   -1    0    0    0    0  0.00000000000E+00  0.00000000000E+00  0.45593999997E+02  0.45594000000E+02  0.51100000000E-03 0. -1.
         11   -1    0    0    0    0 -0.00000000000E+00 -0.00000000000E+00 -0.45593999997E+02  0.45594000000E+02  0.51100000000E-03 0.  1.
         23    2    1    2    0    0  0.35527136788E-14  0.00000000000E+00  0.00000000000E+00  0.91188000000E+02  0.91188000000E+02 0.  0.
    9900012    2    3    3    0    0  0.21256944625E+02 -0.20701552899E+02 -0.21802932560E+02  0.54367083995E+02  0.39999999584E+02 0.  0.
         12    1    3    3    0    0 -0.21256944625E+02  0.20701552899E+02  0.21802932560E+02  0.36820916005E+02  0.00000000000E+00 0. -1.
         11    1    4    4    0    0  0.44779260186E+00  0.29249736829E+00 -0.31392091628E+01  0.31844477313E+01  0.51100000000E-03 0. -1.
        -11    1    4    4    0    0  0.14757727490E+02  0.81223717864E+01 -0.16620194086E+01  0.16927071598E+02  0.51100000000E-03 0.  1.
         12    1    4    4    0    0  0.60514245329E+01 -0.29116422053E+02 -0.17001703988E+02  0.34255564666E+02  0.00000000000E+00 0. -1.
</event>
<event>
 8    1  0.1248739E-006  0.9118800E+02  0.7816164E-02  0.1184000E+00
        -11   -1    0    0    0    0  0.00000000000E+00  0.00000000000E+00  0.45593999997E+02  0.45594000000E+02  0.51100000000E-03 0.  1.
         11   -1    0    0    0    0 -0.00000000000E+00 -0.00000000000E+00 -0.45593999997E+02  0.45594000000E+02  0.51100000000E-03 0. -1.
         23    2    1    2    0    0  0.35527136788E-14  0.88817841970E-15  0.35527136788E-14  0.91188000000E+02  0.91188000000E+02 0.  0.
    9900012    2    3    3    0    0 -0.22497621820E+02 -0.73389898323E+01 -0.28209491378E+02  0.54367093396E+02  0.40000021016E+02 0.  0.
        -12    1    3    3    0    0  0.22497621820E+02  0.73389898323E+01  0.28209491378E+02  0.36820906604E+02  0.00000000000E+00 0.  1.
         11    1    4    4    0    0 -0.88268739725E+01  0.16773322350E+01 -0.22469074383E+02  0.24198893600E+02  0.51100000000E-03 0.  1.
        -11    1    4    4    0    0  0.36743745194E+01 -0.15148032211E+01 -0.10030841015E+02  0.10789505486E+02  0.51100000000E-03 0. -1.
        -12    1    4    4    0    0 -0.17345122367E+02 -0.75015188462E+01  0.42904240199E+01  0.19378694311E+02  0.00000000000E+00 0.  1.
</event>
<event>
 8    1  0.1248739E-006  0.9118800E+02  0.7816164E-02  0.1184000E+00
        -11   -1    0    0    0    0  0.00000000000E+00  0.00000000000E+00  0.45593999997E+02  0.45594000000E+02  0.51100000000E-03 0.  1.
         11   -1    0    0    0    0 -0.00000000000E+00 -0.00000000000E+00 -0.45593999997E+02  0.45594000000E+02  0.51100000000E-03 0. -1.
         23    2    1    2    0    0  0.22204460493E-15 -0.17763568394E-14  0.00000000000E+00  0.91188000000E+02  0.91188000000E+02 0.  0.
    9900012    2    3    3    0    0 -0.17379453909E+01  0.13220183491E+02  0.34321782635E+02  0.54367102822E+02  0.40000042504E+02 0.  0.
         12    1    3    3    0    0  0.17379453909E+01 -0.13220183491E+02 -0.34321782635E+02  0.36820897178E+02  0.00000000000E+00 0. -1.
         11    1    4    4    0    0  0.29029514597E+01 -0.20790174153E+01  0.59905375562E+01  0.69739501765E+01  0.51100000000E-03 0. -1.
        -11    1    4    4    0    0  0.73783711013E+01  0.85023374748E+01  0.31305857595E+02  0.33268405773E+02  0.51100000000E-03 0.  1.
         12    1    4    4    0    0 -0.12019267952E+02  0.67968634314E+01 -0.29746125161E+01  0.14124746873E+02  0.00000000000E+00 0. -1.
</event>
<event>
 8    1  0.1248739E-006  0.9118800E+02  0.7816164E-02  0.1184000E+00
        -11   -1    0    0    0    0  0.00000000000E+00  0.00000000000E+00  0.45593999997E+02  0.45594000000E+02  0.51100000000E-03 0.  1.
         11   -1    0    0    0    0 -0.00000000000E+00 -0.00000000000E+00 -0.45593999997E+02  0.45594000000E+02  0.51100000000E-03 0. -1.
         23    2    1    2    0    0  0.00000000000E+00 -0.35527136788E-14  0.17763568394E-14  0.91188000000E+02  0.91188000000E+02 0.  0.
    9900012    2    3    3    0    0  0.23814584286E+02 -0.26336546772E+02  0.97483368430E+01  0.54367106586E+02  0.40000051085E+02 0.  0.
         12    1    3    3    0    0 -0.23814584286E+02  0.26336546772E+02 -0.97483368430E+01  0.36820893414E+02  0.00000000000E+00 0. -1.
         11    1    4    4    0    0  0.97494447999E+00 -0.24423384722E+01 -0.75601471336E+01  0.80044586884E+01  0.51100000000E-03 0. -1.
        -11    1    4    4    0    0  0.14539640240E+02 -0.71779626922E+01 -0.52878400688E+01  0.17055366885E+02  0.51100000000E-03 0.  1.
        -12    1    4    4    0    0  0.82999995660E+01 -0.16716245607E+02  0.22596324045E+02  0.29307281013E+02  0.00000000000E+00 0.  1.
</event>
<event>
 8    1  0.1248739E-006  0.9118800E+02  0.7816164E-02  0.1184000E+00
        -11   -1    0    0    0    0  0.00000000000E+00  0.00000000000E+00  0.45593999997E+02  0.45594000000E+02  0.51100000000E-03 0.  1.
         11   -1    0    0    0    0 -0.00000000000E+00 -0.00000000000E+00 -0.45593999997E+02  0.45594000000E+02  0.51100000000E-03 0. -1.
         23    2    1    2    0    0  0.00000000000E+00  0.00000000000E+00  0.00000000000E+00  0.91188000000E+02  0.91188000000E+02 0.  0.
    9900012    2    3    3    0    0 -0.35430616282E+02  0.87376725259E+01  0.49098266482E+01  0.54367056381E+02  0.39999936632E+02 0.  0.
        -12    1    3    3    0    0  0.35430616282E+02 -0.87376725259E+01 -0.49098266482E+01  0.36820943619E+02  0.00000000000E+00 0.  1.
         11    1    4    4    0    0 -0.14394528831E+02 -0.42487776824E+01  0.51544431813E+01  0.15868927401E+02  0.51100000000E-03 0. -1.
        -11    1    4    4    0    0 -0.17759760322E+02  0.15761557456E+02 -0.11549698847E+02  0.26405138209E+02  0.51100000000E-03 0.  1.
        -12    1    4    4    0    0 -0.32763271283E+01 -0.27751072477E+01  0.11305082314E+02  0.12092990772E+02  0.00000000000E+00 0.  1.
</event>
<event>
 8    1  0.1248739E-006  0.9118800E+02  0.7816164E-02  0.1184000E+00
        -11   -1    0    0    0    0  0.00000000000E+00  0.00000000000E+00  0.45593999997E+02  0.45594000000E+02  0.51100000000E-03 0. -1.
         11   -1    0    0    0    0 -0.00000000000E+00 -0.00000000000E+00 -0.45593999997E+02  0.45594000000E+02  0.51100000000E-03 0.  1.
         23    2    1    2    0    0  0.00000000000E+00 -0.17763568394E-14  0.00000000000E+00  0.91188000000E+02  0.91188000000E+02 0.  0.
    9900012    2    3    3    0    0 -0.29650948888E+02  0.87454832227E+01  0.20002914022E+02  0.54367098108E+02  0.40000031757E+02 0.  0.
        -12    1    3    3    0    0  0.29650948888E+02 -0.87454832227E+01 -0.20002914022E+02  0.36820901892E+02  0.00000000000E+00 0.  1.
         11    1    4    4    0    0 -0.75433251497E+01  0.95911817124E+01 -0.46983818790E+01  0.13075446971E+02  0.51100000000E-03 0.  1.
        -11    1    4    4    0    0 -0.76571622729E+01 -0.11386796296E+02  0.48087502671E+01  0.14540128725E+02  0.51100000000E-03 0. -1.
        -12    1    4    4    0    0 -0.14450461466E+02  0.10541097806E+02  0.19892545634E+02  0.26751522411E+02  0.00000000000E+00 0.  1.
</event>
<event>
 8    1  0.1248739E-006  0.9118800E+02  0.7816164E-02  0.1184000E+00
        -11   -1    0    0    0    0  0.00000000000E+00  0.00000000000E+00  0.45593999997E+02  0.45594000000E+02  0.51100000000E-03 0.  1.
         11   -1    0    0    0    0 -0.00000000000E+00 -0.00000000000E+00 -0.45593999997E+02  0.45594000000E+02  0.51100000000E-03 0. -1.
         23    2    1    2    0    0  0.00000000000E+00 -0.35527136788E-14  0.35527136788E-14  0.91188000000E+02  0.91188000000E+02 0.  0.
    9900012    2    3    3    0    0  0.12693681792E+02  0.22159685964E+02  0.26525429925E+02  0.54367086484E+02  0.40000005258E+02 0.  0.
         12    1    3    3    0    0 -0.12693681792E+02 -0.22159685964E+02 -0.26525429925E+02  0.36820913516E+02  0.00000000000E+00 0. -1.
         11    1    4    4    0    0  0.17589570145E+01  0.12548020580E+02  0.53602841877E+01  0.13757884906E+02  0.51100000000E-03 0.  1.
        -11    1    4    4    0    0  0.13755410741E+02  0.18358590647E+02  0.21461290888E+02  0.31413948845E+02  0.51100000000E-03 0. -1.
         12    1    4    4    0    0 -0.28206859636E+01 -0.87469252635E+01 -0.29614515058E+00  0.91952527329E+01  0.00000000000E+00 0. -1.
</event>
<event>
 8    1  0.1248739E-006  0.9118800E+02  0.7816164E-02  0.1184000E+00
        -11   -1    0    0    0    0  0.00000000000E+00  0.00000000000E+00  0.45593999997E+02  0.45594000000E+02  0.51100000000E-03 0.  1.
         11   -1    0    0    0    0 -0.00000000000E+00 -0.00000000000E+00 -0.45593999997E+02  0.45594000000E+02  0.51100000000E-03 0. -1.
         23    2    1    2    0    0  0.11102230246E-14  0.35527136788E-14  0.00000000000E+00  0.91188000000E+02  0.91188000000E+02 0.  0.
    9900012    2    3    3    0    0 -0.13238361834E+01 -0.24678974820E+02 -0.27294270190E+02  0.54367061315E+02  0.39999947880E+02 0.  0.
        -12    1    3    3    0    0  0.13238361834E+01  0.24678974820E+02  0.27294270190E+02  0.36820938685E+02  0.00000000000E+00 0.  1.
         11    1    4    4    0    0  0.10427183023E+02 -0.24739713102E+02 -0.24225101991E+02  0.36161237768E+02  0.51100000000E-03 0. -1.
        -11    1    4    4    0    0 -0.26517230533E+01 -0.51126531077E+01  0.25807284329E+01  0.63111818589E+01  0.51100000000E-03 0.  1.
         12    1    4    4    0    0 -0.90992961530E+01  0.51733913892E+01 -0.56498966318E+01  0.11894641688E+02  0.00000000000E+00 0. -1.
</event>
<event>
 8    1  0.1248739E-006  0.9118800E+02  0.7816164E-02  0.1184000E+00
        -11   -1    0    0    0    0  0.00000000000E+00  0.00000000000E+00  0.45593999997E+02  0.45594000000E+02  0.51100000000E-03 0.  1.
         11   -1    0    0    0    0 -0.00000000000E+00 -0.00000000000E+00 -0.45593999997E+02  0.45594000000E+02  0.51100000000E-03 0. -1.
         23    2    1    2    0    0  0.00000000000E+00  0.00000000000E+00  0.88817841970E-15  0.91188000000E+02  0.91188000000E+02 0.  0.
    9900012    2    3    3    0    0 -0.11758071283E+02 -0.34435403095E+02  0.56329756986E+01  0.54367086895E+02  0.40000006195E+02 0.  0.
         12    1    3    3    0    0  0.11758071283E+02  0.34435403095E+02 -0.56329756986E+01  0.36820913105E+02  0.00000000000E+00 0. -1.
         11    1    4    4    0    0  0.66982669415E+01 -0.80325787837E+01  0.12890819387E+02  0.16600070080E+02  0.51100000000E-03 0. -1.
        -11    1    4    4    0    0 -0.12075608381E+01 -0.63269942060E+01  0.54210808398E+01  0.84188583901E+01  0.51100000000E-03 0.  1.
         12    1    4    4    0    0 -0.17248777387E+02 -0.20075830106E+02 -0.12678924528E+02  0.29348158425E+02  0.00000000000E+00 0. -1.
</event>
<event>
 8    1  0.1248739E-006  0.9118800E+02  0.7816164E-02  0.1184000E+00
        -11   -1    0    0    0    0  0.00000000000E+00  0.00000000000E+00  0.45593999997E+02  0.45594000000E+02  0.51100000000E-03 0.  1.
         11   -1    0    0    0    0 -0.00000000000E+00 -0.00000000000E+00 -0.45593999997E+02  0.45594000000E+02  0.51100000000E-03 0. -1.
         23    2    1    2    0    0  0.00000000000E+00  0.00000000000E+00  0.00000000000E+00  0.91188000000E+02  0.91188000000E+02 0.  0.
    9900012    2    3    3    0    0  0.24327925594E+02 -0.21217772209E+02 -0.17712646262E+02  0.54367086665E+02  0.40000005670E+02 0.  0.
        -12    1    3    3    0    0 -0.24327925594E+02  0.21217772209E+02  0.17712646262E+02  0.36820913335E+02  0.00000000000E+00 0.  1.
         11    1    4    4    0    0  0.82270402226E+00  0.44245961637E+01 -0.60792262794E+01  0.75637877771E+01  0.51100000000E-03 0. -1.
        -11    1    4    4    0    0  0.19224905448E+02 -0.97329450663E+01 -0.19025880965E+02  0.28745631945E+02  0.51100000000E-03 0.  1.
        -12    1    4    4    0    0  0.42803161243E+01 -0.15909423306E+02  0.73924609823E+01  0.18057666943E+02  0.00000000000E+00 0.  1.
</event>
<event>
 8    1  0.1248739E-006  0.9118800E+02  0.7816164E-02  0.1184000E+00
        -11   -1    0    0    0    0  0.00000000000E+00  0.00000000000E+00  0.45593999997E+02  0.45594000000E+02  0.51100000000E-03 0.  1.
         11   -1    0    0    0    0 -0.00000000000E+00 -0.00000000000E+00 -0.45593999997E+02  0.45594000000E+02  0.51100000000E-03 0. -1.
         23    2    1    2    0    0  0.13322676296E-14  0.00000000000E+00  0.00000000000E+00  0.91188000000E+02  0.91188000000E+02 0.  0.
    9900012    2    3    3    0    0  0.38611585967E+01  0.91907866240E+01 -0.35445777249E+02  0.54367051760E+02  0.39999926098E+02 0.  0.
        -12    1    3    3    0    0 -0.38611585967E+01 -0.91907866240E+01  0.35445777249E+02  0.36820948240E+02  0.00000000000E+00 0.  1.
         11    1    4    4    0    0  0.12794117741E+02  0.48543531245E+01 -0.28191766301E+02  0.31337355990E+02  0.51100000000E-03 0. -1.
        -11    1    4    4    0    0 -0.39416103882E+01  0.47578997582E+01  0.61516513764E+01  0.87187566475E+01  0.51100000000E-03 0.  1.
         12    1    4    4    0    0 -0.49913487561E+01 -0.42146625869E+00 -0.13405662325E+02  0.14310939123E+02  0.00000000000E+00 0. -1.
</event>
<event>
 8    1  0.1248739E-006  0.9118800E+02  0.7816164E-02  0.1184000E+00
        -11   -1    0    0    0    0  0.00000000000E+00  0.00000000000E+00  0.45593999997E+02  0.45594000000E+02  0.51100000000E-03 0. -1.
         11   -1    0    0    0    0 -0.00000000000E+00 -0.00000000000E+00 -0.45593999997E+02  0.45594000000E+02  0.51100000000E-03 0.  1.
         23    2    1    2    0    0  0.35527136788E-14 -0.17763568394E-14  0.00000000000E+00  0.91188000000E+02  0.91188000000E+02 0.  0.
    9900012    2    3    3    0    0 -0.31464774264E+02  0.97828856937E+01 -0.16432998852E+02  0.54367077642E+02  0.39999985102E+02 0.  0.
        -12    1    3    3    0    0  0.31464774264E+02 -0.97828856937E+01  0.16432998852E+02  0.36820922358E+02  0.00000000000E+00 0.  1.
         11    1    4    4    0    0 -0.33610077078E+01  0.13607193476E+02  0.67293834776E+01  0.15547883758E+02  0.51100000000E-03 0. -1.
        -11    1    4    4    0    0  0.90918326875E-01  0.17912219405E+01 -0.36721457681E+01  0.40867342691E+01  0.51100000000E-03 0.  1.
        -12    1    4    4    0    0 -0.28194684883E+02 -0.56155297226E+01 -0.19490236561E+02  0.34732459616E+02  0.00000000000E+00 0.  1.
</event>
<event>
 8    1  0.1248739E-006  0.9118800E+02  0.7816164E-02  0.1184000E+00
        -11   -1    0    0    0    0  0.00000000000E+00  0.00000000000E+00  0.45593999997E+02  0.45594000000E+02  0.51100000000E-03 0.  1.
         11   -1    0    0    0    0 -0.00000000000E+00 -0.00000000000E+00 -0.45593999997E+02  0.45594000000E+02  0.51100000000E-03 0. -1.
         23    2    1    2    0    0  0.00000000000E+00 -0.35527136788E-14  0.00000000000E+00  0.91188000000E+02  0.91188000000E+02 0.  0.
    9900012    2    3    3    0    0  0.42815748649E+01  0.31841322575E+02 -0.17988194389E+02  0.54367124888E+02  0.40000092808E+02 0.  0.
        -12    1    3    3    0    0 -0.42815748649E+01 -0.31841322575E+02  0.17988194389E+02  0.36820875112E+02  0.00000000000E+00 0.  1.
         11    1    4    4    0    0  0.75669561590E+01 -0.34638261536E+01 -0.23687764105E+01  0.86526307606E+01  0.51100000000E-03 0. -1.
        -11    1    4    4    0    0  0.30045880574E+01 -0.12176246645E+00  0.37854354540E+01  0.48344490204E+01  0.51100000000E-03 0.  1.
         12    1    4    4    0    0 -0.62899693515E+01  0.35426911195E+02 -0.19404853432E+02  0.40880045107E+02  0.00000000000E+00 0. -1.
</event>
<event>
 8    1  0.1248739E-006  0.9118800E+02  0.7816164E-02  0.1184000E+00
        -11   -1    0    0    0    0  0.00000000000E+00  0.00000000000E+00  0.45593999997E+02  0.45594000000E+02  0.51100000000E-03 0.  1.
         11   -1    0    0    0    0 -0.00000000000E+00 -0.00000000000E+00 -0.45593999997E+02  0.45594000000E+02  0.51100000000E-03 0. -1.
         23    2    1    2    0    0 -0.35527136788E-14  0.00000000000E+00  0.00000000000E+00  0.91188000000E+02  0.91188000000E+02 0.  0.
    9900012    2    3    3    0    0  0.28463549329E+02 -0.11094832152E+02 -0.20555070599E+02  0.54367083822E+02  0.39999999188E+02 0.  0.
        -12    1    3    3    0    0 -0.28463549329E+02  0.11094832152E+02  0.20555070599E+02  0.36820916178E+02  0.00000000000E+00 0.  1.
         11    1    4    4    0    0  0.32271043917E+02 -0.13671347335E+02 -0.18271343263E+02  0.39524271003E+02  0.51100000000E-03 0. -1.
        -11    1    4    4    0    0 -0.47054721562E+01 -0.49850565090E+01 -0.22919910375E+01  0.72281034710E+01  0.51100000000E-03 0.  1.
         12    1    4    4    0    0  0.89797756756E+00  0.75615716912E+01  0.82637010943E-02  0.76147093472E+01  0.00000000000E+00 0. -1.
</event>
<event>
 8    1  0.1248739E-006  0.9118800E+02  0.7816164E-02  0.1184000E+00
        -11   -1    0    0    0    0  0.00000000000E+00  0.00000000000E+00  0.45593999997E+02  0.45594000000E+02  0.51100000000E-03 0. -1.
         11   -1    0    0    0    0 -0.00000000000E+00 -0.00000000000E+00 -0.45593999997E+02  0.45594000000E+02  0.51100000000E-03 0.  1.
         23    2    1    2    0    0  0.00000000000E+00 -0.17763568394E-14  0.35527136788E-14  0.91188000000E+02  0.91188000000E+02 0.  0.
    9900012    2    3    3    0    0 -0.19706068925E+02  0.11483905525E+02  0.28906228091E+02  0.54367092067E+02  0.40000017984E+02 0.  0.
        -12    1    3    3    0    0  0.19706068925E+02 -0.11483905525E+02 -0.28906228091E+02  0.36820907933E+02  0.00000000000E+00 0.  1.
         11    1    4    4    0    0 -0.11543637687E+02  0.10084030765E+02  0.13676999681E+02  0.20542725429E+02  0.51100000000E-03 0. -1.
        -11    1    4    4    0    0 -0.12126013669E+02 -0.11310241178E+02  0.10818258251E+02  0.19798900850E+02  0.51100000000E-03 0.  1.
        -12    1    4    4    0    0  0.39635824310E+01  0.12710115937E+02  0.44109701592E+01  0.14025465788E+02  0.00000000000E+00 0.  1.
</event>
<event>
 8    1  0.1248739E-006  0.9118800E+02  0.7816164E-02  0.1184000E+00
        -11   -1    0    0    0    0  0.00000000000E+00  0.00000000000E+00  0.45593999997E+02  0.45594000000E+02  0.51100000000E-03 0.  1.
         11   -1    0    0    0    0 -0.00000000000E+00 -0.00000000000E+00 -0.45593999997E+02  0.45594000000E+02  0.51100000000E-03 0. -1.
         23    2    1    2    0    0  0.22204460493E-15  0.35527136788E-14  0.00000000000E+00  0.91188000000E+02  0.91188000000E+02 0.  0.
    9900012    2    3    3    0    0 -0.12206951013E+01  0.30984694111E+02 -0.19855455117E+02  0.54367075737E+02  0.39999980757E+02 0.  0.
        -12    1    3    3    0    0  0.12206951013E+01 -0.30984694111E+02  0.19855455117E+02  0.36820924263E+02  0.00000000000E+00 0.  1.
         11    1    4    4    0    0 -0.34265822263E+01  0.12652593365E+02 -0.26915511051E+02  0.29937840938E+02  0.51100000000E-03 0. -1.
        -11    1    4    4    0    0  0.24007277942E+01  0.46248246329E+01  0.91817859812E+01  0.10557352457E+02  0.51100000000E-03 0.  1.
         12    1    4    4    0    0 -0.19484066911E+00  0.13707276113E+02 -0.21217300468E+01  0.13871882343E+02  0.00000000000E+00 0. -1.
</event>
<event>
 8    1  0.1248739E-006  0.9118800E+02  0.7816164E-02  0.1184000E+00
        -11   -1    0    0    0    0  0.00000000000E+00  0.00000000000E+00  0.45593999997E+02  0.45594000000E+02  0.51100000000E-03 0. -1.
         11   -1    0    0    0    0 -0.00000000000E+00 -0.00000000000E+00 -0.45593999997E+02  0.45594000000E+02  0.51100000000E-03 0.  1.
         23    2    1    2    0    0  0.44408920985E-15  0.00000000000E+00  0.44408920985E-15  0.91188000000E+02  0.91188000000E+02 0.  0.
    9900012    2    3    3    0    0  0.23816768185E+01 -0.36579864944E+02  0.34670831671E+01  0.54367087878E+02  0.40000008436E+02 0.  0.
        -12    1    3    3    0    0 -0.23816768185E+01  0.36579864944E+02 -0.34670831671E+01  0.36820912122E+02  0.00000000000E+00 0.  1.
         11    1    4    4    0    0  0.10436116474E+02 -0.17167213132E+02  0.14306876251E+02  0.24663990798E+02  0.51100000000E-03 0. -1.
        -11    1    4    4    0    0  0.43748988124E+00 -0.78101752937E+01 -0.12991626150E+02  0.15164847042E+02  0.51100000000E-03 0.  1.
        -12    1    4    4    0    0 -0.84919295369E+01 -0.11602476519E+02  0.21518330669E+01  0.14538250038E+02  0.00000000000E+00 0.  1.
</event>
<event>
 8    1  0.1248739E-006  0.9118800E+02  0.7816164E-02  0.1184000E+00
        -11   -1    0    0    0    0  0.00000000000E+00  0.00000000000E+00  0.45593999997E+02  0.45594000000E+02  0.51100000000E-03 0.  1.
         11   -1    0    0    0    0 -0.00000000000E+00 -0.00000000000E+00 -0.45593999997E+02  0.45594000000E+02  0.51100000000E-03 0. -1.
         23    2    1    2    0    0  0.00000000000E+00  0.00000000000E+00  0.17763568394E-14  0.91188000000E+02  0.91188000000E+02 0.  0.
    9900012    2    3    3    0    0  0.33945305461E+02  0.23658681474E+01 -0.14067638077E+02  0.54367088333E+02  0.40000009473E+02 0.  0.
        -12    1    3    3    0    0 -0.33945305461E+02 -0.23658681474E+01  0.14067638077E+02  0.36820911667E+02  0.00000000000E+00 0.  1.
         11    1    4    4    0    0  0.15085558792E+02  0.15765814835E+01 -0.10371556932E+02  0.18374680588E+02  0.51100000000E-03 0. -1.
        -11    1    4    4    0    0 -0.13299569189E+01  0.41642841306E+01  0.10303936911E+02  0.11192906855E+02  0.51100000000E-03 0.  1.
        -12    1    4    4    0    0  0.20189703588E+02 -0.33749974667E+01 -0.14000018056E+02  0.24799500891E+02  0.00000000000E+00 0.  1.
</event>
<event>
 8    1  0.1248739E-006  0.9118800E+02  0.7816164E-02  0.1184000E+00
        -11   -1    0    0    0    0  0.00000000000E+00  0.00000000000E+00  0.45593999997E+02  0.45594000000E+02  0.51100000000E-03 0.  1.
         11   -1    0    0    0    0 -0.00000000000E+00 -0.00000000000E+00 -0.45593999997E+02  0.45594000000E+02  0.51100000000E-03 0. -1.
         23    2    1    2    0    0  0.00000000000E+00  0.71054273576E-14  0.00000000000E+00  0.91188000000E+02  0.91188000000E+02 0.  0.
    9900012    2    3    3    0    0  0.89738555875E+01 -0.34859191549E+02  0.77515574964E+01  0.54367082532E+02  0.39999996249E+02 0.  0.
        -12    1    3    3    0    0 -0.89738555875E+01  0.34859191549E+02 -0.77515574964E+01  0.36820917468E+02  0.00000000000E+00 0.  1.
         11    1    4    4    0    0  0.37014437847E+01 -0.14997445281E+02  0.11349863271E+02  0.19168814454E+02  0.51100000000E-03 0.  1.
        -11    1    4    4    0    0  0.12006442399E+02 -0.23682172581E+02 -0.57400860982E+01  0.27165208372E+02  0.51100000000E-03 0. -1.
         12    1    4    4    0    0 -0.67340305963E+01  0.38204263128E+01  0.21417803239E+01  0.80330597059E+01  0.00000000000E+00 0. -1.
</event>
<event>
 8    1  0.1248739E-006  0.9118800E+02  0.7816164E-02  0.1184000E+00
        -11   -1    0    0    0    0  0.00000000000E+00  0.00000000000E+00  0.45593999997E+02  0.45594000000E+02  0.51100000000E-03 0.  1.
         11   -1    0    0    0    0 -0.00000000000E+00 -0.00000000000E+00 -0.45593999997E+02  0.45594000000E+02  0.51100000000E-03 0. -1.
         23    2    1    2    0    0  0.88817841970E-15  0.00000000000E+00  0.00000000000E+00  0.91188000000E+02  0.91188000000E+02 0.  0.
    9900012    2    3    3    0    0 -0.56481842498E+01  0.23158026707E+02 -0.28063935514E+02  0.54367073032E+02  0.39999974590E+02 0.  0.
        -12    1    3    3    0    0  0.56481842498E+01 -0.23158026707E+02  0.28063935514E+02  0.36820926968E+02  0.00000000000E+00 0.  1.
         11    1    4    4    0    0 -0.54638266794E+01  0.85192610260E+01 -0.16179430786E+02  0.19084160742E+02  0.51100000000E-03 0. -1.
        -11    1    4    4    0    0  0.78029520600E+01  0.20599305487E+02 -0.35934016879E+01  0.22318825761E+02  0.51100000000E-03 0.  1.
         12    1    4    4    0    0 -0.79873096304E+01 -0.59605398058E+01 -0.82911030405E+01  0.12964086529E+02  0.00000000000E+00 0. -1.
</event>
<event>
 8    1  0.1248739E-006  0.9118800E+02  0.7816164E-02  0.1184000E+00
        -11   -1    0    0    0    0  0.00000000000E+00  0.00000000000E+00  0.45593999997E+02  0.45594000000E+02  0.51100000000E-03 0.  1.
         11   -1    0    0    0    0 -0.00000000000E+00 -0.00000000000E+00 -0.45593999997E+02  0.45594000000E+02  0.51100000000E-03 0. -1.
         23    2    1    2    0    0  0.00000000000E+00  0.35527136788E-14  0.00000000000E+00  0.91188000000E+02  0.91188000000E+02 0.  0.
    9900012    2    3    3    0    0  0.19792855891E+02  0.29726311741E+02 -0.89648856841E+01  0.54367082991E+02  0.39999997295E+02 0.  0.
        -12    1    3    3    0    0 -0.19792855891E+02 -0.29726311741E+02  0.89648856841E+01  0.36820917009E+02  0.00000000000E+00 0.  1.
         11    1    4    4    0    0  0.93190698435E+01  0.48752301144E+01 -0.57572382135E+01  0.11989942599E+02  0.51100000000E-03 0. -1.
        -11    1    4    4    0    0 -0.10028425332E+02  0.38538976210E+01 -0.69461360180E+01  0.12793382952E+02  0.51100000000E-03 0.  1.
        -12    1    4    4    0    0  0.20502211380E+02  0.20997184006E+02  0.37384885474E+01  0.29583757440E+02  0.00000000000E+00 0.  1.
</event>
<event>
 8    1  0.1248739E-006  0.9118800E+02  0.7816164E-02  0.1184000E+00
        -11   -1    0    0    0    0  0.00000000000E+00  0.00000000000E+00  0.45593999997E+02  0.45594000000E+02  0.51100000000E-03 0. -1.
         11   -1    0    0    0    0 -0.00000000000E+00 -0.00000000000E+00 -0.45593999997E+02  0.45594000000E+02  0.51100000000E-03 0.  1.
         23    2    1    2    0    0  0.00000000000E+00  0.17763568394E-14  0.28449465006E-15  0.91188000000E+02  0.91188000000E+02 0.  0.
    9900012    2    3    3    0    0 -0.33504051578E+02  0.15272794398E+02 -0.34929706132E-01  0.54367069255E+02  0.39999965981E+02 0.  0.
         12    1    3    3    0    0  0.33504051578E+02 -0.15272794398E+02  0.34929706132E-01  0.36820930745E+02  0.00000000000E+00 0. -1.
         11    1    4    4    0    0 -0.12010822272E+02  0.25046903146E+02  0.30522819370E+01  0.27945010899E+02  0.51100000000E-03 0.  1.
        -11    1    4    4    0    0 -0.76403173800E+01 -0.41952918205E+00  0.35521959772E+01  0.84361455015E+01  0.51100000000E-03 0. -1.
        -12    1    4    4    0    0 -0.13852911926E+02 -0.93545795663E+01 -0.66394076203E+01  0.17985912855E+02  0.00000000000E+00 0.  1.
</event>
<event>
 8    1  0.1248739E-006  0.9118800E+02  0.7816164E-02  0.1184000E+00
        -11   -1    0    0    0    0  0.00000000000E+00  0.00000000000E+00  0.45593999997E+02  0.45594000000E+02  0.51100000000E-03 0. -1.
         11   -1    0    0    0    0 -0.00000000000E+00 -0.00000000000E+00 -0.45593999997E+02  0.45594000000E+02  0.51100000000E-03 0.  1.
         23    2    1    2    0    0  0.00000000000E+00  0.00000000000E+00 -0.22204460493E-15  0.91188000000E+02  0.91188000000E+02 0.  0.
    9900012    2    3    3    0    0  0.34704689986E+02 -0.12242550687E+02 -0.12185543696E+01  0.54367076205E+02  0.39999981824E+02 0.  0.
        -12    1    3    3    0    0 -0.34704689986E+02  0.12242550687E+02  0.12185543696E+01  0.36820923795E+02  0.00000000000E+00 0.  1.
         11    1    4    4    0    0  0.22025892363E+02  0.12313670013E+01 -0.37149664761E+00  0.22063413360E+02  0.51100000000E-03 0. -1.
        -11    1    4    4    0    0  0.46101471407E+01  0.71080545007E+01  0.44515943408E+01  0.95705061455E+01  0.51100000000E-03 0.  1.
         12    1    4    4    0    0  0.80686504827E+01 -0.20581972190E+02 -0.52986520627E+01  0.22733156699E+02  0.00000000000E+00 0. -1.
</event>
<event>
 8    1  0.1248739E-006  0.9118800E+02  0.7816164E-02  0.1184000E+00
        -11   -1    0    0    0    0  0.00000000000E+00  0.00000000000E+00  0.45593999997E+02  0.45594000000E+02  0.51100000000E-03 0. -1.
         11   -1    0    0    0    0 -0.00000000000E+00 -0.00000000000E+00 -0.45593999997E+02  0.45594000000E+02  0.51100000000E-03 0.  1.
         23    2    1    2    0    0  0.00000000000E+00 -0.38857805862E-15  0.00000000000E+00  0.91188000000E+02  0.91188000000E+02 0.  0.
    9900012    2    3    3    0    0  0.91087045562E+01 -0.27529291121E+00  0.35675324435E+02  0.54367176293E+02  0.40000209995E+02 0.  0.
        -12    1    3    3    0    0 -0.91087045562E+01  0.27529291121E+00 -0.35675324435E+02  0.36820823707E+02  0.00000000000E+00 0.  1.
         11    1    4    4    0    0  0.33960659860E+01  0.20306681127E+01  0.36119209699E+02  0.36335302210E+02  0.51100000000E-03 0. -1.
        -11    1    4    4    0    0  0.78961395500E+01 -0.40726291047E+01 -0.67306881309E+01  0.11146187267E+02  0.51100000000E-03 0.  1.
         12    1    4    4    0    0 -0.21835009798E+01  0.17666680808E+01  0.62868028672E+01  0.68856868160E+01  0.00000000000E+00 0. -1.
</event>
<event>
 8    1  0.1248739E-006  0.9118800E+02  0.7816164E-02  0.1184000E+00
        -11   -1    0    0    0    0  0.00000000000E+00  0.00000000000E+00  0.45593999997E+02  0.45594000000E+02  0.51100000000E-03 0.  1.
         11   -1    0    0    0    0 -0.00000000000E+00 -0.00000000000E+00 -0.45593999997E+02  0.45594000000E+02  0.51100000000E-03 0. -1.
         23    2    1    2    0    0  0.00000000000E+00  0.00000000000E+00  0.00000000000E+00  0.91188000000E+02  0.91188000000E+02 0.  0.
    9900012    2    3    3    0    0  0.15101486782E+02  0.27040102306E+02  0.19913752055E+02  0.54367088052E+02  0.40000008833E+02 0.  0.
         12    1    3    3    0    0 -0.15101486782E+02 -0.27040102306E+02 -0.19913752055E+02  0.36820911948E+02  0.00000000000E+00 0. -1.
         11    1    4    4    0    0  0.14396271064E+02  0.10148262329E+02  0.26846927687E+02  0.32109147845E+02  0.51100000000E-03 0. -1.
        -11    1    4    4    0    0  0.55943429578E+01  0.11118820402E+02 -0.71874582466E+00  0.12467615493E+02  0.51100000000E-03 0.  1.
         12    1    4    4    0    0 -0.48891272395E+01  0.57730195756E+01 -0.62144298072E+01  0.97903247144E+01  0.00000000000E+00 0. -1.
</event>
<event>
 8    1  0.1248739E-006  0.9118800E+02  0.7816164E-02  0.1184000E+00
        -11   -1    0    0    0    0  0.00000000000E+00  0.00000000000E+00  0.45593999997E+02  0.45594000000E+02  0.51100000000E-03 0. -1.
         11   -1    0    0    0    0 -0.00000000000E+00 -0.00000000000E+00 -0.45593999997E+02  0.45594000000E+02  0.51100000000E-03 0.  1.
         23    2    1    2    0    0  0.00000000000E+00  0.88817841970E-15  0.00000000000E+00  0.91188000000E+02  0.91188000000E+02 0.  0.
    9900012    2    3    3    0    0 -0.13290244580E+02 -0.78895711798E+01  0.33420111830E+02  0.54367084624E+02  0.40000001017E+02 0.  0.
        -12    1    3    3    0    0  0.13290244580E+02  0.78895711798E+01 -0.33420111830E+02  0.36820915376E+02  0.00000000000E+00 0.  1.
         11    1    4    4    0    0  0.24729107198E+01 -0.42261661883E+01  0.23713810275E+02  0.24214057200E+02  0.51100000000E-03 0. -1.
        -11    1    4    4    0    0 -0.85407501739E+01  0.22621477354E+01 -0.68251997209E+01  0.11164455983E+02  0.51100000000E-03 0.  1.
         12    1    4    4    0    0 -0.72224051258E+01 -0.59255527269E+01  0.16531501276E+02  0.18988571441E+02  0.00000000000E+00 0. -1.
</event>
<event>
 8    1  0.1248739E-006  0.9118800E+02  0.7816164E-02  0.1184000E+00
        -11   -1    0    0    0    0  0.00000000000E+00  0.00000000000E+00  0.45593999997E+02  0.45594000000E+02  0.51100000000E-03 0.  1.
         11   -1    0    0    0    0 -0.00000000000E+00 -0.00000000000E+00 -0.45593999997E+02  0.45594000000E+02  0.51100000000E-03 0. -1.
         23    2    1    2    0    0  0.00000000000E+00  0.00000000000E+00 -0.35527136788E-14  0.91188000000E+02  0.91188000000E+02 0.  0.
    9900012    2    3    3    0    0  0.18771476422E+02  0.52774955597E+01  0.31233910151E+02  0.54367116934E+02  0.40000074673E+02 0.  0.
         12    1    3    3    0    0 -0.18771476422E+02 -0.52774955597E+01 -0.31233910151E+02  0.36820883066E+02  0.00000000000E+00 0. -1.
         11    1    4    4    0    0  0.19153134180E+02 -0.59482625754E+01  0.66306189950E+01  0.21123197795E+02  0.51100000000E-03 0. -1.
        -11    1    4    4    0    0  0.28239088830E+00 -0.26788819122E+01 -0.19074263081E+01  0.33006708856E+01  0.51100000000E-03 0.  1.
        -12    1    4    4    0    0 -0.66404864616E+00  0.13904640047E+02  0.26510717464E+02  0.29943248253E+02  0.00000000000E+00 0.  1.
</event>
<event>
 8    1  0.1248739E-006  0.9118800E+02  0.7816164E-02  0.1184000E+00
        -11   -1    0    0    0    0  0.00000000000E+00  0.00000000000E+00  0.45593999997E+02  0.45594000000E+02  0.51100000000E-03 0. -1.
         11   -1    0    0    0    0 -0.00000000000E+00 -0.00000000000E+00 -0.45593999997E+02  0.45594000000E+02  0.51100000000E-03 0.  1.
         23    2    1    2    0    0  0.00000000000E+00 -0.35527136788E-14 -0.35527136788E-14  0.91188000000E+02  0.91188000000E+02 0.  0.
    9900012    2    3    3    0    0  0.28545853103E+02 -0.19185842334E+02 -0.13146076842E+02  0.54367060145E+02  0.39999945213E+02 0.  0.
         12    1    3    3    0    0 -0.28545853103E+02  0.19185842334E+02  0.13146076842E+02  0.36820939855E+02  0.00000000000E+00 0. -1.
         11    1    4    4    0    0  0.96275442549E+01 -0.43423255535E+01  0.11177085488E+02  0.15377666919E+02  0.51100000000E-03 0. -1.
        -11    1    4    4    0    0  0.10270080379E+02 -0.25426529413E+01 -0.21110345282E+02  0.23613265618E+02  0.51100000000E-03 0.  1.
         12    1    4    4    0    0  0.86482284690E+01 -0.12300863839E+02 -0.32128170479E+01  0.15376127608E+02  0.00000000000E+00 0. -1.
</event>
<event>
 8    1  0.1248739E-006  0.9118800E+02  0.7816164E-02  0.1184000E+00
        -11   -1    0    0    0    0  0.00000000000E+00  0.00000000000E+00  0.45593999997E+02  0.45594000000E+02  0.51100000000E-03 0.  1.
         11   -1    0    0    0    0 -0.00000000000E+00 -0.00000000000E+00 -0.45593999997E+02  0.45594000000E+02  0.51100000000E-03 0. -1.
         23    2    1    2    0    0 -0.17763568394E-14 -0.88817841970E-15  0.00000000000E+00  0.91188000000E+02  0.91188000000E+02 0.  0.
    9900012    2    3    3    0    0  0.14866277468E+02  0.78969261026E+01 -0.32747705911E+02  0.54367083525E+02  0.39999998512E+02 0.  0.
        -12    1    3    3    0    0 -0.14866277468E+02 -0.78969261026E+01  0.32747705911E+02  0.36820916475E+02  0.00000000000E+00 0.  1.
         11    1    4    4    0    0 -0.80823239999E+01  0.97956607246E+01 -0.18207963887E+02  0.22199299075E+02  0.51100000000E-03 0. -1.
        -11    1    4    4    0    0  0.11729930495E+02 -0.77942064915E+01 -0.18000074349E+01  0.14197920668E+02  0.51100000000E-03 0.  1.
         12    1    4    4    0    0  0.11218670972E+02  0.58954718695E+01 -0.12739734589E+02  0.17969863782E+02  0.00000000000E+00 0. -1.
</event>
<event>
 8    1  0.1248739E-006  0.9118800E+02  0.7816164E-02  0.1184000E+00
        -11   -1    0    0    0    0  0.00000000000E+00  0.00000000000E+00  0.45593999997E+02  0.45594000000E+02  0.51100000000E-03 0. -1.
         11   -1    0    0    0    0 -0.00000000000E+00 -0.00000000000E+00 -0.45593999997E+02  0.45594000000E+02  0.51100000000E-03 0.  1.
         23    2    1    2    0    0  0.00000000000E+00  0.00000000000E+00  0.44408920985E-15  0.91188000000E+02  0.91188000000E+02 0.  0.
    9900012    2    3    3    0    0 -0.32988232475E+02  0.15904216647E+02  0.38223636508E+01  0.54367108473E+02  0.40000055386E+02 0.  0.
         12    1    3    3    0    0  0.32988232475E+02 -0.15904216647E+02 -0.38223636508E+01  0.36820891527E+02  0.00000000000E+00 0. -1.
         11    1    4    4    0    0  0.10328152824E-01  0.93573824685E+01  0.13161931169E+02  0.16149215018E+02  0.51100000000E-03 0. -1.
        -11    1    4    4    0    0 -0.11023764940E+02  0.43937202847E+01 -0.10859086472E+02  0.16085643620E+02  0.51100000000E-03 0.  1.
         12    1    4    4    0    0 -0.21974795687E+02  0.21531138937E+01  0.15195189528E+01  0.22132249835E+02  0.00000000000E+00 0. -1.
</event>
<event>
 8    1  0.1248739E-006  0.9118800E+02  0.7816164E-02  0.1184000E+00
        -11   -1    0    0    0    0  0.00000000000E+00  0.00000000000E+00  0.45593999997E+02  0.45594000000E+02  0.51100000000E-03 0.  1.
         11   -1    0    0    0    0 -0.00000000000E+00 -0.00000000000E+00 -0.45593999997E+02  0.45594000000E+02  0.51100000000E-03 0. -1.
         23    2    1    2    0    0  0.00000000000E+00  0.00000000000E+00  0.17763568394E-14  0.91188000000E+02  0.91188000000E+02 0.  0.
    9900012    2    3    3    0    0  0.32606801988E+02  0.14691655221E+02  0.87596857407E+01  0.54367077099E+02  0.39999983863E+02 0.  0.
        -12    1    3    3    0    0 -0.32606801988E+02 -0.14691655221E+02 -0.87596857407E+01  0.36820922901E+02  0.00000000000E+00 0.  1.
         11    1    4    4    0    0 -0.39049533973E+01  0.78587011485E-01 -0.81766361525E+01  0.90615791110E+01  0.51100000000E-03 0. -1.
        -11    1    4    4    0    0 -0.10998171477E+01 -0.63322645623E+00 -0.13650047110E+00  0.12764035972E+01  0.51100000000E-03 0.  1.
         12    1    4    4    0    0  0.37611572533E+02  0.15246294665E+02  0.17072822364E+02  0.44029094391E+02  0.00000000000E+00 0. -1.
</event>
<event>
 8    1  0.1248739E-006  0.9118800E+02  0.7816164E-02  0.1184000E+00
        -11   -1    0    0    0    0  0.00000000000E+00  0.00000000000E+00  0.45593999997E+02  0.45594000000E+02  0.51100000000E-03 0. -1.
         11   -1    0    0    0    0 -0.00000000000E+00 -0.00000000000E+00 -0.45593999997E+02  0.45594000000E+02  0.51100000000E-03 0.  1.
         23    2    1    2    0    0  0.71054273576E-14  0.00000000000E+00  0.00000000000E+00  0.91188000000E+02  0.91188000000E+02 0.  0.
    9900012    2    3    3    0    0 -0.25817417094E+02 -0.22102803421E+02  0.14167128319E+02  0.54367075660E+02  0.39999980582E+02 0.  0.
        -12    1    3    3    0    0  0.25817417094E+02  0.22102803421E+02 -0.14167128319E+02  0.36820924340E+02  0.00000000000E+00 0.  1.
         11    1    4    4    0    0 -0.25107318978E+02 -0.35488893013E+01  0.12649307154E+02  0.28336849742E+02  0.51100000000E-03 0. -1.
        -11    1    4    4    0    0  0.13388828135E+01 -0.20692702945E+02 -0.26633016964E+01  0.20906308582E+02  0.51100000000E-03 0.  1.
        -12    1    4    4    0    0 -0.20489809289E+01  0.21387888247E+01  0.41811228614E+01  0.51239173360E+01  0.00000000000E+00 0.  1.
</event>
<event>
 8    1  0.1248739E-006  0.9118800E+02  0.7816164E-02  0.1184000E+00
        -11   -1    0    0    0    0  0.00000000000E+00  0.00000000000E+00  0.45593999997E+02  0.45594000000E+02  0.51100000000E-03 0. -1.
         11   -1    0    0    0    0 -0.00000000000E+00 -0.00000000000E+00 -0.45593999997E+02  0.45594000000E+02  0.51100000000E-03 0.  1.
         23    2    1    2    0    0  0.17763568394E-14  0.00000000000E+00  0.88817841970E-15  0.91188000000E+02  0.91188000000E+02 0.  0.
    9900012    2    3    3    0    0 -0.29538070842E+01 -0.36084141053E+02  0.67072611640E+01  0.54367115109E+02  0.40000070514E+02 0.  0.
        -12    1    3    3    0    0  0.29538070842E+01  0.36084141053E+02 -0.67072611640E+01  0.36820884891E+02  0.00000000000E+00 0.  1.
         11    1    4    4    0    0  0.49207157790E+00 -0.11032720611E+02  0.13028309247E+02  0.17079224239E+02  0.51100000000E-03 0. -1.
        -11    1    4    4    0    0  0.50582308751E+01 -0.25850613546E+02  0.51766332550E+00  0.26345927501E+02  0.51100000000E-03 0.  1.
        -12    1    4    4    0    0 -0.85041095372E+01  0.79919310344E+00 -0.68387114086E+01  0.10941963369E+02  0.00000000000E+00 0.  1.
</event>
<event>
 8    1  0.1248739E-006  0.9118800E+02  0.7816164E-02  0.1184000E+00
        -11   -1    0    0    0    0  0.00000000000E+00  0.00000000000E+00  0.45593999997E+02  0.45594000000E+02  0.51100000000E-03 0. -1.
         11   -1    0    0    0    0 -0.00000000000E+00 -0.00000000000E+00 -0.45593999997E+02  0.45594000000E+02  0.51100000000E-03 0.  1.
         23    2    1    2    0    0  0.00000000000E+00  0.00000000000E+00  0.00000000000E+00  0.91188000000E+02  0.91188000000E+02 0.  0.
    9900012    2    3    3    0    0 -0.19734844931E+02  0.84198320937E+01  0.29923524448E+02  0.54367150032E+02  0.40000150128E+02 0.  0.
        -12    1    3    3    0    0  0.19734844931E+02 -0.84198320937E+01 -0.29923524448E+02  0.36820849968E+02  0.00000000000E+00 0.  1.
         11    1    4    4    0    0 -0.10620188354E+02 -0.24549302991E+01  0.24726075875E+02  0.27022100435E+02  0.51100000000E-03 0. -1.
        -11    1    4    4    0    0 -0.17730801453E+01  0.11017643279E+02  0.12659572101E+02  0.16875930868E+02  0.51100000000E-03 0.  1.
        -12    1    4    4    0    0 -0.73415764311E+01 -0.14288088580E+00 -0.74621235275E+01  0.10469118730E+02  0.00000000000E+00 0.  1.
</event>
<event>
 8    1  0.1248739E-006  0.9118800E+02  0.7816164E-02  0.1184000E+00
        -11   -1    0    0    0    0  0.00000000000E+00  0.00000000000E+00  0.45593999997E+02  0.45594000000E+02  0.51100000000E-03 0.  1.
         11   -1    0    0    0    0 -0.00000000000E+00 -0.00000000000E+00 -0.45593999997E+02  0.45594000000E+02  0.51100000000E-03 0. -1.
         23    2    1    2    0    0  0.00000000000E+00  0.88817841970E-15 -0.35527136788E-14  0.91188000000E+02  0.91188000000E+02 0.  0.
    9900012    2    3    3    0    0 -0.19521249843E+02 -0.14748316218E+01  0.31185342456E+02  0.54367083283E+02  0.39999997961E+02 0.  0.
         12    1    3    3    0    0  0.19521249843E+02  0.14748316218E+01 -0.31185342456E+02  0.36820916717E+02  0.00000000000E+00 0. -1.
         11    1    4    4    0    0  0.27731782853E+00  0.11208614516E+02  0.97084396607E+01  0.14831174783E+02  0.51100000000E-03 0. -1.
        -11    1    4    4    0    0 -0.90271462923E+01 -0.13838261295E+02  0.23286614967E+02  0.28552640556E+02  0.51100000000E-03 0.  1.
        -12    1    4    4    0    0 -0.10771421379E+02  0.11548151568E+01 -0.18097121718E+01  0.10983267944E+02  0.00000000000E+00 0.  1.
</event>
<event>
 8    1  0.1248739E-006  0.9118800E+02  0.7816164E-02  0.1184000E+00
        -11   -1    0    0    0    0  0.00000000000E+00  0.00000000000E+00  0.45593999997E+02  0.45594000000E+02  0.51100000000E-03 0.  1.
         11   -1    0    0    0    0 -0.00000000000E+00 -0.00000000000E+00 -0.45593999997E+02  0.45594000000E+02  0.51100000000E-03 0. -1.
         23    2    1    2    0    0  0.17763568394E-14  0.00000000000E+00  0.00000000000E+00  0.91188000000E+02  0.91188000000E+02 0.  0.
    9900012    2    3    3    0    0 -0.46152708911E+01  0.23303291588E+02  0.28132441606E+02  0.54367103827E+02  0.40000044795E+02 0.  0.
         12    1    3    3    0    0  0.46152708911E+01 -0.23303291588E+02 -0.28132441606E+02  0.36820896173E+02  0.00000000000E+00 0. -1.
         11    1    4    4    0    0 -0.15518024685E+02 -0.15959313004E+01  0.26545082321E+01  0.15824111383E+02  0.51100000000E-03 0. -1.
        -11    1    4    4    0    0  0.38317880287E+00  0.10904456914E+02  0.13366352032E+02  0.17254372591E+02  0.51100000000E-03 0.  1.
         12    1    4    4    0    0  0.10519574991E+02  0.13994765974E+02  0.12111581342E+02  0.21288619854E+02  0.00000000000E+00 0. -1.
</event>
<event>
 8    1  0.1248739E-006  0.9118800E+02  0.7816164E-02  0.1184000E+00
        -11   -1    0    0    0    0  0.00000000000E+00  0.00000000000E+00  0.45593999997E+02  0.45594000000E+02  0.51100000000E-03 0.  1.
         11   -1    0    0    0    0 -0.00000000000E+00 -0.00000000000E+00 -0.45593999997E+02  0.45594000000E+02  0.51100000000E-03 0. -1.
         23    2    1    2    0    0 -0.44408920985E-15  0.17763568394E-14  0.00000000000E+00  0.91188000000E+02  0.91188000000E+02 0.  0.
    9900012    2    3    3    0    0 -0.24935710271E+01  0.14444181161E+02 -0.33777604830E+02  0.54367097595E+02  0.40000030587E+02 0.  0.
        -12    1    3    3    0    0  0.24935710271E+01 -0.14444181161E+02  0.33777604830E+02  0.36820902405E+02  0.00000000000E+00 0.  1.
         11    1    4    4    0    0  0.50155316737E-01  0.32012258307E+01  0.17751322347E+01  0.36608000611E+01  0.51100000000E-03 0. -1.
        -11    1    4    4    0    0  0.84084896531E+01 -0.52955665250E+00  0.29932339268E+01  0.89410613518E+01  0.51100000000E-03 0.  1.
         12    1    4    4    0    0 -0.10952215997E+02  0.11772511983E+02 -0.38545970992E+02  0.41765236182E+02  0.00000000000E+00 0. -1.
</event>
<event>
 8    1  0.1248739E-006  0.9118800E+02  0.7816164E-02  0.1184000E+00
        -11   -1    0    0    0    0  0.00000000000E+00  0.00000000000E+00  0.45593999997E+02  0.45594000000E+02  0.51100000000E-03 0. -1.
         11   -1    0    0    0    0 -0.00000000000E+00 -0.00000000000E+00 -0.45593999997E+02  0.45594000000E+02  0.51100000000E-03 0.  1.
         23    2    1    2    0    0  0.00000000000E+00 -0.17763568394E-14  0.35527136788E-14  0.91188000000E+02  0.91188000000E+02 0.  0.
    9900012    2    3    3    0    0  0.29409704114E+02 -0.15314991106E+02  0.16009440149E+02  0.54367057284E+02  0.39999938690E+02 0.  0.
        -12    1    3    3    0    0 -0.29409704114E+02  0.15314991106E+02 -0.16009440149E+02  0.36820942716E+02  0.00000000000E+00 0.  1.
         11    1    4    4    0    0  0.17830528193E+01 -0.18619354563E+02  0.18217096762E+01  0.18793037756E+02  0.51100000000E-03 0. -1.
        -11    1    4    4    0    0  0.55577941597E+01 -0.42066322797E+01  0.95205749191E+01  0.11799414312E+02  0.51100000000E-03 0.  1.
         12    1    4    4    0    0  0.22068857135E+02  0.75109957369E+01  0.46671555533E+01  0.23774605216E+02  0.00000000000E+00 0. -1.
</event>
<event>
 8    1  0.1248739E-006  0.9118800E+02  0.7816164E-02  0.1184000E+00
        -11   -1    0    0    0    0  0.00000000000E+00  0.00000000000E+00  0.45593999997E+02  0.45594000000E+02  0.51100000000E-03 0. -1.
         11   -1    0    0    0    0 -0.00000000000E+00 -0.00000000000E+00 -0.45593999997E+02  0.45594000000E+02  0.51100000000E-03 0.  1.
         23    2    1    2    0    0 -0.17763568394E-14 -0.71054273576E-14  0.26645352591E-14  0.91188000000E+02  0.91188000000E+02 0.  0.
    9900012    2    3    3    0    0 -0.13228917111E+02  0.33983701257E+02  0.50876977792E+01  0.54367070248E+02  0.39999968245E+02 0.  0.
        -12    1    3    3    0    0  0.13228917111E+02 -0.33983701257E+02 -0.50876977792E+01  0.36820929752E+02  0.00000000000E+00 0.  1.
         11    1    4    4    0    0 -0.98253543173E+01  0.14133120924E+01  0.12808142723E+02  0.16204430221E+02  0.51100000000E-03 0. -1.
        -11    1    4    4    0    0 -0.77020859016E+01  0.29574732910E+02 -0.10394215034E+02  0.32280437735E+02  0.51100000000E-03 0.  1.
        -12    1    4    4    0    0  0.42985231078E+01  0.29956562552E+01  0.26737700911E+01  0.58822022923E+01  0.00000000000E+00 0.  1.
</event>
<event>
 8    1  0.1248739E-006  0.9118800E+02  0.7816164E-02  0.1184000E+00
        -11   -1    0    0    0    0  0.00000000000E+00  0.00000000000E+00  0.45593999997E+02  0.45594000000E+02  0.51100000000E-03 0. -1.
         11   -1    0    0    0    0 -0.00000000000E+00 -0.00000000000E+00 -0.45593999997E+02  0.45594000000E+02  0.51100000000E-03 0.  1.
         23    2    1    2    0    0  0.00000000000E+00  0.35527136788E-14  0.17763568394E-14  0.91188000000E+02  0.91188000000E+02 0.  0.
    9900012    2    3    3    0    0  0.30088991953E+02  0.16700533977E+02  0.13096781599E+02  0.54367068994E+02  0.39999965386E+02 0.  0.
        -12    1    3    3    0    0 -0.30088991953E+02 -0.16700533977E+02 -0.13096781599E+02  0.36820931006E+02  0.00000000000E+00 0.  1.
         11    1    4    4    0    0 -0.53714166907E+00  0.10101230872E+02  0.13899661041E+01  0.10210552989E+02  0.51100000000E-03 0. -1.
        -11    1    4    4    0    0  0.21669619053E+02 -0.47448287505E+01  0.17828934914E+02  0.28459738407E+02  0.51100000000E-03 0.  1.
        -12    1    4    4    0    0  0.89565145698E+01  0.11344131856E+02 -0.61221194194E+01  0.15696777599E+02  0.00000000000E+00 0.  1.
</event>
<event>
 8    1  0.1248739E-006  0.9118800E+02  0.7816164E-02  0.1184000E+00
        -11   -1    0    0    0    0  0.00000000000E+00  0.00000000000E+00  0.45593999997E+02  0.45594000000E+02  0.51100000000E-03 0. -1.
         11   -1    0    0    0    0 -0.00000000000E+00 -0.00000000000E+00 -0.45593999997E+02  0.45594000000E+02  0.51100000000E-03 0.  1.
         23    2    1    2    0    0  0.88817841970E-15 -0.71054273576E-14 -0.97144514655E-16  0.91188000000E+02  0.91188000000E+02 0.  0.
    9900012    2    3    3    0    0  0.74467962119E+01 -0.36059865900E+02 -0.10519882741E+00  0.54367085164E+02  0.40000002249E+02 0.  0.
        -12    1    3    3    0    0 -0.74467962119E+01  0.36059865900E+02  0.10519882741E+00  0.36820914836E+02  0.00000000000E+00 0.  1.
         11    1    4    4    0    0 -0.44695824430E+01  0.25295384085E+01  0.23356641236E+01  0.56419020671E+01  0.51100000000E-03 0. -1.
        -11    1    4    4    0    0 -0.11115523790E+01  0.37208367478E+01 -0.21809618849E+01  0.44538488748E+01  0.51100000000E-03 0.  1.
        -12    1    4    4    0    0  0.13027931034E+02 -0.42310241056E+02 -0.25990106610E+00  0.44271334222E+02  0.00000000000E+00 0.  1.
</event>
<event>
 8    1  0.1248739E-006  0.9118800E+02  0.7816164E-02  0.1184000E+00
        -11   -1    0    0    0    0  0.00000000000E+00  0.00000000000E+00  0.45593999997E+02  0.45594000000E+02  0.51100000000E-03 0.  1.
         11   -1    0    0    0    0 -0.00000000000E+00 -0.00000000000E+00 -0.45593999997E+02  0.45594000000E+02  0.51100000000E-03 0. -1.
         23    2    1    2    0    0  0.00000000000E+00  0.35527136788E-14 -0.88817841970E-15  0.91188000000E+02  0.91188000000E+02 0.  0.
    9900012    2    3    3    0    0 -0.25958522438E+02  0.25344496262E+02 -0.62920349185E+01  0.54367108086E+02  0.40000054505E+02 0.  0.
        -12    1    3    3    0    0  0.25958522438E+02 -0.25344496262E+02  0.62920349185E+01  0.36820891914E+02  0.00000000000E+00 0.  1.
         11    1    4    4    0    0  0.64355517628E+01  0.74580370240E+01 -0.84102178149E+01  0.12952621615E+02  0.51100000000E-03 0. -1.
        -11    1    4    4    0    0 -0.26348970499E+02  0.79677405896E+01 -0.47294331648E+01  0.27930640429E+02  0.51100000000E-03 0.  1.
        -12    1    4    4    0    0 -0.60451037015E+01  0.99187186480E+01  0.68476160611E+01  0.13483846043E+02  0.00000000000E+00 0.  1.
</event>
<event>
 8    1  0.1248739E-006  0.9118800E+02  0.7816164E-02  0.1184000E+00
        -11   -1    0    0    0    0  0.00000000000E+00  0.00000000000E+00  0.45593999997E+02  0.45594000000E+02  0.51100000000E-03 0.  1.
         11   -1    0    0    0    0 -0.00000000000E+00 -0.00000000000E+00 -0.45593999997E+02  0.45594000000E+02  0.51100000000E-03 0. -1.
         23    2    1    2    0    0  0.88817841970E-15  0.00000000000E+00 -0.35527136788E-14  0.91188000000E+02  0.91188000000E+02 0.  0.
    9900012    2    3    3    0    0  0.69333717192E+01  0.19057413252E+02 -0.30733065634E+02  0.54367109645E+02  0.40000058058E+02 0.  0.
        -12    1    3    3    0    0 -0.69333717192E+01 -0.19057413252E+02  0.30733065634E+02  0.36820890355E+02  0.00000000000E+00 0.  1.
         11    1    4    4    0    0 -0.25746143031E+01  0.25511014949E+02 -0.23203407110E+02  0.34580899703E+02  0.51100000000E-03 0. -1.
        -11    1    4    4    0    0  0.10879092552E+02  0.80431657861E+00 -0.43316555105E+01  0.11737325915E+02  0.51100000000E-03 0.  1.
        -12    1    4    4    0    0 -0.13711065292E+01 -0.72579182757E+01 -0.31980030137E+01  0.80488840274E+01  0.00000000000E+00 0.  1.
</event>
<event>
 8    1  0.1248739E-006  0.9118800E+02  0.7816164E-02  0.1184000E+00
        -11   -1    0    0    0    0  0.00000000000E+00  0.00000000000E+00  0.45593999997E+02  0.45594000000E+02  0.51100000000E-03 0.  1.
         11   -1    0    0    0    0 -0.00000000000E+00 -0.00000000000E+00 -0.45593999997E+02  0.45594000000E+02  0.51100000000E-03 0. -1.
         23    2    1    2    0    0  0.00000000000E+00 -0.71054273576E-14  0.99920072216E-15  0.91188000000E+02  0.91188000000E+02 0.  0.
    9900012    2    3    3    0    0  0.85812098008E+01 -0.35800450109E+02 -0.68694814140E+00  0.54367064550E+02  0.39999955255E+02 0.  0.
         12    1    3    3    0    0 -0.85812098008E+01  0.35800450109E+02  0.68694814140E+00  0.36820935450E+02  0.00000000000E+00 0. -1.
         11    1    4    4    0    0 -0.15190566906E+01 -0.13925634022E+02 -0.91561426886E+01  0.16735165531E+02  0.51100000000E-03 0. -1.
        -11    1    4    4    0    0  0.91633014385E+01 -0.22912113414E+02  0.16367244642E+02  0.29611108250E+02  0.51100000000E-03 0.  1.
         12    1    4    4    0    0  0.93696505293E+00  0.10372973278E+01 -0.78980500953E+01  0.80207907693E+01  0.00000000000E+00 0. -1.
</event>
<event>
 8    1  0.1248739E-006  0.9118800E+02  0.7816164E-02  0.1184000E+00
        -11   -1    0    0    0    0  0.00000000000E+00  0.00000000000E+00  0.45593999997E+02  0.45594000000E+02  0.51100000000E-03 0. -1.
         11   -1    0    0    0    0 -0.00000000000E+00 -0.00000000000E+00 -0.45593999997E+02  0.45594000000E+02  0.51100000000E-03 0.  1.
         23    2    1    2    0    0 -0.71054273576E-14  0.17763568394E-14 -0.88817841970E-15  0.91188000000E+02  0.91188000000E+02 0.  0.
    9900012    2    3    3    0    0  0.34988954189E+02 -0.11152661187E+02 -0.26778759072E+01  0.54367084936E+02  0.40000001729E+02 0.  0.
         12    1    3    3    0    0 -0.34988954189E+02  0.11152661187E+02  0.26778759072E+01  0.36820915064E+02  0.00000000000E+00 0. -1.
         11    1    4    4    0    0  0.12059365621E+02 -0.42127864990E+01  0.18264568071E+00  0.12775336746E+02  0.51100000000E-03 0. -1.
        -11    1    4    4    0    0  0.22103119448E+02 -0.50415027617E+00 -0.15760835115E+02  0.27151537353E+02  0.51100000000E-03 0.  1.
         12    1    4    4    0    0  0.82646911989E+00 -0.64357244119E+01  0.12900313528E+02  0.14440210837E+02  0.00000000000E+00 0. -1.
</event>
<event>
 8    1  0.1248739E-006  0.9118800E+02  0.7816164E-02  0.1184000E+00
        -11   -1    0    0    0    0  0.00000000000E+00  0.00000000000E+00  0.45593999997E+02  0.45594000000E+02  0.51100000000E-03 0.  1.
         11   -1    0    0    0    0 -0.00000000000E+00 -0.00000000000E+00 -0.45593999997E+02  0.45594000000E+02  0.51100000000E-03 0. -1.
         23    2    1    2    0    0  0.35527136788E-14  0.00000000000E+00  0.00000000000E+00  0.91188000000E+02  0.91188000000E+02 0.  0.
    9900012    2    3    3    0    0  0.23741420900E+02 -0.12269623769E+02 -0.25329433514E+02  0.54367096482E+02  0.40000028049E+02 0.  0.
        -12    1    3    3    0    0 -0.23741420900E+02  0.12269623769E+02  0.25329433514E+02  0.36820903518E+02  0.00000000000E+00 0.  1.
         11    1    4    4    0    0 -0.70653812583E+01 -0.21396054818E+01 -0.47581592077E+01  0.87828015604E+01  0.51100000000E-03 0. -1.
        -11    1    4    4    0    0  0.14160652530E+01  0.31827562178E+00 -0.13528902264E+02  0.13606532876E+02  0.51100000000E-03 0.  1.
        -12    1    4    4    0    0  0.29390736905E+02 -0.10448293909E+02 -0.70423720419E+01  0.31977762045E+02  0.00000000000E+00 0.  1.
</event>
<event>
 8    1  0.1248739E-006  0.9118800E+02  0.7816164E-02  0.1184000E+00
        -11   -1    0    0    0    0  0.00000000000E+00  0.00000000000E+00  0.45593999997E+02  0.45594000000E+02  0.51100000000E-03 0. -1.
         11   -1    0    0    0    0 -0.00000000000E+00 -0.00000000000E+00 -0.45593999997E+02  0.45594000000E+02  0.51100000000E-03 0.  1.
         23    2    1    2    0    0  0.35527136788E-14  0.17763568394E-14 -0.35527136788E-14  0.91188000000E+02  0.91188000000E+02 0.  0.
    9900012    2    3    3    0    0  0.22791067498E+02  0.99987165834E+01  0.27136191423E+02  0.54367082359E+02  0.39999995853E+02 0.  0.
        -12    1    3    3    0    0 -0.22791067498E+02 -0.99987165834E+01 -0.27136191423E+02  0.36820917641E+02  0.00000000000E+00 0.  1.
         11    1    4    4    0    0  0.32490851496E+01 -0.36920840880E+01  0.89571830630E+01  0.10218569758E+02  0.51100000000E-03 0. -1.
        -11    1    4    4    0    0  0.11709025996E+02 -0.49640355840E+01 -0.47438460410E+01  0.13573761991E+02  0.51100000000E-03 0.  1.
         12    1    4    4    0    0  0.78329563520E+01  0.18654836255E+02  0.22922854401E+02  0.30574750609E+02  0.00000000000E+00 0. -1.
</event>
<event>
 8    1  0.1248739E-006  0.9118800E+02  0.7816164E-02  0.1184000E+00
        -11   -1    0    0    0    0  0.00000000000E+00  0.00000000000E+00  0.45593999997E+02  0.45594000000E+02  0.51100000000E-03 0.  1.
         11   -1    0    0    0    0 -0.00000000000E+00 -0.00000000000E+00 -0.45593999997E+02  0.45594000000E+02  0.51100000000E-03 0. -1.
         23    2    1    2    0    0  0.00000000000E+00  0.00000000000E+00  0.00000000000E+00  0.91188000000E+02  0.91188000000E+02 0.  0.
    9900012    2    3    3    0    0 -0.95644794867E+01 -0.35038812836E+02 -0.60483998450E+01  0.54367070986E+02  0.39999969927E+02 0.  0.
        -12    1    3    3    0    0  0.95644794867E+01  0.35038812836E+02  0.60483998450E+01  0.36820929014E+02  0.00000000000E+00 0.  1.
         11    1    4    4    0    0 -0.28725629116E+01  0.67817927591E+01  0.26077570224E+01  0.78131125461E+01  0.51100000000E-03 0. -1.
        -11    1    4    4    0    0 -0.49491476234E+01 -0.41151185184E+01  0.29272281642E+01  0.70708505574E+01  0.51100000000E-03 0.  1.
         12    1    4    4    0    0 -0.17427689517E+01 -0.37705487076E+02 -0.11583385032E+02  0.39483107882E+02  0.00000000000E+00 0. -1.
</event>
<event>
 8    1  0.1248739E-006  0.9118800E+02  0.7816164E-02  0.1184000E+00
        -11   -1    0    0    0    0  0.00000000000E+00  0.00000000000E+00  0.45593999997E+02  0.45594000000E+02  0.51100000000E-03 0. -1.
         11   -1    0    0    0    0 -0.00000000000E+00 -0.00000000000E+00 -0.45593999997E+02  0.45594000000E+02  0.51100000000E-03 0.  1.
         23    2    1    2    0    0  0.00000000000E+00 -0.35527136788E-14  0.00000000000E+00  0.91188000000E+02  0.91188000000E+02 0.  0.
    9900012    2    3    3    0    0 -0.66839702590E+01  0.30167310062E+02 -0.20025923684E+02  0.54367086456E+02  0.40000005194E+02 0.  0.
        -12    1    3    3    0    0  0.66839702590E+01 -0.30167310062E+02  0.20025923684E+02  0.36820913544E+02  0.00000000000E+00 0.  1.
         11    1    4    4    0    0 -0.23474304080E+01  0.12380872914E+02 -0.12519741214E+02  0.17763455856E+02  0.51100000000E-03 0. -1.
        -11    1    4    4    0    0  0.64205321685E+01  0.22353923235E+02 -0.11169509468E+01  0.23284516250E+02  0.51100000000E-03 0.  1.
        -12    1    4    4    0    0 -0.10757072020E+02 -0.45674860877E+01 -0.63892315237E+01  0.13319114350E+02  0.00000000000E+00 0.  1.
</event>
<event>
 8    1  0.1248739E-006  0.9118800E+02  0.7816164E-02  0.1184000E+00
        -11   -1    0    0    0    0  0.00000000000E+00  0.00000000000E+00  0.45593999997E+02  0.45594000000E+02  0.51100000000E-03 0.  1.
         11   -1    0    0    0    0 -0.00000000000E+00 -0.00000000000E+00 -0.45593999997E+02  0.45594000000E+02  0.51100000000E-03 0. -1.
         23    2    1    2    0    0  0.00000000000E+00  0.00000000000E+00 -0.13322676296E-14  0.91188000000E+02  0.91188000000E+02 0.  0.
    9900012    2    3    3    0    0  0.29563088673E+02 -0.21911695701E+02 -0.12971249663E+01  0.54367066367E+02  0.39999959398E+02 0.  0.
        -12    1    3    3    0    0 -0.29563088673E+02  0.21911695701E+02  0.12971249663E+01  0.36820933633E+02  0.00000000000E+00 0.  1.
         11    1    4    4    0    0 -0.50539236570E+01  0.25203822875E+01 -0.82480773184E+01  0.99962618472E+01  0.51100000000E-03 0. -1.
        -11    1    4    4    0    0  0.80920470256E+01 -0.84499929751E+01  0.65332275394E+01  0.13400248829E+02  0.51100000000E-03 0.  1.
         12    1    4    4    0    0  0.26524965304E+02 -0.15982085014E+02  0.41772481266E+00  0.30970555691E+02  0.00000000000E+00 0. -1.
</event>
<event>
 8    1  0.1248739E-006  0.9118800E+02  0.7816164E-02  0.1184000E+00
        -11   -1    0    0    0    0  0.00000000000E+00  0.00000000000E+00  0.45593999997E+02  0.45594000000E+02  0.51100000000E-03 0.  1.
         11   -1    0    0    0    0 -0.00000000000E+00 -0.00000000000E+00 -0.45593999997E+02  0.45594000000E+02  0.51100000000E-03 0. -1.
         23    2    1    2    0    0 -0.17763568394E-14  0.00000000000E+00  0.00000000000E+00  0.91188000000E+02  0.91188000000E+02 0.  0.
    9900012    2    3    3    0    0  0.12915454695E+02  0.12090281364E+02 -0.32292337687E+02  0.54367096335E+02  0.40000027714E+02 0.  0.
        -12    1    3    3    0    0 -0.12915454695E+02 -0.12090281364E+02  0.32292337687E+02  0.36820903665E+02  0.00000000000E+00 0.  1.
         11    1    4    4    0    0  0.26370403096E+01 -0.55482106993E+01 -0.75908025947E+01  0.97650861671E+01  0.51100000000E-03 0. -1.
        -11    1    4    4    0    0  0.40682682042E+00 -0.79838304271E+01 -0.51547104418E+00  0.80107906607E+01  0.51100000000E-03 0.  1.
        -12    1    4    4    0    0  0.98715875649E+01  0.25622322491E+02 -0.24186064048E+02  0.36591219507E+02  0.00000000000E+00 0.  1.
</event>
<event>
 8    1  0.1248739E-006  0.9118800E+02  0.7816164E-02  0.1184000E+00
        -11   -1    0    0    0    0  0.00000000000E+00  0.00000000000E+00  0.45593999997E+02  0.45594000000E+02  0.51100000000E-03 0. -1.
         11   -1    0    0    0    0 -0.00000000000E+00 -0.00000000000E+00 -0.45593999997E+02  0.45594000000E+02  0.51100000000E-03 0.  1.
         23    2    1    2    0    0  0.00000000000E+00  0.17763568394E-14  0.35527136788E-14  0.91188000000E+02  0.91188000000E+02 0.  0.
    9900012    2    3    3    0    0 -0.18871247039E+02  0.80026870029E+01 -0.30587825010E+02  0.54367054834E+02  0.39999933105E+02 0.  0.
         12    1    3    3    0    0  0.18871247039E+02 -0.80026870029E+01  0.30587825010E+02  0.36820945166E+02  0.00000000000E+00 0. -1.
         11    1    4    4    0    0 -0.20316917906E+02  0.20101386191E+02 -0.14815338070E+02  0.32192190395E+02  0.51100000000E-03 0. -1.
        -11    1    4    4    0    0 -0.10806209738E+01  0.11614425226E+01 -0.38532506732E+01  0.41670410886E+01  0.51100000000E-03 0.  1.
         12    1    4    4    0    0  0.25262918406E+01 -0.13260141711E+02 -0.11919236266E+02  0.18007823351E+02  0.00000000000E+00 0. -1.
</event>
<event>
 8    1  0.1248739E-006  0.9118800E+02  0.7816164E-02  0.1184000E+00
        -11   -1    0    0    0    0  0.00000000000E+00  0.00000000000E+00  0.45593999997E+02  0.45594000000E+02  0.51100000000E-03 0.  1.
         11   -1    0    0    0    0 -0.00000000000E+00 -0.00000000000E+00 -0.45593999997E+02  0.45594000000E+02  0.51100000000E-03 0. -1.
         23    2    1    2    0    0  0.00000000000E+00  0.00000000000E+00  0.00000000000E+00  0.91188000000E+02  0.91188000000E+02 0.  0.
    9900012    2    3    3    0    0  0.12358085824E+02 -0.33829226445E+02 -0.76576926589E+01  0.54367094200E+02  0.40000022847E+02 0.  0.
        -12    1    3    3    0    0 -0.12358085824E+02  0.33829226445E+02  0.76576926589E+01  0.36820905800E+02  0.00000000000E+00 0.  1.
         11    1    4    4    0    0  0.13589494013E+01 -0.15155666682E+02 -0.51391334305E+01  0.16060873847E+02  0.51100000000E-03 0. -1.
        -11    1    4    4    0    0 -0.58120507895E+01 -0.74128465204E+01  0.10608471518E+02  0.14186962188E+02  0.51100000000E-03 0.  1.
         12    1    4    4    0    0  0.16811187212E+02 -0.11260713243E+02 -0.13127030746E+02  0.24119258165E+02  0.00000000000E+00 0. -1.
</event>
<event>
 8    1  0.1248739E-006  0.9118800E+02  0.7816164E-02  0.1184000E+00
        -11   -1    0    0    0    0  0.00000000000E+00  0.00000000000E+00  0.45593999997E+02  0.45594000000E+02  0.51100000000E-03 0. -1.
         11   -1    0    0    0    0 -0.00000000000E+00 -0.00000000000E+00 -0.45593999997E+02  0.45594000000E+02  0.51100000000E-03 0.  1.
         23    2    1    2    0    0 -0.17763568394E-14  0.88817841970E-15  0.71054273576E-14  0.91188000000E+02  0.91188000000E+02 0.  0.
    9900012    2    3    3    0    0  0.14104362199E+02 -0.68483556088E+01 -0.33315876547E+02  0.54367073373E+02  0.39999975368E+02 0.  0.
         12    1    3    3    0    0 -0.14104362199E+02  0.68483556088E+01  0.33315876547E+02  0.36820926627E+02  0.00000000000E+00 0. -1.
         11    1    4    4    0    0 -0.25886996809E+01 -0.43854528115E+01  0.43615595852E+01  0.67049805873E+01  0.51100000000E-03 0. -1.
        -11    1    4    4    0    0  0.16367909308E+02  0.23239594702E+01 -0.94756859435E+01  0.19055127055E+02  0.51100000000E-03 0.  1.
         12    1    4    4    0    0  0.32515257223E+00 -0.47868622674E+01 -0.28201750189E+02  0.28606965730E+02  0.00000000000E+00 0. -1.
</event>
<event>
 8    1  0.1248739E-006  0.9118800E+02  0.7816164E-02  0.1184000E+00
        -11   -1    0    0    0    0  0.00000000000E+00  0.00000000000E+00  0.45593999997E+02  0.45594000000E+02  0.51100000000E-03 0.  1.
         11   -1    0    0    0    0 -0.00000000000E+00 -0.00000000000E+00 -0.45593999997E+02  0.45594000000E+02  0.51100000000E-03 0. -1.
         23    2    1    2    0    0  0.35527136788E-14  0.44408920985E-15 -0.35527136788E-14  0.91188000000E+02  0.91188000000E+02 0.  0.
    9900012    2    3    3    0    0 -0.19260802694E+02 -0.21681951087E+01 -0.31306595867E+02  0.54367047606E+02  0.39999916626E+02 0.  0.
        -12    1    3    3    0    0  0.19260802694E+02  0.21681951087E+01  0.31306595867E+02  0.36820952394E+02  0.00000000000E+00 0.  1.
         11    1    4    4    0    0 -0.54474273920E+01 -0.36558656616E+01  0.18090081993E+00  0.65629676439E+01  0.51100000000E-03 0. -1.
        -11    1    4    4    0    0 -0.56068646589E+01 -0.14565436146E+02 -0.63044357879E+01  0.16832550974E+02  0.51100000000E-03 0.  1.
         12    1    4    4    0    0 -0.82065106433E+01  0.16053106698E+02 -0.25183060899E+02  0.30971528988E+02  0.00000000000E+00 0. -1.
</event>
<event>
 8    1  0.1248739E-006  0.9118800E+02  0.7816164E-02  0.1184000E+00
        -11   -1    0    0    0    0  0.00000000000E+00  0.00000000000E+00  0.45593999997E+02  0.45594000000E+02  0.51100000000E-03 0. -1.
         11   -1    0    0    0    0 -0.00000000000E+00 -0.00000000000E+00 -0.45593999997E+02  0.45594000000E+02  0.51100000000E-03 0.  1.
         23    2    1    2    0    0  0.00000000000E+00 -0.35527136788E-14  0.35527136788E-14  0.91188000000E+02  0.91188000000E+02 0.  0.
    9900012    2    3    3    0    0  0.13152199211E+02 -0.27429488610E+02  0.20746587361E+02  0.54367108150E+02  0.40000054650E+02 0.  0.
        -12    1    3    3    0    0 -0.13152199211E+02  0.27429488610E+02 -0.20746587361E+02  0.36820891850E+02  0.00000000000E+00 0.  1.
         11    1    4    4    0    0  0.16986319083E+02 -0.28926091485E+02  0.23258521545E+02  0.40819267868E+02  0.51100000000E-03 0. -1.
        -11    1    4    4    0    0  0.67393786682E+00 -0.51976496994E+01 -0.90359694780E+00  0.53184812072E+01  0.51100000000E-03 0.  1.
         12    1    4    4    0    0 -0.45080577384E+01  0.66942525751E+01 -0.16083372358E+01  0.82293590745E+01  0.00000000000E+00 0. -1.
</event>
<event>
 8    1  0.1248739E-006  0.9118800E+02  0.7816164E-02  0.1184000E+00
        -11   -1    0    0    0    0  0.00000000000E+00  0.00000000000E+00  0.45593999997E+02  0.45594000000E+02  0.51100000000E-03 0. -1.
         11   -1    0    0    0    0 -0.00000000000E+00 -0.00000000000E+00 -0.45593999997E+02  0.45594000000E+02  0.51100000000E-03 0.  1.
         23    2    1    2    0    0  0.00000000000E+00  0.88817841970E-15  0.00000000000E+00  0.91188000000E+02  0.91188000000E+02 0.  0.
    9900012    2    3    3    0    0  0.36036724188E+02  0.60839620196E+01  0.44854805684E+01  0.54367087192E+02  0.40000006872E+02 0.  0.
         12    1    3    3    0    0 -0.36036724188E+02 -0.60839620196E+01 -0.44854805684E+01  0.36820912808E+02  0.00000000000E+00 0. -1.
         11    1    4    4    0    0  0.22881261740E+02  0.10431009682E+02 -0.64340499261E+01  0.25956792955E+02  0.51100000000E-03 0. -1.
        -11    1    4    4    0    0  0.15599266300E+02 -0.78871010874E+01  0.89604317772E+00  0.17502753107E+02  0.51100000000E-03 0.  1.
        -12    1    4    4    0    0 -0.24438038526E+01  0.35400534246E+01  0.10023487317E+02  0.10907541130E+02  0.00000000000E+00 0.  1.
</event>
<event>
 8    1  0.1248739E-006  0.9118800E+02  0.7816164E-02  0.1184000E+00
        -11   -1    0    0    0    0  0.00000000000E+00  0.00000000000E+00  0.45593999997E+02  0.45594000000E+02  0.51100000000E-03 0. -1.
         11   -1    0    0    0    0 -0.00000000000E+00 -0.00000000000E+00 -0.45593999997E+02  0.45594000000E+02  0.51100000000E-03 0.  1.
         23    2    1    2    0    0  0.35527136788E-14 -0.35527136788E-14 -0.17763568394E-14  0.91188000000E+02  0.91188000000E+02 0.  0.
    9900012    2    3    3    0    0  0.14201896690E+02 -0.29969248221E+02 -0.15997817773E+02  0.54367083634E+02  0.39999998760E+02 0.  0.
         12    1    3    3    0    0 -0.14201896690E+02  0.29969248221E+02  0.15997817773E+02  0.36820916366E+02  0.00000000000E+00 0. -1.
         11    1    4    4    0    0  0.14689704429E+02 -0.59813330662E+01 -0.51366759116E+01  0.16671808575E+02  0.51100000000E-03 0. -1.
        -11    1    4    4    0    0 -0.53972778989E+01 -0.13450057291E+02 -0.18711458833E+02  0.23667558847E+02  0.51100000000E-03 0.  1.
        -12    1    4    4    0    0  0.49094701591E+01 -0.10537857864E+02  0.78503169707E+01  0.14027716213E+02  0.00000000000E+00 0.  1.
</event>
<event>
 8    1  0.1248739E-006  0.9118800E+02  0.7816164E-02  0.1184000E+00
        -11   -1    0    0    0    0  0.00000000000E+00  0.00000000000E+00  0.45593999997E+02  0.45594000000E+02  0.51100000000E-03 0. -1.
         11   -1    0    0    0    0 -0.00000000000E+00 -0.00000000000E+00 -0.45593999997E+02  0.45594000000E+02  0.51100000000E-03 0.  1.
         23    2    1    2    0    0 -0.35527136788E-14  0.00000000000E+00 -0.17763568394E-14  0.91188000000E+02  0.91188000000E+02 0.  0.
    9900012    2    3    3    0    0 -0.12362873009E+02 -0.32069699338E+02 -0.13208824219E+02  0.54367091783E+02  0.40000017338E+02 0.  0.
         12    1    3    3    0    0  0.12362873009E+02  0.32069699338E+02  0.13208824219E+02  0.36820908217E+02  0.00000000000E+00 0. -1.
         11    1    4    4    0    0  0.58330116012E+01 -0.10892797802E+02 -0.72275137482E+01  0.14314818320E+02  0.51100000000E-03 0. -1.
        -11    1    4    4    0    0 -0.40491653968E+01 -0.13561453668E+02 -0.15808901121E+02  0.21218626745E+02  0.51100000000E-03 0.  1.
         12    1    4    4    0    0 -0.14146719213E+02 -0.76154478675E+01  0.98275906504E+01  0.18833646719E+02  0.00000000000E+00 0. -1.
</event>
<event>
 8    1  0.1248739E-006  0.9118800E+02  0.7816164E-02  0.1184000E+00
        -11   -1    0    0    0    0  0.00000000000E+00  0.00000000000E+00  0.45593999997E+02  0.45594000000E+02  0.51100000000E-03 0. -1.
         11   -1    0    0    0    0 -0.00000000000E+00 -0.00000000000E+00 -0.45593999997E+02  0.45594000000E+02  0.51100000000E-03 0.  1.
         23    2    1    2    0    0  0.00000000000E+00  0.17763568394E-14  0.00000000000E+00  0.91188000000E+02  0.91188000000E+02 0.  0.
    9900012    2    3    3    0    0 -0.33702197438E+02 -0.81319553666E+01  0.12402123076E+02  0.54367089269E+02  0.40000011607E+02 0.  0.
         12    1    3    3    0    0  0.33702197438E+02  0.81319553666E+01 -0.12402123076E+02  0.36820910731E+02  0.00000000000E+00 0. -1.
         11    1    4    4    0    0 -0.39616717870E+01 -0.32708490847E+01  0.10377768397E+02  0.11579782997E+02  0.51100000000E-03 0. -1.
        -11    1    4    4    0    0 -0.16514868473E+01  0.55276388897E+01 -0.91542175538E+01  0.10820438983E+02  0.51100000000E-03 0.  1.
         12    1    4    4    0    0 -0.28089038804E+02 -0.10388745172E+02  0.11178572233E+02  0.31966867290E+02  0.00000000000E+00 0. -1.
</event>
<event>
 8    1  0.1248739E-006  0.9118800E+02  0.7816164E-02  0.1184000E+00
        -11   -1    0    0    0    0  0.00000000000E+00  0.00000000000E+00  0.45593999997E+02  0.45594000000E+02  0.51100000000E-03 0. -1.
         11   -1    0    0    0    0 -0.00000000000E+00 -0.00000000000E+00 -0.45593999997E+02  0.45594000000E+02  0.51100000000E-03 0.  1.
         23    2    1    2    0    0  0.17763568394E-14  0.22204460493E-14  0.00000000000E+00  0.91188000000E+02  0.91188000000E+02 0.  0.
    9900012    2    3    3    0    0 -0.15101717939E+02 -0.27772021620E+01  0.33466498893E+02  0.54367064586E+02  0.39999955337E+02 0.  0.
        -12    1    3    3    0    0  0.15101717939E+02  0.27772021620E+01 -0.33466498893E+02  0.36820935414E+02  0.00000000000E+00 0.  1.
         11    1    4    4    0    0 -0.97503237665E+01  0.16066034474E+02  0.14775815414E+02  0.23906296214E+02  0.51100000000E-03 0. -1.
        -11    1    4    4    0    0 -0.11859685951E+01 -0.13703465053E+02  0.19427886704E+02  0.23804080701E+02  0.51100000000E-03 0.  1.
         12    1    4    4    0    0 -0.41654255776E+01 -0.51397715825E+01 -0.73720322418E+00  0.66566876716E+01  0.00000000000E+00 0. -1.
</event>
<event>
 8    1  0.1248739E-006  0.9118800E+02  0.7816164E-02  0.1184000E+00
        -11   -1    0    0    0    0  0.00000000000E+00  0.00000000000E+00  0.45593999997E+02  0.45594000000E+02  0.51100000000E-03 0.  1.
         11   -1    0    0    0    0 -0.00000000000E+00 -0.00000000000E+00 -0.45593999997E+02  0.45594000000E+02  0.51100000000E-03 0. -1.
         23    2    1    2    0    0  0.71054273576E-14  0.00000000000E+00  0.17763568394E-14  0.91188000000E+02  0.91188000000E+02 0.  0.
    9900012    2    3    3    0    0 -0.32748799599E+02 -0.70589157492E+01  0.15279672213E+02  0.54367074568E+02  0.39999978092E+02 0.  0.
         12    1    3    3    0    0  0.32748799599E+02  0.70589157492E+01 -0.15279672213E+02  0.36820925432E+02  0.00000000000E+00 0. -1.
         11    1    4    4    0    0  0.63429741953E+01 -0.96406950386E+00  0.70096661690E+01  0.95025350151E+01  0.51100000000E-03 0. -1.
        -11    1    4    4    0    0 -0.23202699711E-01 -0.24321891182E+01  0.49120150754E+01  0.54812384215E+01  0.51100000000E-03 0.  1.
        -12    1    4    4    0    0 -0.39068571095E+02 -0.36626571272E+01  0.33579909687E+01  0.39383301131E+02  0.00000000000E+00 0.  1.
</event>
<event>
 8    1  0.1248739E-006  0.9118800E+02  0.7816164E-02  0.1184000E+00
        -11   -1    0    0    0    0  0.00000000000E+00  0.00000000000E+00  0.45593999997E+02  0.45594000000E+02  0.51100000000E-03 0. -1.
         11   -1    0    0    0    0 -0.00000000000E+00 -0.00000000000E+00 -0.45593999997E+02  0.45594000000E+02  0.51100000000E-03 0.  1.
         23    2    1    2    0    0  0.00000000000E+00  0.00000000000E+00  0.63837823916E-15  0.91188000000E+02  0.91188000000E+02 0.  0.
    9900012    2    3    3    0    0 -0.66812942565E+01  0.36209115887E+02 -0.19887723226E+00  0.54367091287E+02  0.40000016207E+02 0.  0.
         12    1    3    3    0    0  0.66812942565E+01 -0.36209115887E+02  0.19887723226E+00  0.36820908713E+02  0.00000000000E+00 0. -1.
         11    1    4    4    0    0 -0.16294141715E+01  0.26877239035E+02 -0.84803391615E+01  0.28230428995E+02  0.51100000000E-03 0. -1.
        -11    1    4    4    0    0 -0.31585290073E+00  0.12476294020E+02 -0.35797174001E+01  0.12983530046E+02  0.51100000000E-03 0.  1.
         12    1    4    4    0    0 -0.47360271842E+01 -0.31444171673E+01  0.11861179329E+02  0.13153132247E+02  0.00000000000E+00 0. -1.
</event>
<event>
 8    1  0.1248739E-006  0.9118800E+02  0.7816164E-02  0.1184000E+00
        -11   -1    0    0    0    0  0.00000000000E+00  0.00000000000E+00  0.45593999997E+02  0.45594000000E+02  0.51100000000E-03 0.  1.
         11   -1    0    0    0    0 -0.00000000000E+00 -0.00000000000E+00 -0.45593999997E+02  0.45594000000E+02  0.51100000000E-03 0. -1.
         23    2    1    2    0    0  0.00000000000E+00  0.17763568394E-14 -0.35527136788E-14  0.91188000000E+02  0.91188000000E+02 0.  0.
    9900012    2    3    3    0    0 -0.30745645347E+02 -0.93634103168E+01  0.17966929217E+02  0.54367099603E+02  0.40000035164E+02 0.  0.
         12    1    3    3    0    0  0.30745645347E+02  0.93634103168E+01 -0.17966929217E+02  0.36820900397E+02  0.00000000000E+00 0. -1.
         11    1    4    4    0    0 -0.17935201445E+01  0.18722263235E+01 -0.49466761112E+01  0.55849396349E+01  0.51100000000E-03 0. -1.
        -11    1    4    4    0    0 -0.15120767539E+02 -0.11290233308E+02 -0.32868656287E+01  0.19154907074E+02  0.51100000000E-03 0.  1.
        -12    1    4    4    0    0 -0.13831357664E+02  0.54596667409E-01  0.26200470957E+02  0.29627252893E+02  0.00000000000E+00 0.  1.
</event>
<event>
 8    1  0.1248739E-006  0.9118800E+02  0.7816164E-02  0.1184000E+00
        -11   -1    0    0    0    0  0.00000000000E+00  0.00000000000E+00  0.45593999997E+02  0.45594000000E+02  0.51100000000E-03 0. -1.
         11   -1    0    0    0    0 -0.00000000000E+00 -0.00000000000E+00 -0.45593999997E+02  0.45594000000E+02  0.51100000000E-03 0.  1.
         23    2    1    2    0    0  0.00000000000E+00 -0.17763568394E-14 -0.88817841970E-15  0.91188000000E+02  0.91188000000E+02 0.  0.
    9900012    2    3    3    0    0 -0.34560874398E+02 -0.12416469634E+02 -0.26753775829E+01  0.54367076566E+02  0.39999982647E+02 0.  0.
        -12    1    3    3    0    0  0.34560874398E+02  0.12416469634E+02  0.26753775829E+01  0.36820923434E+02  0.00000000000E+00 0.  1.
         11    1    4    4    0    0 -0.26122128676E+02  0.25604747971E+00  0.50185205194E+01  0.26601066056E+02  0.51100000000E-03 0. -1.
        -11    1    4    4    0    0  0.42568128015E+01  0.31559138207E+01  0.14738877128E+01  0.55002356787E+01  0.51100000000E-03 0.  1.
         12    1    4    4    0    0 -0.12695558524E+02 -0.15828430934E+02 -0.91677858151E+01  0.22265774831E+02  0.00000000000E+00 0. -1.
</event>
<event>
 8    1  0.1248739E-006  0.9118800E+02  0.7816164E-02  0.1184000E+00
        -11   -1    0    0    0    0  0.00000000000E+00  0.00000000000E+00  0.45593999997E+02  0.45594000000E+02  0.51100000000E-03 0. -1.
         11   -1    0    0    0    0 -0.00000000000E+00 -0.00000000000E+00 -0.45593999997E+02  0.45594000000E+02  0.51100000000E-03 0.  1.
         23    2    1    2    0    0  0.00000000000E+00  0.00000000000E+00 -0.66613381478E-15  0.91188000000E+02  0.91188000000E+02 0.  0.
    9900012    2    3    3    0    0  0.34161295896E+02  0.13735625909E+02 -0.34354383857E+00  0.54367087753E+02  0.40000008149E+02 0.  0.
         12    1    3    3    0    0 -0.34161295896E+02 -0.13735625909E+02  0.34354383857E+00  0.36820912247E+02  0.00000000000E+00 0. -1.
         11    1    4    4    0    0  0.86218072191E+00 -0.61373990807E+01  0.89041001329E+01  0.10848687594E+02  0.51100000000E-03 0. -1.
        -11    1    4    4    0    0  0.10418421382E+02  0.15766621981E+02 -0.70437418495E+01  0.20167899551E+02  0.51100000000E-03 0.  1.
         12    1    4    4    0    0  0.22880693792E+02  0.41064030078E+01 -0.22039021220E+01  0.23350500608E+02  0.00000000000E+00 0. -1.
</event>
<event>
 8    1  0.1248739E-006  0.9118800E+02  0.7816164E-02  0.1184000E+00
        -11   -1    0    0    0    0  0.00000000000E+00  0.00000000000E+00  0.45593999997E+02  0.45594000000E+02  0.51100000000E-03 0.  1.
         11   -1    0    0    0    0 -0.00000000000E+00 -0.00000000000E+00 -0.45593999997E+02  0.45594000000E+02  0.51100000000E-03 0. -1.
         23    2    1    2    0    0  0.00000000000E+00  0.35527136788E-14  0.00000000000E+00  0.91188000000E+02  0.91188000000E+02 0.  0.
    9900012    2    3    3    0    0 -0.16004121016E+02  0.27276050562E+02  0.18859090865E+02  0.54367080239E+02  0.39999991021E+02 0.  0.
         12    1    3    3    0    0  0.16004121016E+02 -0.27276050562E+02 -0.18859090865E+02  0.36820919761E+02  0.00000000000E+00 0. -1.
         11    1    4    4    0    0 -0.13246505722E+02  0.49014056220E+00  0.16456274860E+00  0.13256592050E+02  0.51100000000E-03 0. -1.
        -11    1    4    4    0    0 -0.10293103911E+02  0.26973702920E+02  0.12996264184E+02  0.31661198972E+02  0.51100000000E-03 0.  1.
        -12    1    4    4    0    0  0.75354886174E+01 -0.18779291931E+00  0.56982639321E+01  0.94492892179E+01  0.00000000000E+00 0.  1.
</event>
<event>
 8    1  0.1248739E-006  0.9118800E+02  0.7816164E-02  0.1184000E+00
        -11   -1    0    0    0    0  0.00000000000E+00  0.00000000000E+00  0.45593999997E+02  0.45594000000E+02  0.51100000000E-03 0.  1.
         11   -1    0    0    0    0 -0.00000000000E+00 -0.00000000000E+00 -0.45593999997E+02  0.45594000000E+02  0.51100000000E-03 0. -1.
         23    2    1    2    0    0  0.00000000000E+00  0.00000000000E+00  0.17763568394E-14  0.91188000000E+02  0.91188000000E+02 0.  0.
    9900012    2    3    3    0    0 -0.29095105754E+02  0.16228875984E+02  0.15680479184E+02  0.54367095313E+02  0.40000025384E+02 0.  0.
         12    1    3    3    0    0  0.29095105754E+02 -0.16228875984E+02 -0.15680479184E+02  0.36820904687E+02  0.00000000000E+00 0. -1.
         11    1    4    4    0    0  0.10816013327E+00 -0.24011555816E+01 -0.35238321975E+01  0.42655175956E+01  0.51100000000E-03 0. -1.
        -11    1    4    4    0    0 -0.18961844053E+02 -0.21735548842E+01  0.18973977539E+02  0.26912593607E+02  0.51100000000E-03 0.  1.
        -12    1    4    4    0    0 -0.10241421835E+02  0.20803586450E+02  0.23033384225E+00  0.23188984110E+02  0.00000000000E+00 0.  1.
</event>
<event>
 8    1  0.1248739E-006  0.9118800E+02  0.7816164E-02  0.1184000E+00
        -11   -1    0    0    0    0  0.00000000000E+00  0.00000000000E+00  0.45593999997E+02  0.45594000000E+02  0.51100000000E-03 0.  1.
         11   -1    0    0    0    0 -0.00000000000E+00 -0.00000000000E+00 -0.45593999997E+02  0.45594000000E+02  0.51100000000E-03 0. -1.
         23    2    1    2    0    0  0.35527136788E-14  0.71054273576E-14  0.00000000000E+00  0.91188000000E+02  0.91188000000E+02 0.  0.
    9900012    2    3    3    0    0 -0.22290936399E+02 -0.28064862556E+02  0.84413866906E+01  0.54367090653E+02  0.40000014763E+02 0.  0.
         12    1    3    3    0    0  0.22290936399E+02  0.28064862556E+02 -0.84413866906E+01  0.36820909347E+02  0.00000000000E+00 0. -1.
         11    1    4    4    0    0 -0.39440448768E+01 -0.10257603115E+02  0.15233977664E+02  0.18784248385E+02  0.51100000000E-03 0. -1.
        -11    1    4    4    0    0 -0.37744818496E+01 -0.10949334133E+02  0.77073499005E+01  0.13911789028E+02  0.51100000000E-03 0.  1.
         12    1    4    4    0    0 -0.14572409673E+02 -0.68579253081E+01 -0.14499940874E+02  0.21671053241E+02  0.00000000000E+00 0. -1.
</event>
<event>
 8    1  0.1248739E-006  0.9118800E+02  0.7816164E-02  0.1184000E+00
        -11   -1    0    0    0    0  0.00000000000E+00  0.00000000000E+00  0.45593999997E+02  0.45594000000E+02  0.51100000000E-03 0.  1.
         11   -1    0    0    0    0 -0.00000000000E+00 -0.00000000000E+00 -0.45593999997E+02  0.45594000000E+02  0.51100000000E-03 0. -1.
         23    2    1    2    0    0  0.35527136788E-14 -0.52735593670E-15 -0.35527136788E-14  0.91188000000E+02  0.91188000000E+02 0.  0.
    9900012    2    3    3    0    0  0.22619706065E+02  0.16643897649E+00 -0.29053402345E+02  0.54367095716E+02  0.40000026305E+02 0.  0.
        -12    1    3    3    0    0 -0.22619706065E+02 -0.16643897649E+00  0.29053402345E+02  0.36820904284E+02  0.00000000000E+00 0.  1.
         11    1    4    4    0    0 -0.19032904554E+00 -0.45898717119E+01 -0.25566549064E+01  0.52573407773E+01  0.51100000000E-03 0. -1.
        -11    1    4    4    0    0  0.11166450774E+02  0.19454117374E+02 -0.12230892047E+02  0.25548914384E+02  0.51100000000E-03 0.  1.
        -12    1    4    4    0    0  0.11643584337E+02 -0.14697806686E+02 -0.14265855392E+02  0.23560840555E+02  0.00000000000E+00 0.  1.
</event>
<event>
 8    1  0.1248739E-006  0.9118800E+02  0.7816164E-02  0.1184000E+00
        -11   -1    0    0    0    0  0.00000000000E+00  0.00000000000E+00  0.45593999997E+02  0.45594000000E+02  0.51100000000E-03 0.  1.
         11   -1    0    0    0    0 -0.00000000000E+00 -0.00000000000E+00 -0.45593999997E+02  0.45594000000E+02  0.51100000000E-03 0. -1.
         23    2    1    2    0    0  0.35527136788E-14  0.35527136788E-14 -0.22204460493E-14  0.91188000000E+02  0.91188000000E+02 0.  0.
    9900012    2    3    3    0    0 -0.23024961553E+02 -0.28709937903E+02 -0.11704897170E+01  0.54367089703E+02  0.40000012597E+02 0.  0.
        -12    1    3    3    0    0  0.23024961553E+02  0.28709937903E+02  0.11704897170E+01  0.36820910297E+02  0.00000000000E+00 0.  1.
         11    1    4    4    0    0  0.52434729105E+01 -0.31984398447E+01 -0.10927748494E+02  0.12535538003E+02  0.51100000000E-03 0. -1.
        -11    1    4    4    0    0 -0.17450023303E+01 -0.26474977421E+01  0.57745855019E+01  0.65878763958E+01  0.51100000000E-03 0.  1.
         12    1    4    4    0    0 -0.26523432133E+02 -0.22864000316E+02  0.39826732753E+01  0.35243675305E+02  0.00000000000E+00 0. -1.
</event>
<event>
 8    1  0.1248739E-006  0.9118800E+02  0.7816164E-02  0.1184000E+00
        -11   -1    0    0    0    0  0.00000000000E+00  0.00000000000E+00  0.45593999997E+02  0.45594000000E+02  0.51100000000E-03 0. -1.
         11   -1    0    0    0    0 -0.00000000000E+00 -0.00000000000E+00 -0.45593999997E+02  0.45594000000E+02  0.51100000000E-03 0.  1.
         23    2    1    2    0    0  0.00000000000E+00 -0.88817841970E-15  0.00000000000E+00  0.91188000000E+02  0.91188000000E+02 0.  0.
    9900012    2    3    3    0    0  0.95017647105E+01  0.49022156443E+01  0.35234431940E+02  0.54367075990E+02  0.39999981334E+02 0.  0.
        -12    1    3    3    0    0 -0.95017647105E+01 -0.49022156443E+01 -0.35234431940E+02  0.36820924010E+02  0.00000000000E+00 0.  1.
         11    1    4    4    0    0  0.10984131418E+02 -0.10729359175E+02  0.30016453358E+01  0.15645451936E+02  0.51100000000E-03 0. -1.
        -11    1    4    4    0    0  0.32957943433E+01  0.15231502649E+01  0.49780309019E+00  0.36647039799E+01  0.51100000000E-03 0.  1.
        -12    1    4    4    0    0 -0.47781610511E+01  0.14108424554E+02  0.31734983514E+02  0.35056920074E+02  0.00000000000E+00 0.  1.
</event>
<event>
 8    1  0.1248739E-006  0.9118800E+02  0.7816164E-02  0.1184000E+00
        -11   -1    0    0    0    0  0.00000000000E+00  0.00000000000E+00  0.45593999997E+02  0.45594000000E+02  0.51100000000E-03 0.  1.
         11   -1    0    0    0    0 -0.00000000000E+00 -0.00000000000E+00 -0.45593999997E+02  0.45594000000E+02  0.51100000000E-03 0. -1.
         23    2    1    2    0    0  0.00000000000E+00  0.00000000000E+00  0.00000000000E+00  0.91188000000E+02  0.91188000000E+02 0.  0.
    9900012    2    3    3    0    0 -0.25965472055E+02  0.10148298675E+02 -0.24053858702E+02  0.54367057271E+02  0.39999938660E+02 0.  0.
        -12    1    3    3    0    0  0.25965472055E+02 -0.10148298675E+02  0.24053858702E+02  0.36820942729E+02  0.00000000000E+00 0.  1.
         11    1    4    4    0    0 -0.56357026254E+01 -0.58112381671E+01 -0.20655741819E+01  0.83545335046E+01  0.51100000000E-03 0.  1.
        -11    1    4    4    0    0 -0.86238937932E+01 -0.44586085755E+01 -0.20196559865E+02  0.22408743053E+02  0.51100000000E-03 0. -1.
         12    1    4    4    0    0 -0.11705875636E+02  0.20418145418E+02 -0.17917246554E+01  0.23603780713E+02  0.00000000000E+00 0. -1.
</event>
<event>
 8    1  0.1248739E-006  0.9118800E+02  0.7816164E-02  0.1184000E+00
        -11   -1    0    0    0    0  0.00000000000E+00  0.00000000000E+00  0.45593999997E+02  0.45594000000E+02  0.51100000000E-03 0.  1.
         11   -1    0    0    0    0 -0.00000000000E+00 -0.00000000000E+00 -0.45593999997E+02  0.45594000000E+02  0.51100000000E-03 0. -1.
         23    2    1    2    0    0 -0.16653345369E-15  0.71054273576E-14 -0.10824674490E-14  0.91188000000E+02  0.91188000000E+02 0.  0.
    9900012    2    3    3    0    0 -0.49785258725E+00  0.36817076769E+02  0.18606709337E+00  0.54367087192E+02  0.40000006872E+02 0.  0.
        -12    1    3    3    0    0  0.49785258725E+00 -0.36817076769E+02 -0.18606709337E+00  0.36820912808E+02  0.00000000000E+00 0.  1.
         11    1    4    4    0    0  0.95204220645E+01  0.43342367215E+01 -0.15592536546E+00  0.10461756890E+02  0.51100000000E-03 0. -1.
        -11    1    4    4    0    0 -0.32758074458E+01  0.44642458231E+01  0.11688425609E+02  0.12933665323E+02  0.51100000000E-03 0.  1.
         12    1    4    4    0    0 -0.67424672059E+01  0.28018594225E+02 -0.11346433151E+02  0.30971664979E+02  0.00000000000E+00 0. -1.
</event>
<event>
 8    1  0.1248739E-006  0.9118800E+02  0.7816164E-02  0.1184000E+00
        -11   -1    0    0    0    0  0.00000000000E+00  0.00000000000E+00  0.45593999997E+02  0.45594000000E+02  0.51100000000E-03 0.  1.
         11   -1    0    0    0    0 -0.00000000000E+00 -0.00000000000E+00 -0.45593999997E+02  0.45594000000E+02  0.51100000000E-03 0. -1.
         23    2    1    2    0    0  0.00000000000E+00  0.35527136788E-14 -0.17763568394E-14  0.91188000000E+02  0.91188000000E+02 0.  0.
    9900012    2    3    3    0    0  0.24254535542E+02 -0.25382488427E+02  0.11100726481E+02  0.54367090974E+02  0.40000015493E+02 0.  0.
         12    1    3    3    0    0 -0.24254535542E+02  0.25382488427E+02 -0.11100726481E+02  0.36820909026E+02  0.00000000000E+00 0. -1.
         11    1    4    4    0    0  0.58340273622E+01 -0.33264531700E+01  0.51083274245E+01  0.84377826052E+01  0.51100000000E-03 0. -1.
        -11    1    4    4    0    0  0.54995366998E+01 -0.17056803265E+02  0.19566442589E+02  0.26533471642E+02  0.51100000000E-03 0.  1.
         12    1    4    4    0    0  0.12920971480E+02 -0.49992319927E+01 -0.13574043532E+02  0.19395836727E+02  0.00000000000E+00 0. -1.
</event>
<event>
 8    1  0.1248739E-006  0.9118800E+02  0.7816164E-02  0.1184000E+00
        -11   -1    0    0    0    0  0.00000000000E+00  0.00000000000E+00  0.45593999997E+02  0.45594000000E+02  0.51100000000E-03 0.  1.
         11   -1    0    0    0    0 -0.00000000000E+00 -0.00000000000E+00 -0.45593999997E+02  0.45594000000E+02  0.51100000000E-03 0. -1.
         23    2    1    2    0    0  0.17763568394E-14  0.00000000000E+00  0.35527136788E-14  0.91188000000E+02  0.91188000000E+02 0.  0.
    9900012    2    3    3    0    0  0.15423580073E+02 -0.24047204745E+02 -0.23229803904E+02  0.54367100123E+02  0.40000036351E+02 0.  0.
        -12    1    3    3    0    0 -0.15423580073E+02  0.24047204745E+02  0.23229803904E+02  0.36820899877E+02  0.00000000000E+00 0.  1.
         11    1    4    4    0    0  0.22287153110E+02 -0.35326608896E+01 -0.10732485446E+02  0.24987659571E+02  0.51100000000E-03 0. -1.
        -11    1    4    4    0    0 -0.64430061087E+01 -0.13023622023E+01 -0.22286176856E+00  0.65770922642E+01  0.51100000000E-03 0.  1.
         12    1    4    4    0    0 -0.42056692873E+00 -0.19212181653E+02 -0.12274456689E+02  0.22802348288E+02  0.00000000000E+00 0. -1.
</event>
<event>
 8    1  0.1248739E-006  0.9118800E+02  0.7816164E-02  0.1184000E+00
        -11   -1    0    0    0    0  0.00000000000E+00  0.00000000000E+00  0.45593999997E+02  0.45594000000E+02  0.51100000000E-03 0.  1.
         11   -1    0    0    0    0 -0.00000000000E+00 -0.00000000000E+00 -0.45593999997E+02  0.45594000000E+02  0.51100000000E-03 0. -1.
         23    2    1    2    0    0 -0.35527136788E-14 -0.17763568394E-14  0.00000000000E+00  0.91188000000E+02  0.91188000000E+02 0.  0.
    9900012    2    3    3    0    0  0.26912755253E+02 -0.15401184039E+02 -0.19856697107E+02  0.54367064581E+02  0.39999955325E+02 0.  0.
        -12    1    3    3    0    0 -0.26912755253E+02  0.15401184039E+02  0.19856697107E+02  0.36820935419E+02  0.00000000000E+00 0.  1.
         11    1    4    4    0    0 -0.65484278356E+01 -0.10198373844E+02 -0.85205665378E+01  0.14815154085E+02  0.51100000000E-03 0. -1.
        -11    1    4    4    0    0  0.30433998318E+01  0.47179519256E+01 -0.18431289179E-01  0.56144183031E+01  0.51100000000E-03 0.  1.
         12    1    4    4    0    0  0.30417783257E+02 -0.99207621207E+01 -0.11317699281E+02  0.33937492193E+02  0.00000000000E+00 0. -1.
</event>
<event>
 8    1  0.1248739E-006  0.9118800E+02  0.7816164E-02  0.1184000E+00
        -11   -1    0    0    0    0  0.00000000000E+00  0.00000000000E+00  0.45593999997E+02  0.45594000000E+02  0.51100000000E-03 0. -1.
         11   -1    0    0    0    0 -0.00000000000E+00 -0.00000000000E+00 -0.45593999997E+02  0.45594000000E+02  0.51100000000E-03 0.  1.
         23    2    1    2    0    0  0.00000000000E+00  0.00000000000E+00  0.00000000000E+00  0.91188000000E+02  0.91188000000E+02 0.  0.
    9900012    2    3    3    0    0  0.11499584539E+02  0.27926413149E+02 -0.21063108306E+02  0.54367088449E+02  0.40000009738E+02 0.  0.
         12    1    3    3    0    0 -0.11499584539E+02 -0.27926413149E+02  0.21063108306E+02  0.36820911551E+02  0.00000000000E+00 0. -1.
         11    1    4    4    0    0  0.38094956041E+01  0.18654409030E+02 -0.13844848942E+02  0.23541008379E+02  0.51100000000E-03 0. -1.
        -11    1    4    4    0    0  0.16396169507E+02  0.92031804164E+01 -0.10483483435E+02  0.21527571379E+02  0.51100000000E-03 0.  1.
         12    1    4    4    0    0 -0.87060805724E+01  0.68823702229E-01  0.32652240715E+01  0.92985086907E+01  0.00000000000E+00 0. -1.
</event>
<event>
 8    1  0.1248739E-006  0.9118800E+02  0.7816164E-02  0.1184000E+00
        -11   -1    0    0    0    0  0.00000000000E+00  0.00000000000E+00  0.45593999997E+02  0.45594000000E+02  0.51100000000E-03 0. -1.
         11   -1    0    0    0    0 -0.00000000000E+00 -0.00000000000E+00 -0.45593999997E+02  0.45594000000E+02  0.51100000000E-03 0.  1.
         23    2    1    2    0    0 -0.17763568394E-14  0.71054273576E-14  0.83266726847E-15  0.91188000000E+02  0.91188000000E+02 0.  0.
    9900012    2    3    3    0    0  0.12850753879E+02 -0.34504634997E+02  0.26188195520E+00  0.54367078044E+02  0.39999986016E+02 0.  0.
         12    1    3    3    0    0 -0.12850753879E+02  0.34504634997E+02 -0.26188195520E+00  0.36820921956E+02  0.00000000000E+00 0. -1.
         11    1    4    4    0    0 -0.13227605805E+00 -0.10286572561E+02  0.11906180067E+02  0.15734935528E+02  0.51100000000E-03 0. -1.
        -11    1    4    4    0    0  0.20078536871E+02 -0.20484211752E+02 -0.77146076615E+01  0.29702958533E+02  0.51100000000E-03 0.  1.
         12    1    4    4    0    0 -0.70955069336E+01 -0.37338506833E+01 -0.39296904500E+01  0.89291839830E+01  0.00000000000E+00 0. -1.
</event>
<event>
 8    1  0.1248739E-006  0.9118800E+02  0.7816164E-02  0.1184000E+00
        -11   -1    0    0    0    0  0.00000000000E+00  0.00000000000E+00  0.45593999997E+02  0.45594000000E+02  0.51100000000E-03 0.  1.
         11   -1    0    0    0    0 -0.00000000000E+00 -0.00000000000E+00 -0.45593999997E+02  0.45594000000E+02  0.51100000000E-03 0. -1.
         23    2    1    2    0    0  0.00000000000E+00  0.00000000000E+00  0.00000000000E+00  0.91188000000E+02  0.91188000000E+02 0.  0.
    9900012    2    3    3    0    0  0.22840838050E+02  0.27432214120E+02  0.90304787945E+01  0.54367084726E+02  0.40000001250E+02 0.  0.
         12    1    3    3    0    0 -0.22840838050E+02 -0.27432214120E+02 -0.90304787945E+01  0.36820915274E+02  0.00000000000E+00 0. -1.
         11    1    4    4    0    0 -0.42570065407E+01  0.29326882406E+00  0.37276164098E+01  0.56659717304E+01  0.51100000000E-03 0. -1.
        -11    1    4    4    0    0  0.27989090517E+02  0.78098157836E+01  0.28912220276E+01  0.29201739256E+02  0.51100000000E-03 0.  1.
        -12    1    4    4    0    0 -0.89124592615E+00  0.19329129513E+02  0.24116403571E+01  0.19499373739E+02  0.00000000000E+00 0.  1.
</event>
<event>
 8    1  0.1248739E-006  0.9118800E+02  0.7816164E-02  0.1184000E+00
        -11   -1    0    0    0    0  0.00000000000E+00  0.00000000000E+00  0.45593999997E+02  0.45594000000E+02  0.51100000000E-03 0.  1.
         11   -1    0    0    0    0 -0.00000000000E+00 -0.00000000000E+00 -0.45593999997E+02  0.45594000000E+02  0.51100000000E-03 0. -1.
         23    2    1    2    0    0  0.00000000000E+00  0.00000000000E+00 -0.71054273576E-14  0.91188000000E+02  0.91188000000E+02 0.  0.
    9900012    2    3    3    0    0  0.21017143622E+02 -0.72641924290E+01  0.29347653372E+02  0.54367169264E+02  0.40000193970E+02 0.  0.
         12    1    3    3    0    0 -0.21017143622E+02  0.72641924290E+01 -0.29347653372E+02  0.36820830736E+02  0.00000000000E+00 0. -1.
         11    1    4    4    0    0 -0.60086940696E+01  0.14847526480E+01  0.77312273102E+00  0.62375166425E+01  0.51100000000E-03 0. -1.
        -11    1    4    4    0    0  0.17884322682E+02 -0.70929054530E+01  0.12625967251E+01  0.19280883183E+02  0.51100000000E-03 0.  1.
         12    1    4    4    0    0  0.91415150096E+01 -0.16560396240E+01  0.27311933916E+02  0.28848769438E+02  0.00000000000E+00 0. -1.
</event>
<event>
 8    1  0.1248739E-006  0.9118800E+02  0.7816164E-02  0.1184000E+00
        -11   -1    0    0    0    0  0.00000000000E+00  0.00000000000E+00  0.45593999997E+02  0.45594000000E+02  0.51100000000E-03 0. -1.
         11   -1    0    0    0    0 -0.00000000000E+00 -0.00000000000E+00 -0.45593999997E+02  0.45594000000E+02  0.51100000000E-03 0.  1.
         23    2    1    2    0    0  0.17763568394E-14  0.00000000000E+00  0.00000000000E+00  0.91188000000E+02  0.91188000000E+02 0.  0.
    9900012    2    3    3    0    0 -0.60950484135E+01  0.35528689181E+01 -0.36138727728E+02  0.54367080205E+02  0.39999990944E+02 0.  0.
         12    1    3    3    0    0  0.60950484135E+01 -0.35528689181E+01  0.36138727728E+02  0.36820919795E+02  0.00000000000E+00 0. -1.
         11    1    4    4    0    0 -0.19118856305E+02  0.33651405880E+01 -0.17405473743E+02  0.26073077188E+02  0.51100000000E-03 0. -1.
        -11    1    4    4    0    0 -0.19842371603E+01  0.18399402003E+01 -0.11004136888E+02  0.11331972730E+02  0.51100000000E-03 0.  1.
         12    1    4    4    0    0  0.15008045052E+02 -0.16522118702E+01 -0.77291170979E+01  0.16962030287E+02  0.00000000000E+00 0. -1.
</event>
<event>
 8    1  0.1248739E-006  0.9118800E+02  0.7816164E-02  0.1184000E+00
        -11   -1    0    0    0    0  0.00000000000E+00  0.00000000000E+00  0.45593999997E+02  0.45594000000E+02  0.51100000000E-03 0.  1.
         11   -1    0    0    0    0 -0.00000000000E+00 -0.00000000000E+00 -0.45593999997E+02  0.45594000000E+02  0.51100000000E-03 0. -1.
         23    2    1    2    0    0  0.00000000000E+00  0.00000000000E+00  0.00000000000E+00  0.91188000000E+02  0.91188000000E+02 0.  0.
    9900012    2    3    3    0    0 -0.24779391052E+02  0.12624659324E+02  0.24132686367E+02  0.54366989758E+02  0.39999784751E+02 0.  0.
         12    1    3    3    0    0  0.24779391052E+02 -0.12624659324E+02 -0.24132686367E+02  0.36821010242E+02  0.00000000000E+00 0. -1.
         11    1    4    4    0    0 -0.63560468375E+01 -0.14094287843E+01 -0.70393264046E+01  0.95884272637E+01  0.51100000000E-03 0. -1.
        -11    1    4    4    0    0 -0.50845665209E+01  0.25082746171E+01 -0.29356620428E+01  0.63845414989E+01  0.51100000000E-03 0.  1.
        -12    1    4    4    0    0 -0.13338777694E+02  0.11525813491E+02  0.34107674814E+02  0.38394020996E+02  0.00000000000E+00 0.  1.
</event>
<event>
 8    1  0.1248739E-006  0.9118800E+02  0.7816164E-02  0.1184000E+00
        -11   -1    0    0    0    0  0.00000000000E+00  0.00000000000E+00  0.45593999997E+02  0.45594000000E+02  0.51100000000E-03 0.  1.
         11   -1    0    0    0    0 -0.00000000000E+00 -0.00000000000E+00 -0.45593999997E+02  0.45594000000E+02  0.51100000000E-03 0. -1.
         23    2    1    2    0    0  0.00000000000E+00 -0.71054273576E-14 -0.44408920985E-15  0.91188000000E+02  0.91188000000E+02 0.  0.
    9900012    2    3    3    0    0 -0.28761296518E+01 -0.36595031975E+02 -0.28828632147E+01  0.54367090351E+02  0.40000014073E+02 0.  0.
         12    1    3    3    0    0  0.28761296518E+01  0.36595031975E+02  0.28828632147E+01  0.36820909649E+02  0.00000000000E+00 0. -1.
         11    1    4    4    0    0 -0.77532471782E+01 -0.10327147084E+02 -0.27898746800E+01  0.13211593761E+02  0.51100000000E-03 0. -1.
        -11    1    4    4    0    0 -0.11090303923E+02 -0.37456267453E+01  0.55844651727E+01  0.12969611110E+02  0.51100000000E-03 0.  1.
        -12    1    4    4    0    0  0.15967421449E+02 -0.22522258146E+02 -0.56774537074E+01  0.28185885481E+02  0.00000000000E+00 0.  1.
</event>
<event>
 8    1  0.1248739E-006  0.9118800E+02  0.7816164E-02  0.1184000E+00
        -11   -1    0    0    0    0  0.00000000000E+00  0.00000000000E+00  0.45593999997E+02  0.45594000000E+02  0.51100000000E-03 0. -1.
         11   -1    0    0    0    0 -0.00000000000E+00 -0.00000000000E+00 -0.45593999997E+02  0.45594000000E+02  0.51100000000E-03 0.  1.
         23    2    1    2    0    0  0.35527136788E-14  0.00000000000E+00  0.00000000000E+00  0.91188000000E+02  0.91188000000E+02 0.  0.
    9900012    2    3    3    0    0 -0.30407056913E+02 -0.19028290446E+02 -0.83135066573E+01  0.54367090990E+02  0.40000015530E+02 0.  0.
         12    1    3    3    0    0  0.30407056913E+02  0.19028290446E+02  0.83135066573E+01  0.36820909010E+02  0.00000000000E+00 0. -1.
         11    1    4    4    0    0 -0.48527838514E+01 -0.16581348265E+02  0.71433467621E+01  0.18695401162E+02  0.51100000000E-03 0. -1.
        -11    1    4    4    0    0 -0.19329213351E+02  0.31197946797E+01 -0.18349499878E+02  0.26833854618E+02  0.51100000000E-03 0.  1.
         12    1    4    4    0    0 -0.62250597102E+01 -0.55667368607E+01  0.28926464582E+01  0.88378352103E+01  0.00000000000E+00 0. -1.
</event>
<event>
 8    1  0.1248739E-006  0.9118800E+02  0.7816164E-02  0.1184000E+00
        -11   -1    0    0    0    0  0.00000000000E+00  0.00000000000E+00  0.45593999997E+02  0.45594000000E+02  0.51100000000E-03 0. -1.
         11   -1    0    0    0    0 -0.00000000000E+00 -0.00000000000E+00 -0.45593999997E+02  0.45594000000E+02  0.51100000000E-03 0.  1.
         23    2    1    2    0    0  0.00000000000E+00  0.00000000000E+00  0.00000000000E+00  0.91188000000E+02  0.91188000000E+02 0.  0.
    9900012    2    3    3    0    0  0.29903260116E+02 -0.10440402180E+02 -0.18776925045E+02  0.54367083697E+02  0.39999998904E+02 0.  0.
         12    1    3    3    0    0 -0.29903260116E+02  0.10440402180E+02  0.18776925045E+02  0.36820916303E+02  0.00000000000E+00 0. -1.
         11    1    4    4    0    0  0.38430999179E+01 -0.34031988045E+01  0.33684618971E+01  0.61398464879E+01  0.51100000000E-03 0. -1.
        -11    1    4    4    0    0  0.12969893670E+02  0.38189967925E+01 -0.27293557213E+02  0.30458843443E+02  0.51100000000E-03 0.  1.
        -12    1    4    4    0    0  0.13090266528E+02 -0.10856200168E+02  0.51481702711E+01  0.17768393765E+02  0.00000000000E+00 0.  1.
</event>
<event>
 8    1  0.1248739E-006  0.9118800E+02  0.7816164E-02  0.1184000E+00
        -11   -1    0    0    0    0  0.00000000000E+00  0.00000000000E+00  0.45593999997E+02  0.45594000000E+02  0.51100000000E-03 0. -1.
         11   -1    0    0    0    0 -0.00000000000E+00 -0.00000000000E+00 -0.45593999997E+02  0.45594000000E+02  0.51100000000E-03 0.  1.
         23    2    1    2    0    0 -0.35527136788E-14  0.00000000000E+00  0.17763568394E-14  0.91188000000E+02  0.91188000000E+02 0.  0.
    9900012    2    3    3    0    0  0.31597484718E+02 -0.10883042541E+02 -0.15457820907E+02  0.54367002150E+02  0.39999813001E+02 0.  0.
         12    1    3    3    0    0 -0.31597484718E+02  0.10883042541E+02  0.15457820907E+02  0.36820997850E+02  0.00000000000E+00 0. -1.
         11    1    4    4    0    0  0.99640954498E+01 -0.61398124894E+01  0.69256349129E+01  0.13599445384E+02  0.51100000000E-03 0. -1.
        -11    1    4    4    0    0 -0.32853778327E-01 -0.26139934894E+01 -0.18462511705E+02  0.18646672090E+02  0.51100000000E-03 0.  1.
         12    1    4    4    0    0  0.21666243047E+02 -0.21292365625E+01 -0.39209441152E+01  0.22120884676E+02  0.00000000000E+00 0. -1.
</event>
<event>
 8    1  0.1248739E-006  0.9118800E+02  0.7816164E-02  0.1184000E+00
        -11   -1    0    0    0    0  0.00000000000E+00  0.00000000000E+00  0.45593999997E+02  0.45594000000E+02  0.51100000000E-03 0.  1.
         11   -1    0    0    0    0 -0.00000000000E+00 -0.00000000000E+00 -0.45593999997E+02  0.45594000000E+02  0.51100000000E-03 0. -1.
         23    2    1    2    0    0  0.00000000000E+00  0.71054273576E-14 -0.35527136788E-14  0.91188000000E+02  0.91188000000E+02 0.  0.
    9900012    2    3    3    0    0  0.10429611876E+02 -0.31461989453E+02  0.16035801402E+02  0.54367075096E+02  0.39999979296E+02 0.  0.
        -12    1    3    3    0    0 -0.10429611876E+02  0.31461989453E+02 -0.16035801402E+02  0.36820924904E+02  0.00000000000E+00 0.  1.
         11    1    4    4    0    0  0.13487854140E+02 -0.12964857080E+02 -0.89534342685E+01  0.20740629543E+02  0.51100000000E-03 0. -1.
        -11    1    4    4    0    0  0.38431184055E+01 -0.18087779803E+01  0.66303989589E+01  0.78742255159E+01  0.51100000000E-03 0.  1.
         12    1    4    4    0    0 -0.69013606691E+01 -0.16688354393E+02  0.18358836711E+02  0.25752220036E+02  0.00000000000E+00 0. -1.
</event>
<event>
 8    1  0.1248739E-006  0.9118800E+02  0.7816164E-02  0.1184000E+00
        -11   -1    0    0    0    0  0.00000000000E+00  0.00000000000E+00  0.45593999997E+02  0.45594000000E+02  0.51100000000E-03 0.  1.
         11   -1    0    0    0    0 -0.00000000000E+00 -0.00000000000E+00 -0.45593999997E+02  0.45594000000E+02  0.51100000000E-03 0. -1.
         23    2    1    2    0    0 -0.71054273576E-14  0.00000000000E+00 -0.17763568394E-14  0.91188000000E+02  0.91188000000E+02 0.  0.
    9900012    2    3    3    0    0 -0.32131361394E+02 -0.14054505926E+02  0.11217006158E+02  0.54367153337E+02  0.40000157661E+02 0.  0.
         12    1    3    3    0    0  0.32131361394E+02  0.14054505926E+02 -0.11217006158E+02  0.36820846663E+02  0.00000000000E+00 0. -1.
         11    1    4    4    0    0 -0.23235728251E+02  0.54948920163E+01 -0.31998349092E+01  0.24090077819E+02  0.51100000000E-03 0. -1.
        -11    1    4    4    0    0 -0.92193258523E+01 -0.44161433562E+01  0.10473121388E+02  0.14635045719E+02  0.51100000000E-03 0.  1.
        -12    1    4    4    0    0  0.32369270865E+00 -0.15133254586E+02  0.39437196787E+01  0.15642029799E+02  0.00000000000E+00 0.  1.
</event>
<event>
 8    1  0.1248739E-006  0.9118800E+02  0.7816164E-02  0.1184000E+00
        -11   -1    0    0    0    0  0.00000000000E+00  0.00000000000E+00  0.45593999997E+02  0.45594000000E+02  0.51100000000E-03 0.  1.
         11   -1    0    0    0    0 -0.00000000000E+00 -0.00000000000E+00 -0.45593999997E+02  0.45594000000E+02  0.51100000000E-03 0. -1.
         23    2    1    2    0    0  0.00000000000E+00  0.17763568394E-14  0.71054273576E-14  0.91188000000E+02  0.91188000000E+02 0.  0.
    9900012    2    3    3    0    0  0.21396555103E+01 -0.15126872878E+02 -0.33501987955E+02  0.54367033069E+02  0.39999883488E+02 0.  0.
        -12    1    3    3    0    0 -0.21396555103E+01  0.15126872878E+02  0.33501987955E+02  0.36820966931E+02  0.00000000000E+00 0.  1.
         11    1    4    4    0    0 -0.23311145060E+01  0.77908238104E+01 -0.34228999863E+01  0.88231102828E+01  0.51100000000E-03 0. -1.
        -11    1    4    4    0    0 -0.19131636801E+01 -0.17419504946E+02 -0.37787395086E+01  0.17927024861E+02  0.51100000000E-03 0.  1.
        -12    1    4    4    0    0  0.63839336964E+01 -0.54981917420E+01 -0.26300348460E+02  0.27616897925E+02  0.00000000000E+00 0.  1.
</event>
<event>
 8    1  0.1248739E-006  0.9118800E+02  0.7816164E-02  0.1184000E+00
        -11   -1    0    0    0    0  0.00000000000E+00  0.00000000000E+00  0.45593999997E+02  0.45594000000E+02  0.51100000000E-03 0.  1.
         11   -1    0    0    0    0 -0.00000000000E+00 -0.00000000000E+00 -0.45593999997E+02  0.45594000000E+02  0.51100000000E-03 0. -1.
         23    2    1    2    0    0 -0.35527136788E-14  0.00000000000E+00 -0.35527136788E-14  0.91188000000E+02  0.91188000000E+02 0.  0.
    9900012    2    3    3    0    0 -0.16472720418E+02 -0.14731045961E+02 -0.29452074718E+02  0.54367096449E+02  0.40000027975E+02 0.  0.
        -12    1    3    3    0    0  0.16472720418E+02  0.14731045961E+02  0.29452074718E+02  0.36820903551E+02  0.00000000000E+00 0.  1.
         11    1    4    4    0    0 -0.15529075538E+02 -0.64980267387E+01 -0.69169628471E+01  0.18199475648E+02  0.51100000000E-03 0. -1.
        -11    1    4    4    0    0 -0.45432189797E+01  0.66302088479E+01  0.10009305718E+01  0.80995290194E+01  0.51100000000E-03 0.  1.
         12    1    4    4    0    0  0.35995741003E+01 -0.14863228071E+02 -0.23536042443E+02  0.28068091782E+02  0.00000000000E+00 0. -1.
</event>
<event>
 8    1  0.1248739E-006  0.9118800E+02  0.7816164E-02  0.1184000E+00
        -11   -1    0    0    0    0  0.00000000000E+00  0.00000000000E+00  0.45593999997E+02  0.45594000000E+02  0.51100000000E-03 0.  1.
         11   -1    0    0    0    0 -0.00000000000E+00 -0.00000000000E+00 -0.45593999997E+02  0.45594000000E+02  0.51100000000E-03 0. -1.
         23    2    1    2    0    0  0.35527136788E-14 -0.44408920985E-15  0.00000000000E+00  0.91188000000E+02  0.91188000000E+02 0.  0.
    9900012    2    3    3    0    0  0.31720670356E+02  0.21209830085E+01 -0.18576280780E+02  0.54367113205E+02  0.40000066173E+02 0.  0.
        -12    1    3    3    0    0 -0.31720670356E+02 -0.21209830085E+01  0.18576280780E+02  0.36820886795E+02  0.00000000000E+00 0.  1.
         11    1    4    4    0    0  0.69884811125E+01  0.40297976136E+00 -0.11234616731E+02  0.13236988868E+02  0.51100000000E-03 0. -1.
        -11    1    4    4    0    0 -0.70116684301E+01  0.43878286692E+01 -0.37184189881E+01  0.90688022713E+01  0.51100000000E-03 0.  1.
        -12    1    4    4    0    0  0.31743857674E+02 -0.26698254221E+01 -0.36232450607E+01  0.32061322065E+02  0.00000000000E+00 0.  1.
</event>
<event>
 8    1  0.1248739E-006  0.9118800E+02  0.7816164E-02  0.1184000E+00
        -11   -1    0    0    0    0  0.00000000000E+00  0.00000000000E+00  0.45593999997E+02  0.45594000000E+02  0.51100000000E-03 0.  1.
         11   -1    0    0    0    0 -0.00000000000E+00 -0.00000000000E+00 -0.45593999997E+02  0.45594000000E+02  0.51100000000E-03 0. -1.
         23    2    1    2    0    0 -0.35527136788E-14  0.35527136788E-14  0.00000000000E+00  0.91188000000E+02  0.91188000000E+02 0.  0.
    9900012    2    3    3    0    0  0.16810840630E+02 -0.25480347668E+02 -0.20589492620E+02  0.54367086292E+02  0.40000004819E+02 0.  0.
        -12    1    3    3    0    0 -0.16810840630E+02  0.25480347668E+02  0.20589492620E+02  0.36820913708E+02  0.00000000000E+00 0.  1.
         11    1    4    4    0    0  0.10630432577E+02 -0.52562223211E+01  0.42823757498E+01  0.12608438134E+02  0.51100000000E-03 0. -1.
        -11    1    4    4    0    0  0.40779050743E+01 -0.75995037680E+01 -0.27389158095E+02  0.28714939469E+02  0.51100000000E-03 0.  1.
        -12    1    4    4    0    0  0.21025029785E+01 -0.12624621579E+02  0.25172897251E+01  0.13043708689E+02  0.00000000000E+00 0.  1.
</event>
<event>
 8    1  0.1248739E-006  0.9118800E+02  0.7816164E-02  0.1184000E+00
        -11   -1    0    0    0    0  0.00000000000E+00  0.00000000000E+00  0.45593999997E+02  0.45594000000E+02  0.51100000000E-03 0.  1.
         11   -1    0    0    0    0 -0.00000000000E+00 -0.00000000000E+00 -0.45593999997E+02  0.45594000000E+02  0.51100000000E-03 0. -1.
         23    2    1    2    0    0 -0.35527136788E-14  0.00000000000E+00 -0.35527136788E-14  0.91188000000E+02  0.91188000000E+02 0.  0.
    9900012    2    3    3    0    0 -0.31540681612E+02  0.73376026440E+01 -0.17524974611E+02  0.54367085505E+02  0.40000003027E+02 0.  0.
        -12    1    3    3    0    0  0.31540681612E+02 -0.73376026440E+01  0.17524974611E+02  0.36820914495E+02  0.00000000000E+00 0.  1.
         11    1    4    4    0    0 -0.64481975520E+00  0.85090898410E+01 -0.78214020045E+00  0.85692558600E+01  0.51100000000E-03 0. -1.
        -11    1    4    4    0    0 -0.27809482117E+02  0.87341878856E-01  0.91842523941E+00  0.27824780851E+02  0.51100000000E-03 0.  1.
        -12    1    4    4    0    0 -0.30863797395E+01 -0.12588290759E+01 -0.17661259650E+02  0.17973048795E+02  0.00000000000E+00 0.  1.
</event>
<event>
 8    1  0.1248739E-006  0.9118800E+02  0.7816164E-02  0.1184000E+00
        -11   -1    0    0    0    0  0.00000000000E+00  0.00000000000E+00  0.45593999997E+02  0.45594000000E+02  0.51100000000E-03 0.  1.
         11   -1    0    0    0    0 -0.00000000000E+00 -0.00000000000E+00 -0.45593999997E+02  0.45594000000E+02  0.51100000000E-03 0. -1.
         23    2    1    2    0    0 -0.17763568394E-14  0.35527136788E-14  0.35527136788E-14  0.91188000000E+02  0.91188000000E+02 0.  0.
    9900012    2    3    3    0    0 -0.13402473595E+02  0.28081285007E+02  0.19687408111E+02  0.54367096912E+02  0.40000029031E+02 0.  0.
         12    1    3    3    0    0  0.13402473595E+02 -0.28081285007E+02 -0.19687408111E+02  0.36820903088E+02  0.00000000000E+00 0. -1.
         11    1    4    4    0    0 -0.80018703900E+01  0.11529513576E+02 -0.18165733424E+01  0.14151309198E+02  0.51100000000E-03 0. -1.
        -11    1    4    4    0    0 -0.54904208009E+01  0.18209643918E+02  0.27811752976E+02  0.33693166311E+02  0.51100000000E-03 0.  1.
         12    1    4    4    0    0  0.89817595728E-01 -0.16578724878E+01 -0.63077715230E+01  0.65226214035E+01  0.00000000000E+00 0. -1.
</event>
<event>
 8    1  0.1248739E-006  0.9118800E+02  0.7816164E-02  0.1184000E+00
        -11   -1    0    0    0    0  0.00000000000E+00  0.00000000000E+00  0.45593999997E+02  0.45594000000E+02  0.51100000000E-03 0. -1.
         11   -1    0    0    0    0 -0.00000000000E+00 -0.00000000000E+00 -0.45593999997E+02  0.45594000000E+02  0.51100000000E-03 0.  1.
         23    2    1    2    0    0  0.00000000000E+00  0.00000000000E+00  0.00000000000E+00  0.91188000000E+02  0.91188000000E+02 0.  0.
    9900012    2    3    3    0    0  0.43594276068E+01 -0.36147262668E+02  0.54911698661E+01  0.54367052783E+02  0.39999928430E+02 0.  0.
        -12    1    3    3    0    0 -0.43594276068E+01  0.36147262668E+02 -0.54911698661E+01  0.36820947217E+02  0.00000000000E+00 0.  1.
         11    1    4    4    0    0  0.80484959617E+01 -0.16291897170E+02 -0.11065187293E+02  0.21275398251E+02  0.51100000000E-03 0.  1.
        -11    1    4    4    0    0  0.11721473327E+01  0.14447637218E+01  0.10156909793E+02  0.10325894072E+02  0.51100000000E-03 0. -1.
         12    1    4    4    0    0 -0.48612156875E+01 -0.21300129220E+02  0.63994473669E+01  0.22765760461E+02  0.00000000000E+00 0. -1.
</event>
<event>
 8    1  0.1248739E-006  0.9118800E+02  0.7816164E-02  0.1184000E+00
        -11   -1    0    0    0    0  0.00000000000E+00  0.00000000000E+00  0.45593999997E+02  0.45594000000E+02  0.51100000000E-03 0.  1.
         11   -1    0    0    0    0 -0.00000000000E+00 -0.00000000000E+00 -0.45593999997E+02  0.45594000000E+02  0.51100000000E-03 0. -1.
         23    2    1    2    0    0  0.17763568394E-14  0.00000000000E+00  0.00000000000E+00  0.91188000000E+02  0.91188000000E+02 0.  0.
    9900012    2    3    3    0    0 -0.10774659174E+02  0.26203602668E+02 -0.23517184321E+02  0.54367081604E+02  0.39999994133E+02 0.  0.
        -12    1    3    3    0    0  0.10774659174E+02 -0.26203602668E+02  0.23517184321E+02  0.36820918396E+02  0.00000000000E+00 0.  1.
         11    1    4    4    0    0 -0.21398016161E+02  0.87077497974E+01 -0.76912713678E+01  0.24348627429E+02  0.51100000000E-03 0. -1.
        -11    1    4    4    0    0  0.90129755827E+01  0.11628191063E+01 -0.59991609741E+01  0.10889252030E+02  0.51100000000E-03 0.  1.
         12    1    4    4    0    0  0.16103814051E+01  0.16333033765E+02 -0.98267519792E+01  0.19129202145E+02  0.00000000000E+00 0. -1.
</event>
<event>
 8    1  0.1248739E-006  0.9118800E+02  0.7816164E-02  0.1184000E+00
        -11   -1    0    0    0    0  0.00000000000E+00  0.00000000000E+00  0.45593999997E+02  0.45594000000E+02  0.51100000000E-03 0.  1.
         11   -1    0    0    0    0 -0.00000000000E+00 -0.00000000000E+00 -0.45593999997E+02  0.45594000000E+02  0.51100000000E-03 0. -1.
         23    2    1    2    0    0  0.35527136788E-14  0.00000000000E+00  0.35527136788E-14  0.91188000000E+02  0.91188000000E+02 0.  0.
    9900012    2    3    3    0    0  0.21152631575E+02 -0.63902137373E+01 -0.29453558871E+02  0.54367071381E+02  0.39999970828E+02 0.  0.
        -12    1    3    3    0    0 -0.21152631575E+02  0.63902137373E+01  0.29453558871E+02  0.36820928619E+02  0.00000000000E+00 0.  1.
         11    1    4    4    0    0  0.16892342640E+02 -0.91244883265E+01 -0.25883573407E+02  0.32226804056E+02  0.51100000000E-03 0. -1.
        -11    1    4    4    0    0  0.12529260153E+02  0.96633498629E+00  0.85698643107E+00  0.12595657557E+02  0.51100000000E-03 0.  1.
        -12    1    4    4    0    0 -0.82689712189E+01  0.17679396028E+01 -0.44269718956E+01  0.95446097679E+01  0.00000000000E+00 0.  1.
</event>
<event>
 8    1  0.1248739E-006  0.9118800E+02  0.7816164E-02  0.1184000E+00
        -11   -1    0    0    0    0  0.00000000000E+00  0.00000000000E+00  0.45593999997E+02  0.45594000000E+02  0.51100000000E-03 0.  1.
         11   -1    0    0    0    0 -0.00000000000E+00 -0.00000000000E+00 -0.45593999997E+02  0.45594000000E+02  0.51100000000E-03 0. -1.
         23    2    1    2    0    0  0.00000000000E+00  0.35527136788E-14  0.00000000000E+00  0.91188000000E+02  0.91188000000E+02 0.  0.
    9900012    2    3    3    0    0 -0.21715308903E+02 -0.28599893015E+02  0.81407498746E+01  0.54367077554E+02  0.39999984901E+02 0.  0.
         12    1    3    3    0    0  0.21715308903E+02  0.28599893015E+02 -0.81407498746E+01  0.36820922446E+02  0.00000000000E+00 0. -1.
         11    1    4    4    0    0 -0.26541103504E+02 -0.55885439173E+01  0.47307884921E+01  0.27532569047E+02  0.51100000000E-03 0. -1.
        -11    1    4    4    0    0  0.23574027010E+01 -0.21599652895E+01  0.48268725243E+01  0.57897751402E+01  0.51100000000E-03 0.  1.
         12    1    4    4    0    0  0.24683919004E+01 -0.20851383808E+02 -0.14169111418E+01  0.21044733367E+02  0.00000000000E+00 0. -1.
</event>
<event>
 8    1  0.1248739E-006  0.9118800E+02  0.7816164E-02  0.1184000E+00
        -11   -1    0    0    0    0  0.00000000000E+00  0.00000000000E+00  0.45593999997E+02  0.45594000000E+02  0.51100000000E-03 0.  1.
         11   -1    0    0    0    0 -0.00000000000E+00 -0.00000000000E+00 -0.45593999997E+02  0.45594000000E+02  0.51100000000E-03 0. -1.
         23    2    1    2    0    0  0.00000000000E+00  0.00000000000E+00  0.88817841970E-15  0.91188000000E+02  0.91188000000E+02 0.  0.
    9900012    2    3    3    0    0  0.12808214103E+02  0.34014672779E+02  0.58933057112E+01  0.54367090655E+02  0.40000014767E+02 0.  0.
        -12    1    3    3    0    0 -0.12808214103E+02 -0.34014672779E+02 -0.58933057112E+01  0.36820909345E+02  0.00000000000E+00 0.  1.
         11    1    4    4    0    0 -0.14461913951E+01  0.27197945270E+02  0.13355061461E+02  0.30334425383E+02  0.51100000000E-03 0.  1.
        -11    1    4    4    0    0  0.44677205537E+01  0.10820265377E+02 -0.65631554458E+01  0.13420643779E+02  0.51100000000E-03 0. -1.
         12    1    4    4    0    0  0.97866849448E+01 -0.40035378680E+01 -0.89860030382E+00  0.10612021493E+02  0.00000000000E+00 0. -1.
</event>
<event>
 8    1  0.1248739E-006  0.9118800E+02  0.7816164E-02  0.1184000E+00
        -11   -1    0    0    0    0  0.00000000000E+00  0.00000000000E+00  0.45593999997E+02  0.45594000000E+02  0.51100000000E-03 0. -1.
         11   -1    0    0    0    0 -0.00000000000E+00 -0.00000000000E+00 -0.45593999997E+02  0.45594000000E+02  0.51100000000E-03 0.  1.
         23    2    1    2    0    0  0.17763568394E-14  0.00000000000E+00  0.00000000000E+00  0.91188000000E+02  0.91188000000E+02 0.  0.
    9900012    2    3    3    0    0 -0.84960829795E+01  0.91214426362E+01  0.34646729646E+02  0.54367081803E+02  0.39999994585E+02 0.  0.
        -12    1    3    3    0    0  0.84960829795E+01 -0.91214426362E+01 -0.34646729646E+02  0.36820918197E+02  0.00000000000E+00 0.  1.
         11    1    4    4    0    0 -0.39283794713E+01 -0.60694721923E+01  0.10151169689E+02  0.12462620281E+02  0.51100000000E-03 0. -1.
        -11    1    4    4    0    0  0.82232479672E+01  0.10190300647E+02 -0.80243789577E+00  0.13118991624E+02  0.51100000000E-03 0.  1.
        -12    1    4    4    0    0 -0.12790951475E+02  0.50006141817E+01  0.25297997853E+02  0.28785469897E+02  0.00000000000E+00 0.  1.
</event>
<event>
 8    1  0.1248739E-006  0.9118800E+02  0.7816164E-02  0.1184000E+00
        -11   -1    0    0    0    0  0.00000000000E+00  0.00000000000E+00  0.45593999997E+02  0.45594000000E+02  0.51100000000E-03 0. -1.
         11   -1    0    0    0    0 -0.00000000000E+00 -0.00000000000E+00 -0.45593999997E+02  0.45594000000E+02  0.51100000000E-03 0.  1.
         23    2    1    2    0    0  0.44408920985E-15  0.00000000000E+00  0.00000000000E+00  0.91188000000E+02  0.91188000000E+02 0.  0.
    9900012    2    3    3    0    0  0.35935427464E+01  0.35386784655E+02 -0.95206309532E+01  0.54367075359E+02  0.39999979895E+02 0.  0.
         12    1    3    3    0    0 -0.35935427464E+01 -0.35386784655E+02  0.95206309532E+01  0.36820924641E+02  0.00000000000E+00 0. -1.
         11    1    4    4    0    0  0.20006659724E+01  0.10332667092E+01 -0.10442374714E+02  0.10682391790E+02  0.51100000000E-03 0. -1.
        -11    1    4    4    0    0 -0.10301916480E+01  0.25890244006E+02 -0.11564301423E+02  0.28374268223E+02  0.51100000000E-03 0.  1.
         12    1    4    4    0    0  0.26230684220E+01  0.84632739397E+01  0.12486045184E+02  0.15310415346E+02  0.00000000000E+00 0. -1.
</event>
<event>
 8    1  0.1248739E-006  0.9118800E+02  0.7816164E-02  0.1184000E+00
        -11   -1    0    0    0    0  0.00000000000E+00  0.00000000000E+00  0.45593999997E+02  0.45594000000E+02  0.51100000000E-03 0. -1.
         11   -1    0    0    0    0 -0.00000000000E+00 -0.00000000000E+00 -0.45593999997E+02  0.45594000000E+02  0.51100000000E-03 0.  1.
         23    2    1    2    0    0  0.33306690739E-15  0.00000000000E+00  0.00000000000E+00  0.91188000000E+02  0.91188000000E+02 0.  0.
    9900012    2    3    3    0    0  0.54552056977E+00 -0.25283894925E+02 -0.26762043824E+02  0.54367083051E+02  0.39999997432E+02 0.  0.
         12    1    3    3    0    0 -0.54552056977E+00  0.25283894925E+02  0.26762043824E+02  0.36820916949E+02  0.00000000000E+00 0. -1.
         11    1    4    4    0    0  0.51114067868E+01 -0.67510002788E+01  0.21129258002E+01  0.87273672893E+01  0.51100000000E-03 0. -1.
        -11    1    4    4    0    0 -0.36971241039E+01 -0.19120575747E+02 -0.29539523323E+01  0.19697486595E+02  0.51100000000E-03 0.  1.
        -12    1    4    4    0    0 -0.86876211308E+00  0.58768110042E+00 -0.25921017292E+02  0.25942229167E+02  0.00000000000E+00 0.  1.
</event>
<event>
 8    1  0.1248739E-006  0.9118800E+02  0.7816164E-02  0.1184000E+00
        -11   -1    0    0    0    0  0.00000000000E+00  0.00000000000E+00  0.45593999997E+02  0.45594000000E+02  0.51100000000E-03 0.  1.
         11   -1    0    0    0    0 -0.00000000000E+00 -0.00000000000E+00 -0.45593999997E+02  0.45594000000E+02  0.51100000000E-03 0. -1.
         23    2    1    2    0    0  0.00000000000E+00  0.00000000000E+00  0.00000000000E+00  0.91188000000E+02  0.91188000000E+02 0.  0.
    9900012    2    3    3    0    0 -0.24309478288E+02 -0.24238975397E+02  0.13315450694E+02  0.54367083524E+02  0.39999998509E+02 0.  0.
         12    1    3    3    0    0  0.24309478288E+02  0.24238975397E+02 -0.13315450694E+02  0.36820916476E+02  0.00000000000E+00 0. -1.
         11    1    4    4    0    0 -0.13874406907E+01 -0.31470165745E+01  0.15020758152E+02  0.15409473732E+02  0.51100000000E-03 0. -1.
        -11    1    4    4    0    0 -0.24799287869E+02 -0.21459715061E+02  0.39080889480E+01  0.33027219211E+02  0.51100000000E-03 0.  1.
         12    1    4    4    0    0  0.18772502712E+01  0.36775623798E+00 -0.56133964061E+01  0.59303905810E+01  0.00000000000E+00 0. -1.
</event>
<event>
 8    1  0.1248739E-006  0.9118800E+02  0.7816164E-02  0.1184000E+00
        -11   -1    0    0    0    0  0.00000000000E+00  0.00000000000E+00  0.45593999997E+02  0.45594000000E+02  0.51100000000E-03 0. -1.
         11   -1    0    0    0    0 -0.00000000000E+00 -0.00000000000E+00 -0.45593999997E+02  0.45594000000E+02  0.51100000000E-03 0.  1.
         23    2    1    2    0    0  0.35527136788E-14  0.00000000000E+00 -0.71054273576E-14  0.91188000000E+02  0.91188000000E+02 0.  0.
    9900012    2    3    3    0    0  0.20446286145E+02 -0.11256134302E+02 -0.28478576663E+02  0.54367075170E+02  0.39999979465E+02 0.  0.
         12    1    3    3    0    0 -0.20446286145E+02  0.11256134302E+02  0.28478576663E+02  0.36820924830E+02  0.00000000000E+00 0. -1.
         11    1    4    4    0    0  0.89546933847E+01  0.35587420471E+01  0.38619779762E+01  0.10381042950E+02  0.51100000000E-03 0. -1.
        -11    1    4    4    0    0  0.16541464893E+02 -0.56465170660E+01 -0.12287350957E+02  0.21365444287E+02  0.51100000000E-03 0.  1.
         12    1    4    4    0    0 -0.50498721326E+01 -0.91683592833E+01 -0.20053203682E+02  0.22620587933E+02  0.00000000000E+00 0. -1.
</event>
<event>
 8    1  0.1248739E-006  0.9118800E+02  0.7816164E-02  0.1184000E+00
        -11   -1    0    0    0    0  0.00000000000E+00  0.00000000000E+00  0.45593999997E+02  0.45594000000E+02  0.51100000000E-03 0. -1.
         11   -1    0    0    0    0 -0.00000000000E+00 -0.00000000000E+00 -0.45593999997E+02  0.45594000000E+02  0.51100000000E-03 0.  1.
         23    2    1    2    0    0  0.13322676296E-14  0.35527136788E-14 -0.71054273576E-14  0.91188000000E+02  0.91188000000E+02 0.  0.
    9900012    2    3    3    0    0 -0.13720261770E+01 -0.30697200977E+02  0.20287416795E+02  0.54367083609E+02  0.39999998704E+02 0.  0.
        -12    1    3    3    0    0  0.13720261770E+01  0.30697200977E+02 -0.20287416795E+02  0.36820916391E+02  0.00000000000E+00 0.  1.
         11    1    4    4    0    0 -0.16411367897E+02 -0.60192506786E+01  0.27011744513E+01  0.17687869252E+02  0.51100000000E-03 0. -1.
        -11    1    4    4    0    0 -0.57926783490E+00 -0.71336403783E+01 -0.28746851456E+00  0.71628915027E+01  0.51100000000E-03 0.  1.
        -12    1    4    4    0    0  0.15618609555E+02 -0.17544309920E+02  0.17873710858E+02  0.29516322855E+02  0.00000000000E+00 0.  1.
</event>
<event>
 8    1  0.1248739E-006  0.9118800E+02  0.7816164E-02  0.1184000E+00
        -11   -1    0    0    0    0  0.00000000000E+00  0.00000000000E+00  0.45593999997E+02  0.45594000000E+02  0.51100000000E-03 0.  1.
         11   -1    0    0    0    0 -0.00000000000E+00 -0.00000000000E+00 -0.45593999997E+02  0.45594000000E+02  0.51100000000E-03 0. -1.
         23    2    1    2    0    0  0.88817841970E-15  0.00000000000E+00  0.00000000000E+00  0.91188000000E+02  0.91188000000E+02 0.  0.
    9900012    2    3    3    0    0 -0.53611104060E+01  0.15432123425E+02 -0.32998338956E+02  0.54367050636E+02  0.39999923536E+02 0.  0.
        -12    1    3    3    0    0  0.53611104060E+01 -0.15432123425E+02  0.32998338956E+02  0.36820949364E+02  0.00000000000E+00 0.  1.
         11    1    4    4    0    0 -0.91733267023E+00  0.46336716303E+01 -0.87167648698E+00  0.48033563437E+01  0.51100000000E-03 0. -1.
        -11    1    4    4    0    0 -0.78458153914E+01  0.23072747249E+02 -0.16626823841E+02  0.29501860214E+02  0.51100000000E-03 0.  1.
        -12    1    4    4    0    0  0.34020376557E+01 -0.12274295454E+02 -0.15499838627E+02  0.20061834078E+02  0.00000000000E+00 0.  1.
</event>
<event>
 8    1  0.1248739E-006  0.9118800E+02  0.7816164E-02  0.1184000E+00
        -11   -1    0    0    0    0  0.00000000000E+00  0.00000000000E+00  0.45593999997E+02  0.45594000000E+02  0.51100000000E-03 0. -1.
         11   -1    0    0    0    0 -0.00000000000E+00 -0.00000000000E+00 -0.45593999997E+02  0.45594000000E+02  0.51100000000E-03 0.  1.
         23    2    1    2    0    0  0.00000000000E+00 -0.35527136788E-14  0.00000000000E+00  0.91188000000E+02  0.91188000000E+02 0.  0.
    9900012    2    3    3    0    0  0.23878422647E+02 -0.22154103994E+02  0.17169618900E+02  0.54367092827E+02  0.40000019718E+02 0.  0.
        -12    1    3    3    0    0 -0.23878422647E+02  0.22154103994E+02 -0.17169618900E+02  0.36820907173E+02  0.00000000000E+00 0.  1.
         11    1    4    4    0    0  0.28285576001E+02 -0.28490770422E+02  0.17000434607E+02  0.43598309440E+02  0.51100000000E-03 0. -1.
        -11    1    4    4    0    0 -0.40912017765E+00 -0.10759812517E+01 -0.17840223073E+01  0.21231699951E+01  0.51100000000E-03 0.  1.
        -12    1    4    4    0    0 -0.39980331768E+01  0.74126476796E+01  0.19532066010E+01  0.86456133924E+01  0.00000000000E+00 0.  1.
</event>
<event>
 8    1  0.1248739E-006  0.9118800E+02  0.7816164E-02  0.1184000E+00
        -11   -1    0    0    0    0  0.00000000000E+00  0.00000000000E+00  0.45593999997E+02  0.45594000000E+02  0.51100000000E-03 0. -1.
         11   -1    0    0    0    0 -0.00000000000E+00 -0.00000000000E+00 -0.45593999997E+02  0.45594000000E+02  0.51100000000E-03 0.  1.
         23    2    1    2    0    0  0.31086244690E-14  0.00000000000E+00  0.00000000000E+00  0.91188000000E+02  0.91188000000E+02 0.  0.
    9900012    2    3    3    0    0  0.21564827693E+01 -0.18896497727E+02 -0.31528625248E+02  0.54367051420E+02  0.39999925323E+02 0.  0.
         12    1    3    3    0    0 -0.21564827693E+01  0.18896497727E+02  0.31528625248E+02  0.36820948580E+02  0.00000000000E+00 0. -1.
         11    1    4    4    0    0 -0.14286011310E+02 -0.11160089684E+02 -0.12045226275E+02  0.21765229087E+02  0.51100000000E-03 0. -1.
        -11    1    4    4    0    0  0.10687329901E+02 -0.93574415000E+01 -0.21940570084E+02  0.26137508445E+02  0.51100000000E-03 0.  1.
        -12    1    4    4    0    0  0.57551641779E+01  0.16210334574E+01  0.24571711109E+01  0.64643138888E+01  0.00000000000E+00 0.  1.
</event>
<event>
 8    1  0.1248739E-006  0.9118800E+02  0.7816164E-02  0.1184000E+00
        -11   -1    0    0    0    0  0.00000000000E+00  0.00000000000E+00  0.45593999997E+02  0.45594000000E+02  0.51100000000E-03 0.  1.
         11   -1    0    0    0    0 -0.00000000000E+00 -0.00000000000E+00 -0.45593999997E+02  0.45594000000E+02  0.51100000000E-03 0. -1.
         23    2    1    2    0    0  0.00000000000E+00  0.17763568394E-14  0.88817841970E-15  0.91188000000E+02  0.91188000000E+02 0.  0.
    9900012    2    3    3    0    0  0.34531755026E+02  0.11301810853E+02  0.59671074407E+01  0.54367090112E+02  0.40000013529E+02 0.  0.
         12    1    3    3    0    0 -0.34531755026E+02 -0.11301810853E+02 -0.59671074407E+01  0.36820909888E+02  0.00000000000E+00 0. -1.
         11    1    4    4    0    0 -0.70987820865E+01  0.17568172556E+01 -0.10486861501E+01  0.73877504616E+01  0.51100000000E-03 0. -1.
        -11    1    4    4    0    0  0.18767611646E+02 -0.47353241169E+01  0.11349745984E+01  0.19389035793E+02  0.51100000000E-03 0.  1.
         12    1    4    4    0    0  0.22862925467E+02  0.14280317715E+02  0.58808189925E+01  0.27590303858E+02  0.00000000000E+00 0. -1.
</event>
<event>
 8    1  0.1248739E-006  0.9118800E+02  0.7816164E-02  0.1184000E+00
        -11   -1    0    0    0    0  0.00000000000E+00  0.00000000000E+00  0.45593999997E+02  0.45594000000E+02  0.51100000000E-03 0. -1.
         11   -1    0    0    0    0 -0.00000000000E+00 -0.00000000000E+00 -0.45593999997E+02  0.45594000000E+02  0.51100000000E-03 0.  1.
         23    2    1    2    0    0 -0.35527136788E-14  0.35527136788E-14 -0.13322676296E-14  0.91188000000E+02  0.91188000000E+02 0.  0.
    9900012    2    3    3    0    0 -0.30410844333E+02 -0.20633165097E+02  0.22873488283E+01  0.54367096702E+02  0.40000028552E+02 0.  0.
        -12    1    3    3    0    0  0.30410844333E+02  0.20633165097E+02 -0.22873488283E+01  0.36820903298E+02  0.00000000000E+00 0.  1.
         11    1    4    4    0    0 -0.13578100318E+02  0.18071822984E+00  0.14452786455E+02  0.19831301115E+02  0.51100000000E-03 0. -1.
        -11    1    4    4    0    0 -0.34502938621E+01 -0.13224017613E+00 -0.90741423842E+01  0.97088658178E+01  0.51100000000E-03 0.  1.
         12    1    4    4    0    0 -0.13382450154E+02 -0.20681643151E+02 -0.30912952427E+01  0.24826929770E+02  0.00000000000E+00 0. -1.
</event>
<event>
 8    1  0.1248739E-006  0.9118800E+02  0.7816164E-02  0.1184000E+00
        -11   -1    0    0    0    0  0.00000000000E+00  0.00000000000E+00  0.45593999997E+02  0.45594000000E+02  0.51100000000E-03 0.  1.
         11   -1    0    0    0    0 -0.00000000000E+00 -0.00000000000E+00 -0.45593999997E+02  0.45594000000E+02  0.51100000000E-03 0. -1.
         23    2    1    2    0    0  0.00000000000E+00  0.00000000000E+00 -0.17763568394E-14  0.91188000000E+02  0.91188000000E+02 0.  0.
    9900012    2    3    3    0    0 -0.26203992414E+02  0.22400820414E+02  0.12935767971E+02  0.54367081127E+02  0.39999993046E+02 0.  0.
         12    1    3    3    0    0  0.26203992414E+02 -0.22400820414E+02 -0.12935767971E+02  0.36820918873E+02  0.00000000000E+00 0. -1.
         11    1    4    4    0    0 -0.11332607255E+02  0.95826538685E+01 -0.82052090986E+01  0.16958204474E+02  0.51100000000E-03 0. -1.
        -11    1    4    4    0    0 -0.12222221559E+02  0.14859094310E+02  0.36274298934E+01  0.19578907820E+02  0.51100000000E-03 0.  1.
        -12    1    4    4    0    0 -0.26491635991E+01 -0.20409277640E+01  0.17513547176E+02  0.17829968833E+02  0.00000000000E+00 0.  1.
</event>
<event>
 8    1  0.1248739E-006  0.9118800E+02  0.7816164E-02  0.1184000E+00
        -11   -1    0    0    0    0  0.00000000000E+00  0.00000000000E+00  0.45593999997E+02  0.45594000000E+02  0.51100000000E-03 0. -1.
         11   -1    0    0    0    0 -0.00000000000E+00 -0.00000000000E+00 -0.45593999997E+02  0.45594000000E+02  0.51100000000E-03 0.  1.
         23    2    1    2    0    0 -0.11379786002E-14  0.00000000000E+00  0.00000000000E+00  0.91188000000E+02  0.91188000000E+02 0.  0.
    9900012    2    3    3    0    0  0.70466212375E-01 -0.35747475365E+02 -0.88256887715E+01  0.54367085526E+02  0.40000003073E+02 0.  0.
        -12    1    3    3    0    0 -0.70466212375E-01  0.35747475365E+02  0.88256887715E+01  0.36820914474E+02  0.00000000000E+00 0.  1.
         11    1    4    4    0    0  0.11100965098E+02 -0.20413398732E+02 -0.69373306678E+01  0.24250048061E+02  0.51100000000E-03 0. -1.
        -11    1    4    4    0    0 -0.80146296682E+01  0.48566208281E+01 -0.24795945008E+01  0.96937837677E+01  0.51100000000E-03 0.  1.
         12    1    4    4    0    0 -0.30158692178E+01 -0.20190697461E+02  0.59123639705E+00  0.20423253697E+02  0.00000000000E+00 0. -1.
</event>
<event>
 8    1  0.1248739E-006  0.9118800E+02  0.7816164E-02  0.1184000E+00
        -11   -1    0    0    0    0  0.00000000000E+00  0.00000000000E+00  0.45593999997E+02  0.45594000000E+02  0.51100000000E-03 0.  1.
         11   -1    0    0    0    0 -0.00000000000E+00 -0.00000000000E+00 -0.45593999997E+02  0.45594000000E+02  0.51100000000E-03 0. -1.
         23    2    1    2    0    0  0.88817841970E-15  0.00000000000E+00 -0.71054273576E-14  0.91188000000E+02  0.91188000000E+02 0.  0.
    9900012    2    3    3    0    0 -0.78325791824E+01  0.26564304217E+02  0.24264548134E+02  0.54367084051E+02  0.39999999711E+02 0.  0.
         12    1    3    3    0    0  0.78325791824E+01 -0.26564304217E+02 -0.24264548134E+02  0.36820915949E+02  0.00000000000E+00 0. -1.
         11    1    4    4    0    0  0.25759337181E+01 -0.40784286630E+01 -0.63093884465E+01  0.79421280340E+01  0.51100000000E-03 0. -1.
        -11    1    4    4    0    0 -0.12853125452E+01  0.21282743563E+02  0.14877500521E+02  0.25998985056E+02  0.51100000000E-03 0.  1.
         12    1    4    4    0    0 -0.91232003553E+01  0.93599893165E+01  0.15696436060E+02  0.20425970961E+02  0.00000000000E+00 0. -1.
</event>
<event>
 8    1  0.1248739E-006  0.9118800E+02  0.7816164E-02  0.1184000E+00
        -11   -1    0    0    0    0  0.00000000000E+00  0.00000000000E+00  0.45593999997E+02  0.45594000000E+02  0.51100000000E-03 0. -1.
         11   -1    0    0    0    0 -0.00000000000E+00 -0.00000000000E+00 -0.45593999997E+02  0.45594000000E+02  0.51100000000E-03 0.  1.
         23    2    1    2    0    0 -0.35527136788E-14  0.00000000000E+00  0.17763568394E-14  0.91188000000E+02  0.91188000000E+02 0.  0.
    9900012    2    3    3    0    0  0.21965343810E+02  0.24885072789E+02 -0.15938529388E+02  0.54367083452E+02  0.39999998345E+02 0.  0.
         12    1    3    3    0    0 -0.21965343810E+02 -0.24885072789E+02  0.15938529388E+02  0.36820916548E+02  0.00000000000E+00 0. -1.
         11    1    4    4    0    0  0.91056496008E+01 -0.37212451136E+00  0.52093193552E+01  0.10497063385E+02  0.51100000000E-03 0. -1.
        -11    1    4    4    0    0  0.94685766130E+01  0.49420166303E+01  0.39636325237E+01  0.11392447257E+02  0.51100000000E-03 0.  1.
        -12    1    4    4    0    0  0.33911175965E+01  0.20315180670E+02 -0.25111481267E+02  0.32477572810E+02  0.00000000000E+00 0.  1.
</event>
<event>
 8    1  0.1248739E-006  0.9118800E+02  0.7816164E-02  0.1184000E+00
        -11   -1    0    0    0    0  0.00000000000E+00  0.00000000000E+00  0.45593999997E+02  0.45594000000E+02  0.51100000000E-03 0.  1.
         11   -1    0    0    0    0 -0.00000000000E+00 -0.00000000000E+00 -0.45593999997E+02  0.45594000000E+02  0.51100000000E-03 0. -1.
         23    2    1    2    0    0  0.17763568394E-14  0.00000000000E+00 -0.35527136788E-14  0.91188000000E+02  0.91188000000E+02 0.  0.
    9900012    2    3    3    0    0 -0.12789838825E+02 -0.17614512023E+02  0.29697301065E+02  0.54367072505E+02  0.39999973390E+02 0.  0.
         12    1    3    3    0    0  0.12789838825E+02  0.17614512023E+02 -0.29697301065E+02  0.36820927495E+02  0.00000000000E+00 0. -1.
         11    1    4    4    0    0  0.22359070580E+01 -0.16720951928E+02  0.14378295497E+02  0.22165849756E+02  0.51100000000E-03 0. -1.
        -11    1    4    4    0    0 -0.11004531206E+02 -0.30952054215E+01  0.21592072575E+02  0.24431487921E+02  0.51100000000E-03 0.  1.
        -12    1    4    4    0    0 -0.40212146772E+01  0.22016453264E+01 -0.62730670070E+01  0.77697348280E+01  0.00000000000E+00 0.  1.
</event>
<event>
 8    1  0.1248739E-006  0.9118800E+02  0.7816164E-02  0.1184000E+00
        -11   -1    0    0    0    0  0.00000000000E+00  0.00000000000E+00  0.45593999997E+02  0.45594000000E+02  0.51100000000E-03 0.  1.
         11   -1    0    0    0    0 -0.00000000000E+00 -0.00000000000E+00 -0.45593999997E+02  0.45594000000E+02  0.51100000000E-03 0. -1.
         23    2    1    2    0    0  0.35527136788E-14  0.00000000000E+00 -0.35527136788E-14  0.91188000000E+02  0.91188000000E+02 0.  0.
    9900012    2    3    3    0    0 -0.21030953940E+02 -0.23647188261E+02 -0.18822538796E+02  0.54367102360E+02  0.40000041451E+02 0.  0.
        -12    1    3    3    0    0  0.21030953940E+02  0.23647188261E+02  0.18822538796E+02  0.36820897640E+02  0.00000000000E+00 0.  1.
         11    1    4    4    0    0  0.19375620267E+01 -0.12437217582E+02 -0.19983970334E+02  0.23617739061E+02  0.51100000000E-03 0. -1.
        -11    1    4    4    0    0 -0.58953915401E-01 -0.47290884977E+01 -0.42219001564E+01  0.63397314434E+01  0.51100000000E-03 0.  1.
        -12    1    4    4    0    0 -0.22909562051E+02 -0.64808821819E+01  0.53833316943E+01  0.24409631856E+02  0.00000000000E+00 0.  1.
</event>
<event>
 8    1  0.1248739E-006  0.9118800E+02  0.7816164E-02  0.1184000E+00
        -11   -1    0    0    0    0  0.00000000000E+00  0.00000000000E+00  0.45593999997E+02  0.45594000000E+02  0.51100000000E-03 0.  1.
         11   -1    0    0    0    0 -0.00000000000E+00 -0.00000000000E+00 -0.45593999997E+02  0.45594000000E+02  0.51100000000E-03 0. -1.
         23    2    1    2    0    0  0.00000000000E+00  0.00000000000E+00  0.71054273576E-14  0.91188000000E+02  0.91188000000E+02 0.  0.
    9900012    2    3    3    0    0  0.59970879550E+01  0.17151126303E+02 -0.32025859447E+02  0.54367056629E+02  0.39999937197E+02 0.  0.
        -12    1    3    3    0    0 -0.59970879550E+01 -0.17151126303E+02  0.32025859447E+02  0.36820943371E+02  0.00000000000E+00 0.  1.
         11    1    4    4    0    0  0.82318622863E+00 -0.24791719946E+01  0.58802153945E+00  0.26776293503E+01  0.51100000000E-03 0. -1.
        -11    1    4    4    0    0 -0.14690733776E+01  0.66293455702E+00  0.70461423790E+01  0.72281243419E+01  0.51100000000E-03 0.  1.
         12    1    4    4    0    0  0.66429751040E+01  0.18967363741E+02 -0.39660023365E+02  0.44461302937E+02  0.00000000000E+00 0. -1.
</event>
<event>
 8    1  0.1248739E-006  0.9118800E+02  0.7816164E-02  0.1184000E+00
        -11   -1    0    0    0    0  0.00000000000E+00  0.00000000000E+00  0.45593999997E+02  0.45594000000E+02  0.51100000000E-03 0.  1.
         11   -1    0    0    0    0 -0.00000000000E+00 -0.00000000000E+00 -0.45593999997E+02  0.45594000000E+02  0.51100000000E-03 0. -1.
         23    2    1    2    0    0  0.00000000000E+00  0.35527136788E-14  0.00000000000E+00  0.91188000000E+02  0.91188000000E+02 0.  0.
    9900012    2    3    3    0    0 -0.27039668198E+02  0.19808484413E+02  0.15240145438E+02  0.54367058351E+02  0.39999941122E+02 0.  0.
         12    1    3    3    0    0  0.27039668198E+02 -0.19808484413E+02 -0.15240145438E+02  0.36820941649E+02  0.00000000000E+00 0. -1.
         11    1    4    4    0    0  0.19637548658E+01 -0.35637741974E+01  0.47848690049E+01  0.62810661004E+01  0.51100000000E-03 0. -1.
        -11    1    4    4    0    0 -0.29808665411E+02  0.16238478780E+02 -0.16799128572E+01  0.33986274202E+02  0.51100000000E-03 0.  1.
        -12    1    4    4    0    0  0.80524234788E+00  0.71337798305E+01  0.12135189291E+02  0.14099718048E+02  0.00000000000E+00 0.  1.
</event>
<event>
 8    1  0.1248739E-006  0.9118800E+02  0.7816164E-02  0.1184000E+00
        -11   -1    0    0    0    0  0.00000000000E+00  0.00000000000E+00  0.45593999997E+02  0.45594000000E+02  0.51100000000E-03 0.  1.
         11   -1    0    0    0    0 -0.00000000000E+00 -0.00000000000E+00 -0.45593999997E+02  0.45594000000E+02  0.51100000000E-03 0. -1.
         23    2    1    2    0    0  0.88817841970E-15  0.35527136788E-14  0.00000000000E+00  0.91188000000E+02  0.91188000000E+02 0.  0.
    9900012    2    3    3    0    0  0.48393402606E+01  0.19644370481E+02  0.30764585110E+02  0.54367079278E+02  0.39999988831E+02 0.  0.
         12    1    3    3    0    0 -0.48393402606E+01 -0.19644370481E+02 -0.30764585110E+02  0.36820920722E+02  0.00000000000E+00 0. -1.
         11    1    4    4    0    0  0.25611603444E+01  0.15221100770E+02  0.12100153480E+02  0.19612627705E+02  0.51100000000E-03 0. -1.
        -11    1    4    4    0    0  0.77330683612E+01 -0.90906616610E+01  0.11801767916E+01  0.11993051873E+02  0.51100000000E-03 0.  1.
         12    1    4    4    0    0 -0.54548884450E+01  0.13513931372E+02  0.17484254839E+02  0.22761399701E+02  0.00000000000E+00 0. -1.
</event>
<event>
 8    1  0.1248739E-006  0.9118800E+02  0.7816164E-02  0.1184000E+00
        -11   -1    0    0    0    0  0.00000000000E+00  0.00000000000E+00  0.45593999997E+02  0.45594000000E+02  0.51100000000E-03 0. -1.
         11   -1    0    0    0    0 -0.00000000000E+00 -0.00000000000E+00 -0.45593999997E+02  0.45594000000E+02  0.51100000000E-03 0.  1.
         23    2    1    2    0    0  0.00000000000E+00  0.00000000000E+00 -0.17763568394E-14  0.91188000000E+02  0.91188000000E+02 0.  0.
    9900012    2    3    3    0    0  0.30199133278E+02  0.14149116955E+02 -0.15607486393E+02  0.54367098424E+02  0.40000032476E+02 0.  0.
         12    1    3    3    0    0 -0.30199133278E+02 -0.14149116955E+02  0.15607486393E+02  0.36820901576E+02  0.00000000000E+00 0. -1.
         11    1    4    4    0    0 -0.51366718773E+01 -0.16538692589E+01 -0.14159285447E+00  0.53982154735E+01  0.51100000000E-03 0. -1.
        -11    1    4    4    0    0  0.24230266790E+02  0.22729719189E+02 -0.92947981129E+01  0.34498394677E+02  0.51100000000E-03 0.  1.
        -12    1    4    4    0    0  0.11105538366E+02 -0.69267329744E+01 -0.61710954261E+01  0.14470488273E+02  0.00000000000E+00 0.  1.
</event>
<event>
 8    1  0.1248739E-006  0.9118800E+02  0.7816164E-02  0.1184000E+00
        -11   -1    0    0    0    0  0.00000000000E+00  0.00000000000E+00  0.45593999997E+02  0.45594000000E+02  0.51100000000E-03 0. -1.
         11   -1    0    0    0    0 -0.00000000000E+00 -0.00000000000E+00 -0.45593999997E+02  0.45594000000E+02  0.51100000000E-03 0.  1.
         23    2    1    2    0    0  0.00000000000E+00  0.00000000000E+00  0.00000000000E+00  0.91188000000E+02  0.91188000000E+02 0.  0.
    9900012    2    3    3    0    0  0.93107913493E+01  0.32433655847E+02  0.14735934692E+02  0.54367073363E+02  0.39999975346E+02 0.  0.
        -12    1    3    3    0    0 -0.93107913493E+01 -0.32433655847E+02 -0.14735934692E+02  0.36820926637E+02  0.00000000000E+00 0.  1.
         11    1    4    4    0    0  0.94841424410E+01  0.64681641132E+01  0.11892523701E+02  0.16529314114E+02  0.51100000000E-03 0. -1.
        -11    1    4    4    0    0  0.10949951902E+02  0.37684775107E+01 -0.37086765466E+01  0.12159652601E+02  0.51100000000E-03 0.  1.
        -12    1    4    4    0    0 -0.11123302993E+02  0.22197014223E+02  0.65520875370E+01  0.25678106648E+02  0.00000000000E+00 0.  1.
</event>
<event>
 8    1  0.1248739E-006  0.9118800E+02  0.7816164E-02  0.1184000E+00
        -11   -1    0    0    0    0  0.00000000000E+00  0.00000000000E+00  0.45593999997E+02  0.45594000000E+02  0.51100000000E-03 0.  1.
         11   -1    0    0    0    0 -0.00000000000E+00 -0.00000000000E+00 -0.45593999997E+02  0.45594000000E+02  0.51100000000E-03 0. -1.
         23    2    1    2    0    0  0.17763568394E-14  0.00000000000E+00  0.00000000000E+00  0.91188000000E+02  0.91188000000E+02 0.  0.
    9900012    2    3    3    0    0  0.14842770420E+02  0.81890197182E+01  0.32686569069E+02  0.54367086443E+02  0.40000005164E+02 0.  0.
         12    1    3    3    0    0 -0.14842770420E+02 -0.81890197182E+01 -0.32686569069E+02  0.36820913557E+02  0.00000000000E+00 0. -1.
         11    1    4    4    0    0  0.14184359018E+02  0.12013943036E+02  0.22418812520E+02  0.29122740652E+02  0.51100000000E-03 0.  1.
        -11    1    4    4    0    0  0.94243944933E+01 -0.21185658488E+01  0.12730575336E+02  0.15980459363E+02  0.51100000000E-03 0. -1.
        -12    1    4    4    0    0 -0.87659830916E+01 -0.17063574688E+01 -0.24628187866E+01  0.92638864279E+01  0.00000000000E+00 0.  1.
</event>
<event>
 8    1  0.1248739E-006  0.9118800E+02  0.7816164E-02  0.1184000E+00
        -11   -1    0    0    0    0  0.00000000000E+00  0.00000000000E+00  0.45593999997E+02  0.45594000000E+02  0.51100000000E-03 0.  1.
         11   -1    0    0    0    0 -0.00000000000E+00 -0.00000000000E+00 -0.45593999997E+02  0.45594000000E+02  0.51100000000E-03 0. -1.
         23    2    1    2    0    0 -0.35527136788E-14  0.35527136788E-14 -0.88817841970E-15  0.91188000000E+02  0.91188000000E+02 0.  0.
    9900012    2    3    3    0    0 -0.22917899501E+02  0.28223479892E+02 -0.58296568772E+01  0.54367084285E+02  0.40000000246E+02 0.  0.
        -12    1    3    3    0    0  0.22917899501E+02 -0.28223479892E+02  0.58296568772E+01  0.36820915715E+02  0.00000000000E+00 0.  1.
         11    1    4    4    0    0  0.31836441249E+01  0.28570056346E+01 -0.36683668848E+01  0.56351563397E+01  0.51100000000E-03 0. -1.
        -11    1    4    4    0    0  0.46718787538E+01  0.52863790404E+01  0.79420259395E+01  0.10622995375E+02  0.51100000000E-03 0.  1.
        -12    1    4    4    0    0 -0.30773422379E+02  0.20080095217E+02 -0.10103315932E+02  0.38108932571E+02  0.00000000000E+00 0.  1.
</event>
<event>
 8    1  0.1248739E-006  0.9118800E+02  0.7816164E-02  0.1184000E+00
        -11   -1    0    0    0    0  0.00000000000E+00  0.00000000000E+00  0.45593999997E+02  0.45594000000E+02  0.51100000000E-03 0.  1.
         11   -1    0    0    0    0 -0.00000000000E+00 -0.00000000000E+00 -0.45593999997E+02  0.45594000000E+02  0.51100000000E-03 0. -1.
         23    2    1    2    0    0 -0.55511151231E-16  0.35527136788E-14  0.35527136788E-14  0.91188000000E+02  0.91188000000E+02 0.  0.
    9900012    2    3    3    0    0 -0.44409174152E+00 -0.19064012738E+02 -0.31498337534E+02  0.54367094708E+02  0.40000024005E+02 0.  0.
        -12    1    3    3    0    0  0.44409174152E+00  0.19064012738E+02  0.31498337534E+02  0.36820905292E+02  0.00000000000E+00 0.  1.
         11    1    4    4    0    0  0.75271844634E+01  0.54388470475E+01 -0.16146228993E+02  0.18626332814E+02  0.51100000000E-03 0. -1.
        -11    1    4    4    0    0  0.57103119088E+01 -0.31183302940E+01 -0.10138126429E+01  0.65847902210E+01  0.51100000000E-03 0.  1.
        -12    1    4    4    0    0 -0.13681588114E+02 -0.21384529492E+02 -0.14338295898E+02  0.29155971672E+02  0.00000000000E+00 0.  1.
</event>
<event>
 8    1  0.1248739E-006  0.9118800E+02  0.7816164E-02  0.1184000E+00
        -11   -1    0    0    0    0  0.00000000000E+00  0.00000000000E+00  0.45593999997E+02  0.45594000000E+02  0.51100000000E-03 0.  1.
         11   -1    0    0    0    0 -0.00000000000E+00 -0.00000000000E+00 -0.45593999997E+02  0.45594000000E+02  0.51100000000E-03 0. -1.
         23    2    1    2    0    0  0.00000000000E+00  0.00000000000E+00  0.00000000000E+00  0.91188000000E+02  0.91188000000E+02 0.  0.
    9900012    2    3    3    0    0  0.21210640280E+02  0.88143728846E+01  0.28778365557E+02  0.54367098944E+02  0.40000033662E+02 0.  0.
         12    1    3    3    0    0 -0.21210640280E+02 -0.88143728846E+01 -0.28778365557E+02  0.36820901056E+02  0.00000000000E+00 0. -1.
         11    1    4    4    0    0  0.15929281571E+02  0.70675088990E+01  0.50705419295E+01  0.18149437708E+02  0.51100000000E-03 0. -1.
        -11    1    4    4    0    0  0.12404005519E+02  0.89433417221E+01  0.73186827084E+01  0.16953047836E+02  0.51100000000E-03 0.  1.
         12    1    4    4    0    0 -0.71226468091E+01 -0.71964777365E+01  0.16389140919E+02  0.19264613400E+02  0.00000000000E+00 0. -1.
</event>
<event>
 8    1  0.1248739E-006  0.9118800E+02  0.7816164E-02  0.1184000E+00
        -11   -1    0    0    0    0  0.00000000000E+00  0.00000000000E+00  0.45593999997E+02  0.45594000000E+02  0.51100000000E-03 0. -1.
         11   -1    0    0    0    0 -0.00000000000E+00 -0.00000000000E+00 -0.45593999997E+02  0.45594000000E+02  0.51100000000E-03 0.  1.
         23    2    1    2    0    0  0.00000000000E+00  0.13322676296E-14  0.00000000000E+00  0.91188000000E+02  0.91188000000E+02 0.  0.
    9900012    2    3    3    0    0 -0.14674558340E+02  0.36447913620E+01  0.33573102670E+02  0.54367076744E+02  0.39999983054E+02 0.  0.
        -12    1    3    3    0    0  0.14674558340E+02 -0.36447913620E+01 -0.33573102670E+02  0.36820923256E+02  0.00000000000E+00 0.  1.
         11    1    4    4    0    0  0.13468479535E+01  0.84469905184E+00  0.23158111144E+02  0.23212617860E+02  0.51100000000E-03 0. -1.
        -11    1    4    4    0    0 -0.60099119188E+01  0.94604872236E+01  0.14614637990E+02  0.18417586802E+02  0.51100000000E-03 0.  1.
        -12    1    4    4    0    0 -0.10011494374E+02 -0.66603949135E+01 -0.41996464643E+01  0.12736872082E+02  0.00000000000E+00 0.  1.
</event>
<event>
 8    1  0.1248739E-006  0.9118800E+02  0.7816164E-02  0.1184000E+00
        -11   -1    0    0    0    0  0.00000000000E+00  0.00000000000E+00  0.45593999997E+02  0.45594000000E+02  0.51100000000E-03 0. -1.
         11   -1    0    0    0    0 -0.00000000000E+00 -0.00000000000E+00 -0.45593999997E+02  0.45594000000E+02  0.51100000000E-03 0.  1.
         23    2    1    2    0    0  0.00000000000E+00  0.00000000000E+00  0.00000000000E+00  0.91188000000E+02  0.91188000000E+02 0.  0.
    9900012    2    3    3    0    0 -0.75516095897E+01  0.22059831230E+02  0.28497754983E+02  0.54367014131E+02  0.39999840313E+02 0.  0.
        -12    1    3    3    0    0  0.75516095897E+01 -0.22059831230E+02 -0.28497754983E+02  0.36820985869E+02  0.00000000000E+00 0.  1.
         11    1    4    4    0    0 -0.11770895835E+02  0.33608378894E+01  0.81692496920E+01  0.14716856351E+02  0.51100000000E-03 0. -1.
        -11    1    4    4    0    0  0.13968738323E+01  0.68418950255E-01 -0.66206249155E+01  0.67667283224E+01  0.51100000000E-03 0.  1.
         12    1    4    4    0    0  0.28224124127E+01  0.18630574391E+02  0.26949130207E+02  0.32883429457E+02  0.00000000000E+00 0. -1.
</event>
<event>
 8    1  0.1248739E-006  0.9118800E+02  0.7816164E-02  0.1184000E+00
        -11   -1    0    0    0    0  0.00000000000E+00  0.00000000000E+00  0.45593999997E+02  0.45594000000E+02  0.51100000000E-03 0. -1.
         11   -1    0    0    0    0 -0.00000000000E+00 -0.00000000000E+00 -0.45593999997E+02  0.45594000000E+02  0.51100000000E-03 0.  1.
         23    2    1    2    0    0  0.35527136788E-14  0.00000000000E+00  0.88817841970E-15  0.91188000000E+02  0.91188000000E+02 0.  0.
    9900012    2    3    3    0    0 -0.26210001814E+02 -0.24918994714E+02 -0.69180494642E+01  0.54367083376E+02  0.39999998172E+02 0.  0.
         12    1    3    3    0    0  0.26210001814E+02  0.24918994714E+02  0.69180494642E+01  0.36820916624E+02  0.00000000000E+00 0. -1.
         11    1    4    4    0    0 -0.15252889646E+02  0.79610115722E+00 -0.62663567604E+01  0.16509138285E+02  0.51100000000E-03 0. -1.
        -11    1    4    4    0    0 -0.19228201002E+02 -0.16544666203E+02 -0.19463219088E+01  0.25440869929E+02  0.51100000000E-03 0.  1.
         12    1    4    4    0    0  0.82710888337E+01 -0.91704296685E+01  0.12946292050E+01  0.12417075162E+02  0.00000000000E+00 0. -1.
</event>
<event>
 8    1  0.1248739E-006  0.9118800E+02  0.7816164E-02  0.1184000E+00
        -11   -1    0    0    0    0  0.00000000000E+00  0.00000000000E+00  0.45593999997E+02  0.45594000000E+02  0.51100000000E-03 0.  1.
         11   -1    0    0    0    0 -0.00000000000E+00 -0.00000000000E+00 -0.45593999997E+02  0.45594000000E+02  0.51100000000E-03 0. -1.
         23    2    1    2    0    0  0.00000000000E+00  0.44408920985E-15  0.00000000000E+00  0.91188000000E+02  0.91188000000E+02 0.  0.
    9900012    2    3    3    0    0 -0.29353845886E+02  0.21784910343E+01  0.22122055741E+02  0.54367089614E+02  0.40000012392E+02 0.  0.
         12    1    3    3    0    0  0.29353845886E+02 -0.21784910343E+01 -0.22122055741E+02  0.36820910386E+02  0.00000000000E+00 0. -1.
         11    1    4    4    0    0 -0.11079280481E+02  0.19519147777E+01 -0.93647979368E+01  0.14637618247E+02  0.51100000000E-03 0. -1.
        -11    1    4    4    0    0  0.41458230795E+00 -0.28405071427E+01  0.12819491467E+02  0.13136960114E+02  0.51100000000E-03 0.  1.
         12    1    4    4    0    0 -0.18689147713E+02  0.30670833992E+01  0.18667362211E+02  0.26592511252E+02  0.00000000000E+00 0. -1.
</event>
<event>
 8    1  0.1248739E-006  0.9118800E+02  0.7816164E-02  0.1184000E+00
        -11   -1    0    0    0    0  0.00000000000E+00  0.00000000000E+00  0.45593999997E+02  0.45594000000E+02  0.51100000000E-03 0.  1.
         11   -1    0    0    0    0 -0.00000000000E+00 -0.00000000000E+00 -0.45593999997E+02  0.45594000000E+02  0.51100000000E-03 0. -1.
         23    2    1    2    0    0  0.00000000000E+00  0.00000000000E+00  0.00000000000E+00  0.91188000000E+02  0.91188000000E+02 0.  0.
    9900012    2    3    3    0    0 -0.35200967287E+02 -0.64184070886E+01  0.86877324527E+01  0.54367071947E+02  0.39999972118E+02 0.  0.
         12    1    3    3    0    0  0.35200967287E+02  0.64184070886E+01 -0.86877324527E+01  0.36820928053E+02  0.00000000000E+00 0. -1.
         11    1    4    4    0    0 -0.10586425256E+02 -0.75716063798E+01  0.72924745856E+01  0.14919175872E+02  0.51100000000E-03 0. -1.
        -11    1    4    4    0    0 -0.11740202042E+02  0.12695220378E+02  0.10167369823E+02  0.20059321370E+02  0.51100000000E-03 0.  1.
         12    1    4    4    0    0 -0.12874339989E+02 -0.11542021087E+02 -0.87721119561E+01  0.19388574705E+02  0.00000000000E+00 0. -1.
</event>
<event>
 8    1  0.1248739E-006  0.9118800E+02  0.7816164E-02  0.1184000E+00
        -11   -1    0    0    0    0  0.00000000000E+00  0.00000000000E+00  0.45593999997E+02  0.45594000000E+02  0.51100000000E-03 0. -1.
         11   -1    0    0    0    0 -0.00000000000E+00 -0.00000000000E+00 -0.45593999997E+02  0.45594000000E+02  0.51100000000E-03 0.  1.
         23    2    1    2    0    0  0.00000000000E+00  0.35527136788E-14  0.00000000000E+00  0.91188000000E+02  0.91188000000E+02 0.  0.
    9900012    2    3    3    0    0  0.10387885637E+02 -0.20356327638E+02 -0.28870258277E+02  0.54367081273E+02  0.39999993379E+02 0.  0.
         12    1    3    3    0    0 -0.10387885637E+02  0.20356327638E+02  0.28870258277E+02  0.36820918727E+02  0.00000000000E+00 0. -1.
         11    1    4    4    0    0  0.76220963947E+01  0.80918764625E+01 -0.12270795221E+02  0.16557392118E+02  0.51100000000E-03 0. -1.
        -11    1    4    4    0    0 -0.43504244522E+01 -0.12301244511E+02  0.74235163463E+00  0.13068966893E+02  0.51100000000E-03 0.  1.
         12    1    4    4    0    0  0.71162136944E+01 -0.16146959589E+02 -0.17341814691E+02  0.24740722263E+02  0.00000000000E+00 0. -1.
</event>
<event>
 8    1  0.1248739E-006  0.9118800E+02  0.7816164E-02  0.1184000E+00
        -11   -1    0    0    0    0  0.00000000000E+00  0.00000000000E+00  0.45593999997E+02  0.45594000000E+02  0.51100000000E-03 0.  1.
         11   -1    0    0    0    0 -0.00000000000E+00 -0.00000000000E+00 -0.45593999997E+02  0.45594000000E+02  0.51100000000E-03 0. -1.
         23    2    1    2    0    0 -0.88817841970E-15  0.00000000000E+00  0.17763568394E-14  0.91188000000E+02  0.91188000000E+02 0.  0.
    9900012    2    3    3    0    0 -0.44003472221E+01  0.34112738688E+02 -0.13143165287E+02  0.54367016984E+02  0.39999846819E+02 0.  0.
        -12    1    3    3    0    0  0.44003472221E+01 -0.34112738688E+02  0.13143165287E+02  0.36820983016E+02  0.00000000000E+00 0.  1.
         11    1    4    4    0    0 -0.14457606387E+00  0.14325362244E+02 -0.20506388118E+02  0.25014972707E+02  0.51100000000E-03 0. -1.
        -11    1    4    4    0    0  0.31638484781E+01 -0.11805709824E+01  0.62237808645E+01  0.70808992047E+01  0.51100000000E-03 0.  1.
         12    1    4    4    0    0 -0.74196196364E+01  0.20967947427E+02  0.11394419664E+01  0.22271145072E+02  0.00000000000E+00 0. -1.
</event>
<event>
 8    1  0.1248739E-006  0.9118800E+02  0.7816164E-02  0.1184000E+00
        -11   -1    0    0    0    0  0.00000000000E+00  0.00000000000E+00  0.45593999997E+02  0.45594000000E+02  0.51100000000E-03 0. -1.
         11   -1    0    0    0    0 -0.00000000000E+00 -0.00000000000E+00 -0.45593999997E+02  0.45594000000E+02  0.51100000000E-03 0.  1.
         23    2    1    2    0    0  0.35527136788E-14 -0.88817841970E-15  0.35527136788E-14  0.91188000000E+02  0.91188000000E+02 0.  0.
    9900012    2    3    3    0    0  0.25082323876E+02 -0.69172614252E+01  0.26053924627E+02  0.54367102875E+02  0.40000042623E+02 0.  0.
        -12    1    3    3    0    0 -0.25082323876E+02  0.69172614252E+01 -0.26053924627E+02  0.36820897125E+02  0.00000000000E+00 0.  1.
         11    1    4    4    0    0  0.54076820287E+01 -0.97745145890E+01  0.81088549973E+01  0.13803539039E+02  0.51100000000E-03 0. -1.
        -11    1    4    4    0    0  0.16019879634E+02  0.53130230188E-01  0.26431583596E+02  0.30907409758E+02  0.51100000000E-03 0.  1.
        -12    1    4    4    0    0  0.36547622132E+01  0.28041229336E+01 -0.84865139664E+01  0.96561540772E+01  0.00000000000E+00 0.  1.
</event>
<event>
 8    1  0.1248739E-006  0.9118800E+02  0.7816164E-02  0.1184000E+00
        -11   -1    0    0    0    0  0.00000000000E+00  0.00000000000E+00  0.45593999997E+02  0.45594000000E+02  0.51100000000E-03 0.  1.
         11   -1    0    0    0    0 -0.00000000000E+00 -0.00000000000E+00 -0.45593999997E+02  0.45594000000E+02  0.51100000000E-03 0. -1.
         23    2    1    2    0    0 -0.35527136788E-14  0.22204460493E-15  0.71054273576E-14  0.91188000000E+02  0.91188000000E+02 0.  0.
    9900012    2    3    3    0    0 -0.30150140437E+02 -0.19264741699E+01  0.21048444314E+02  0.54367091820E+02  0.40000017423E+02 0.  0.
         12    1    3    3    0    0  0.30150140437E+02  0.19264741699E+01 -0.21048444314E+02  0.36820908180E+02  0.00000000000E+00 0. -1.
         11    1    4    4    0    0  0.13312770107E+01 -0.29311262596E+00  0.51267018311E+01  0.53048360406E+01  0.51100000000E-03 0. -1.
        -11    1    4    4    0    0 -0.85122763208E+01 -0.92521482603E+01 -0.81069401100E+01  0.14959397508E+02  0.51100000000E-03 0.  1.
         12    1    4    4    0    0 -0.22969141127E+02  0.76187867163E+01  0.24028682593E+02  0.34102858272E+02  0.00000000000E+00 0. -1.
</event>
<event>
 8    1  0.1248739E-006  0.9118800E+02  0.7816164E-02  0.1184000E+00
        -11   -1    0    0    0    0  0.00000000000E+00  0.00000000000E+00  0.45593999997E+02  0.45594000000E+02  0.51100000000E-03 0.  1.
         11   -1    0    0    0    0 -0.00000000000E+00 -0.00000000000E+00 -0.45593999997E+02  0.45594000000E+02  0.51100000000E-03 0. -1.
         23    2    1    2    0    0 -0.17763568394E-14  0.17763568394E-14 -0.35527136788E-14  0.91188000000E+02  0.91188000000E+02 0.  0.
    9900012    2    3    3    0    0 -0.13599708747E+02 -0.14375592669E+02  0.31051221304E+02  0.54366972216E+02  0.39999744760E+02 0.  0.
         12    1    3    3    0    0  0.13599708747E+02  0.14375592669E+02 -0.31051221304E+02  0.36821027784E+02  0.00000000000E+00 0. -1.
         11    1    4    4    0    0  0.44207376705E+01 -0.31348992966E+01 -0.25717932250E+00  0.54255558808E+01  0.51100000000E-03 0. -1.
        -11    1    4    4    0    0 -0.25126144225E+02 -0.15111388895E+02  0.26547910658E+02  0.39553365957E+02  0.51100000000E-03 0.  1.
        -12    1    4    4    0    0  0.71056978076E+01  0.38706955228E+01  0.47604899690E+01  0.93880503784E+01  0.00000000000E+00 0.  1.
</event>
<event>
 8    1  0.1248739E-006  0.9118800E+02  0.7816164E-02  0.1184000E+00
        -11   -1    0    0    0    0  0.00000000000E+00  0.00000000000E+00  0.45593999997E+02  0.45594000000E+02  0.51100000000E-03 0. -1.
         11   -1    0    0    0    0 -0.00000000000E+00 -0.00000000000E+00 -0.45593999997E+02  0.45594000000E+02  0.51100000000E-03 0.  1.
         23    2    1    2    0    0  0.00000000000E+00  0.17763568394E-14  0.00000000000E+00  0.91188000000E+02  0.91188000000E+02 0.  0.
    9900012    2    3    3    0    0 -0.21395938143E+01  0.14814051509E+02 -0.33641411591E+02  0.54367101619E+02  0.40000039760E+02 0.  0.
         12    1    3    3    0    0  0.21395938143E+01 -0.14814051509E+02  0.33641411591E+02  0.36820898381E+02  0.00000000000E+00 0. -1.
         11    1    4    4    0    0  0.23686168075E+01  0.65682582604E+01  0.59673234172E+01  0.91848413804E+01  0.51100000000E-03 0. -1.
        -11    1    4    4    0    0 -0.48825032310E+00  0.11072207564E+02 -0.92717001224E+01  0.14449795574E+02  0.51100000000E-03 0.  1.
        -12    1    4    4    0    0 -0.40199602987E+01 -0.28264143150E+01 -0.30337034886E+02  0.30732464664E+02  0.00000000000E+00 0.  1.
</event>
<event>
 8    1  0.1248739E-006  0.9118800E+02  0.7816164E-02  0.1184000E+00
        -11   -1    0    0    0    0  0.00000000000E+00  0.00000000000E+00  0.45593999997E+02  0.45594000000E+02  0.51100000000E-03 0.  1.
         11   -1    0    0    0    0 -0.00000000000E+00 -0.00000000000E+00 -0.45593999997E+02  0.45594000000E+02  0.51100000000E-03 0. -1.
         23    2    1    2    0    0  0.00000000000E+00 -0.55511151231E-16  0.00000000000E+00  0.91188000000E+02  0.91188000000E+02 0.  0.
    9900012    2    3    3    0    0 -0.42410431604E+01 -0.15187836924E+00 -0.36575544021E+02  0.54367082920E+02  0.39999997133E+02 0.  0.
        -12    1    3    3    0    0  0.42410431604E+01  0.15187836924E+00  0.36575544021E+02  0.36820917080E+02  0.00000000000E+00 0.  1.
         11    1    4    4    0    0  0.81287700080E+01  0.11796355022E+00  0.40875288350E+00  0.81398953571E+01  0.51100000000E-03 0. -1.
        -11    1    4    4    0    0 -0.11281352055E+02  0.11378211967E+02 -0.20724322351E+02  0.26195994902E+02  0.51100000000E-03 0.  1.
         12    1    4    4    0    0 -0.10884611136E+01 -0.11648053886E+02 -0.16259974554E+02  0.20031192661E+02  0.00000000000E+00 0. -1.
</event>
<event>
 8    1  0.1248739E-006  0.9118800E+02  0.7816164E-02  0.1184000E+00
        -11   -1    0    0    0    0  0.00000000000E+00  0.00000000000E+00  0.45593999997E+02  0.45594000000E+02  0.51100000000E-03 0.  1.
         11   -1    0    0    0    0 -0.00000000000E+00 -0.00000000000E+00 -0.45593999997E+02  0.45594000000E+02  0.51100000000E-03 0. -1.
         23    2    1    2    0    0 -0.35527136788E-14 -0.35527136788E-14  0.88817841970E-15  0.91188000000E+02  0.91188000000E+02 0.  0.
    9900012    2    3    3    0    0  0.21235012100E+02 -0.30054449589E+02 -0.12585206873E+01  0.54367088098E+02  0.40000008938E+02 0.  0.
        -12    1    3    3    0    0 -0.21235012100E+02  0.30054449589E+02  0.12585206873E+01  0.36820911902E+02  0.00000000000E+00 0.  1.
         11    1    4    4    0    0  0.64986081510E+01 -0.20581747486E+02 -0.12182683412E+02  0.24784229116E+02  0.51100000000E-03 0. -1.
        -11    1    4    4    0    0  0.13145057311E+02 -0.15934589425E+02  0.96808163907E+01  0.22812756916E+02  0.51100000000E-03 0.  1.
        -12    1    4    4    0    0  0.15913466373E+01  0.64618873222E+01  0.12433463342E+01  0.67701020665E+01  0.00000000000E+00 0.  1.
</event>
<event>
 8    1  0.1248739E-006  0.9118800E+02  0.7816164E-02  0.1184000E+00
        -11   -1    0    0    0    0  0.00000000000E+00  0.00000000000E+00  0.45593999997E+02  0.45594000000E+02  0.51100000000E-03 0. -1.
         11   -1    0    0    0    0 -0.00000000000E+00 -0.00000000000E+00 -0.45593999997E+02  0.45594000000E+02  0.51100000000E-03 0.  1.
         23    2    1    2    0    0  0.00000000000E+00  0.00000000000E+00  0.35527136788E-14  0.91188000000E+02  0.91188000000E+02 0.  0.
    9900012    2    3    3    0    0  0.18989161535E+02 -0.16776788597E+02  0.26715750746E+02  0.54367078918E+02  0.39999988008E+02 0.  0.
        -12    1    3    3    0    0 -0.18989161535E+02  0.16776788597E+02 -0.26715750746E+02  0.36820921082E+02  0.00000000000E+00 0.  1.
         11    1    4    4    0    0 -0.48739290441E+01  0.61514338006E+01  0.69714249878E+01  0.10497432484E+02  0.51100000000E-03 0. -1.
        -11    1    4    4    0    0  0.13089090473E+02 -0.29757942547E+01 -0.55622446163E+00  0.13434620455E+02  0.51100000000E-03 0.  1.
         12    1    4    4    0    0  0.10774000106E+02 -0.19952428143E+02  0.20300550220E+02  0.30435025978E+02  0.00000000000E+00 0. -1.
</event>
<event>
 8    1  0.1248739E-006  0.9118800E+02  0.7816164E-02  0.1184000E+00
        -11   -1    0    0    0    0  0.00000000000E+00  0.00000000000E+00  0.45593999997E+02  0.45594000000E+02  0.51100000000E-03 0. -1.
         11   -1    0    0    0    0 -0.00000000000E+00 -0.00000000000E+00 -0.45593999997E+02  0.45594000000E+02  0.51100000000E-03 0.  1.
         23    2    1    2    0    0 -0.88817841970E-15  0.00000000000E+00  0.00000000000E+00  0.91188000000E+02  0.91188000000E+02 0.  0.
    9900012    2    3    3    0    0 -0.43879457233E+01 -0.33965624058E+02 -0.13522707242E+02  0.54367064427E+02  0.39999954975E+02 0.  0.
         12    1    3    3    0    0  0.43879457233E+01  0.33965624058E+02  0.13522707242E+02  0.36820935573E+02  0.00000000000E+00 0. -1.
         11    1    4    4    0    0  0.90148719236E+01 -0.20188952367E+02  0.22860816074E+01  0.22228087701E+02  0.51100000000E-03 0. -1.
        -11    1    4    4    0    0 -0.18471063045E+02 -0.12118226282E+02 -0.15101013615E+02  0.26759525233E+02  0.51100000000E-03 0.  1.
        -12    1    4    4    0    0  0.50682453980E+01 -0.16584454090E+01 -0.70777523423E+00  0.53794514935E+01  0.00000000000E+00 0.  1.
</event>
<event>
 8    1  0.1248739E-006  0.9118800E+02  0.7816164E-02  0.1184000E+00
        -11   -1    0    0    0    0  0.00000000000E+00  0.00000000000E+00  0.45593999997E+02  0.45594000000E+02  0.51100000000E-03 0. -1.
         11   -1    0    0    0    0 -0.00000000000E+00 -0.00000000000E+00 -0.45593999997E+02  0.45594000000E+02  0.51100000000E-03 0.  1.
         23    2    1    2    0    0  0.00000000000E+00 -0.88817841970E-15  0.00000000000E+00  0.91188000000E+02  0.91188000000E+02 0.  0.
    9900012    2    3    3    0    0 -0.27793043254E+02 -0.42121396648E+01 -0.23782025730E+02  0.54367080379E+02  0.39999991340E+02 0.  0.
         12    1    3    3    0    0  0.27793043254E+02  0.42121396648E+01  0.23782025730E+02  0.36820919621E+02  0.00000000000E+00 0. -1.
         11    1    4    4    0    0 -0.15308310117E+02 -0.14000306846E+02 -0.11904729275E+01  0.20779080261E+02  0.51100000000E-03 0. -1.
        -11    1    4    4    0    0 -0.15071050324E+00 -0.15466567541E+01 -0.15198598835E+02  0.15277835827E+02  0.51100000000E-03 0.  1.
        -12    1    4    4    0    0 -0.12334022634E+02  0.11334823936E+02 -0.73929539680E+01  0.18310164291E+02  0.00000000000E+00 0.  1.
</event>
<event>
 8    1  0.1248739E-006  0.9118800E+02  0.7816164E-02  0.1184000E+00
        -11   -1    0    0    0    0  0.00000000000E+00  0.00000000000E+00  0.45593999997E+02  0.45594000000E+02  0.51100000000E-03 0.  1.
         11   -1    0    0    0    0 -0.00000000000E+00 -0.00000000000E+00 -0.45593999997E+02  0.45594000000E+02  0.51100000000E-03 0. -1.
         23    2    1    2    0    0  0.00000000000E+00  0.00000000000E+00  0.00000000000E+00  0.91188000000E+02  0.91188000000E+02 0.  0.
    9900012    2    3    3    0    0 -0.33227938745E+02 -0.35725833858E+01 -0.15457051114E+02  0.54367086182E+02  0.40000004568E+02 0.  0.
        -12    1    3    3    0    0  0.33227938745E+02  0.35725833858E+01  0.15457051114E+02  0.36820913818E+02  0.00000000000E+00 0.  1.
         11    1    4    4    0    0 -0.17726199636E+01 -0.53388191219E+01 -0.19222010130E+02  0.20028251168E+02  0.51100000000E-03 0. -1.
        -11    1    4    4    0    0 -0.23547099559E+02  0.65005206859E+01  0.52963144738E+01  0.24995471872E+02  0.51100000000E-03 0.  1.
         12    1    4    4    0    0 -0.79082192226E+01 -0.47342849498E+01 -0.15313554577E+01  0.93433631416E+01  0.00000000000E+00 0. -1.
</event>
<event>
 8    1  0.1248739E-006  0.9118800E+02  0.7816164E-02  0.1184000E+00
        -11   -1    0    0    0    0  0.00000000000E+00  0.00000000000E+00  0.45593999997E+02  0.45594000000E+02  0.51100000000E-03 0.  1.
         11   -1    0    0    0    0 -0.00000000000E+00 -0.00000000000E+00 -0.45593999997E+02  0.45594000000E+02  0.51100000000E-03 0. -1.
         23    2    1    2    0    0 -0.71054273576E-14 -0.88817841970E-15  0.17763568394E-14  0.91188000000E+02  0.91188000000E+02 0.  0.
    9900012    2    3    3    0    0  0.33769524802E+02  0.70896977009E+01 -0.12850490880E+02  0.54367085635E+02  0.40000003322E+02 0.  0.
        -12    1    3    3    0    0 -0.33769524802E+02 -0.70896977009E+01  0.12850490880E+02  0.36820914365E+02  0.00000000000E+00 0.  1.
         11    1    4    4    0    0  0.34714425359E+02  0.89692842483E+01 -0.85782595781E+01  0.36866325089E+02  0.51100000000E-03 0. -1.
        -11    1    4    4    0    0  0.22939967155E+01 -0.74172170008E+01  0.25154064906E+01  0.81611763271E+01  0.51100000000E-03 0.  1.
        -12    1    4    4    0    0 -0.32388972726E+01  0.55376304535E+01 -0.67876377925E+01  0.93395842190E+01  0.00000000000E+00 0.  1.
</event>
<event>
 8    1  0.1248739E-006  0.9118800E+02  0.7816164E-02  0.1184000E+00
        -11   -1    0    0    0    0  0.00000000000E+00  0.00000000000E+00  0.45593999997E+02  0.45594000000E+02  0.51100000000E-03 0. -1.
         11   -1    0    0    0    0 -0.00000000000E+00 -0.00000000000E+00 -0.45593999997E+02  0.45594000000E+02  0.51100000000E-03 0.  1.
         23    2    1    2    0    0  0.00000000000E+00  0.00000000000E+00  0.00000000000E+00  0.91188000000E+02  0.91188000000E+02 0.  0.
    9900012    2    3    3    0    0 -0.33058610275E+02  0.99278995499E+01  0.12819687201E+02  0.54367091773E+02  0.40000017314E+02 0.  0.
         12    1    3    3    0    0  0.33058610275E+02 -0.99278995499E+01 -0.12819687201E+02  0.36820908227E+02  0.00000000000E+00 0. -1.
         11    1    4    4    0    0 -0.14718448555E+02  0.14375592766E+02  0.17223812124E+00  0.20574743291E+02  0.51100000000E-03 0. -1.
        -11    1    4    4    0    0 -0.21598675259E+02 -0.25239595137E+01  0.12481827129E+01  0.21781439459E+02  0.51100000000E-03 0.  1.
         12    1    4    4    0    0  0.32585135396E+01 -0.19237337029E+01  0.11399266367E+02  0.12010909022E+02  0.00000000000E+00 0. -1.
</event>
<event>
 8    1  0.1248739E-006  0.9118800E+02  0.7816164E-02  0.1184000E+00
        -11   -1    0    0    0    0  0.00000000000E+00  0.00000000000E+00  0.45593999997E+02  0.45594000000E+02  0.51100000000E-03 0.  1.
         11   -1    0    0    0    0 -0.00000000000E+00 -0.00000000000E+00 -0.45593999997E+02  0.45594000000E+02  0.51100000000E-03 0. -1.
         23    2    1    2    0    0 -0.17763568394E-14  0.00000000000E+00  0.71054273576E-14  0.91188000000E+02  0.91188000000E+02 0.  0.
    9900012    2    3    3    0    0  0.85099599276E+01  0.55137407815E+01 -0.35397178345E+02  0.54367068586E+02  0.39999964456E+02 0.  0.
        -12    1    3    3    0    0 -0.85099599276E+01 -0.55137407815E+01  0.35397178345E+02  0.36820931414E+02  0.00000000000E+00 0.  1.
         11    1    4    4    0    0 -0.49762070992E+01  0.80529576408E+01 -0.16083703052E+02  0.18662750815E+02  0.51100000000E-03 0. -1.
        -11    1    4    4    0    0 -0.57556292487E+01 -0.68840279945E+01 -0.11258442950E+02  0.14396862415E+02  0.51100000000E-03 0.  1.
         12    1    4    4    0    0  0.19241796276E+02  0.43448111353E+01 -0.80550323429E+01  0.21307455356E+02  0.00000000000E+00 0. -1.
</event>
<event>
 8    1  0.1248739E-006  0.9118800E+02  0.7816164E-02  0.1184000E+00
        -11   -1    0    0    0    0  0.00000000000E+00  0.00000000000E+00  0.45593999997E+02  0.45594000000E+02  0.51100000000E-03 0. -1.
         11   -1    0    0    0    0 -0.00000000000E+00 -0.00000000000E+00 -0.45593999997E+02  0.45594000000E+02  0.51100000000E-03 0.  1.
         23    2    1    2    0    0  0.35527136788E-14 -0.17763568394E-14  0.17763568394E-14  0.91188000000E+02  0.91188000000E+02 0.  0.
    9900012    2    3    3    0    0  0.30929182722E+02 -0.12770650238E+02  0.15364835789E+02  0.54367054464E+02  0.39999932262E+02 0.  0.
        -12    1    3    3    0    0 -0.30929182722E+02  0.12770650238E+02 -0.15364835789E+02  0.36820945536E+02  0.00000000000E+00 0.  1.
         11    1    4    4    0    0  0.11489867178E+02  0.31672830580E+01  0.11966489451E+02  0.16889215487E+02  0.51100000000E-03 0. -1.
        -11    1    4    4    0    0  0.22123178118E+02 -0.11093828045E+02 -0.69800307877E+01  0.25714370706E+02  0.51100000000E-03 0.  1.
         12    1    4    4    0    0 -0.26838625741E+01 -0.48441052510E+01  0.10378377126E+02  0.11763468271E+02  0.00000000000E+00 0. -1.
</event>
<event>
 8    1  0.1248739E-006  0.9118800E+02  0.7816164E-02  0.1184000E+00
        -11   -1    0    0    0    0  0.00000000000E+00  0.00000000000E+00  0.45593999997E+02  0.45594000000E+02  0.51100000000E-03 0. -1.
         11   -1    0    0    0    0 -0.00000000000E+00 -0.00000000000E+00 -0.45593999997E+02  0.45594000000E+02  0.51100000000E-03 0.  1.
         23    2    1    2    0    0 -0.17763568394E-14  0.00000000000E+00  0.35527136788E-14  0.91188000000E+02  0.91188000000E+02 0.  0.
    9900012    2    3    3    0    0  0.12841913884E+02  0.18726422454E+02  0.28985996668E+02  0.54367059586E+02  0.39999943939E+02 0.  0.
        -12    1    3    3    0    0 -0.12841913884E+02 -0.18726422454E+02 -0.28985996668E+02  0.36820940414E+02  0.00000000000E+00 0.  1.
         11    1    4    4    0    0  0.52695380953E+01  0.10851732060E+02  0.55529741044E+00  0.12076277403E+02  0.51100000000E-03 0. -1.
        -11    1    4    4    0    0  0.11879933848E+02  0.91630772138E+01  0.16025645847E+01  0.15088506413E+02  0.51100000000E-03 0.  1.
         12    1    4    4    0    0 -0.43075580601E+01 -0.12883868199E+01  0.26828134673E+02  0.27202275770E+02  0.00000000000E+00 0. -1.
</event>
<event>
 8    1  0.1248739E-006  0.9118800E+02  0.7816164E-02  0.1184000E+00
        -11   -1    0    0    0    0  0.00000000000E+00  0.00000000000E+00  0.45593999997E+02  0.45594000000E+02  0.51100000000E-03 0. -1.
         11   -1    0    0    0    0 -0.00000000000E+00 -0.00000000000E+00 -0.45593999997E+02  0.45594000000E+02  0.51100000000E-03 0.  1.
         23    2    1    2    0    0  0.55511151231E-15  0.35527136788E-14  0.00000000000E+00  0.91188000000E+02  0.91188000000E+02 0.  0.
    9900012    2    3    3    0    0  0.30114582899E+00 -0.29997672573E+02 -0.21350116990E+02  0.54367101803E+02  0.40000040180E+02 0.  0.
         12    1    3    3    0    0 -0.30114582899E+00  0.29997672573E+02  0.21350116990E+02  0.36820898197E+02  0.00000000000E+00 0. -1.
         11    1    4    4    0    0 -0.47243763049E+01 -0.15018118039E+02  0.39674885740E+01  0.16235903632E+02  0.51100000000E-03 0. -1.
        -11    1    4    4    0    0  0.97588182196E+01 -0.65533355872E+01 -0.80549440127E+00  0.11782595718E+02  0.51100000000E-03 0.  1.
         12    1    4    4    0    0 -0.47332960857E+01 -0.84262189462E+01 -0.24512111162E+02  0.26348602453E+02  0.00000000000E+00 0. -1.
</event>
<event>
 8    1  0.1248739E-006  0.9118800E+02  0.7816164E-02  0.1184000E+00
        -11   -1    0    0    0    0  0.00000000000E+00  0.00000000000E+00  0.45593999997E+02  0.45594000000E+02  0.51100000000E-03 0.  1.
         11   -1    0    0    0    0 -0.00000000000E+00 -0.00000000000E+00 -0.45593999997E+02  0.45594000000E+02  0.51100000000E-03 0. -1.
         23    2    1    2    0    0  0.00000000000E+00  0.00000000000E+00 -0.17763568394E-14  0.91188000000E+02  0.91188000000E+02 0.  0.
    9900012    2    3    3    0    0 -0.33039334684E+02 -0.30646365279E+01 -0.15962195465E+02  0.54367064142E+02  0.39999954325E+02 0.  0.
        -12    1    3    3    0    0  0.33039334684E+02  0.30646365279E+01  0.15962195465E+02  0.36820935858E+02  0.00000000000E+00 0.  1.
         11    1    4    4    0    0 -0.20956843528E+02  0.38449868303E+00 -0.19190172504E+02  0.28418301337E+02  0.51100000000E-03 0. -1.
        -11    1    4    4    0    0 -0.15321175021E+02 -0.47084372762E+01  0.96053693876E+01  0.18686115352E+02  0.51100000000E-03 0.  1.
        -12    1    4    4    0    0  0.32386838649E+01  0.12593020654E+01 -0.63773923481E+01  0.72626474532E+01  0.00000000000E+00 0.  1.
</event>
<event>
 8    1  0.1248739E-006  0.9118800E+02  0.7816164E-02  0.1184000E+00
        -11   -1    0    0    0    0  0.00000000000E+00  0.00000000000E+00  0.45593999997E+02  0.45594000000E+02  0.51100000000E-03 0.  1.
         11   -1    0    0    0    0 -0.00000000000E+00 -0.00000000000E+00 -0.45593999997E+02  0.45594000000E+02  0.51100000000E-03 0. -1.
         23    2    1    2    0    0  0.00000000000E+00  0.35527136788E-14  0.00000000000E+00  0.91188000000E+02  0.91188000000E+02 0.  0.
    9900012    2    3    3    0    0  0.16897534418E+02 -0.30585401148E+02 -0.11609736101E+02  0.54367090110E+02  0.40000013524E+02 0.  0.
        -12    1    3    3    0    0 -0.16897534418E+02  0.30585401148E+02  0.11609736101E+02  0.36820909890E+02  0.00000000000E+00 0.  1.
         11    1    4    4    0    0  0.14889796969E+02 -0.50127577490E+01 -0.61158153189E+00  0.15722844089E+02  0.51100000000E-03 0. -1.
        -11    1    4    4    0    0  0.84432730788E+01 -0.26106472340E+02 -0.19218329740E+01  0.27505094083E+02  0.51100000000E-03 0.  1.
        -12    1    4    4    0    0 -0.64355356294E+01  0.53382894080E+00 -0.90763215953E+01  0.11139151937E+02  0.00000000000E+00 0.  1.
</event>
<event>
 8    1  0.1248739E-006  0.9118800E+02  0.7816164E-02  0.1184000E+00
        -11   -1    0    0    0    0  0.00000000000E+00  0.00000000000E+00  0.45593999997E+02  0.45594000000E+02  0.51100000000E-03 0. -1.
         11   -1    0    0    0    0 -0.00000000000E+00 -0.00000000000E+00 -0.45593999997E+02  0.45594000000E+02  0.51100000000E-03 0.  1.
         23    2    1    2    0    0  0.00000000000E+00 -0.17763568394E-14  0.00000000000E+00  0.91188000000E+02  0.91188000000E+02 0.  0.
    9900012    2    3    3    0    0  0.39259934025E+01 -0.96905404838E+01  0.35305259883E+02  0.54367063368E+02  0.39999952560E+02 0.  0.
        -12    1    3    3    0    0 -0.39259934025E+01  0.96905404838E+01 -0.35305259883E+02  0.36820936632E+02  0.00000000000E+00 0.  1.
         11    1    4    4    0    0 -0.71043964813E+01  0.73197955525E+01  0.23762160289E+02  0.25859081928E+02  0.51100000000E-03 0. -1.
        -11    1    4    4    0    0  0.31402693656E+01 -0.76926276566E+01  0.13783862758E+02  0.16094492373E+02  0.51100000000E-03 0.  1.
        -12    1    4    4    0    0  0.78901205181E+01 -0.93177083797E+01 -0.22407631646E+01  0.12413489066E+02  0.00000000000E+00 0.  1.
</event>
<event>
 8    1  0.1248739E-006  0.9118800E+02  0.7816164E-02  0.1184000E+00
        -11   -1    0    0    0    0  0.00000000000E+00  0.00000000000E+00  0.45593999997E+02  0.45594000000E+02  0.51100000000E-03 0.  1.
         11   -1    0    0    0    0 -0.00000000000E+00 -0.00000000000E+00 -0.45593999997E+02  0.45594000000E+02  0.51100000000E-03 0. -1.
         23    2    1    2    0    0  0.00000000000E+00  0.00000000000E+00  0.00000000000E+00  0.91188000000E+02  0.91188000000E+02 0.  0.
    9900012    2    3    3    0    0 -0.13718116585E+02 -0.22475146993E+02  0.25738392085E+02  0.54367030674E+02  0.39999878027E+02 0.  0.
         12    1    3    3    0    0  0.13718116585E+02  0.22475146993E+02 -0.25738392085E+02  0.36820969326E+02  0.00000000000E+00 0. -1.
         11    1    4    4    0    0  0.88304543495E+01 -0.18756969490E+02  0.14824448024E+02  0.25486566813E+02  0.51100000000E-03 0. -1.
        -11    1    4    4    0    0 -0.11723508841E+02 -0.88962697685E+01  0.65974488076E+01  0.16127944890E+02  0.51100000000E-03 0.  1.
        -12    1    4    4    0    0 -0.10825062093E+02  0.51780922653E+01  0.43164952531E+01  0.12752518971E+02  0.00000000000E+00 0.  1.
</event>
<event>
 8    1  0.1248739E-006  0.9118800E+02  0.7816164E-02  0.1184000E+00
        -11   -1    0    0    0    0  0.00000000000E+00  0.00000000000E+00  0.45593999997E+02  0.45594000000E+02  0.51100000000E-03 0.  1.
         11   -1    0    0    0    0 -0.00000000000E+00 -0.00000000000E+00 -0.45593999997E+02  0.45594000000E+02  0.51100000000E-03 0. -1.
         23    2    1    2    0    0  0.00000000000E+00  0.35527136788E-14  0.33306690739E-15  0.91188000000E+02  0.91188000000E+02 0.  0.
    9900012    2    3    3    0    0 -0.27245127761E+02 -0.24764965098E+02 -0.42217771777E+00  0.54367099454E+02  0.40000034825E+02 0.  0.
         12    1    3    3    0    0  0.27245127761E+02  0.24764965098E+02  0.42217771777E+00  0.36820900546E+02  0.00000000000E+00 0. -1.
         11    1    4    4    0    0 -0.14741303388E+02 -0.45641172346E+01  0.14674714507E+02  0.21295174050E+02  0.51100000000E-03 0.  1.
        -11    1    4    4    0    0 -0.44524460769E+00  0.30365964095E+01 -0.27734204265E+01  0.41365470671E+01  0.51100000000E-03 0. -1.
        -12    1    4    4    0    0 -0.12058579765E+02 -0.23237444273E+02 -0.12323471799E+02  0.28935378336E+02  0.00000000000E+00 0.  1.
</event>
<event>
 8    1  0.1248739E-006  0.9118800E+02  0.7816164E-02  0.1184000E+00
        -11   -1    0    0    0    0  0.00000000000E+00  0.00000000000E+00  0.45593999997E+02  0.45594000000E+02  0.51100000000E-03 0. -1.
         11   -1    0    0    0    0 -0.00000000000E+00 -0.00000000000E+00 -0.45593999997E+02  0.45594000000E+02  0.51100000000E-03 0.  1.
         23    2    1    2    0    0 -0.88817841970E-15  0.00000000000E+00  0.00000000000E+00  0.91188000000E+02  0.91188000000E+02 0.  0.
    9900012    2    3    3    0    0  0.63413786138E+01 -0.12410187897E+02  0.34081612021E+02  0.54367053186E+02  0.39999929348E+02 0.  0.
        -12    1    3    3    0    0 -0.63413786138E+01  0.12410187897E+02 -0.34081612021E+02  0.36820946814E+02  0.00000000000E+00 0.  1.
         11    1    4    4    0    0  0.73179910938E+01 -0.78220414962E+01  0.28259248241E+02  0.30221224962E+02  0.51100000000E-03 0. -1.
        -11    1    4    4    0    0 -0.98686501230E+01 -0.24571088154E+00 -0.35749097821E+01  0.10499076593E+02  0.51100000000E-03 0.  1.
        -12    1    4    4    0    0  0.88920376430E+01 -0.43424355195E+01  0.93972735620E+01  0.13646751631E+02  0.00000000000E+00 0.  1.
</event>
<event>
 8    1  0.1248739E-006  0.9118800E+02  0.7816164E-02  0.1184000E+00
        -11   -1    0    0    0    0  0.00000000000E+00  0.00000000000E+00  0.45593999997E+02  0.45594000000E+02  0.51100000000E-03 0.  1.
         11   -1    0    0    0    0 -0.00000000000E+00 -0.00000000000E+00 -0.45593999997E+02  0.45594000000E+02  0.51100000000E-03 0. -1.
         23    2    1    2    0    0  0.35527136788E-14  0.00000000000E+00  0.71054273576E-14  0.91188000000E+02  0.91188000000E+02 0.  0.
    9900012    2    3    3    0    0 -0.16377445200E+02  0.90257214898E+01 -0.31718934346E+02  0.54367147814E+02  0.40000145071E+02 0.  0.
        -12    1    3    3    0    0  0.16377445200E+02 -0.90257214898E+01  0.31718934346E+02  0.36820852186E+02  0.00000000000E+00 0.  1.
         11    1    4    4    0    0 -0.16604255016E+02  0.29980852161E+01 -0.12914807195E+02  0.21248106850E+02  0.51100000000E-03 0. -1.
        -11    1    4    4    0    0 -0.11268749682E+02  0.86710117776E+01 -0.52645934134E+01  0.15162028516E+02  0.51100000000E-03 0.  1.
        -12    1    4    4    0    0  0.11495559497E+02 -0.26433755039E+01 -0.13539533738E+02  0.17957012448E+02  0.00000000000E+00 0.  1.
</event>
<event>
 8    1  0.1248739E-006  0.9118800E+02  0.7816164E-02  0.1184000E+00
        -11   -1    0    0    0    0  0.00000000000E+00  0.00000000000E+00  0.45593999997E+02  0.45594000000E+02  0.51100000000E-03 0.  1.
         11   -1    0    0    0    0 -0.00000000000E+00 -0.00000000000E+00 -0.45593999997E+02  0.45594000000E+02  0.51100000000E-03 0. -1.
         23    2    1    2    0    0  0.14210854715E-13 -0.88817841970E-15 -0.17763568394E-14  0.91188000000E+02  0.91188000000E+02 0.  0.
    9900012    2    3    3    0    0  0.34656814851E+02  0.52891282273E+01 -0.11256497745E+02  0.54367103290E+02  0.40000043570E+02 0.  0.
         12    1    3    3    0    0 -0.34656814851E+02 -0.52891282273E+01  0.11256497745E+02  0.36820896710E+02  0.00000000000E+00 0. -1.
         11    1    4    4    0    0 -0.34446892982E+01  0.31517909771E+01  0.73139145587E+01  0.86771548999E+01  0.51100000000E-03 0. -1.
        -11    1    4    4    0    0  0.17123701975E+02  0.63313768752E+01 -0.15750513152E+02  0.24111950714E+02  0.51100000000E-03 0.  1.
        -12    1    4    4    0    0  0.20977802175E+02 -0.41940396250E+01 -0.28198991523E+01  0.21577997676E+02  0.00000000000E+00 0.  1.
</event>
<event>
 8    1  0.1248739E-006  0.9118800E+02  0.7816164E-02  0.1184000E+00
        -11   -1    0    0    0    0  0.00000000000E+00  0.00000000000E+00  0.45593999997E+02  0.45594000000E+02  0.51100000000E-03 0. -1.
         11   -1    0    0    0    0 -0.00000000000E+00 -0.00000000000E+00 -0.45593999997E+02  0.45594000000E+02  0.51100000000E-03 0.  1.
         23    2    1    2    0    0  0.00000000000E+00 -0.35527136788E-14  0.44408920985E-15  0.91188000000E+02  0.91188000000E+02 0.  0.
    9900012    2    3    3    0    0  0.36070941333E+02  0.73836233087E+01  0.38634499336E+00  0.54367082518E+02  0.39999996216E+02 0.  0.
        -12    1    3    3    0    0 -0.36070941333E+02 -0.73836233087E+01 -0.38634499336E+00  0.36820917482E+02  0.00000000000E+00 0.  1.
         11    1    4    4    0    0  0.12339900991E+02 -0.98992268554E+01 -0.12919350347E+01  0.15872521702E+02  0.51100000000E-03 0. -1.
        -11    1    4    4    0    0  0.43611548870E+01  0.90653544369E+01 -0.10205086017E+02  0.14329832654E+02  0.51100000000E-03 0.  1.
         12    1    4    4    0    0  0.19369885455E+02  0.82174957273E+01  0.11883366045E+02  0.24164728162E+02  0.00000000000E+00 0. -1.
</event>
<event>
 8    1  0.1248739E-006  0.9118800E+02  0.7816164E-02  0.1184000E+00
        -11   -1    0    0    0    0  0.00000000000E+00  0.00000000000E+00  0.45593999997E+02  0.45594000000E+02  0.51100000000E-03 0.  1.
         11   -1    0    0    0    0 -0.00000000000E+00 -0.00000000000E+00 -0.45593999997E+02  0.45594000000E+02  0.51100000000E-03 0. -1.
         23    2    1    2    0    0  0.00000000000E+00 -0.17763568394E-14  0.00000000000E+00  0.91188000000E+02  0.91188000000E+02 0.  0.
    9900012    2    3    3    0    0 -0.14035871209E+02 -0.10495519990E+02 -0.32382376468E+02  0.54367083034E+02  0.39999997393E+02 0.  0.
        -12    1    3    3    0    0  0.14035871209E+02  0.10495519990E+02  0.32382376468E+02  0.36820916966E+02  0.00000000000E+00 0.  1.
         11    1    4    4    0    0 -0.19738855101E+01  0.57985899664E+01 -0.55148171606E+01  0.82421525211E+01  0.51100000000E-03 0. -1.
        -11    1    4    4    0    0 -0.11370963487E+02 -0.22717338710E+02 -0.87157770630E+01  0.26857793259E+02  0.51100000000E-03 0.  1.
        -12    1    4    4    0    0 -0.69102221184E+00  0.64232287529E+01 -0.18151782245E+02  0.19267137254E+02  0.00000000000E+00 0.  1.
</event>
<event>
 8    1  0.1248739E-006  0.9118800E+02  0.7816164E-02  0.1184000E+00
        -11   -1    0    0    0    0  0.00000000000E+00  0.00000000000E+00  0.45593999997E+02  0.45594000000E+02  0.51100000000E-03 0. -1.
         11   -1    0    0    0    0 -0.00000000000E+00 -0.00000000000E+00 -0.45593999997E+02  0.45594000000E+02  0.51100000000E-03 0.  1.
         23    2    1    2    0    0 -0.17763568394E-14  0.00000000000E+00 -0.88817841970E-15  0.91188000000E+02  0.91188000000E+02 0.  0.
    9900012    2    3    3    0    0 -0.14675356183E+02  0.33429515701E+02 -0.47835191002E+01  0.54367073151E+02  0.39999974861E+02 0.  0.
        -12    1    3    3    0    0  0.14675356183E+02 -0.33429515701E+02  0.47835191002E+01  0.36820926849E+02  0.00000000000E+00 0.  1.
         11    1    4    4    0    0 -0.16194436856E+02 -0.17694536386E+01  0.17451625022E+00  0.16291752743E+02  0.51100000000E-03 0. -1.
        -11    1    4    4    0    0  0.73212222726E+00 -0.87555735026E+00  0.98312931945E+00  0.15063688622E+01  0.51100000000E-03 0.  1.
         12    1    4    4    0    0  0.78695844592E+00  0.36074526689E+02 -0.59411646698E+01  0.36568951545E+02  0.00000000000E+00 0. -1.
</event>
<event>
 8    1  0.1248739E-006  0.9118800E+02  0.7816164E-02  0.1184000E+00
        -11   -1    0    0    0    0  0.00000000000E+00  0.00000000000E+00  0.45593999997E+02  0.45594000000E+02  0.51100000000E-03 0.  1.
         11   -1    0    0    0    0 -0.00000000000E+00 -0.00000000000E+00 -0.45593999997E+02  0.45594000000E+02  0.51100000000E-03 0. -1.
         23    2    1    2    0    0 -0.13322676296E-14 -0.11102230246E-14  0.00000000000E+00  0.91188000000E+02  0.91188000000E+02 0.  0.
    9900012    2    3    3    0    0 -0.36228358066E+01 -0.15091195508E+01  0.36611151921E+02  0.54367097973E+02  0.40000031449E+02 0.  0.
         12    1    3    3    0    0  0.36228358066E+01  0.15091195508E+01 -0.36611151921E+02  0.36820902027E+02  0.00000000000E+00 0. -1.
         11    1    4    4    0    0  0.10105801006E+01  0.33261549106E+01 -0.39593498012E+01  0.52688736689E+01  0.51100000000E-03 0. -1.
        -11    1    4    4    0    0 -0.61494333015E+01 -0.14992713979E+02  0.31376836145E+02  0.35314343390E+02  0.51100000000E-03 0.  1.
         12    1    4    4    0    0  0.15160173943E+01  0.10157439517E+02  0.91936655777E+01  0.13783880914E+02  0.00000000000E+00 0. -1.
</event>
<event>
 8    1  0.1248739E-006  0.9118800E+02  0.7816164E-02  0.1184000E+00
        -11   -1    0    0    0    0  0.00000000000E+00  0.00000000000E+00  0.45593999997E+02  0.45594000000E+02  0.51100000000E-03 0. -1.
         11   -1    0    0    0    0 -0.00000000000E+00 -0.00000000000E+00 -0.45593999997E+02  0.45594000000E+02  0.51100000000E-03 0.  1.
         23    2    1    2    0    0 -0.17763568394E-14  0.00000000000E+00  0.00000000000E+00  0.91188000000E+02  0.91188000000E+02 0.  0.
    9900012    2    3    3    0    0  0.13385632283E+02  0.14034638328E+02 -0.31299102450E+02  0.54367081505E+02  0.39999993907E+02 0.  0.
         12    1    3    3    0    0 -0.13385632283E+02 -0.14034638328E+02  0.31299102450E+02  0.36820918495E+02  0.00000000000E+00 0. -1.
         11    1    4    4    0    0  0.86344190914E+01  0.10294592112E+02 -0.19931626913E+02  0.24037503437E+02  0.51100000000E-03 0.  1.
        -11    1    4    4    0    0  0.20228274121E+00  0.15314563816E+02 -0.38305256007E+01  0.15787644214E+02  0.51100000000E-03 0. -1.
         12    1    4    4    0    0  0.45489304503E+01 -0.11574517599E+02 -0.75369499363E+01  0.14541933855E+02  0.00000000000E+00 0. -1.
</event>
<event>
 8    1  0.1248739E-006  0.9118800E+02  0.7816164E-02  0.1184000E+00
        -11   -1    0    0    0    0  0.00000000000E+00  0.00000000000E+00  0.45593999997E+02  0.45594000000E+02  0.51100000000E-03 0.  1.
         11   -1    0    0    0    0 -0.00000000000E+00 -0.00000000000E+00 -0.45593999997E+02  0.45594000000E+02  0.51100000000E-03 0. -1.
         23    2    1    2    0    0  0.35527136788E-14  0.17763568394E-14 -0.35527136788E-14  0.91188000000E+02  0.91188000000E+02 0.  0.
    9900012    2    3    3    0    0  0.21574751550E+02 -0.14425733676E+02 -0.26119228287E+02  0.54367003506E+02  0.39999816092E+02 0.  0.
        -12    1    3    3    0    0 -0.21574751550E+02  0.14425733676E+02  0.26119228287E+02  0.36820996494E+02  0.00000000000E+00 0.  1.
         11    1    4    4    0    0  0.18210035617E+02 -0.10799565852E+02 -0.18307399215E+02  0.27989228036E+02  0.51100000000E-03 0. -1.
        -11    1    4    4    0    0 -0.18593498013E+01  0.62856979819E+01 -0.12592331540E+02  0.14196266927E+02  0.51100000000E-03 0.  1.
        -12    1    4    4    0    0  0.52240657340E+01 -0.99118658054E+01  0.47805024672E+01  0.12181508543E+02  0.00000000000E+00 0.  1.
</event>
<event>
 8    1  0.1248739E-006  0.9118800E+02  0.7816164E-02  0.1184000E+00
        -11   -1    0    0    0    0  0.00000000000E+00  0.00000000000E+00  0.45593999997E+02  0.45594000000E+02  0.51100000000E-03 0. -1.
         11   -1    0    0    0    0 -0.00000000000E+00 -0.00000000000E+00 -0.45593999997E+02  0.45594000000E+02  0.51100000000E-03 0.  1.
         23    2    1    2    0    0  0.00000000000E+00 -0.17763568394E-14  0.00000000000E+00  0.91188000000E+02  0.91188000000E+02 0.  0.
    9900012    2    3    3    0    0 -0.28262955122E+02  0.10346155566E+02 -0.21211842253E+02  0.54367084490E+02  0.40000000712E+02 0.  0.
        -12    1    3    3    0    0  0.28262955122E+02 -0.10346155566E+02  0.21211842253E+02  0.36820915510E+02  0.00000000000E+00 0.  1.
         11    1    4    4    0    0 -0.23699861973E+02  0.19709438358E+01  0.28815282534E+01  0.23955610668E+02  0.51100000000E-03 0. -1.
        -11    1    4    4    0    0 -0.41295430038E+01 -0.24073921211E+01 -0.94672195982E+00  0.48728785102E+01  0.51100000000E-03 0.  1.
         12    1    4    4    0    0 -0.43355014481E+00  0.10782603852E+02 -0.23146648546E+02  0.25538595311E+02  0.00000000000E+00 0. -1.
</event>
<event>
 8    1  0.1248739E-006  0.9118800E+02  0.7816164E-02  0.1184000E+00
        -11   -1    0    0    0    0  0.00000000000E+00  0.00000000000E+00  0.45593999997E+02  0.45594000000E+02  0.51100000000E-03 0.  1.
         11   -1    0    0    0    0 -0.00000000000E+00 -0.00000000000E+00 -0.45593999997E+02  0.45594000000E+02  0.51100000000E-03 0. -1.
         23    2    1    2    0    0 -0.88817841970E-15  0.00000000000E+00  0.00000000000E+00  0.91188000000E+02  0.91188000000E+02 0.  0.
    9900012    2    3    3    0    0  0.33375788214E+01 -0.13667556440E+02  0.34027023108E+02  0.54367084299E+02  0.40000000277E+02 0.  0.
         12    1    3    3    0    0 -0.33375788214E+01  0.13667556440E+02 -0.34027023108E+02  0.36820915701E+02  0.00000000000E+00 0. -1.
         11    1    4    4    0    0 -0.10393363432E+02  0.75462272784E+01  0.16863841793E+02  0.21198035518E+02  0.51100000000E-03 0. -1.
        -11    1    4    4    0    0  0.43316480063E+01  0.31885001868E+00  0.52900954720E+01  0.68447023419E+01  0.51100000000E-03 0.  1.
        -12    1    4    4    0    0  0.93992942467E+01 -0.21532633737E+02  0.11873085844E+02  0.26324346439E+02  0.00000000000E+00 0.  1.
</event>
<event>
 8    1  0.1248739E-006  0.9118800E+02  0.7816164E-02  0.1184000E+00
        -11   -1    0    0    0    0  0.00000000000E+00  0.00000000000E+00  0.45593999997E+02  0.45594000000E+02  0.51100000000E-03 0. -1.
         11   -1    0    0    0    0 -0.00000000000E+00 -0.00000000000E+00 -0.45593999997E+02  0.45594000000E+02  0.51100000000E-03 0.  1.
         23    2    1    2    0    0  0.00000000000E+00  0.88817841970E-15  0.00000000000E+00  0.91188000000E+02  0.91188000000E+02 0.  0.
    9900012    2    3    3    0    0 -0.26741438380E+02 -0.58793283425E+01 -0.24619274385E+02  0.54367086111E+02  0.40000004407E+02 0.  0.
         12    1    3    3    0    0  0.26741438380E+02  0.58793283425E+01  0.24619274385E+02  0.36820913889E+02  0.00000000000E+00 0. -1.
         11    1    4    4    0    0 -0.16591823432E+02  0.11288033238E+02 -0.41911857836E+01  0.20500593594E+02  0.51100000000E-03 0. -1.
        -11    1    4    4    0    0 -0.13661663066E+02 -0.13823784762E+02 -0.21413308770E+02  0.28918296208E+02  0.51100000000E-03 0.  1.
        -12    1    4    4    0    0  0.35120481181E+01 -0.33435768187E+01  0.98522016760E+00  0.49481963083E+01  0.00000000000E+00 0.  1.
</event>
<event>
 8    1  0.1248739E-006  0.9118800E+02  0.7816164E-02  0.1184000E+00
        -11   -1    0    0    0    0  0.00000000000E+00  0.00000000000E+00  0.45593999997E+02  0.45594000000E+02  0.51100000000E-03 0. -1.
         11   -1    0    0    0    0 -0.00000000000E+00 -0.00000000000E+00 -0.45593999997E+02  0.45594000000E+02  0.51100000000E-03 0.  1.
         23    2    1    2    0    0  0.00000000000E+00 -0.17763568394E-14  0.00000000000E+00  0.91188000000E+02  0.91188000000E+02 0.  0.
    9900012    2    3    3    0    0  0.24295716529E+02 -0.11685206284E+02  0.25079019722E+02  0.54367039695E+02  0.39999898594E+02 0.  0.
        -12    1    3    3    0    0 -0.24295716529E+02  0.11685206284E+02 -0.25079019722E+02  0.36820960305E+02  0.00000000000E+00 0.  1.
         11    1    4    4    0    0  0.13508029777E+02 -0.13045342984E+02  0.15269736481E+02  0.24203567805E+02  0.51100000000E-03 0. -1.
        -11    1    4    4    0    0  0.93246138025E+01 -0.20299814695E+01 -0.77043544229E+01  0.12264840996E+02  0.51100000000E-03 0.  1.
         12    1    4    4    0    0  0.14630729495E+01  0.33901181701E+01  0.17513637664E+02  0.17898630894E+02  0.00000000000E+00 0. -1.
</event>
<event>
 8    1  0.1248739E-006  0.9118800E+02  0.7816164E-02  0.1184000E+00
        -11   -1    0    0    0    0  0.00000000000E+00  0.00000000000E+00  0.45593999997E+02  0.45594000000E+02  0.51100000000E-03 0. -1.
         11   -1    0    0    0    0 -0.00000000000E+00 -0.00000000000E+00 -0.45593999997E+02  0.45594000000E+02  0.51100000000E-03 0.  1.
         23    2    1    2    0    0 -0.17763568394E-14 -0.35527136788E-14  0.35527136788E-14  0.91188000000E+02  0.91188000000E+02 0.  0.
    9900012    2    3    3    0    0 -0.13759505461E+02 -0.23748443212E+02 -0.24545205044E+02  0.54367086973E+02  0.40000006371E+02 0.  0.
         12    1    3    3    0    0  0.13759505461E+02  0.23748443212E+02  0.24545205044E+02  0.36820913027E+02  0.00000000000E+00 0. -1.
         11    1    4    4    0    0  0.60891610319E+01 -0.19940123674E+01 -0.77833112472E+01  0.10081364076E+02  0.51100000000E-03 0. -1.
        -11    1    4    4    0    0  0.26711744423E+01 -0.19431623779E+01 -0.13749831339E+02  0.14141036561E+02  0.51100000000E-03 0.  1.
         12    1    4    4    0    0 -0.22519840935E+02 -0.19811268467E+02 -0.30120624579E+01  0.30144686335E+02  0.00000000000E+00 0. -1.
</event>
<event>
 8    1  0.1248739E-006  0.9118800E+02  0.7816164E-02  0.1184000E+00
        -11   -1    0    0    0    0  0.00000000000E+00  0.00000000000E+00  0.45593999997E+02  0.45594000000E+02  0.51100000000E-03 0.  1.
         11   -1    0    0    0    0 -0.00000000000E+00 -0.00000000000E+00 -0.45593999997E+02  0.45594000000E+02  0.51100000000E-03 0. -1.
         23    2    1    2    0    0  0.00000000000E+00  0.00000000000E+00 -0.71054273576E-14  0.91188000000E+02  0.91188000000E+02 0.  0.
    9900012    2    3    3    0    0 -0.21364873917E+02  0.30233918519E+01 -0.29835908666E+02  0.54367079564E+02  0.39999989483E+02 0.  0.
         12    1    3    3    0    0  0.21364873917E+02 -0.30233918519E+01  0.29835908666E+02  0.36820920436E+02  0.00000000000E+00 0. -1.
         11    1    4    4    0    0 -0.90834530357E+01 -0.12096092315E+01  0.14397480741E+01  0.92760524105E+01  0.51100000000E-03 0. -1.
        -11    1    4    4    0    0 -0.12724768809E+02 -0.50751569334E+01 -0.13708514871E+01  0.13767940776E+02  0.51100000000E-03 0.  1.
         12    1    4    4    0    0  0.44334792719E+00  0.93081580169E+01 -0.29904805253E+02  0.31323086378E+02  0.00000000000E+00 0. -1.
</event>
<event>
 8    1  0.1248739E-006  0.9118800E+02  0.7816164E-02  0.1184000E+00
        -11   -1    0    0    0    0  0.00000000000E+00  0.00000000000E+00  0.45593999997E+02  0.45594000000E+02  0.51100000000E-03 0. -1.
         11   -1    0    0    0    0 -0.00000000000E+00 -0.00000000000E+00 -0.45593999997E+02  0.45594000000E+02  0.51100000000E-03 0.  1.
         23    2    1    2    0    0  0.00000000000E+00  0.00000000000E+00  0.00000000000E+00  0.91188000000E+02  0.91188000000E+02 0.  0.
    9900012    2    3    3    0    0 -0.10705969651E+02  0.33416143927E+02 -0.11158970420E+02  0.54367094498E+02  0.40000023528E+02 0.  0.
         12    1    3    3    0    0  0.10705969651E+02 -0.33416143927E+02  0.11158970420E+02  0.36820905502E+02  0.00000000000E+00 0. -1.
         11    1    4    4    0    0 -0.22080554662E+01  0.17347771288E+02 -0.11768436657E+02  0.21078823004E+02  0.51100000000E-03 0. -1.
        -11    1    4    4    0    0 -0.13243998341E+02  0.18997885063E+02 -0.66865551413E+01  0.24104629199E+02  0.51100000000E-03 0.  1.
        -12    1    4    4    0    0  0.47460841567E+01 -0.29295124237E+01  0.72960213781E+01  0.91836422956E+01  0.00000000000E+00 0.  1.
</event>
<event>
 8    1  0.1248739E-006  0.9118800E+02  0.7816164E-02  0.1184000E+00
        -11   -1    0    0    0    0  0.00000000000E+00  0.00000000000E+00  0.45593999997E+02  0.45594000000E+02  0.51100000000E-03 0. -1.
         11   -1    0    0    0    0 -0.00000000000E+00 -0.00000000000E+00 -0.45593999997E+02  0.45594000000E+02  0.51100000000E-03 0.  1.
         23    2    1    2    0    0  0.00000000000E+00 -0.88817841970E-15  0.26645352591E-14  0.91188000000E+02  0.91188000000E+02 0.  0.
    9900012    2    3    3    0    0  0.36151396949E+02 -0.41280571855E+01  0.56404656119E+01  0.54367092763E+02  0.40000019571E+02 0.  0.
         12    1    3    3    0    0 -0.36151396949E+02  0.41280571855E+01 -0.56404656119E+01  0.36820907237E+02  0.00000000000E+00 0. -1.
         11    1    4    4    0    0  0.65966329891E+01  0.22459355304E+01  0.57247797345E+00  0.69919614195E+01  0.51100000000E-03 0. -1.
        -11    1    4    4    0    0  0.19585947405E+02 -0.40875484863E+01 -0.14895777605E+02  0.24943968792E+02  0.51100000000E-03 0.  1.
         12    1    4    4    0    0  0.99688165546E+01 -0.22864442297E+01  0.19963765243E+02  0.22431162551E+02  0.00000000000E+00 0. -1.
</event>
<event>
 8    1  0.1248739E-006  0.9118800E+02  0.7816164E-02  0.1184000E+00
        -11   -1    0    0    0    0  0.00000000000E+00  0.00000000000E+00  0.45593999997E+02  0.45594000000E+02  0.51100000000E-03 0.  1.
         11   -1    0    0    0    0 -0.00000000000E+00 -0.00000000000E+00 -0.45593999997E+02  0.45594000000E+02  0.51100000000E-03 0. -1.
         23    2    1    2    0    0  0.00000000000E+00  0.00000000000E+00  0.00000000000E+00  0.91188000000E+02  0.91188000000E+02 0.  0.
    9900012    2    3    3    0    0  0.24527882733E+02 -0.10653853674E+02  0.25311231256E+02  0.54367081256E+02  0.39999993338E+02 0.  0.
         12    1    3    3    0    0 -0.24527882733E+02  0.10653853674E+02 -0.25311231256E+02  0.36820918744E+02  0.00000000000E+00 0. -1.
         11    1    4    4    0    0 -0.17897033093E+01  0.52221937763E+01  0.16332777629E+02  0.17240474794E+02  0.51100000000E-03 0. -1.
        -11    1    4    4    0    0  0.56555288923E+01 -0.14141048382E+02  0.27478908349E+01  0.15475954274E+02  0.51100000000E-03 0.  1.
        -12    1    4    4    0    0  0.20662057150E+02 -0.17349990685E+01  0.62305627922E+01  0.21650652188E+02  0.00000000000E+00 0.  1.
</event>
<event>
 8    1  0.1248739E-006  0.9118800E+02  0.7816164E-02  0.1184000E+00
        -11   -1    0    0    0    0  0.00000000000E+00  0.00000000000E+00  0.45593999997E+02  0.45594000000E+02  0.51100000000E-03 0. -1.
         11   -1    0    0    0    0 -0.00000000000E+00 -0.00000000000E+00 -0.45593999997E+02  0.45594000000E+02  0.51100000000E-03 0.  1.
         23    2    1    2    0    0  0.00000000000E+00  0.00000000000E+00  0.00000000000E+00  0.91188000000E+02  0.91188000000E+02 0.  0.
    9900012    2    3    3    0    0 -0.24475873705E+02 -0.23865392718E+02 -0.13680463827E+02  0.54367075870E+02  0.39999981061E+02 0.  0.
         12    1    3    3    0    0  0.24475873705E+02  0.23865392718E+02  0.13680463827E+02  0.36820924130E+02  0.00000000000E+00 0. -1.
         11    1    4    4    0    0  0.65775007170E+01 -0.50923365720E+00  0.19229241093E+01  0.68717153602E+01  0.51100000000E-03 0. -1.
        -11    1    4    4    0    0 -0.21707048295E+02 -0.10419273777E+02 -0.19595072789E+02  0.31043905836E+02  0.51100000000E-03 0.  1.
         12    1    4    4    0    0 -0.93463261276E+01 -0.12936885284E+02  0.39916848519E+01  0.16451454674E+02  0.00000000000E+00 0. -1.
</event>
<event>
 8    1  0.1248739E-006  0.9118800E+02  0.7816164E-02  0.1184000E+00
        -11   -1    0    0    0    0  0.00000000000E+00  0.00000000000E+00  0.45593999997E+02  0.45594000000E+02  0.51100000000E-03 0.  1.
         11   -1    0    0    0    0 -0.00000000000E+00 -0.00000000000E+00 -0.45593999997E+02  0.45594000000E+02  0.51100000000E-03 0. -1.
         23    2    1    2    0    0 -0.44408920985E-15  0.00000000000E+00 -0.88817841970E-15  0.91188000000E+02  0.91188000000E+02 0.  0.
    9900012    2    3    3    0    0 -0.10426146797E+01  0.36456135484E+02  0.50638562861E+01  0.54367088818E+02  0.40000010579E+02 0.  0.
        -12    1    3    3    0    0  0.10426146797E+01 -0.36456135484E+02 -0.50638562861E+01  0.36820911182E+02  0.00000000000E+00 0.  1.
         11    1    4    4    0    0 -0.49270508258E+01  0.14342169711E+02 -0.64748935242E+01  0.16489327101E+02  0.51100000000E-03 0. -1.
        -11    1    4    4    0    0 -0.54819808455E+01  0.42939349589E+01 -0.74542273183E+01  0.10200759609E+02  0.51100000000E-03 0.  1.
        -12    1    4    4    0    0  0.93664169916E+01  0.17820030814E+02  0.18992977129E+02  0.27677002108E+02  0.00000000000E+00 0.  1.
</event>
<event>
 8    1  0.1248739E-006  0.9118800E+02  0.7816164E-02  0.1184000E+00
        -11   -1    0    0    0    0  0.00000000000E+00  0.00000000000E+00  0.45593999997E+02  0.45594000000E+02  0.51100000000E-03 0.  1.
         11   -1    0    0    0    0 -0.00000000000E+00 -0.00000000000E+00 -0.45593999997E+02  0.45594000000E+02  0.51100000000E-03 0. -1.
         23    2    1    2    0    0  0.00000000000E+00  0.00000000000E+00 -0.88817841970E-15  0.91188000000E+02  0.91188000000E+02 0.  0.
    9900012    2    3    3    0    0 -0.28242154385E+02 -0.22927750434E+02 -0.56989536145E+01  0.54367094300E+02  0.40000023076E+02 0.  0.
         12    1    3    3    0    0  0.28242154385E+02  0.22927750434E+02  0.56989536145E+01  0.36820905700E+02  0.00000000000E+00 0. -1.
         11    1    4    4    0    0 -0.25079068969E+02 -0.23905623975E+02  0.24028939847E+00  0.34648178844E+02  0.51100000000E-03 0. -1.
        -11    1    4    4    0    0  0.24090230239E+01  0.38884406145E+01  0.52016256191E+01  0.69267793154E+01  0.51100000000E-03 0.  1.
         12    1    4    4    0    0 -0.55721084397E+01 -0.29105670737E+01 -0.11140868632E+02  0.12792136140E+02  0.00000000000E+00 0. -1.
</event>
<event>
 8    1  0.1248739E-006  0.9118800E+02  0.7816164E-02  0.1184000E+00
        -11   -1    0    0    0    0  0.00000000000E+00  0.00000000000E+00  0.45593999997E+02  0.45594000000E+02  0.51100000000E-03 0.  1.
         11   -1    0    0    0    0 -0.00000000000E+00 -0.00000000000E+00 -0.45593999997E+02  0.45594000000E+02  0.51100000000E-03 0. -1.
         23    2    1    2    0    0  0.17763568394E-14  0.00000000000E+00  0.00000000000E+00  0.91188000000E+02  0.91188000000E+02 0.  0.
    9900012    2    3    3    0    0 -0.80834836202E+01  0.33177540566E+02 -0.13772729437E+02  0.54367082282E+02  0.39999995678E+02 0.  0.
         12    1    3    3    0    0  0.80834836202E+01 -0.33177540566E+02  0.13772729437E+02  0.36820917718E+02  0.00000000000E+00 0. -1.
         11    1    4    4    0    0  0.14086304483E+02  0.48598321642E+01 -0.94333246562E+01  0.17636030080E+02  0.51100000000E-03 0. -1.
        -11    1    4    4    0    0 -0.64771183678E+01  0.54804502427E+01  0.89535529197E+00  0.85317090066E+01  0.51100000000E-03 0.  1.
         12    1    4    4    0    0 -0.15692669735E+02  0.22837258159E+02 -0.52347600723E+01  0.28199343196E+02  0.00000000000E+00 0. -1.
</event>
<event>
 8    1  0.1248739E-006  0.9118800E+02  0.7816164E-02  0.1184000E+00
        -11   -1    0    0    0    0  0.00000000000E+00  0.00000000000E+00  0.45593999997E+02  0.45594000000E+02  0.51100000000E-03 0.  1.
         11   -1    0    0    0    0 -0.00000000000E+00 -0.00000000000E+00 -0.45593999997E+02  0.45594000000E+02  0.51100000000E-03 0. -1.
         23    2    1    2    0    0  0.17763568394E-14  0.44408920985E-15  0.71054273576E-14  0.91188000000E+02  0.91188000000E+02 0.  0.
    9900012    2    3    3    0    0  0.11750289373E+02  0.36751373278E+01 -0.34701653058E+02  0.54367073074E+02  0.39999974687E+02 0.  0.
        -12    1    3    3    0    0 -0.11750289373E+02 -0.36751373278E+01  0.34701653058E+02  0.36820926926E+02  0.00000000000E+00 0.  1.
         11    1    4    4    0    0  0.54569689041E+01  0.17164434865E+02 -0.18853458162E+02  0.26073918363E+02  0.51100000000E-03 0. -1.
        -11    1    4    4    0    0 -0.21744974240E+01 -0.14717375636E+02 -0.97970630834E+01  0.17813254335E+02  0.51100000000E-03 0.  1.
        -12    1    4    4    0    0  0.84678178933E+01  0.12280780985E+01 -0.60511318125E+01  0.10479900377E+02  0.00000000000E+00 0.  1.
</event>
<event>
 8    1  0.1248739E-006  0.9118800E+02  0.7816164E-02  0.1184000E+00
        -11   -1    0    0    0    0  0.00000000000E+00  0.00000000000E+00  0.45593999997E+02  0.45594000000E+02  0.51100000000E-03 0. -1.
         11   -1    0    0    0    0 -0.00000000000E+00 -0.00000000000E+00 -0.45593999997E+02  0.45594000000E+02  0.51100000000E-03 0.  1.
         23    2    1    2    0    0  0.00000000000E+00  0.35527136788E-14  0.88817841970E-15  0.91188000000E+02  0.91188000000E+02 0.  0.
    9900012    2    3    3    0    0  0.19786811768E+02 -0.30675590099E+02 -0.48238761321E+01  0.54367088431E+02  0.40000009696E+02 0.  0.
         12    1    3    3    0    0 -0.19786811768E+02  0.30675590099E+02  0.48238761321E+01  0.36820911569E+02  0.00000000000E+00 0. -1.
         11    1    4    4    0    0  0.94460696623E+01 -0.94016674230E+01 -0.18612539343E+02  0.22892055466E+02  0.51100000000E-03 0. -1.
        -11    1    4    4    0    0  0.98625192566E+00  0.24767482530E+01  0.55868278219E+00  0.27238027612E+01  0.51100000000E-03 0.  1.
        -12    1    4    4    0    0  0.93544901799E+01 -0.23750670929E+02  0.13229980429E+02  0.28751230204E+02  0.00000000000E+00 0.  1.
</event>
<event>
 8    1  0.1248739E-006  0.9118800E+02  0.7816164E-02  0.1184000E+00
        -11   -1    0    0    0    0  0.00000000000E+00  0.00000000000E+00  0.45593999997E+02  0.45594000000E+02  0.51100000000E-03 0. -1.
         11   -1    0    0    0    0 -0.00000000000E+00 -0.00000000000E+00 -0.45593999997E+02  0.45594000000E+02  0.51100000000E-03 0.  1.
         23    2    1    2    0    0 -0.35527136788E-14  0.35527136788E-14  0.17763568394E-14  0.91188000000E+02  0.91188000000E+02 0.  0.
    9900012    2    3    3    0    0 -0.20483772939E+02 -0.26114750116E+02 -0.15944001386E+02  0.54367132172E+02  0.40000109412E+02 0.  0.
         12    1    3    3    0    0  0.20483772939E+02  0.26114750116E+02  0.15944001386E+02  0.36820867828E+02  0.00000000000E+00 0. -1.
         11    1    4    4    0    0  0.91599394628E+01 -0.11213763238E+02 -0.45246805175E+01  0.15169894890E+02  0.51100000000E-03 0. -1.
        -11    1    4    4    0    0 -0.11352192437E+02 -0.14127621274E+02 -0.10433946102E+01  0.18153529369E+02  0.51100000000E-03 0.  1.
         12    1    4    4    0    0 -0.18291519965E+02 -0.77336560333E+00 -0.10375926258E+02  0.21043707912E+02  0.00000000000E+00 0. -1.
</event>
<event>
 8    1  0.1248739E-006  0.9118800E+02  0.7816164E-02  0.1184000E+00
        -11   -1    0    0    0    0  0.00000000000E+00  0.00000000000E+00  0.45593999997E+02  0.45594000000E+02  0.51100000000E-03 0.  1.
         11   -1    0    0    0    0 -0.00000000000E+00 -0.00000000000E+00 -0.45593999997E+02  0.45594000000E+02  0.51100000000E-03 0. -1.
         23    2    1    2    0    0 -0.35527136788E-14 -0.35527136788E-14  0.35527136788E-14  0.91188000000E+02  0.91188000000E+02 0.  0.
    9900012    2    3    3    0    0  0.21056349562E+02  0.20265084671E+02 -0.22399517365E+02  0.54367056343E+02  0.39999936544E+02 0.  0.
        -12    1    3    3    0    0 -0.21056349562E+02 -0.20265084671E+02  0.22399517365E+02  0.36820943657E+02  0.00000000000E+00 0.  1.
         11    1    4    4    0    0  0.21211103154E+01  0.12658121990E+02 -0.24149896934E+02  0.27348577357E+02  0.51100000000E-03 0. -1.
        -11    1    4    4    0    0  0.11389551516E+02  0.79662307360E+01 -0.69136867331E+01  0.15523587870E+02  0.51100000000E-03 0.  1.
        -12    1    4    4    0    0  0.75456877311E+01 -0.35926805502E+00  0.86640663014E+01  0.11494891115E+02  0.00000000000E+00 0.  1.
</event>
<event>
 8    1  0.1248739E-006  0.9118800E+02  0.7816164E-02  0.1184000E+00
        -11   -1    0    0    0    0  0.00000000000E+00  0.00000000000E+00  0.45593999997E+02  0.45594000000E+02  0.51100000000E-03 0. -1.
         11   -1    0    0    0    0 -0.00000000000E+00 -0.00000000000E+00 -0.45593999997E+02  0.45594000000E+02  0.51100000000E-03 0.  1.
         23    2    1    2    0    0 -0.88817841970E-15 -0.35527136788E-14  0.71054273576E-14  0.91188000000E+02  0.91188000000E+02 0.  0.
    9900012    2    3    3    0    0 -0.66519142450E+01 -0.16310117477E+02  0.32334378032E+02  0.54367083418E+02  0.39999998267E+02 0.  0.
        -12    1    3    3    0    0  0.66519142450E+01  0.16310117477E+02 -0.32334378032E+02  0.36820916582E+02  0.00000000000E+00 0.  1.
         11    1    4    4    0    0 -0.50402145332E+01 -0.13978460787E+02  0.19224874426E+02  0.24298084810E+02  0.51100000000E-03 0. -1.
        -11    1    4    4    0    0  0.82087968689E+00 -0.14164800333E+02  0.10649317163E+02  0.17740444420E+02  0.51100000000E-03 0.  1.
        -12    1    4    4    0    0 -0.24325793987E+01  0.11833143643E+02  0.24601864436E+01  0.12328554187E+02  0.00000000000E+00 0.  1.
</event>
<event>
 8    1  0.1248739E-006  0.9118800E+02  0.7816164E-02  0.1184000E+00
        -11   -1    0    0    0    0  0.00000000000E+00  0.00000000000E+00  0.45593999997E+02  0.45594000000E+02  0.51100000000E-03 0.  1.
         11   -1    0    0    0    0 -0.00000000000E+00 -0.00000000000E+00 -0.45593999997E+02  0.45594000000E+02  0.51100000000E-03 0. -1.
         23    2    1    2    0    0  0.00000000000E+00  0.00000000000E+00  0.00000000000E+00  0.91188000000E+02  0.91188000000E+02 0.  0.
    9900012    2    3    3    0    0 -0.30165762354E+02 -0.18350753650E+02 -0.10443091129E+02  0.54367061253E+02  0.39999947738E+02 0.  0.
        -12    1    3    3    0    0  0.30165762354E+02  0.18350753650E+02  0.10443091129E+02  0.36820938747E+02  0.00000000000E+00 0.  1.
         11    1    4    4    0    0 -0.23422840810E+02 -0.14367747279E+02  0.99544637412E+01  0.29225895745E+02  0.51100000000E-03 0.  1.
        -11    1    4    4    0    0 -0.20077895265E+01  0.41435936998E+00 -0.18200830096E+02  0.18315925555E+02  0.51100000000E-03 0. -1.
         12    1    4    4    0    0 -0.47351320168E+01 -0.43973657414E+01 -0.21967247741E+01  0.68252399528E+01  0.00000000000E+00 0. -1.
</event>
<event>
 8    1  0.1248739E-006  0.9118800E+02  0.7816164E-02  0.1184000E+00
        -11   -1    0    0    0    0  0.00000000000E+00  0.00000000000E+00  0.45593999997E+02  0.45594000000E+02  0.51100000000E-03 0.  1.
         11   -1    0    0    0    0 -0.00000000000E+00 -0.00000000000E+00 -0.45593999997E+02  0.45594000000E+02  0.51100000000E-03 0. -1.
         23    2    1    2    0    0 -0.17763568394E-14  0.00000000000E+00  0.00000000000E+00  0.91188000000E+02  0.91188000000E+02 0.  0.
    9900012    2    3    3    0    0  0.12130076239E+02 -0.11005708155E+02  0.32977498756E+02  0.54367084941E+02  0.40000001740E+02 0.  0.
         12    1    3    3    0    0 -0.12130076239E+02  0.11005708155E+02 -0.32977498756E+02  0.36820915059E+02  0.00000000000E+00 0. -1.
         11    1    4    4    0    0  0.10613001759E+02  0.15162375693E+01  0.33809778962E+01  0.11241254134E+02  0.51100000000E-03 0. -1.
        -11    1    4    4    0    0  0.84624306336E+01  0.66189494487E+01  0.76542280627E+01  0.13191301358E+02  0.51100000000E-03 0.  1.
        -12    1    4    4    0    0 -0.69453561533E+01 -0.19140895173E+02  0.21942292797E+02  0.29934529449E+02  0.00000000000E+00 0.  1.
</event>
<event>
 8    1  0.1248739E-006  0.9118800E+02  0.7816164E-02  0.1184000E+00
        -11   -1    0    0    0    0  0.00000000000E+00  0.00000000000E+00  0.45593999997E+02  0.45594000000E+02  0.51100000000E-03 0.  1.
         11   -1    0    0    0    0 -0.00000000000E+00 -0.00000000000E+00 -0.45593999997E+02  0.45594000000E+02  0.51100000000E-03 0. -1.
         23    2    1    2    0    0  0.00000000000E+00  0.35527136788E-14 -0.35527136788E-14  0.91188000000E+02  0.91188000000E+02 0.  0.
    9900012    2    3    3    0    0 -0.75188576514E+01  0.30653658848E+02 -0.18963106261E+02  0.54367089905E+02  0.40000013056E+02 0.  0.
        -12    1    3    3    0    0  0.75188576514E+01 -0.30653658848E+02  0.18963106261E+02  0.36820910095E+02  0.00000000000E+00 0.  1.
         11    1    4    4    0    0 -0.61713301671E+01  0.72798467824E+01 -0.13601451840E+02  0.16615684687E+02  0.51100000000E-03 0. -1.
        -11    1    4    4    0    0 -0.68039428416E+01  0.27817431172E+02  0.42527486442E+00  0.28640600101E+02  0.51100000000E-03 0.  1.
        -12    1    4    4    0    0  0.54564153574E+01 -0.44436191057E+01 -0.57869292854E+01  0.91108051161E+01  0.00000000000E+00 0.  1.
</event>
<event>
 8    1  0.1248739E-006  0.9118800E+02  0.7816164E-02  0.1184000E+00
        -11   -1    0    0    0    0  0.00000000000E+00  0.00000000000E+00  0.45593999997E+02  0.45594000000E+02  0.51100000000E-03 0.  1.
         11   -1    0    0    0    0 -0.00000000000E+00 -0.00000000000E+00 -0.45593999997E+02  0.45594000000E+02  0.51100000000E-03 0. -1.
         23    2    1    2    0    0  0.00000000000E+00  0.00000000000E+00  0.00000000000E+00  0.91188000000E+02  0.91188000000E+02 0.  0.
    9900012    2    3    3    0    0 -0.27867513830E+02  0.20495465570E+02 -0.12614168366E+02  0.54367086383E+02  0.40000005028E+02 0.  0.
        -12    1    3    3    0    0  0.27867513830E+02 -0.20495465570E+02  0.12614168366E+02  0.36820913617E+02  0.00000000000E+00 0.  1.
         11    1    4    4    0    0 -0.17299134507E+02  0.11359003603E+02 -0.23343180445E+01  0.20826330894E+02  0.51100000000E-03 0.  1.
        -11    1    4    4    0    0 -0.77262304250E+01  0.13166600865E+02  0.60961816991E+01  0.16438292080E+02  0.51100000000E-03 0. -1.
        -12    1    4    4    0    0 -0.28421488983E+01 -0.40301388981E+01 -0.16376032021E+02  0.17102463409E+02  0.00000000000E+00 0.  1.
</event>
<event>
 8    1  0.1248739E-006  0.9118800E+02  0.7816164E-02  0.1184000E+00
        -11   -1    0    0    0    0  0.00000000000E+00  0.00000000000E+00  0.45593999997E+02  0.45594000000E+02  0.51100000000E-03 0.  1.
         11   -1    0    0    0    0 -0.00000000000E+00 -0.00000000000E+00 -0.45593999997E+02  0.45594000000E+02  0.51100000000E-03 0. -1.
         23    2    1    2    0    0 -0.22204460493E-15  0.88817841970E-15  0.00000000000E+00  0.91188000000E+02  0.91188000000E+02 0.  0.
    9900012    2    3    3    0    0 -0.13671883563E+01  0.69277838050E+01  0.36137471272E+02  0.54367079012E+02  0.39999988224E+02 0.  0.
         12    1    3    3    0    0  0.13671883563E+01 -0.69277838050E+01 -0.36137471272E+02  0.36820920988E+02  0.00000000000E+00 0. -1.
         11    1    4    4    0    0  0.10434785079E+02  0.72872771467E+01  0.40256921029E+01  0.13348982921E+02  0.51100000000E-03 0. -1.
        -11    1    4    4    0    0 -0.14581893063E+02  0.53351182467E+01  0.11140632495E+02  0.19110436537E+02  0.51100000000E-03 0.  1.
        -12    1    4    4    0    0  0.27799196282E+01 -0.56946115884E+01  0.20971146675E+02  0.21907659554E+02  0.00000000000E+00 0.  1.
</event>
<event>
 8    1  0.1248739E-006  0.9118800E+02  0.7816164E-02  0.1184000E+00
        -11   -1    0    0    0    0  0.00000000000E+00  0.00000000000E+00  0.45593999997E+02  0.45594000000E+02  0.51100000000E-03 0. -1.
         11   -1    0    0    0    0 -0.00000000000E+00 -0.00000000000E+00 -0.45593999997E+02  0.45594000000E+02  0.51100000000E-03 0.  1.
         23    2    1    2    0    0  0.00000000000E+00 -0.35527136788E-14  0.00000000000E+00  0.91188000000E+02  0.91188000000E+02 0.  0.
    9900012    2    3    3    0    0 -0.29665415418E+02 -0.18229632230E+02 -0.11976028191E+02  0.54367060110E+02  0.39999945133E+02 0.  0.
         12    1    3    3    0    0  0.29665415418E+02  0.18229632230E+02  0.11976028191E+02  0.36820939890E+02  0.00000000000E+00 0. -1.
         11    1    4    4    0    0  0.73523155122E+01 -0.86982062310E+01 -0.16403088061E+01  0.11506778362E+02  0.51100000000E-03 0. -1.
        -11    1    4    4    0    0 -0.26561968985E+02 -0.10108705237E+02 -0.14108486090E+02  0.31729694262E+02  0.51100000000E-03 0.  1.
        -12    1    4    4    0    0 -0.10455761946E+02  0.57727923811E+00  0.37727667057E+01  0.11130587487E+02  0.00000000000E+00 0.  1.
</event>
<event>
 8    1  0.1248739E-006  0.9118800E+02  0.7816164E-02  0.1184000E+00
        -11   -1    0    0    0    0  0.00000000000E+00  0.00000000000E+00  0.45593999997E+02  0.45594000000E+02  0.51100000000E-03 0.  1.
         11   -1    0    0    0    0 -0.00000000000E+00 -0.00000000000E+00 -0.45593999997E+02  0.45594000000E+02  0.51100000000E-03 0. -1.
         23    2    1    2    0    0  0.00000000000E+00  0.00000000000E+00  0.00000000000E+00  0.91188000000E+02  0.91188000000E+02 0.  0.
    9900012    2    3    3    0    0  0.69560097260E+01 -0.19329506522E+02 -0.30557539161E+02  0.54367094344E+02  0.40000023177E+02 0.  0.
        -12    1    3    3    0    0 -0.69560097260E+01  0.19329506522E+02  0.30557539161E+02  0.36820905656E+02  0.00000000000E+00 0.  1.
         11    1    4    4    0    0  0.20560193636E+01 -0.16777736225E+02 -0.16285327363E+02  0.23471930812E+02  0.51100000000E-03 0. -1.
        -11    1    4    4    0    0 -0.51200335939E+01 -0.12061640968E+02 -0.40668676124E+01  0.13719961344E+02  0.51100000000E-03 0.  1.
        -12    1    4    4    0    0  0.10020023956E+02  0.95098706709E+01 -0.10205344186E+02  0.17175202188E+02  0.00000000000E+00 0.  1.
</event>
<event>
 8    1  0.1248739E-006  0.9118800E+02  0.7816164E-02  0.1184000E+00
        -11   -1    0    0    0    0  0.00000000000E+00  0.00000000000E+00  0.45593999997E+02  0.45594000000E+02  0.51100000000E-03 0.  1.
         11   -1    0    0    0    0 -0.00000000000E+00 -0.00000000000E+00 -0.45593999997E+02  0.45594000000E+02  0.51100000000E-03 0. -1.
         23    2    1    2    0    0  0.26645352591E-14  0.00000000000E+00  0.17763568394E-14  0.91188000000E+02  0.91188000000E+02 0.  0.
    9900012    2    3    3    0    0  0.47157671203E+01  0.33792808930E+02 -0.13841490830E+02  0.54367092036E+02  0.40000017914E+02 0.  0.
        -12    1    3    3    0    0 -0.47157671203E+01 -0.33792808930E+02  0.13841490830E+02  0.36820907964E+02  0.00000000000E+00 0.  1.
         11    1    4    4    0    0 -0.84058084163E+00  0.84477463669E+01 -0.12257925488E+02  0.14910658347E+02  0.51100000000E-03 0. -1.
        -11    1    4    4    0    0 -0.84401936119E+01  0.38610295094E+01 -0.88303698905E+01  0.12810926967E+02  0.51100000000E-03 0.  1.
        -12    1    4    4    0    0  0.13996541574E+02  0.21484033054E+02  0.72468045484E+01  0.26645506722E+02  0.00000000000E+00 0.  1.
</event>
<event>
 8    1  0.1248739E-006  0.9118800E+02  0.7816164E-02  0.1184000E+00
        -11   -1    0    0    0    0  0.00000000000E+00  0.00000000000E+00  0.45593999997E+02  0.45594000000E+02  0.51100000000E-03 0. -1.
         11   -1    0    0    0    0 -0.00000000000E+00 -0.00000000000E+00 -0.45593999997E+02  0.45594000000E+02  0.51100000000E-03 0.  1.
         23    2    1    2    0    0  0.00000000000E+00 -0.35527136788E-14 -0.35527136788E-14  0.91188000000E+02  0.91188000000E+02 0.  0.
    9900012    2    3    3    0    0 -0.18533104427E+02  0.24439571046E+02  0.20371831254E+02  0.54367080657E+02  0.39999991974E+02 0.  0.
        -12    1    3    3    0    0  0.18533104427E+02 -0.24439571046E+02 -0.20371831254E+02  0.36820919343E+02  0.00000000000E+00 0.  1.
         11    1    4    4    0    0 -0.15414234266E+02  0.10321765193E+02 -0.52452748849E+00  0.18558356179E+02  0.51100000000E-03 0. -1.
        -11    1    4    4    0    0  0.68007884797E+01 -0.22864565646E+01 -0.36108354047E+00  0.71839396678E+01  0.51100000000E-03 0.  1.
        -12    1    4    4    0    0 -0.99196586401E+01  0.16404262417E+02  0.21257442283E+02  0.28624784810E+02  0.00000000000E+00 0.  1.
</event>
<event>
 8    1  0.1248739E-006  0.9118800E+02  0.7816164E-02  0.1184000E+00
        -11   -1    0    0    0    0  0.00000000000E+00  0.00000000000E+00  0.45593999997E+02  0.45594000000E+02  0.51100000000E-03 0. -1.
         11   -1    0    0    0    0 -0.00000000000E+00 -0.00000000000E+00 -0.45593999997E+02  0.45594000000E+02  0.51100000000E-03 0.  1.
         23    2    1    2    0    0  0.00000000000E+00 -0.17763568394E-14  0.35527136788E-14  0.91188000000E+02  0.91188000000E+02 0.  0.
    9900012    2    3    3    0    0 -0.23587246113E+02 -0.14296342557E+02 -0.24393358370E+02  0.54367088519E+02  0.40000009898E+02 0.  0.
        -12    1    3    3    0    0  0.23587246113E+02  0.14296342557E+02  0.24393358370E+02  0.36820911481E+02  0.00000000000E+00 0.  1.
         11    1    4    4    0    0 -0.11517828284E+02 -0.98520797631E+01 -0.32520627069E+01  0.15501604954E+02  0.51100000000E-03 0. -1.
        -11    1    4    4    0    0 -0.20770076959E+02 -0.62701750063E+01 -0.82618667453E+01  0.23215719543E+02  0.51100000000E-03 0.  1.
        -12    1    4    4    0    0  0.87006591307E+01  0.18259122126E+01 -0.12879428918E+02  0.15649764023E+02  0.00000000000E+00 0.  1.
</event>
<event>
 8    1  0.1248739E-006  0.9118800E+02  0.7816164E-02  0.1184000E+00
        -11   -1    0    0    0    0  0.00000000000E+00  0.00000000000E+00  0.45593999997E+02  0.45594000000E+02  0.51100000000E-03 0.  1.
         11   -1    0    0    0    0 -0.00000000000E+00 -0.00000000000E+00 -0.45593999997E+02  0.45594000000E+02  0.51100000000E-03 0. -1.
         23    2    1    2    0    0  0.00000000000E+00  0.88817841970E-15  0.00000000000E+00  0.91188000000E+02  0.91188000000E+02 0.  0.
    9900012    2    3    3    0    0 -0.30719569898E+02 -0.73555498952E+01  0.18920410526E+02  0.54367108872E+02  0.40000056296E+02 0.  0.
         12    1    3    3    0    0  0.30719569898E+02  0.73555498952E+01 -0.18920410526E+02  0.36820891128E+02  0.00000000000E+00 0. -1.
         11    1    4    4    0    0  0.56111098825E+01  0.62724707074E+01  0.53548089868E+01  0.99750900966E+01  0.51100000000E-03 0. -1.
        -11    1    4    4    0    0 -0.36997690252E+02 -0.15584844307E+02  0.13376358810E+02  0.42315994982E+02  0.51100000000E-03 0.  1.
        -12    1    4    4    0    0  0.66701047123E+00  0.19568237046E+01  0.18924272880E+00  0.20760237932E+01  0.00000000000E+00 0.  1.
</event>
<event>
 8    1  0.1248739E-006  0.9118800E+02  0.7816164E-02  0.1184000E+00
        -11   -1    0    0    0    0  0.00000000000E+00  0.00000000000E+00  0.45593999997E+02  0.45594000000E+02  0.51100000000E-03 0.  1.
         11   -1    0    0    0    0 -0.00000000000E+00 -0.00000000000E+00 -0.45593999997E+02  0.45594000000E+02  0.51100000000E-03 0. -1.
         23    2    1    2    0    0  0.35527136788E-14  0.35527136788E-14  0.35527136788E-14  0.91188000000E+02  0.91188000000E+02 0.  0.
    9900012    2    3    3    0    0 -0.24166402876E+02  0.16376339599E+02  0.22440613937E+02  0.54367072792E+02  0.39999974043E+02 0.  0.
         12    1    3    3    0    0  0.24166402876E+02 -0.16376339599E+02 -0.22440613937E+02  0.36820927208E+02  0.00000000000E+00 0. -1.
         11    1    4    4    0    0  0.22340328137E+01  0.19421478567E+02  0.15768303197E+01  0.19613034606E+02  0.51100000000E-03 0. -1.
        -11    1    4    4    0    0 -0.16512768841E+02 -0.62428897972E+00  0.80275164379E+01  0.18371235450E+02  0.51100000000E-03 0.  1.
         12    1    4    4    0    0 -0.98876668480E+01 -0.24208499883E+01  0.12836267180E+02  0.16382802736E+02  0.00000000000E+00 0. -1.
</event>
<event>
 8    1  0.1248739E-006  0.9118800E+02  0.7816164E-02  0.1184000E+00
        -11   -1    0    0    0    0  0.00000000000E+00  0.00000000000E+00  0.45593999997E+02  0.45594000000E+02  0.51100000000E-03 0. -1.
         11   -1    0    0    0    0 -0.00000000000E+00 -0.00000000000E+00 -0.45593999997E+02  0.45594000000E+02  0.51100000000E-03 0.  1.
         23    2    1    2    0    0 -0.44408920985E-15  0.17763568394E-14  0.00000000000E+00  0.91188000000E+02  0.91188000000E+02 0.  0.
    9900012    2    3    3    0    0 -0.70919145627E+00  0.14965026633E+02  0.33635188529E+02  0.54367070055E+02  0.39999967805E+02 0.  0.
        -12    1    3    3    0    0  0.70919145627E+00 -0.14965026633E+02 -0.33635188529E+02  0.36820929945E+02  0.00000000000E+00 0.  1.
         11    1    4    4    0    0  0.48681193604E+01  0.50936280717E+00 -0.61931971120E+00  0.49337200713E+01  0.51100000000E-03 0. -1.
        -11    1    4    4    0    0  0.25490059286E+01 -0.88284931354E+01  0.30969735405E+01  0.96969566173E+01  0.51100000000E-03 0.  1.
         12    1    4    4    0    0 -0.81263167453E+01  0.23284156961E+02  0.31157534699E+02  0.39736393367E+02  0.00000000000E+00 0. -1.
</event>
<event>
 8    1  0.1248739E-006  0.9118800E+02  0.7816164E-02  0.1184000E+00
        -11   -1    0    0    0    0  0.00000000000E+00  0.00000000000E+00  0.45593999997E+02  0.45594000000E+02  0.51100000000E-03 0. -1.
         11   -1    0    0    0    0 -0.00000000000E+00 -0.00000000000E+00 -0.45593999997E+02  0.45594000000E+02  0.51100000000E-03 0.  1.
         23    2    1    2    0    0  0.00000000000E+00  0.35527136788E-14  0.00000000000E+00  0.91188000000E+02  0.91188000000E+02 0.  0.
    9900012    2    3    3    0    0  0.19843751292E+02  0.30208843976E+02  0.70306212797E+01  0.54367104366E+02  0.40000046023E+02 0.  0.
         12    1    3    3    0    0 -0.19843751292E+02 -0.30208843976E+02 -0.70306212797E+01  0.36820895634E+02  0.00000000000E+00 0. -1.
         11    1    4    4    0    0  0.10824854224E+02  0.11177078229E+02  0.17849906594E+02  0.23679605410E+02  0.51100000000E-03 0. -1.
        -11    1    4    4    0    0  0.43856971092E+01  0.21900002465E+02 -0.11625059375E+02  0.25179087609E+02  0.51100000000E-03 0.  1.
        -12    1    4    4    0    0  0.46331999587E+01 -0.28682367178E+01  0.80577406067E+00  0.55084113466E+01  0.00000000000E+00 0.  1.
</event>
<event>
 8    1  0.1248739E-006  0.9118800E+02  0.7816164E-02  0.1184000E+00
        -11   -1    0    0    0    0  0.00000000000E+00  0.00000000000E+00  0.45593999997E+02  0.45594000000E+02  0.51100000000E-03 0. -1.
         11   -1    0    0    0    0 -0.00000000000E+00 -0.00000000000E+00 -0.45593999997E+02  0.45594000000E+02  0.51100000000E-03 0.  1.
         23    2    1    2    0    0 -0.35527136788E-14 -0.35527136788E-14  0.00000000000E+00  0.91188000000E+02  0.91188000000E+02 0.  0.
    9900012    2    3    3    0    0 -0.26048975365E+02 -0.17400167898E+02  0.19351109744E+02  0.54367076482E+02  0.39999982455E+02 0.  0.
        -12    1    3    3    0    0  0.26048975365E+02  0.17400167898E+02 -0.19351109744E+02  0.36820923518E+02  0.00000000000E+00 0.  1.
         11    1    4    4    0    0 -0.13852065093E+02 -0.26290343073E+02  0.18336757601E+02  0.34918455375E+02  0.51100000000E-03 0. -1.
        -11    1    4    4    0    0 -0.54848469598E+01 -0.11052064789E+01 -0.34893048773E+01  0.65939575614E+01  0.51100000000E-03 0.  1.
         12    1    4    4    0    0 -0.67120633115E+01  0.99953816536E+01  0.45036570199E+01  0.12854663545E+02  0.00000000000E+00 0. -1.
</event>
<event>
 8    1  0.1248739E-006  0.9118800E+02  0.7816164E-02  0.1184000E+00
        -11   -1    0    0    0    0  0.00000000000E+00  0.00000000000E+00  0.45593999997E+02  0.45594000000E+02  0.51100000000E-03 0.  1.
         11   -1    0    0    0    0 -0.00000000000E+00 -0.00000000000E+00 -0.45593999997E+02  0.45594000000E+02  0.51100000000E-03 0. -1.
         23    2    1    2    0    0  0.35527136788E-14 -0.35527136788E-14  0.00000000000E+00  0.91188000000E+02  0.91188000000E+02 0.  0.
    9900012    2    3    3    0    0  0.24858409887E+02 -0.22819710464E+02 -0.14734340690E+02  0.54367074925E+02  0.39999978907E+02 0.  0.
        -12    1    3    3    0    0 -0.24858409887E+02  0.22819710464E+02  0.14734340690E+02  0.36820925075E+02  0.00000000000E+00 0.  1.
         11    1    4    4    0    0  0.20089410079E+02 -0.44045797035E+01 -0.76357943364E+01  0.21938324346E+02  0.51100000000E-03 0. -1.
        -11    1    4    4    0    0 -0.68273701464E+01 -0.48936665471E+00 -0.86408170103E+01  0.11023437835E+02  0.51100000000E-03 0.  1.
         12    1    4    4    0    0  0.11596369954E+02 -0.17925764106E+02  0.15422706563E+01  0.21405312744E+02  0.00000000000E+00 0. -1.
</event>
<event>
 8    1  0.1248739E-006  0.9118800E+02  0.7816164E-02  0.1184000E+00
        -11   -1    0    0    0    0  0.00000000000E+00  0.00000000000E+00  0.45593999997E+02  0.45594000000E+02  0.51100000000E-03 0. -1.
         11   -1    0    0    0    0 -0.00000000000E+00 -0.00000000000E+00 -0.45593999997E+02  0.45594000000E+02  0.51100000000E-03 0.  1.
         23    2    1    2    0    0 -0.17763568394E-14  0.71054273576E-14  0.00000000000E+00  0.91188000000E+02  0.91188000000E+02 0.  0.
    9900012    2    3    3    0    0  0.99534434483E+01 -0.34593065403E+02 -0.77477317720E+01  0.54367101613E+02  0.40000039747E+02 0.  0.
         12    1    3    3    0    0 -0.99534434483E+01  0.34593065403E+02  0.77477317720E+01  0.36820898387E+02  0.00000000000E+00 0. -1.
         11    1    4    4    0    0 -0.40023518190E+01  0.63814408022E+01 -0.76955969373E+00  0.75719105369E+01  0.51100000000E-03 0. -1.
        -11    1    4    4    0    0  0.14197295042E+02 -0.41768530428E+02 -0.86253422021E+01  0.44950749148E+02  0.51100000000E-03 0.  1.
        -12    1    4    4    0    0 -0.24149977429E+00  0.79402422334E+00  0.16471701239E+01  0.18444419279E+01  0.00000000000E+00 0.  1.
</event>
<event>
 8    1  0.1248739E-006  0.9118800E+02  0.7816164E-02  0.1184000E+00
        -11   -1    0    0    0    0  0.00000000000E+00  0.00000000000E+00  0.45593999997E+02  0.45594000000E+02  0.51100000000E-03 0. -1.
         11   -1    0    0    0    0 -0.00000000000E+00 -0.00000000000E+00 -0.45593999997E+02  0.45594000000E+02  0.51100000000E-03 0.  1.
         23    2    1    2    0    0  0.00000000000E+00  0.00000000000E+00  0.00000000000E+00  0.91188000000E+02  0.91188000000E+02 0.  0.
    9900012    2    3    3    0    0  0.19277545646E+02  0.90685733596E+01  0.30031985864E+02  0.54367041785E+02  0.39999903358E+02 0.  0.
        -12    1    3    3    0    0 -0.19277545646E+02 -0.90685733596E+01 -0.30031985864E+02  0.36820958215E+02  0.00000000000E+00 0.  1.
         11    1    4    4    0    0  0.23426973276E+02  0.14628572848E+02  0.89302308158E+01  0.29027008856E+02  0.51100000000E-03 0. -1.
        -11    1    4    4    0    0  0.21208601563E+01  0.23054340255E+01  0.19017450669E+01  0.36646566564E+01  0.51100000000E-03 0.  1.
        -12    1    4    4    0    0 -0.62702877863E+01 -0.78654335142E+01  0.19200009982E+02  0.21675376273E+02  0.00000000000E+00 0.  1.
</event>
<event>
 8    1  0.1248739E-006  0.9118800E+02  0.7816164E-02  0.1184000E+00
        -11   -1    0    0    0    0  0.00000000000E+00  0.00000000000E+00  0.45593999997E+02  0.45594000000E+02  0.51100000000E-03 0.  1.
         11   -1    0    0    0    0 -0.00000000000E+00 -0.00000000000E+00 -0.45593999997E+02  0.45594000000E+02  0.51100000000E-03 0. -1.
         23    2    1    2    0    0  0.00000000000E+00  0.17763568394E-14 -0.35527136788E-14  0.91188000000E+02  0.91188000000E+02 0.  0.
    9900012    2    3    3    0    0 -0.29598348863E+02  0.11765200939E+02 -0.18474213229E+02  0.54367098830E+02  0.40000033402E+02 0.  0.
        -12    1    3    3    0    0  0.29598348863E+02 -0.11765200939E+02  0.18474213229E+02  0.36820901170E+02  0.00000000000E+00 0.  1.
         11    1    4    4    0    0 -0.89986871968E+01  0.30232263609E+01  0.80705076446E+01  0.12459910224E+02  0.51100000000E-03 0. -1.
        -11    1    4    4    0    0  0.22315658405E+01  0.88619169134E+01 -0.45658112558E+01  0.10215678644E+02  0.51100000000E-03 0.  1.
        -12    1    4    4    0    0 -0.22831227507E+02 -0.11994233538E+00 -0.21978909618E+02  0.31691509961E+02  0.00000000000E+00 0.  1.
</event>
<event>
 8    1  0.1248739E-006  0.9118800E+02  0.7816164E-02  0.1184000E+00
        -11   -1    0    0    0    0  0.00000000000E+00  0.00000000000E+00  0.45593999997E+02  0.45594000000E+02  0.51100000000E-03 0.  1.
         11   -1    0    0    0    0 -0.00000000000E+00 -0.00000000000E+00 -0.45593999997E+02  0.45594000000E+02  0.51100000000E-03 0. -1.
         23    2    1    2    0    0  0.35527136788E-14 -0.88817841970E-15 -0.35527136788E-14  0.91188000000E+02  0.91188000000E+02 0.  0.
    9900012    2    3    3    0    0 -0.18690119635E+02 -0.53079204217E+01  0.31277508027E+02  0.54367121418E+02  0.40000084897E+02 0.  0.
         12    1    3    3    0    0  0.18690119635E+02  0.53079204217E+01 -0.31277508027E+02  0.36820878582E+02  0.00000000000E+00 0. -1.
         11    1    4    4    0    0 -0.24322786104E+00 -0.81953744136E-01  0.13976847033E+02  0.13979203463E+02  0.51100000000E-03 0. -1.
        -11    1    4    4    0    0 -0.10025455957E+01  0.10668762509E+02  0.12210026446E+02  0.16245378950E+02  0.51100000000E-03 0.  1.
         12    1    4    4    0    0 -0.17444346178E+02 -0.15894729187E+02  0.50906345472E+01  0.24142539005E+02  0.00000000000E+00 0. -1.
</event>
<event>
 8    1  0.1248739E-006  0.9118800E+02  0.7816164E-02  0.1184000E+00
        -11   -1    0    0    0    0  0.00000000000E+00  0.00000000000E+00  0.45593999997E+02  0.45594000000E+02  0.51100000000E-03 0.  1.
         11   -1    0    0    0    0 -0.00000000000E+00 -0.00000000000E+00 -0.45593999997E+02  0.45594000000E+02  0.51100000000E-03 0. -1.
         23    2    1    2    0    0  0.00000000000E+00  0.35527136788E-14  0.00000000000E+00  0.91188000000E+02  0.91188000000E+02 0.  0.
    9900012    2    3    3    0    0  0.99590645333E+01  0.27561231674E+02  0.22292890567E+02  0.54367116963E+02  0.40000074741E+02 0.  0.
         12    1    3    3    0    0 -0.99590645333E+01 -0.27561231674E+02 -0.22292890567E+02  0.36820883037E+02  0.00000000000E+00 0. -1.
         11    1    4    4    0    0  0.11127962590E+02  0.22546730112E+01  0.15221380490E+02  0.18989616270E+02  0.51100000000E-03 0. -1.
        -11    1    4    4    0    0  0.21227565266E+01  0.16598639218E+02  0.15507472670E+02  0.22814526688E+02  0.51100000000E-03 0.  1.
         12    1    4    4    0    0 -0.32916545837E+01  0.87079194455E+01 -0.84359625933E+01  0.12562974005E+02  0.00000000000E+00 0. -1.
</event>
<event>
 8    1  0.1248739E-006  0.9118800E+02  0.7816164E-02  0.1184000E+00
        -11   -1    0    0    0    0  0.00000000000E+00  0.00000000000E+00  0.45593999997E+02  0.45594000000E+02  0.51100000000E-03 0.  1.
         11   -1    0    0    0    0 -0.00000000000E+00 -0.00000000000E+00 -0.45593999997E+02  0.45594000000E+02  0.51100000000E-03 0. -1.
         23    2    1    2    0    0  0.00000000000E+00  0.00000000000E+00  0.35527136788E-14  0.91188000000E+02  0.91188000000E+02 0.  0.
    9900012    2    3    3    0    0 -0.18851186673E+02  0.21700186836E+02  0.23011190363E+02  0.54367078914E+02  0.39999988000E+02 0.  0.
         12    1    3    3    0    0  0.18851186673E+02 -0.21700186836E+02 -0.23011190363E+02  0.36820921086E+02  0.00000000000E+00 0. -1.
         11    1    4    4    0    0  0.19366423194E+01  0.98052403518E+01 -0.41978069744E+01  0.10840429211E+02  0.51100000000E-03 0. -1.
        -11    1    4    4    0    0  0.31995273588E+01  0.62787434420E+01  0.13757938219E+02  0.15457699014E+02  0.51100000000E-03 0.  1.
         12    1    4    4    0    0 -0.23987356351E+02  0.56162030419E+01  0.13451059119E+02  0.28068950689E+02  0.00000000000E+00 0. -1.
</event>
<event>
 8    1  0.1248739E-006  0.9118800E+02  0.7816164E-02  0.1184000E+00
        -11   -1    0    0    0    0  0.00000000000E+00  0.00000000000E+00  0.45593999997E+02  0.45594000000E+02  0.51100000000E-03 0.  1.
         11   -1    0    0    0    0 -0.00000000000E+00 -0.00000000000E+00 -0.45593999997E+02  0.45594000000E+02  0.51100000000E-03 0. -1.
         23    2    1    2    0    0 -0.88817841970E-15  0.00000000000E+00  0.00000000000E+00  0.91188000000E+02  0.91188000000E+02 0.  0.
    9900012    2    3    3    0    0  0.51257275129E+01 -0.31606335055E+02 -0.18180929500E+02  0.54367086165E+02  0.40000004530E+02 0.  0.
         12    1    3    3    0    0 -0.51257275129E+01  0.31606335055E+02  0.18180929500E+02  0.36820913835E+02  0.00000000000E+00 0. -1.
         11    1    4    4    0    0  0.31649607762E+01 -0.21641023547E+02 -0.13378200255E+02  0.25638391510E+02  0.51100000000E-03 0. -1.
        -11    1    4    4    0    0 -0.10250525511E+02 -0.66832783891E+01  0.44921716803E+01  0.13035301682E+02  0.51100000000E-03 0.  1.
        -12    1    4    4    0    0  0.12211292248E+02 -0.32820331189E+01 -0.92949009255E+01  0.15693392972E+02  0.00000000000E+00 0.  1.
</event>
<event>
 8    1  0.1248739E-006  0.9118800E+02  0.7816164E-02  0.1184000E+00
        -11   -1    0    0    0    0  0.00000000000E+00  0.00000000000E+00  0.45593999997E+02  0.45594000000E+02  0.51100000000E-03 0. -1.
         11   -1    0    0    0    0 -0.00000000000E+00 -0.00000000000E+00 -0.45593999997E+02  0.45594000000E+02  0.51100000000E-03 0.  1.
         23    2    1    2    0    0  0.00000000000E+00  0.13322676296E-14  0.11102230246E-14  0.91188000000E+02  0.91188000000E+02 0.  0.
    9900012    2    3    3    0    0 -0.36653566997E+02  0.30251887678E+01 -0.17747479703E+01  0.54367007740E+02  0.39999825744E+02 0.  0.
         12    1    3    3    0    0  0.36653566997E+02 -0.30251887678E+01  0.17747479703E+01  0.36820992260E+02  0.00000000000E+00 0. -1.
         11    1    4    4    0    0 -0.14458263713E+02 -0.12625093473E+01  0.12515242829E+02  0.19164201595E+02  0.51100000000E-03 0. -1.
        -11    1    4    4    0    0 -0.71406819238E+01 -0.68841301726E+01  0.22857734154E+01  0.10178671177E+02  0.51100000000E-03 0.  1.
         12    1    4    4    0    0 -0.15054621360E+02  0.11171828288E+02 -0.16575764214E+02  0.25024134967E+02  0.00000000000E+00 0. -1.
</event>
<event>
 8    1  0.1248739E-006  0.9118800E+02  0.7816164E-02  0.1184000E+00
        -11   -1    0    0    0    0  0.00000000000E+00  0.00000000000E+00  0.45593999997E+02  0.45594000000E+02  0.51100000000E-03 0.  1.
         11   -1    0    0    0    0 -0.00000000000E+00 -0.00000000000E+00 -0.45593999997E+02  0.45594000000E+02  0.51100000000E-03 0. -1.
         23    2    1    2    0    0 -0.17763568394E-14  0.00000000000E+00  0.00000000000E+00  0.91188000000E+02  0.91188000000E+02 0.  0.
    9900012    2    3    3    0    0 -0.15259232552E+02  0.31484993022E+02 -0.11473030266E+02  0.54367090354E+02  0.40000014080E+02 0.  0.
         12    1    3    3    0    0  0.15259232552E+02 -0.31484993022E+02  0.11473030266E+02  0.36820909646E+02  0.00000000000E+00 0. -1.
         11    1    4    4    0    0 -0.63919246781E+01 -0.28348232971E+01  0.58017518237E+01  0.90858818340E+01  0.51100000000E-03 0. -1.
        -11    1    4    4    0    0  0.23903804814E+01  0.27349721627E+02 -0.65064817018E+01  0.28214455450E+02  0.51100000000E-03 0.  1.
         12    1    4    4    0    0 -0.11257688355E+02  0.69700946922E+01 -0.10768300388E+02  0.17066753070E+02  0.00000000000E+00 0. -1.
</event>
<event>
 8    1  0.1248739E-006  0.9118800E+02  0.7816164E-02  0.1184000E+00
        -11   -1    0    0    0    0  0.00000000000E+00  0.00000000000E+00  0.45593999997E+02  0.45594000000E+02  0.51100000000E-03 0.  1.
         11   -1    0    0    0    0 -0.00000000000E+00 -0.00000000000E+00 -0.45593999997E+02  0.45594000000E+02  0.51100000000E-03 0. -1.
         23    2    1    2    0    0  0.26645352591E-14  0.00000000000E+00 -0.17763568394E-14  0.91188000000E+02  0.91188000000E+02 0.  0.
    9900012    2    3    3    0    0 -0.59120457803E+01 -0.32647681222E+02  0.15967380788E+02  0.54367073562E+02  0.39999975800E+02 0.  0.
         12    1    3    3    0    0  0.59120457803E+01  0.32647681222E+02 -0.15967380788E+02  0.36820926438E+02  0.00000000000E+00 0. -1.
         11    1    4    4    0    0 -0.36902171409E+01 -0.63845997924E+00 -0.41163936257E+01  0.55650723656E+01  0.51100000000E-03 0. -1.
        -11    1    4    4    0    0 -0.13745514197E+02 -0.11175737435E+02  0.17419818135E+02  0.24845247672E+02  0.51100000000E-03 0.  1.
        -12    1    4    4    0    0  0.11523685557E+02 -0.20833483808E+02  0.26639562785E+01  0.23956753525E+02  0.00000000000E+00 0.  1.
</event>
<event>
 8    1  0.1248739E-006  0.9118800E+02  0.7816164E-02  0.1184000E+00
        -11   -1    0    0    0    0  0.00000000000E+00  0.00000000000E+00  0.45593999997E+02  0.45594000000E+02  0.51100000000E-03 0. -1.
         11   -1    0    0    0    0 -0.00000000000E+00 -0.00000000000E+00 -0.45593999997E+02  0.45594000000E+02  0.51100000000E-03 0.  1.
         23    2    1    2    0    0  0.00000000000E+00  0.17763568394E-14 -0.35527136788E-14  0.91188000000E+02  0.91188000000E+02 0.  0.
    9900012    2    3    3    0    0  0.31799898537E+02 -0.11615494464E+02  0.14478520158E+02  0.54367071107E+02  0.39999970203E+02 0.  0.
        -12    1    3    3    0    0 -0.31799898537E+02  0.11615494464E+02 -0.14478520158E+02  0.36820928893E+02  0.00000000000E+00 0.  1.
         11    1    4    4    0    0  0.11667067067E+01 -0.37227531542E+01 -0.24311453709E+01  0.45967992845E+01  0.51100000000E-03 0. -1.
        -11    1    4    4    0    0  0.35204798826E+02  0.25955420084E+01  0.11604556417E+02  0.37158853973E+02  0.51100000000E-03 0.  1.
         12    1    4    4    0    0 -0.45716069959E+01 -0.10488283318E+02  0.53051091114E+01  0.12611417850E+02  0.00000000000E+00 0. -1.
</event>
<event>
 8    1  0.1248739E-006  0.9118800E+02  0.7816164E-02  0.1184000E+00
        -11   -1    0    0    0    0  0.00000000000E+00  0.00000000000E+00  0.45593999997E+02  0.45594000000E+02  0.51100000000E-03 0.  1.
         11   -1    0    0    0    0 -0.00000000000E+00 -0.00000000000E+00 -0.45593999997E+02  0.45594000000E+02  0.51100000000E-03 0. -1.
         23    2    1    2    0    0 -0.35527136788E-14 -0.17763568394E-14  0.00000000000E+00  0.91188000000E+02  0.91188000000E+02 0.  0.
    9900012    2    3    3    0    0 -0.28417867457E+02 -0.12868001548E+02 -0.19560641291E+02  0.54367090962E+02  0.40000015467E+02 0.  0.
        -12    1    3    3    0    0  0.28417867457E+02  0.12868001548E+02  0.19560641291E+02  0.36820909038E+02  0.00000000000E+00 0.  1.
         11    1    4    4    0    0 -0.20470165380E+02  0.88652517081E+00 -0.52050992544E+01  0.21140166889E+02  0.51100000000E-03 0. -1.
        -11    1    4    4    0    0 -0.41970392309E+01 -0.51705934283E+01  0.71492253688E+01  0.97704451455E+01  0.51100000000E-03 0.  1.
         12    1    4    4    0    0 -0.37506628454E+01 -0.85839332907E+01 -0.21504767406E+02  0.23456478928E+02  0.00000000000E+00 0. -1.
</event>
<event>
 8    1  0.1248739E-006  0.9118800E+02  0.7816164E-02  0.1184000E+00
        -11   -1    0    0    0    0  0.00000000000E+00  0.00000000000E+00  0.45593999997E+02  0.45594000000E+02  0.51100000000E-03 0.  1.
         11   -1    0    0    0    0 -0.00000000000E+00 -0.00000000000E+00 -0.45593999997E+02  0.45594000000E+02  0.51100000000E-03 0. -1.
         23    2    1    2    0    0 -0.35527136788E-14  0.00000000000E+00  0.44408920985E-15  0.91188000000E+02  0.91188000000E+02 0.  0.
    9900012    2    3    3    0    0 -0.16230966407E+02  0.32978837269E+02 -0.21750500722E+01  0.54367098043E+02  0.40000031608E+02 0.  0.
        -12    1    3    3    0    0  0.16230966407E+02 -0.32978837269E+02  0.21750500722E+01  0.36820901957E+02  0.00000000000E+00 0.  1.
         11    1    4    4    0    0 -0.12980532464E+02  0.12215442960E+02 -0.10737187345E+02  0.20808615094E+02  0.51100000000E-03 0. -1.
        -11    1    4    4    0    0 -0.95029906931E+01  0.17365451837E+02  0.14297343097E+02  0.24418840462E+02  0.51100000000E-03 0.  1.
        -12    1    4    4    0    0  0.62525567501E+01  0.33979424716E+01 -0.57352058234E+01  0.91396424870E+01  0.00000000000E+00 0.  1.
</event>
<event>
 8    1  0.1248739E-006  0.9118800E+02  0.7816164E-02  0.1184000E+00
        -11   -1    0    0    0    0  0.00000000000E+00  0.00000000000E+00  0.45593999997E+02  0.45594000000E+02  0.51100000000E-03 0. -1.
         11   -1    0    0    0    0 -0.00000000000E+00 -0.00000000000E+00 -0.45593999997E+02  0.45594000000E+02  0.51100000000E-03 0.  1.
         23    2    1    2    0    0  0.15543122345E-14  0.00000000000E+00  0.00000000000E+00  0.91188000000E+02  0.91188000000E+02 0.  0.
    9900012    2    3    3    0    0  0.71510438668E-01 -0.11917807329E+02  0.34838775344E+02  0.54367088649E+02  0.40000010193E+02 0.  0.
        -12    1    3    3    0    0 -0.71510438668E-01  0.11917807329E+02 -0.34838775344E+02  0.36820911351E+02  0.00000000000E+00 0.  1.
         11    1    4    4    0    0  0.88588526375E+01  0.77607451754E+01  0.11278157556E+02  0.16306602155E+02  0.51100000000E-03 0. -1.
        -11    1    4    4    0    0 -0.81563415002E+01 -0.96191989879E+01  0.24881448256E+02  0.27895185309E+02  0.51100000000E-03 0.  1.
        -12    1    4    4    0    0 -0.63100069863E+00 -0.10059353517E+02 -0.13208304681E+01  0.10165301185E+02  0.00000000000E+00 0.  1.
</event>
<event>
 8    1  0.1248739E-006  0.9118800E+02  0.7816164E-02  0.1184000E+00
        -11   -1    0    0    0    0  0.00000000000E+00  0.00000000000E+00  0.45593999997E+02  0.45594000000E+02  0.51100000000E-03 0.  1.
         11   -1    0    0    0    0 -0.00000000000E+00 -0.00000000000E+00 -0.45593999997E+02  0.45594000000E+02  0.51100000000E-03 0. -1.
         23    2    1    2    0    0  0.00000000000E+00  0.00000000000E+00  0.00000000000E+00  0.91188000000E+02  0.91188000000E+02 0.  0.
    9900012    2    3    3    0    0 -0.85566488372E+01 -0.19874459541E+02 -0.29792100792E+02  0.54367086772E+02  0.40000005913E+02 0.  0.
         12    1    3    3    0    0  0.85566488372E+01  0.19874459541E+02  0.29792100792E+02  0.36820913228E+02  0.00000000000E+00 0. -1.
         11    1    4    4    0    0  0.40785756805E+01 -0.95480269218E+00 -0.25136639893E+01  0.48851749892E+01  0.51100000000E-03 0. -1.
        -11    1    4    4    0    0 -0.11383583685E+02 -0.28818665230E+02 -0.17877482073E+02  0.35772975955E+02  0.51100000000E-03 0.  1.
        -12    1    4    4    0    0 -0.12516408329E+01  0.98990083808E+01 -0.94009547292E+01  0.13708935827E+02  0.00000000000E+00 0.  1.
</event>
<event>
 8    1  0.1248739E-006  0.9118800E+02  0.7816164E-02  0.1184000E+00
        -11   -1    0    0    0    0  0.00000000000E+00  0.00000000000E+00  0.45593999997E+02  0.45594000000E+02  0.51100000000E-03 0.  1.
         11   -1    0    0    0    0 -0.00000000000E+00 -0.00000000000E+00 -0.45593999997E+02  0.45594000000E+02  0.51100000000E-03 0. -1.
         23    2    1    2    0    0  0.00000000000E+00  0.00000000000E+00  0.00000000000E+00  0.91188000000E+02  0.91188000000E+02 0.  0.
    9900012    2    3    3    0    0  0.25396004695E+02  0.66247220006E+01 -0.25825122086E+02  0.54367069447E+02  0.39999966418E+02 0.  0.
        -12    1    3    3    0    0 -0.25396004695E+02 -0.66247220006E+01  0.25825122086E+02  0.36820930553E+02  0.00000000000E+00 0.  1.
         11    1    4    4    0    0  0.69441700552E+01  0.38234536017E+01 -0.22261371426E+02  0.23630678221E+02  0.51100000000E-03 0. -1.
        -11    1    4    4    0    0 -0.14032318232E+00  0.97467850028E+01  0.23497799544E+01  0.10027012246E+02  0.51100000000E-03 0.  1.
         12    1    4    4    0    0  0.18592157822E+02 -0.69455166040E+01 -0.59135306144E+01  0.20709378979E+02  0.00000000000E+00 0. -1.
</event>
<event>
 8    1  0.1248739E-006  0.9118800E+02  0.7816164E-02  0.1184000E+00
        -11   -1    0    0    0    0  0.00000000000E+00  0.00000000000E+00  0.45593999997E+02  0.45594000000E+02  0.51100000000E-03 0.  1.
         11   -1    0    0    0    0 -0.00000000000E+00 -0.00000000000E+00 -0.45593999997E+02  0.45594000000E+02  0.51100000000E-03 0. -1.
         23    2    1    2    0    0 -0.88817841970E-15  0.00000000000E+00  0.00000000000E+00  0.91188000000E+02  0.91188000000E+02 0.  0.
    9900012    2    3    3    0    0  0.42083275139E+01  0.34439442525E+02  0.12328602042E+02  0.54367086782E+02  0.40000005936E+02 0.  0.
         12    1    3    3    0    0 -0.42083275139E+01 -0.34439442525E+02 -0.12328602042E+02  0.36820913218E+02  0.00000000000E+00 0. -1.
         11    1    4    4    0    0  0.97624926319E+01  0.23562135041E+02  0.30162252087E+01  0.25682252332E+02  0.51100000000E-03 0. -1.
        -11    1    4    4    0    0 -0.24961484104E+00  0.16709666668E+02  0.11754497831E+02  0.20431433802E+02  0.51100000000E-03 0.  1.
         12    1    4    4    0    0 -0.53045502770E+01 -0.58323591828E+01 -0.24421209974E+01  0.82534006472E+01  0.00000000000E+00 0. -1.
</event>
<event>
 8    1  0.1248739E-006  0.9118800E+02  0.7816164E-02  0.1184000E+00
        -11   -1    0    0    0    0  0.00000000000E+00  0.00000000000E+00  0.45593999997E+02  0.45594000000E+02  0.51100000000E-03 0.  1.
         11   -1    0    0    0    0 -0.00000000000E+00 -0.00000000000E+00 -0.45593999997E+02  0.45594000000E+02  0.51100000000E-03 0. -1.
         23    2    1    2    0    0 -0.35527136788E-14  0.88817841970E-15 -0.71054273576E-14  0.91188000000E+02  0.91188000000E+02 0.  0.
    9900012    2    3    3    0    0 -0.14600074034E+02  0.34865555730E+01  0.33622386685E+02  0.54367039692E+02  0.39999898587E+02 0.  0.
         12    1    3    3    0    0  0.14600074034E+02 -0.34865555730E+01 -0.33622386685E+02  0.36820960308E+02  0.00000000000E+00 0. -1.
         11    1    4    4    0    0  0.98669183092E+01  0.54429550158E+01  0.77252161373E+01  0.13662386353E+02  0.51100000000E-03 0. -1.
        -11    1    4    4    0    0  0.20807598670E+01 -0.59896601653E+00 -0.14192008188E+01  0.25889096428E+01  0.51100000000E-03 0.  1.
        -12    1    4    4    0    0 -0.26547752210E+02 -0.13574334264E+01  0.27316371367E+02  0.38115743697E+02  0.00000000000E+00 0.  1.
</event>
<event>
 8    1  0.1248739E-006  0.9118800E+02  0.7816164E-02  0.1184000E+00
        -11   -1    0    0    0    0  0.00000000000E+00  0.00000000000E+00  0.45593999997E+02  0.45594000000E+02  0.51100000000E-03 0. -1.
         11   -1    0    0    0    0 -0.00000000000E+00 -0.00000000000E+00 -0.45593999997E+02  0.45594000000E+02  0.51100000000E-03 0.  1.
         23    2    1    2    0    0  0.00000000000E+00 -0.71054273576E-14  0.00000000000E+00  0.91188000000E+02  0.91188000000E+02 0.  0.
    9900012    2    3    3    0    0 -0.73189226559E+01 -0.33253216615E+02  0.14015583847E+02  0.54367086993E+02  0.40000006417E+02 0.  0.
        -12    1    3    3    0    0  0.73189226559E+01  0.33253216615E+02 -0.14015583847E+02  0.36820913007E+02  0.00000000000E+00 0.  1.
         11    1    4    4    0    0 -0.11242798034E+02 -0.11516446034E+01  0.19894365995E+01  0.11475393290E+02  0.51100000000E-03 0.  1.
        -11    1    4    4    0    0  0.11625329706E+02 -0.19430410497E+02 -0.16727029184E+01  0.22704340514E+02  0.51100000000E-03 0. -1.
         12    1    4    4    0    0 -0.77014543276E+01 -0.12671161515E+02  0.13698850166E+02  0.20187353188E+02  0.00000000000E+00 0. -1.
</event>
<event>
 8    1  0.1248739E-006  0.9118800E+02  0.7816164E-02  0.1184000E+00
        -11   -1    0    0    0    0  0.00000000000E+00  0.00000000000E+00  0.45593999997E+02  0.45594000000E+02  0.51100000000E-03 0.  1.
         11   -1    0    0    0    0 -0.00000000000E+00 -0.00000000000E+00 -0.45593999997E+02  0.45594000000E+02  0.51100000000E-03 0. -1.
         23    2    1    2    0    0  0.00000000000E+00  0.00000000000E+00  0.35527136788E-14  0.91188000000E+02  0.91188000000E+02 0.  0.
    9900012    2    3    3    0    0 -0.20487264680E+02 -0.14244906414E+02  0.27076462841E+02  0.54367079143E+02  0.39999988522E+02 0.  0.
        -12    1    3    3    0    0  0.20487264680E+02  0.14244906414E+02 -0.27076462841E+02  0.36820920857E+02  0.00000000000E+00 0.  1.
         11    1    4    4    0    0  0.68022741577E+00  0.75120983027E+01 -0.28615336926E-01  0.75428873348E+01  0.51100000000E-03 0. -1.
        -11    1    4    4    0    0  0.37471990516E+01  0.32452375490E+00  0.69619330681E+01  0.79129848165E+01  0.51100000000E-03 0.  1.
        -12    1    4    4    0    0 -0.24914691148E+02 -0.22081528472E+02  0.20143145109E+02  0.38911206991E+02  0.00000000000E+00 0.  1.
</event>
<event>
 8    1  0.1248739E-006  0.9118800E+02  0.7816164E-02  0.1184000E+00
        -11   -1    0    0    0    0  0.00000000000E+00  0.00000000000E+00  0.45593999997E+02  0.45594000000E+02  0.51100000000E-03 0. -1.
         11   -1    0    0    0    0 -0.00000000000E+00 -0.00000000000E+00 -0.45593999997E+02  0.45594000000E+02  0.51100000000E-03 0.  1.
         23    2    1    2    0    0  0.26645352591E-14  0.00000000000E+00  0.00000000000E+00  0.91188000000E+02  0.91188000000E+02 0.  0.
    9900012    2    3    3    0    0 -0.77546118700E+01 -0.17819181554E+02  0.31274980770E+02  0.54367059508E+02  0.39999943761E+02 0.  0.
        -12    1    3    3    0    0  0.77546118700E+01  0.17819181554E+02 -0.31274980770E+02  0.36820940492E+02  0.00000000000E+00 0.  1.
         11    1    4    4    0    0  0.30318360939E+01 -0.25135344564E+01  0.35108661025E+01  0.52759896337E+01  0.51100000000E-03 0. -1.
        -11    1    4    4    0    0  0.56287983406E+01 -0.21691177752E+02  0.19181432321E+02  0.29497761088E+02  0.51100000000E-03 0.  1.
        -12    1    4    4    0    0 -0.16415246304E+02  0.63855306541E+01  0.85826823463E+01  0.19593308787E+02  0.00000000000E+00 0.  1.
</event>
<event>
 8    1  0.1248739E-006  0.9118800E+02  0.7816164E-02  0.1184000E+00
        -11   -1    0    0    0    0  0.00000000000E+00  0.00000000000E+00  0.45593999997E+02  0.45594000000E+02  0.51100000000E-03 0. -1.
         11   -1    0    0    0    0 -0.00000000000E+00 -0.00000000000E+00 -0.45593999997E+02  0.45594000000E+02  0.51100000000E-03 0.  1.
         23    2    1    2    0    0  0.00000000000E+00 -0.88817841970E-15 -0.71054273576E-14  0.91188000000E+02  0.91188000000E+02 0.  0.
    9900012    2    3    3    0    0  0.11926421983E+02  0.43907897821E+01 -0.34558083851E+02  0.54367085621E+02  0.40000003291E+02 0.  0.
         12    1    3    3    0    0 -0.11926421983E+02 -0.43907897821E+01  0.34558083851E+02  0.36820914379E+02  0.00000000000E+00 0. -1.
         11    1    4    4    0    0 -0.13705274155E+01 -0.41600241985E+01  0.58140885750E+01  0.72792700834E+01  0.51100000000E-03 0. -1.
        -11    1    4    4    0    0 -0.25012650154E+01  0.80323031579E+01 -0.14842117080E+02  0.17060558618E+02  0.51100000000E-03 0.  1.
        -12    1    4    4    0    0  0.15798214414E+02  0.51851082277E+00 -0.25530055346E+02  0.30027256920E+02  0.00000000000E+00 0.  1.
</event>
<event>
 8    1  0.1248739E-006  0.9118800E+02  0.7816164E-02  0.1184000E+00
        -11   -1    0    0    0    0  0.00000000000E+00  0.00000000000E+00  0.45593999997E+02  0.45594000000E+02  0.51100000000E-03 0.  1.
         11   -1    0    0    0    0 -0.00000000000E+00 -0.00000000000E+00 -0.45593999997E+02  0.45594000000E+02  0.51100000000E-03 0. -1.
         23    2    1    2    0    0 -0.71054273576E-14  0.88817841970E-15  0.00000000000E+00  0.91188000000E+02  0.91188000000E+02 0.  0.
    9900012    2    3    3    0    0 -0.32818252935E+02 -0.39000959782E+01  0.16233612197E+02  0.54367100509E+02  0.40000037231E+02 0.  0.
        -12    1    3    3    0    0  0.32818252935E+02  0.39000959782E+01 -0.16233612197E+02  0.36820899491E+02  0.00000000000E+00 0.  1.
         11    1    4    4    0    0 -0.32062778926E+02 -0.11432161516E+02  0.96360207788E+01  0.35377521198E+02  0.51100000000E-03 0. -1.
        -11    1    4    4    0    0  0.46073992932E+01 -0.24944760177E+01  0.54519187050E+01  0.75613462212E+01  0.51100000000E-03 0.  1.
         12    1    4    4    0    0 -0.53628733022E+01  0.10026541555E+02  0.11456727131E+01  0.11428233091E+02  0.00000000000E+00 0. -1.
</event>
<event>
 8    1  0.1248739E-006  0.9118800E+02  0.7816164E-02  0.1184000E+00
        -11   -1    0    0    0    0  0.00000000000E+00  0.00000000000E+00  0.45593999997E+02  0.45594000000E+02  0.51100000000E-03 0.  1.
         11   -1    0    0    0    0 -0.00000000000E+00 -0.00000000000E+00 -0.45593999997E+02  0.45594000000E+02  0.51100000000E-03 0. -1.
         23    2    1    2    0    0  0.00000000000E+00  0.17763568394E-14  0.00000000000E+00  0.91188000000E+02  0.91188000000E+02 0.  0.
    9900012    2    3    3    0    0 -0.27791314521E+02  0.10619250502E+02  0.21694548647E+02  0.54367094456E+02  0.40000023432E+02 0.  0.
         12    1    3    3    0    0  0.27791314521E+02 -0.10619250502E+02 -0.21694548647E+02  0.36820905544E+02  0.00000000000E+00 0. -1.
         11    1    4    4    0    0 -0.16378960479E+02 -0.15542458108E+01  0.10792187431E+02  0.19676314091E+02  0.51100000000E-03 0. -1.
        -11    1    4    4    0    0 -0.12311824061E+02 -0.67026240347E+01  0.52029364171E+01  0.14952482345E+02  0.51100000000E-03 0.  1.
        -12    1    4    4    0    0  0.89947001841E+00  0.18876120348E+02  0.56994247990E+01  0.19738298020E+02  0.00000000000E+00 0.  1.
</event>
<event>
 8    1  0.1248739E-006  0.9118800E+02  0.7816164E-02  0.1184000E+00
        -11   -1    0    0    0    0  0.00000000000E+00  0.00000000000E+00  0.45593999997E+02  0.45594000000E+02  0.51100000000E-03 0.  1.
         11   -1    0    0    0    0 -0.00000000000E+00 -0.00000000000E+00 -0.45593999997E+02  0.45594000000E+02  0.51100000000E-03 0. -1.
         23    2    1    2    0    0  0.00000000000E+00  0.00000000000E+00 -0.35527136788E-14  0.91188000000E+02  0.91188000000E+02 0.  0.
    9900012    2    3    3    0    0  0.10420428352E+02  0.17122282861E+02 -0.30887245835E+02  0.54367084032E+02  0.39999999669E+02 0.  0.
        -12    1    3    3    0    0 -0.10420428352E+02 -0.17122282861E+02  0.30887245835E+02  0.36820915968E+02  0.00000000000E+00 0.  1.
         11    1    4    4    0    0  0.11211012911E+02  0.82062232002E+01 -0.32176844985E+02  0.35048227675E+02  0.51100000000E-03 0. -1.
        -11    1    4    4    0    0 -0.32367790756E+01 -0.44570904344E+01  0.15465851222E+01  0.57213914152E+01  0.51100000000E-03 0.  1.
         12    1    4    4    0    0  0.24461945169E+01  0.13373150095E+02 -0.25698597267E+00  0.13597464943E+02  0.00000000000E+00 0. -1.
</event>
<event>
 8    1  0.1248739E-006  0.9118800E+02  0.7816164E-02  0.1184000E+00
        -11   -1    0    0    0    0  0.00000000000E+00  0.00000000000E+00  0.45593999997E+02  0.45594000000E+02  0.51100000000E-03 0.  1.
         11   -1    0    0    0    0 -0.00000000000E+00 -0.00000000000E+00 -0.45593999997E+02  0.45594000000E+02  0.51100000000E-03 0. -1.
         23    2    1    2    0    0 -0.44408920985E-15  0.00000000000E+00  0.00000000000E+00  0.91188000000E+02  0.91188000000E+02 0.  0.
    9900012    2    3    3    0    0  0.28148537630E+01 -0.35063183929E+02  0.10882530219E+02  0.54367085659E+02  0.40000003377E+02 0.  0.
        -12    1    3    3    0    0 -0.28148537630E+01  0.35063183929E+02 -0.10882530219E+02  0.36820914341E+02  0.00000000000E+00 0.  1.
         11    1    4    4    0    0  0.23342162486E+01 -0.20383619423E+02  0.48212997301E+01  0.21075707286E+02  0.51100000000E-03 0. -1.
        -11    1    4    4    0    0 -0.34367228467E+01 -0.20868704400E+02  0.11587286820E+02  0.24115951222E+02  0.51100000000E-03 0.  1.
         12    1    4    4    0    0  0.39173603612E+01  0.61891398937E+01 -0.55260563308E+01  0.91754271505E+01  0.00000000000E+00 0. -1.
</event>
<event>
 8    1  0.1248739E-006  0.9118800E+02  0.7816164E-02  0.1184000E+00
        -11   -1    0    0    0    0  0.00000000000E+00  0.00000000000E+00  0.45593999997E+02  0.45594000000E+02  0.51100000000E-03 0. -1.
         11   -1    0    0    0    0 -0.00000000000E+00 -0.00000000000E+00 -0.45593999997E+02  0.45594000000E+02  0.51100000000E-03 0.  1.
         23    2    1    2    0    0  0.24980018054E-14  0.35527136788E-14  0.00000000000E+00  0.91188000000E+02  0.91188000000E+02 0.  0.
    9900012    2    3    3    0    0 -0.32623492133E+00  0.27433054350E+02  0.24558118002E+02  0.54367081217E+02  0.39999993250E+02 0.  0.
        -12    1    3    3    0    0  0.32623492133E+00 -0.27433054350E+02 -0.24558118002E+02  0.36820918783E+02  0.00000000000E+00 0.  1.
         11    1    4    4    0    0  0.81571488938E+01 -0.65749272969E+01  0.56875364452E+01  0.11921275859E+02  0.51100000000E-03 0. -1.
        -11    1    4    4    0    0 -0.12167169993E+02  0.20767676139E+02  0.14116099087E+02  0.27903416485E+02  0.51100000000E-03 0.  1.
         12    1    4    4    0    0  0.36837861774E+01  0.13240305509E+02  0.47544824705E+01  0.14542388873E+02  0.00000000000E+00 0. -1.
</event>
<event>
 8    1  0.1248739E-006  0.9118800E+02  0.7816164E-02  0.1184000E+00
        -11   -1    0    0    0    0  0.00000000000E+00  0.00000000000E+00  0.45593999997E+02  0.45594000000E+02  0.51100000000E-03 0. -1.
         11   -1    0    0    0    0 -0.00000000000E+00 -0.00000000000E+00 -0.45593999997E+02  0.45594000000E+02  0.51100000000E-03 0.  1.
         23    2    1    2    0    0  0.88817841970E-15 -0.71054273576E-14 -0.35527136788E-14  0.91188000000E+02  0.91188000000E+02 0.  0.
    9900012    2    3    3    0    0 -0.72088181811E+01  0.34875281316E+02  0.93556449776E+01  0.54367076608E+02  0.39999982744E+02 0.  0.
        -12    1    3    3    0    0  0.72088181811E+01 -0.34875281316E+02 -0.93556449776E+01  0.36820923392E+02  0.00000000000E+00 0.  1.
         11    1    4    4    0    0 -0.51610950891E+01  0.36249308554E+02  0.20632614861E+02  0.42028015293E+02  0.51100000000E-03 0. -1.
        -11    1    4    4    0    0  0.89927840449E-01 -0.24484376605E+01 -0.41275839609E+01  0.47999878760E+01  0.51100000000E-03 0.  1.
         12    1    4    4    0    0 -0.21376509324E+01  0.10744104228E+01 -0.71493859223E+01  0.75390734398E+01  0.00000000000E+00 0. -1.
</event>
<event>
 8    1  0.1248739E-006  0.9118800E+02  0.7816164E-02  0.1184000E+00
        -11   -1    0    0    0    0  0.00000000000E+00  0.00000000000E+00  0.45593999997E+02  0.45594000000E+02  0.51100000000E-03 0. -1.
         11   -1    0    0    0    0 -0.00000000000E+00 -0.00000000000E+00 -0.45593999997E+02  0.45594000000E+02  0.51100000000E-03 0.  1.
         23    2    1    2    0    0 -0.17763568394E-14  0.00000000000E+00  0.00000000000E+00  0.91188000000E+02  0.91188000000E+02 0.  0.
    9900012    2    3    3    0    0  0.65171354996E+01 -0.25556326054E+02  0.25693980994E+02  0.54367088607E+02  0.40000010097E+02 0.  0.
        -12    1    3    3    0    0 -0.65171354996E+01  0.25556326054E+02 -0.25693980994E+02  0.36820911393E+02  0.00000000000E+00 0.  1.
         11    1    4    4    0    0  0.15751448199E+02 -0.15639543616E+02  0.87103014848E+01  0.23844764564E+02  0.51100000000E-03 0. -1.
        -11    1    4    4    0    0 -0.80975372652E+01  0.12732273356E+01 -0.20175532331E+01  0.84416668330E+01  0.51100000000E-03 0.  1.
         12    1    4    4    0    0 -0.11367754342E+01 -0.11190009774E+02  0.19001232742E+02  0.22080657210E+02  0.00000000000E+00 0. -1.
</event>
<event>
 8    1  0.1248739E-006  0.9118800E+02  0.7816164E-02  0.1184000E+00
        -11   -1    0    0    0    0  0.00000000000E+00  0.00000000000E+00  0.45593999997E+02  0.45594000000E+02  0.51100000000E-03 0. -1.
         11   -1    0    0    0    0 -0.00000000000E+00 -0.00000000000E+00 -0.45593999997E+02  0.45594000000E+02  0.51100000000E-03 0.  1.
         23    2    1    2    0    0 -0.88817841970E-15  0.00000000000E+00  0.00000000000E+00  0.91188000000E+02  0.91188000000E+02 0.  0.
    9900012    2    3    3    0    0 -0.54201647516E+01  0.28699185660E+02 -0.22422263517E+02  0.54367090931E+02  0.40000015395E+02 0.  0.
         12    1    3    3    0    0  0.54201647516E+01 -0.28699185660E+02  0.22422263517E+02  0.36820909069E+02  0.00000000000E+00 0. -1.
         11    1    4    4    0    0 -0.10663518889E+02  0.38132948550E+00  0.17260877433E+00  0.10671730944E+02  0.51100000000E-03 0. -1.
        -11    1    4    4    0    0  0.11673075592E+02  0.16764961856E+02 -0.22612490833E+02  0.30473749060E+02  0.51100000000E-03 0.  1.
        -12    1    4    4    0    0 -0.64297214538E+01  0.11552894318E+02  0.17618542046E-01  0.13221610927E+02  0.00000000000E+00 0.  1.
</event>
<event>
 8    1  0.1248739E-006  0.9118800E+02  0.7816164E-02  0.1184000E+00
        -11   -1    0    0    0    0  0.00000000000E+00  0.00000000000E+00  0.45593999997E+02  0.45594000000E+02  0.51100000000E-03 0. -1.
         11   -1    0    0    0    0 -0.00000000000E+00 -0.00000000000E+00 -0.45593999997E+02  0.45594000000E+02  0.51100000000E-03 0.  1.
         23    2    1    2    0    0  0.00000000000E+00 -0.22204460493E-15  0.35527136788E-14  0.91188000000E+02  0.91188000000E+02 0.  0.
    9900012    2    3    3    0    0 -0.26579092909E+02  0.61487558788E+00  0.25474436405E+02  0.54367174887E+02  0.40000206788E+02 0.  0.
        -12    1    3    3    0    0  0.26579092909E+02 -0.61487558788E+00 -0.25474436405E+02  0.36820825113E+02  0.00000000000E+00 0.  1.
         11    1    4    4    0    0 -0.13208950501E+02  0.53161203275E+01  0.15655488289E+02  0.21162037296E+02  0.51100000000E-03 0. -1.
        -11    1    4    4    0    0 -0.21024268455E+02 -0.84937956043E+01  0.44263049094E+01  0.23103173012E+02  0.51100000000E-03 0.  1.
        -12    1    4    4    0    0  0.76541260464E+01  0.37925508646E+01  0.53926432067E+01  0.10101964579E+02  0.00000000000E+00 0.  1.
</event>
<event>
 8    1  0.1248739E-006  0.9118800E+02  0.7816164E-02  0.1184000E+00
        -11   -1    0    0    0    0  0.00000000000E+00  0.00000000000E+00  0.45593999997E+02  0.45594000000E+02  0.51100000000E-03 0. -1.
         11   -1    0    0    0    0 -0.00000000000E+00 -0.00000000000E+00 -0.45593999997E+02  0.45594000000E+02  0.51100000000E-03 0.  1.
         23    2    1    2    0    0  0.35527136788E-14  0.00000000000E+00  0.35527136788E-14  0.91188000000E+02  0.91188000000E+02 0.  0.
    9900012    2    3    3    0    0 -0.26242486920E+02  0.17580342497E+02 -0.18922044096E+02  0.54367077757E+02  0.39999985362E+02 0.  0.
         12    1    3    3    0    0  0.26242486920E+02 -0.17580342497E+02  0.18922044096E+02  0.36820922243E+02  0.00000000000E+00 0. -1.
         11    1    4    4    0    0 -0.25088334593E+02  0.12080010856E+02 -0.28860121942E+01  0.27994289803E+02  0.51100000000E-03 0. -1.
        -11    1    4    4    0    0  0.56386216261E+01 -0.53242869961E+01 -0.36323474713E+01  0.85636460852E+01  0.51100000000E-03 0.  1.
        -12    1    4    4    0    0 -0.67927739530E+01  0.10824618637E+02 -0.12403684431E+02  0.17809141868E+02  0.00000000000E+00 0.  1.
</event>
<event>
 8    1  0.1248739E-006  0.9118800E+02  0.7816164E-02  0.1184000E+00
        -11   -1    0    0    0    0  0.00000000000E+00  0.00000000000E+00  0.45593999997E+02  0.45594000000E+02  0.51100000000E-03 0. -1.
         11   -1    0    0    0    0 -0.00000000000E+00 -0.00000000000E+00 -0.45593999997E+02  0.45594000000E+02  0.51100000000E-03 0.  1.
         23    2    1    2    0    0  0.00000000000E+00  0.00000000000E+00  0.00000000000E+00  0.91188000000E+02  0.91188000000E+02 0.  0.
    9900012    2    3    3    0    0  0.10710492708E+02 -0.19271352918E+02 -0.29490353558E+02  0.54367073202E+02  0.39999974978E+02 0.  0.
         12    1    3    3    0    0 -0.10710492708E+02  0.19271352918E+02  0.29490353558E+02  0.36820926798E+02  0.00000000000E+00 0. -1.
         11    1    4    4    0    0  0.65929562752E+00 -0.17333410978E+02 -0.10735976531E+02  0.20399583309E+02  0.51100000000E-03 0. -1.
        -11    1    4    4    0    0  0.19002911361E+01 -0.13751645053E+02 -0.79019984884E+01  0.15973741842E+02  0.51100000000E-03 0.  1.
        -12    1    4    4    0    0  0.81509059448E+01  0.11813703113E+02 -0.10852378538E+02  0.17993748050E+02  0.00000000000E+00 0.  1.
</event>
<event>
 8    1  0.1248739E-006  0.9118800E+02  0.7816164E-02  0.1184000E+00
        -11   -1    0    0    0    0  0.00000000000E+00  0.00000000000E+00  0.45593999997E+02  0.45594000000E+02  0.51100000000E-03 0.  1.
         11   -1    0    0    0    0 -0.00000000000E+00 -0.00000000000E+00 -0.45593999997E+02  0.45594000000E+02  0.51100000000E-03 0. -1.
         23    2    1    2    0    0 -0.44408920985E-15 -0.35527136788E-14  0.00000000000E+00  0.91188000000E+02  0.91188000000E+02 0.  0.
    9900012    2    3    3    0    0  0.10239488396E+01 -0.19975004504E+02 -0.30914889943E+02  0.54367086156E+02  0.40000004509E+02 0.  0.
        -12    1    3    3    0    0 -0.10239488396E+01  0.19975004504E+02  0.30914889943E+02  0.36820913844E+02  0.00000000000E+00 0.  1.
         11    1    4    4    0    0  0.82823418895E+01  0.24457917770E+01  0.24341655530E+01  0.89724158837E+01  0.51100000000E-03 0.  1.
        -11    1    4    4    0    0 -0.53650350150E-01 -0.22817863047E+02 -0.20579318470E+02  0.30727285942E+02  0.51100000000E-03 0. -1.
        -12    1    4    4    0    0 -0.72047426997E+01  0.39706676662E+00 -0.12769737025E+02  0.14667384330E+02  0.00000000000E+00 0.  1.
</event>
<event>
 8    1  0.1248739E-006  0.9118800E+02  0.7816164E-02  0.1184000E+00
        -11   -1    0    0    0    0  0.00000000000E+00  0.00000000000E+00  0.45593999997E+02  0.45594000000E+02  0.51100000000E-03 0. -1.
         11   -1    0    0    0    0 -0.00000000000E+00 -0.00000000000E+00 -0.45593999997E+02  0.45594000000E+02  0.51100000000E-03 0.  1.
         23    2    1    2    0    0  0.88817841970E-15  0.00000000000E+00  0.00000000000E+00  0.91188000000E+02  0.91188000000E+02 0.  0.
    9900012    2    3    3    0    0 -0.58034668874E+01 -0.16699262524E+02 -0.32299139534E+02  0.54367081877E+02  0.39999994756E+02 0.  0.
         12    1    3    3    0    0  0.58034668874E+01  0.16699262524E+02  0.32299139534E+02  0.36820918123E+02  0.00000000000E+00 0. -1.
         11    1    4    4    0    0 -0.74435235887E+01  0.80273369127E+01 -0.85087621614E+01  0.13865179952E+02  0.51100000000E-03 0. -1.
        -11    1    4    4    0    0 -0.37842677292E+01  0.17920629678E+01  0.39167470577E+00  0.42054228400E+01  0.51100000000E-03 0.  1.
        -12    1    4    4    0    0  0.54243244305E+01 -0.26518662404E+02 -0.24182052079E+02  0.36296479085E+02  0.00000000000E+00 0.  1.
</event>
<event>
 8    1  0.1248739E-006  0.9118800E+02  0.7816164E-02  0.1184000E+00
        -11   -1    0    0    0    0  0.00000000000E+00  0.00000000000E+00  0.45593999997E+02  0.45594000000E+02  0.51100000000E-03 0. -1.
         11   -1    0    0    0    0 -0.00000000000E+00 -0.00000000000E+00 -0.45593999997E+02  0.45594000000E+02  0.51100000000E-03 0.  1.
         23    2    1    2    0    0  0.00000000000E+00  0.00000000000E+00  0.00000000000E+00  0.91188000000E+02  0.91188000000E+02 0.  0.
    9900012    2    3    3    0    0 -0.71353904744E+01  0.21495139763E+02 -0.29031445515E+02  0.54367086658E+02  0.40000005654E+02 0.  0.
         12    1    3    3    0    0  0.71353904744E+01 -0.21495139763E+02  0.29031445515E+02  0.36820913342E+02  0.00000000000E+00 0. -1.
         11    1    4    4    0    0  0.67399499941E+01  0.91862681718E+00 -0.20442655564E+02  0.21544673771E+02  0.51100000000E-03 0. -1.
        -11    1    4    4    0    0 -0.14822843649E+01  0.16869993537E+02 -0.10227261142E+02  0.19783597236E+02  0.51100000000E-03 0.  1.
         12    1    4    4    0    0 -0.12393056104E+02  0.37065194091E+01  0.16384711912E+01  0.13038815650E+02  0.00000000000E+00 0. -1.
</event>
<event>
 8    1  0.1248739E-006  0.9118800E+02  0.7816164E-02  0.1184000E+00
        -11   -1    0    0    0    0  0.00000000000E+00  0.00000000000E+00  0.45593999997E+02  0.45594000000E+02  0.51100000000E-03 0. -1.
         11   -1    0    0    0    0 -0.00000000000E+00 -0.00000000000E+00 -0.45593999997E+02  0.45594000000E+02  0.51100000000E-03 0.  1.
         23    2    1    2    0    0  0.00000000000E+00 -0.17763568394E-14  0.00000000000E+00  0.91188000000E+02  0.91188000000E+02 0.  0.
    9900012    2    3    3    0    0  0.32173132292E+02  0.93090708141E+01  0.15297362172E+02  0.54367101990E+02  0.40000040606E+02 0.  0.
        -12    1    3    3    0    0 -0.32173132292E+02 -0.93090708141E+01 -0.15297362172E+02  0.36820898010E+02  0.00000000000E+00 0.  1.
         11    1    4    4    0    0 -0.25340771203E+01  0.24376260939E+00  0.47273891815E+00  0.25892951565E+01  0.51100000000E-03 0. -1.
        -11    1    4    4    0    0 -0.14906819284E+01  0.90373476167E+01  0.12511712188E+02  0.15506086763E+02  0.51100000000E-03 0.  1.
         12    1    4    4    0    0  0.36197891340E+02  0.27960587992E-01  0.23129110657E+01  0.36271720071E+02  0.00000000000E+00 0. -1.
</event>
<event>
 8    1  0.1248739E-006  0.9118800E+02  0.7816164E-02  0.1184000E+00
        -11   -1    0    0    0    0  0.00000000000E+00  0.00000000000E+00  0.45593999997E+02  0.45594000000E+02  0.51100000000E-03 0. -1.
         11   -1    0    0    0    0 -0.00000000000E+00 -0.00000000000E+00 -0.45593999997E+02  0.45594000000E+02  0.51100000000E-03 0.  1.
         23    2    1    2    0    0  0.00000000000E+00  0.00000000000E+00  0.00000000000E+00  0.91188000000E+02  0.91188000000E+02 0.  0.
    9900012    2    3    3    0    0 -0.14248285971E+02  0.29852637593E+02  0.16173664932E+02  0.54367067615E+02  0.39999962243E+02 0.  0.
        -12    1    3    3    0    0  0.14248285971E+02 -0.29852637593E+02 -0.16173664932E+02  0.36820932385E+02  0.00000000000E+00 0.  1.
         11    1    4    4    0    0 -0.72100393324E+01  0.12910145887E+02  0.95474902976E+01  0.17601451793E+02  0.51100000000E-03 0. -1.
        -11    1    4    4    0    0 -0.18686054880E+02  0.47765785945E+01  0.27433887050E+01  0.19481030052E+02  0.51100000000E-03 0.  1.
        -12    1    4    4    0    0  0.11647808241E+02  0.12165913111E+02  0.38827859290E+01  0.17284585770E+02  0.00000000000E+00 0.  1.
</event>
<event>
 8    1  0.1248739E-006  0.9118800E+02  0.7816164E-02  0.1184000E+00
        -11   -1    0    0    0    0  0.00000000000E+00  0.00000000000E+00  0.45593999997E+02  0.45594000000E+02  0.51100000000E-03 0.  1.
         11   -1    0    0    0    0 -0.00000000000E+00 -0.00000000000E+00 -0.45593999997E+02  0.45594000000E+02  0.51100000000E-03 0. -1.
         23    2    1    2    0    0 -0.17763568394E-14  0.00000000000E+00 -0.35527136788E-14  0.91188000000E+02  0.91188000000E+02 0.  0.
    9900012    2    3    3    0    0 -0.11612755497E+02  0.22657842473E+02 -0.26599755059E+02  0.54367070015E+02  0.39999967714E+02 0.  0.
        -12    1    3    3    0    0  0.11612755497E+02 -0.22657842473E+02  0.26599755059E+02  0.36820929985E+02  0.00000000000E+00 0.  1.
         11    1    4    4    0    0  0.44579908974E+01  0.62278537051E+01  0.57516187545E+01  0.95781503001E+01  0.51100000000E-03 0. -1.
        -11    1    4    4    0    0 -0.96986934792E+01  0.20460407793E+02 -0.19467078419E+02  0.29860677901E+02  0.51100000000E-03 0.  1.
         12    1    4    4    0    0 -0.63720529148E+01 -0.40304190253E+01 -0.12884295394E+02  0.14928241814E+02  0.00000000000E+00 0. -1.
</event>
<event>
 8    1  0.1248739E-006  0.9118800E+02  0.7816164E-02  0.1184000E+00
        -11   -1    0    0    0    0  0.00000000000E+00  0.00000000000E+00  0.45593999997E+02  0.45594000000E+02  0.51100000000E-03 0.  1.
         11   -1    0    0    0    0 -0.00000000000E+00 -0.00000000000E+00 -0.45593999997E+02  0.45594000000E+02  0.51100000000E-03 0. -1.
         23    2    1    2    0    0  0.00000000000E+00  0.00000000000E+00 -0.19984014443E-14  0.91188000000E+02  0.91188000000E+02 0.  0.
    9900012    2    3    3    0    0 -0.28840295386E+02 -0.22864728814E+02 -0.11053475823E+01  0.54367078569E+02  0.39999987215E+02 0.  0.
         12    1    3    3    0    0  0.28840295386E+02  0.22864728814E+02  0.11053475823E+01  0.36820921431E+02  0.00000000000E+00 0. -1.
         11    1    4    4    0    0 -0.53336389233E+01  0.16947652622E+01  0.79176169916E+01  0.96958028313E+01  0.51100000000E-03 0. -1.
        -11    1    4    4    0    0 -0.17221162744E+02 -0.65926960911E+00 -0.10026029512E+02  0.19938012707E+02  0.51100000000E-03 0.  1.
        -12    1    4    4    0    0 -0.62854937193E+01 -0.23900224467E+02  0.10030649386E+01  0.24733263031E+02  0.00000000000E+00 0.  1.
</event>
<event>
 8    1  0.1248739E-006  0.9118800E+02  0.7816164E-02  0.1184000E+00
        -11   -1    0    0    0    0  0.00000000000E+00  0.00000000000E+00  0.45593999997E+02  0.45594000000E+02  0.51100000000E-03 0. -1.
         11   -1    0    0    0    0 -0.00000000000E+00 -0.00000000000E+00 -0.45593999997E+02  0.45594000000E+02  0.51100000000E-03 0.  1.
         23    2    1    2    0    0  0.11102230246E-15  0.17763568394E-14  0.00000000000E+00  0.91188000000E+02  0.91188000000E+02 0.  0.
    9900012    2    3    3    0    0 -0.80385852893E+00  0.15520991307E+02 -0.33380119373E+02  0.54367085712E+02  0.40000003497E+02 0.  0.
         12    1    3    3    0    0  0.80385852893E+00 -0.15520991307E+02  0.33380119373E+02  0.36820914288E+02  0.00000000000E+00 0. -1.
         11    1    4    4    0    0  0.21229886276E+01  0.23655673359E+01 -0.18227913302E+02  0.18502967685E+02  0.51100000000E-03 0. -1.
        -11    1    4    4    0    0  0.11698951136E+02  0.11808023204E+02 -0.12821713891E+02  0.20992646737E+02  0.51100000000E-03 0.  1.
         12    1    4    4    0    0 -0.14625798292E+02  0.13474007664E+01 -0.23304921796E+01  0.14871471289E+02  0.00000000000E+00 0. -1.
</event>
<event>
 8    1  0.1248739E-006  0.9118800E+02  0.7816164E-02  0.1184000E+00
        -11   -1    0    0    0    0  0.00000000000E+00  0.00000000000E+00  0.45593999997E+02  0.45594000000E+02  0.51100000000E-03 0.  1.
         11   -1    0    0    0    0 -0.00000000000E+00 -0.00000000000E+00 -0.45593999997E+02  0.45594000000E+02  0.51100000000E-03 0. -1.
         23    2    1    2    0    0  0.00000000000E+00  0.00000000000E+00  0.00000000000E+00  0.91188000000E+02  0.91188000000E+02 0.  0.
    9900012    2    3    3    0    0  0.19210836096E+02  0.26958827059E+02  0.16122779569E+02  0.54367101030E+02  0.40000038418E+02 0.  0.
         12    1    3    3    0    0 -0.19210836096E+02 -0.26958827059E+02 -0.16122779569E+02  0.36820898970E+02  0.00000000000E+00 0. -1.
         11    1    4    4    0    0 -0.93934208455E+00  0.46530153465E+01  0.14216757985E+02  0.14988299544E+02  0.51100000000E-03 0. -1.
        -11    1    4    4    0    0  0.17793024333E+02  0.42599488650E+01  0.82981064112E+01  0.20089734929E+02  0.51100000000E-03 0.  1.
         12    1    4    4    0    0  0.23571538470E+01  0.18045862848E+02 -0.63920848270E+01  0.19289066556E+02  0.00000000000E+00 0. -1.
</event>
<event>
 8    1  0.1248739E-006  0.9118800E+02  0.7816164E-02  0.1184000E+00
        -11   -1    0    0    0    0  0.00000000000E+00  0.00000000000E+00  0.45593999997E+02  0.45594000000E+02  0.51100000000E-03 0.  1.
         11   -1    0    0    0    0 -0.00000000000E+00 -0.00000000000E+00 -0.45593999997E+02  0.45594000000E+02  0.51100000000E-03 0. -1.
         23    2    1    2    0    0  0.00000000000E+00  0.00000000000E+00 -0.35527136788E-14  0.91188000000E+02  0.91188000000E+02 0.  0.
    9900012    2    3    3    0    0 -0.18289259180E+02 -0.14352171541E+02  0.28553428812E+02  0.54367080318E+02  0.39999991201E+02 0.  0.
         12    1    3    3    0    0  0.18289259180E+02  0.14352171541E+02 -0.28553428812E+02  0.36820919682E+02  0.00000000000E+00 0. -1.
         11    1    4    4    0    0  0.26629259732E+01  0.14770588431E+01  0.53366820332E+01  0.61443513042E+01  0.51100000000E-03 0. -1.
        -11    1    4    4    0    0  0.68530879210E+01 -0.12325547370E+02  0.59573989253E+01  0.15309295681E+02  0.51100000000E-03 0.  1.
        -12    1    4    4    0    0 -0.27805273075E+02 -0.35036830141E+01  0.17259347853E+02  0.32913433333E+02  0.00000000000E+00 0.  1.
</event>
<event>
 8    1  0.1248739E-006  0.9118800E+02  0.7816164E-02  0.1184000E+00
        -11   -1    0    0    0    0  0.00000000000E+00  0.00000000000E+00  0.45593999997E+02  0.45594000000E+02  0.51100000000E-03 0. -1.
         11   -1    0    0    0    0 -0.00000000000E+00 -0.00000000000E+00 -0.45593999997E+02  0.45594000000E+02  0.51100000000E-03 0.  1.
         23    2    1    2    0    0  0.00000000000E+00  0.00000000000E+00  0.00000000000E+00  0.91188000000E+02  0.91188000000E+02 0.  0.
    9900012    2    3    3    0    0 -0.34397714936E+02  0.19922292841E+00  0.13135354708E+02  0.54367081681E+02  0.39999994307E+02 0.  0.
        -12    1    3    3    0    0  0.34397714936E+02 -0.19922292841E+00 -0.13135354708E+02  0.36820918319E+02  0.00000000000E+00 0.  1.
         11    1    4    4    0    0 -0.24767970911E+01  0.24774910633E+01  0.12017607350E+02  0.12517802222E+02  0.51100000000E-03 0. -1.
        -11    1    4    4    0    0 -0.12561741084E+02  0.98038769477E+01 -0.72986058634E+01  0.17526636588E+02  0.51100000000E-03 0.  1.
         12    1    4    4    0    0 -0.19359176761E+02 -0.12082145083E+02  0.84163532211E+01  0.24322642870E+02  0.00000000000E+00 0. -1.
</event>
<event>
 8    1  0.1248739E-006  0.9118800E+02  0.7816164E-02  0.1184000E+00
        -11   -1    0    0    0    0  0.00000000000E+00  0.00000000000E+00  0.45593999997E+02  0.45594000000E+02  0.51100000000E-03 0.  1.
         11   -1    0    0    0    0 -0.00000000000E+00 -0.00000000000E+00 -0.45593999997E+02  0.45594000000E+02  0.51100000000E-03 0. -1.
         23    2    1    2    0    0  0.35527136788E-14  0.00000000000E+00  0.00000000000E+00  0.91188000000E+02  0.91188000000E+02 0.  0.
    9900012    2    3    3    0    0 -0.17204462473E+02 -0.25510264767E+02  0.20224052194E+02  0.54367089846E+02  0.40000012921E+02 0.  0.
         12    1    3    3    0    0  0.17204462473E+02  0.25510264767E+02 -0.20224052194E+02  0.36820910154E+02  0.00000000000E+00 0. -1.
         11    1    4    4    0    0  0.84853681594E+00  0.61888649771E+01  0.13966498208E+01  0.64009917525E+01  0.51100000000E-03 0. -1.
        -11    1    4    4    0    0  0.32020978405E+01 -0.16379062393E+02  0.12924565137E+02  0.21108564605E+02  0.51100000000E-03 0.  1.
        -12    1    4    4    0    0 -0.21255097129E+02 -0.15320067350E+02  0.59028372364E+01  0.26857533488E+02  0.00000000000E+00 0.  1.
</event>
<event>
 8    1  0.1248739E-006  0.9118800E+02  0.7816164E-02  0.1184000E+00
        -11   -1    0    0    0    0  0.00000000000E+00  0.00000000000E+00  0.45593999997E+02  0.45594000000E+02  0.51100000000E-03 0. -1.
         11   -1    0    0    0    0 -0.00000000000E+00 -0.00000000000E+00 -0.45593999997E+02  0.45594000000E+02  0.51100000000E-03 0.  1.
         23    2    1    2    0    0  0.00000000000E+00  0.00000000000E+00  0.00000000000E+00  0.91188000000E+02  0.91188000000E+02 0.  0.
    9900012    2    3    3    0    0 -0.16901459526E+02  0.19571881338E+02 -0.26211871544E+02  0.54367080904E+02  0.39999992538E+02 0.  0.
         12    1    3    3    0    0  0.16901459526E+02 -0.19571881338E+02  0.26211871544E+02  0.36820919096E+02  0.00000000000E+00 0. -1.
         11    1    4    4    0    0 -0.78962818525E+01 -0.18341805419E+01 -0.17915476786E+02  0.19664175398E+02  0.51100000000E-03 0. -1.
        -11    1    4    4    0    0 -0.37665761686E+01 -0.43223029681E+01 -0.60745160753E+01  0.83527926343E+01  0.51100000000E-03 0.  1.
         12    1    4    4    0    0 -0.52386015045E+01  0.25728364849E+02 -0.22218786825E+01  0.26350112872E+02  0.00000000000E+00 0. -1.
</event>
<event>
 8    1  0.1248739E-006  0.9118800E+02  0.7816164E-02  0.1184000E+00
        -11   -1    0    0    0    0  0.00000000000E+00  0.00000000000E+00  0.45593999997E+02  0.45594000000E+02  0.51100000000E-03 0.  1.
         11   -1    0    0    0    0 -0.00000000000E+00 -0.00000000000E+00 -0.45593999997E+02  0.45594000000E+02  0.51100000000E-03 0. -1.
         23    2    1    2    0    0  0.00000000000E+00  0.35527136788E-14  0.00000000000E+00  0.91188000000E+02  0.91188000000E+02 0.  0.
    9900012    2    3    3    0    0  0.18474990222E+02  0.28984913401E+02 -0.13203374429E+02  0.54367087941E+02  0.40000008579E+02 0.  0.
        -12    1    3    3    0    0 -0.18474990222E+02 -0.28984913401E+02  0.13203374429E+02  0.36820912059E+02  0.00000000000E+00 0.  1.
         11    1    4    4    0    0  0.26839140506E+01  0.59165502270E+01 -0.12491272403E+02  0.14079802830E+02  0.51100000000E-03 0. -1.
        -11    1    4    4    0    0  0.98787080813E+01  0.29628989843E+02  0.11820218292E+01  0.31254809043E+02  0.51100000000E-03 0.  1.
         12    1    4    4    0    0  0.59123680903E+01 -0.65606266694E+01 -0.18941238555E+01  0.90324760676E+01  0.00000000000E+00 0. -1.
</event>
<event>
 8    1  0.1248739E-006  0.9118800E+02  0.7816164E-02  0.1184000E+00
        -11   -1    0    0    0    0  0.00000000000E+00  0.00000000000E+00  0.45593999997E+02  0.45594000000E+02  0.51100000000E-03 0. -1.
         11   -1    0    0    0    0 -0.00000000000E+00 -0.00000000000E+00 -0.45593999997E+02  0.45594000000E+02  0.51100000000E-03 0.  1.
         23    2    1    2    0    0  0.35527136788E-14  0.35527136788E-14  0.00000000000E+00  0.91188000000E+02  0.91188000000E+02 0.  0.
    9900012    2    3    3    0    0  0.19821608810E+02  0.23448242550E+02 -0.20323955367E+02  0.54367089959E+02  0.40000013179E+02 0.  0.
         12    1    3    3    0    0 -0.19821608810E+02 -0.23448242550E+02  0.20323955367E+02  0.36820910041E+02  0.00000000000E+00 0. -1.
         11    1    4    4    0    0  0.16588944322E+02 -0.55362436411E+01 -0.54475644353E+01  0.18317178438E+02  0.51100000000E-03 0. -1.
        -11    1    4    4    0    0 -0.36280415946E+01  0.21276789898E+02 -0.59066108674E+01  0.22377500450E+02  0.51100000000E-03 0.  1.
         12    1    4    4    0    0  0.68607060824E+01  0.77076962929E+01 -0.89697800647E+01  0.13672411071E+02  0.00000000000E+00 0. -1.
</event>
<event>
 8    1  0.1248739E-006  0.9118800E+02  0.7816164E-02  0.1184000E+00
        -11   -1    0    0    0    0  0.00000000000E+00  0.00000000000E+00  0.45593999997E+02  0.45594000000E+02  0.51100000000E-03 0.  1.
         11   -1    0    0    0    0 -0.00000000000E+00 -0.00000000000E+00 -0.45593999997E+02  0.45594000000E+02  0.51100000000E-03 0. -1.
         23    2    1    2    0    0  0.00000000000E+00 -0.17763568394E-14 -0.35527136788E-14  0.91188000000E+02  0.91188000000E+02 0.  0.
    9900012    2    3    3    0    0 -0.23327592976E+02  0.11667184471E+02  0.25989934390E+02  0.54367129870E+02  0.40000104165E+02 0.  0.
         12    1    3    3    0    0  0.23327592976E+02 -0.11667184471E+02 -0.25989934390E+02  0.36820870130E+02  0.00000000000E+00 0. -1.
         11    1    4    4    0    0 -0.12594879419E+02  0.92764162758E+01 -0.31380226788E+01  0.15953998656E+02  0.51100000000E-03 0. -1.
        -11    1    4    4    0    0 -0.71325943610E+01 -0.80681102671E+01  0.50049881460E+01  0.11875108934E+02  0.51100000000E-03 0.  1.
         12    1    4    4    0    0 -0.36001191958E+01  0.10458878462E+02  0.24122968923E+02  0.26538022280E+02  0.00000000000E+00 0. -1.
</event>
<event>
 8    1  0.1248739E-006  0.9118800E+02  0.7816164E-02  0.1184000E+00
        -11   -1    0    0    0    0  0.00000000000E+00  0.00000000000E+00  0.45593999997E+02  0.45594000000E+02  0.51100000000E-03 0. -1.
         11   -1    0    0    0    0 -0.00000000000E+00 -0.00000000000E+00 -0.45593999997E+02  0.45594000000E+02  0.51100000000E-03 0.  1.
         23    2    1    2    0    0  0.00000000000E+00  0.88817841970E-15  0.00000000000E+00  0.91188000000E+02  0.91188000000E+02 0.  0.
    9900012    2    3    3    0    0 -0.33671015777E+02  0.56730149313E+01  0.13778735362E+02  0.54367164186E+02  0.40000182394E+02 0.  0.
        -12    1    3    3    0    0  0.33671015777E+02 -0.56730149313E+01 -0.13778735362E+02  0.36820835814E+02  0.00000000000E+00 0.  1.
         11    1    4    4    0    0 -0.17160415561E+02 -0.90662333119E-01  0.36100366681E+01  0.17536260916E+02  0.51100000000E-03 0. -1.
        -11    1    4    4    0    0 -0.20121712440E+02  0.95921187539E+01 -0.31477361660E+01  0.22512225499E+02  0.51100000000E-03 0.  1.
         12    1    4    4    0    0  0.36111122238E+01 -0.38284414894E+01  0.13316434860E+02  0.14318677771E+02  0.00000000000E+00 0. -1.
</event>
<event>
 8    1  0.1248739E-006  0.9118800E+02  0.7816164E-02  0.1184000E+00
        -11   -1    0    0    0    0  0.00000000000E+00  0.00000000000E+00  0.45593999997E+02  0.45594000000E+02  0.51100000000E-03 0.  1.
         11   -1    0    0    0    0 -0.00000000000E+00 -0.00000000000E+00 -0.45593999997E+02  0.45594000000E+02  0.51100000000E-03 0. -1.
         23    2    1    2    0    0 -0.17763568394E-14 -0.88817841970E-15 -0.71054273576E-14  0.91188000000E+02  0.91188000000E+02 0.  0.
    9900012    2    3    3    0    0  0.34531262748E+01  0.47315400231E+01  0.36351876984E+02  0.54367210868E+02  0.40000288815E+02 0.  0.
         12    1    3    3    0    0 -0.34531262748E+01 -0.47315400231E+01 -0.36351876984E+02  0.36820789132E+02  0.00000000000E+00 0. -1.
         11    1    4    4    0    0 -0.66400106393E+01 -0.64700056223E+00 -0.18642169539E+01  0.69270236126E+01  0.51100000000E-03 0. -1.
        -11    1    4    4    0    0 -0.12124823618E+01 -0.80602288392E+01  0.42260748953E+01  0.91813458545E+01  0.51100000000E-03 0.  1.
        -12    1    4    4    0    0  0.11305619276E+02  0.13438769425E+02  0.33990019042E+02  0.38258841401E+02  0.00000000000E+00 0.  1.
</event>
<event>
 8    1  0.1248739E-006  0.9118800E+02  0.7816164E-02  0.1184000E+00
        -11   -1    0    0    0    0  0.00000000000E+00  0.00000000000E+00  0.45593999997E+02  0.45594000000E+02  0.51100000000E-03 0. -1.
         11   -1    0    0    0    0 -0.00000000000E+00 -0.00000000000E+00 -0.45593999997E+02  0.45594000000E+02  0.51100000000E-03 0.  1.
         23    2    1    2    0    0  0.17763568394E-14  0.00000000000E+00  0.00000000000E+00  0.91188000000E+02  0.91188000000E+02 0.  0.
    9900012    2    3    3    0    0  0.89746716750E+01  0.27925524596E+02  0.22257565982E+02  0.54367096981E+02  0.40000029189E+02 0.  0.
        -12    1    3    3    0    0 -0.89746716750E+01 -0.27925524596E+02 -0.22257565982E+02  0.36820903019E+02  0.00000000000E+00 0.  1.
         11    1    4    4    0    0 -0.99107947897E+01  0.98052325749E+01  0.65831642554E+01  0.15417668147E+02  0.51100000000E-03 0. -1.
        -11    1    4    4    0    0  0.48131467207E+01 -0.49585102529E+01 -0.12990613828E+01  0.70314128040E+01  0.51100000000E-03 0.  1.
        -12    1    4    4    0    0  0.14072319744E+02  0.23078802274E+02  0.16973463110E+02  0.31918016031E+02  0.00000000000E+00 0.  1.
</event>
<event>
 8    1  0.1248739E-006  0.9118800E+02  0.7816164E-02  0.1184000E+00
        -11   -1    0    0    0    0  0.00000000000E+00  0.00000000000E+00  0.45593999997E+02  0.45594000000E+02  0.51100000000E-03 0.  1.
         11   -1    0    0    0    0 -0.00000000000E+00 -0.00000000000E+00 -0.45593999997E+02  0.45594000000E+02  0.51100000000E-03 0. -1.
         23    2    1    2    0    0  0.00000000000E+00  0.17763568394E-14 -0.35527136788E-14  0.91188000000E+02  0.91188000000E+02 0.  0.
    9900012    2    3    3    0    0  0.12886947048E+02 -0.14227499232E+02  0.31421086264E+02  0.54367084740E+02  0.40000001281E+02 0.  0.
         12    1    3    3    0    0 -0.12886947048E+02  0.14227499232E+02 -0.31421086264E+02  0.36820915260E+02  0.00000000000E+00 0. -1.
         11    1    4    4    0    0  0.98098594920E+01 -0.16965294492E+01  0.13145043243E+02  0.16489503254E+02  0.51100000000E-03 0. -1.
        -11    1    4    4    0    0 -0.23745709702E+01 -0.12597923652E+02  0.25668675866E+02  0.28691935951E+02  0.51100000000E-03 0.  1.
         12    1    4    4    0    0  0.54516585258E+01  0.66953868928E-01 -0.73926328458E+01  0.91856455350E+01  0.00000000000E+00 0. -1.
</event>
<event>
 8    1  0.1248739E-006  0.9118800E+02  0.7816164E-02  0.1184000E+00
        -11   -1    0    0    0    0  0.00000000000E+00  0.00000000000E+00  0.45593999997E+02  0.45594000000E+02  0.51100000000E-03 0.  1.
         11   -1    0    0    0    0 -0.00000000000E+00 -0.00000000000E+00 -0.45593999997E+02  0.45594000000E+02  0.51100000000E-03 0. -1.
         23    2    1    2    0    0 -0.11102230246E-15  0.71054273576E-14  0.17763568394E-14  0.91188000000E+02  0.91188000000E+02 0.  0.
    9900012    2    3    3    0    0  0.62433624013E+00  0.36373192090E+02 -0.56904202360E+01  0.54367085006E+02  0.40000001888E+02 0.  0.
        -12    1    3    3    0    0 -0.62433624013E+00 -0.36373192090E+02  0.56904202360E+01  0.36820914994E+02  0.00000000000E+00 0.  1.
         11    1    4    4    0    0 -0.71110677071E+01 -0.34112515306E+01 -0.73893956006E+01  0.10807732812E+02  0.51100000000E-03 0. -1.
        -11    1    4    4    0    0 -0.26429394559E+00  0.12907867839E+02 -0.63465301610E+01  0.14386151285E+02  0.51100000000E-03 0.  1.
        -12    1    4    4    0    0  0.79996978929E+01  0.26876575781E+02  0.80455055256E+01  0.29173200909E+02  0.00000000000E+00 0.  1.
</event>
<event>
 8    1  0.1248739E-006  0.9118800E+02  0.7816164E-02  0.1184000E+00
        -11   -1    0    0    0    0  0.00000000000E+00  0.00000000000E+00  0.45593999997E+02  0.45594000000E+02  0.51100000000E-03 0.  1.
         11   -1    0    0    0    0 -0.00000000000E+00 -0.00000000000E+00 -0.45593999997E+02  0.45594000000E+02  0.51100000000E-03 0. -1.
         23    2    1    2    0    0  0.00000000000E+00  0.00000000000E+00  0.17763568394E-14  0.91188000000E+02  0.91188000000E+02 0.  0.
    9900012    2    3    3    0    0  0.31953135540E+02  0.13160134180E+02 -0.12711756922E+02  0.54367071623E+02  0.39999971379E+02 0.  0.
        -12    1    3    3    0    0 -0.31953135540E+02 -0.13160134180E+02  0.12711756922E+02  0.36820928377E+02  0.00000000000E+00 0.  1.
         11    1    4    4    0    0  0.13808984366E+02 -0.80208020880E+00 -0.85929069945E+00  0.13858923575E+02  0.51100000000E-03 0. -1.
        -11    1    4    4    0    0  0.21244499689E+02  0.19645244931E+02 -0.15757451433E+02  0.32947863229E+02  0.51100000000E-03 0.  1.
        -12    1    4    4    0    0 -0.31003485151E+01 -0.56830305418E+01  0.39049852102E+01  0.75602848191E+01  0.00000000000E+00 0.  1.
</event>
<event>
 8    1  0.1248739E-006  0.9118800E+02  0.7816164E-02  0.1184000E+00
        -11   -1    0    0    0    0  0.00000000000E+00  0.00000000000E+00  0.45593999997E+02  0.45594000000E+02  0.51100000000E-03 0.  1.
         11   -1    0    0    0    0 -0.00000000000E+00 -0.00000000000E+00 -0.45593999997E+02  0.45594000000E+02  0.51100000000E-03 0. -1.
         23    2    1    2    0    0 -0.55511151231E-15 -0.71054273576E-14 -0.17763568394E-14  0.91188000000E+02  0.91188000000E+02 0.  0.
    9900012    2    3    3    0    0  0.82154499311E+00  0.35860097123E+02 -0.83162512694E+01  0.54367061161E+02  0.39999947529E+02 0.  0.
         12    1    3    3    0    0 -0.82154499311E+00 -0.35860097123E+02  0.83162512694E+01  0.36820938839E+02  0.00000000000E+00 0. -1.
         11    1    4    4    0    0 -0.56484420724E+01  0.12460423139E+02  0.11064688569E+01  0.13725571618E+02  0.51100000000E-03 0. -1.
        -11    1    4    4    0    0 -0.61818813568E+01  0.13514343082E+02 -0.17258872666E+02  0.22775465133E+02  0.51100000000E-03 0.  1.
        -12    1    4    4    0    0  0.12651868422E+02  0.98853309013E+01  0.78361525396E+01  0.17866024410E+02  0.00000000000E+00 0.  1.
</event>
<event>
 8    1  0.1248739E-006  0.9118800E+02  0.7816164E-02  0.1184000E+00
        -11   -1    0    0    0    0  0.00000000000E+00  0.00000000000E+00  0.45593999997E+02  0.45594000000E+02  0.51100000000E-03 0. -1.
         11   -1    0    0    0    0 -0.00000000000E+00 -0.00000000000E+00 -0.45593999997E+02  0.45594000000E+02  0.51100000000E-03 0.  1.
         23    2    1    2    0    0  0.00000000000E+00  0.00000000000E+00  0.00000000000E+00  0.91188000000E+02  0.91188000000E+02 0.  0.
    9900012    2    3    3    0    0  0.25600380138E+01 -0.26875101797E+02 -0.25039058776E+02  0.54367090782E+02  0.40000015055E+02 0.  0.
         12    1    3    3    0    0 -0.25600380138E+01  0.26875101797E+02  0.25039058776E+02  0.36820909218E+02  0.00000000000E+00 0. -1.
         11    1    4    4    0    0  0.76608350077E+01 -0.86745363681E+01  0.60747978720E+01  0.13070544888E+02  0.51100000000E-03 0. -1.
        -11    1    4    4    0    0  0.74499392798E+01 -0.52801343917E+01 -0.99464078039E+01  0.13502312503E+02  0.51100000000E-03 0.  1.
        -12    1    4    4    0    0 -0.12550736274E+02 -0.12920431038E+02 -0.21167448844E+02  0.27794233391E+02  0.00000000000E+00 0.  1.
</event>
<event>
 8    1  0.1248739E-006  0.9118800E+02  0.7816164E-02  0.1184000E+00
        -11   -1    0    0    0    0  0.00000000000E+00  0.00000000000E+00  0.45593999997E+02  0.45594000000E+02  0.51100000000E-03 0.  1.
         11   -1    0    0    0    0 -0.00000000000E+00 -0.00000000000E+00 -0.45593999997E+02  0.45594000000E+02  0.51100000000E-03 0. -1.
         23    2    1    2    0    0  0.35527136788E-14  0.17763568394E-14 -0.17763568394E-14  0.91188000000E+02  0.91188000000E+02 0.  0.
    9900012    2    3    3    0    0  0.30550074701E+02  0.14805207101E+02 -0.14257578617E+02  0.54367085162E+02  0.40000002243E+02 0.  0.
        -12    1    3    3    0    0 -0.30550074701E+02 -0.14805207101E+02  0.14257578617E+02  0.36820914838E+02  0.00000000000E+00 0.  1.
         11    1    4    4    0    0  0.18868211780E+02  0.47880122241E+01 -0.74081383973E+01  0.20828225839E+02  0.51100000000E-03 0. -1.
        -11    1    4    4    0    0  0.95885282498E+01  0.11145474142E+02 -0.17367667095E+02  0.22755160479E+02  0.51100000000E-03 0.  1.
        -12    1    4    4    0    0  0.20933346707E+01 -0.11282792655E+01  0.10518226875E+02  0.10783698843E+02  0.00000000000E+00 0.  1.
</event>
<event>
 8    1  0.1248739E-006  0.9118800E+02  0.7816164E-02  0.1184000E+00
        -11   -1    0    0    0    0  0.00000000000E+00  0.00000000000E+00  0.45593999997E+02  0.45594000000E+02  0.51100000000E-03 0.  1.
         11   -1    0    0    0    0 -0.00000000000E+00 -0.00000000000E+00 -0.45593999997E+02  0.45594000000E+02  0.51100000000E-03 0. -1.
         23    2    1    2    0    0 -0.71054273576E-14 -0.88817841970E-15  0.00000000000E+00  0.91188000000E+02  0.91188000000E+02 0.  0.
    9900012    2    3    3    0    0 -0.35428683441E+02  0.33848430484E+01 -0.94409528069E+01  0.54367077106E+02  0.39999983879E+02 0.  0.
        -12    1    3    3    0    0  0.35428683441E+02 -0.33848430484E+01  0.94409528069E+01  0.36820922894E+02  0.00000000000E+00 0.  1.
         11    1    4    4    0    0  0.40650210186E+01  0.29928289592E+00 -0.85466441135E+01  0.94688485043E+01  0.51100000000E-03 0. -1.
        -11    1    4    4    0    0 -0.17802949852E+02  0.89306322251E+01 -0.78091861234E+01  0.21393564536E+02  0.51100000000E-03 0.  1.
        -12    1    4    4    0    0 -0.21690754608E+02 -0.58450720726E+01  0.69148774300E+01  0.23504664066E+02  0.00000000000E+00 0.  1.
</event>
<event>
 8    1  0.1248739E-006  0.9118800E+02  0.7816164E-02  0.1184000E+00
        -11   -1    0    0    0    0  0.00000000000E+00  0.00000000000E+00  0.45593999997E+02  0.45594000000E+02  0.51100000000E-03 0.  1.
         11   -1    0    0    0    0 -0.00000000000E+00 -0.00000000000E+00 -0.45593999997E+02  0.45594000000E+02  0.51100000000E-03 0. -1.
         23    2    1    2    0    0 -0.17763568394E-14  0.00000000000E+00 -0.88817841970E-15  0.91188000000E+02  0.91188000000E+02 0.  0.
    9900012    2    3    3    0    0  0.81494874614E+01  0.35439264615E+02  0.57813535902E+01  0.54367086491E+02  0.40000005273E+02 0.  0.
         12    1    3    3    0    0 -0.81494874614E+01 -0.35439264615E+02 -0.57813535902E+01  0.36820913509E+02  0.00000000000E+00 0. -1.
         11    1    4    4    0    0 -0.65852611505E+01  0.28687050297E+01 -0.22590421662E+01  0.75298343101E+01  0.51100000000E-03 0. -1.
        -11    1    4    4    0    0 -0.79663237449E+01  0.10504728642E+02 -0.26021289982E+01  0.13438106765E+02  0.51100000000E-03 0.  1.
        -12    1    4    4    0    0  0.22701072357E+02  0.22065830943E+02  0.10642524755E+02  0.33399145416E+02  0.00000000000E+00 0.  1.
</event>
<event>
 8    1  0.1248739E-006  0.9118800E+02  0.7816164E-02  0.1184000E+00
        -11   -1    0    0    0    0  0.00000000000E+00  0.00000000000E+00  0.45593999997E+02  0.45594000000E+02  0.51100000000E-03 0.  1.
         11   -1    0    0    0    0 -0.00000000000E+00 -0.00000000000E+00 -0.45593999997E+02  0.45594000000E+02  0.51100000000E-03 0. -1.
         23    2    1    2    0    0  0.00000000000E+00  0.22204460493E-15  0.35527136788E-14  0.91188000000E+02  0.91188000000E+02 0.  0.
    9900012    2    3    3    0    0  0.32769553131E+02 -0.17469064657E+01  0.16699818289E+02  0.54367092549E+02  0.40000019085E+02 0.  0.
         12    1    3    3    0    0 -0.32769553131E+02  0.17469064657E+01 -0.16699818289E+02  0.36820907451E+02  0.00000000000E+00 0. -1.
         11    1    4    4    0    0  0.20070453220E+02 -0.21063214372E+01 -0.51032787894E+01  0.20815934693E+02  0.51100000000E-03 0. -1.
        -11    1    4    4    0    0  0.16724768484E+02 -0.46489572316E+01  0.20727122890E+02  0.27035981723E+02  0.51100000000E-03 0.  1.
         12    1    4    4    0    0 -0.40256685738E+01  0.50083722031E+01  0.10759741890E+01  0.65151761332E+01  0.00000000000E+00 0. -1.
</event>
<event>
 8    1  0.1248739E-006  0.9118800E+02  0.7816164E-02  0.1184000E+00
        -11   -1    0    0    0    0  0.00000000000E+00  0.00000000000E+00  0.45593999997E+02  0.45594000000E+02  0.51100000000E-03 0.  1.
         11   -1    0    0    0    0 -0.00000000000E+00 -0.00000000000E+00 -0.45593999997E+02  0.45594000000E+02  0.51100000000E-03 0. -1.
         23    2    1    2    0    0  0.35527136788E-14  0.17763568394E-14 -0.35527136788E-14  0.91188000000E+02  0.91188000000E+02 0.  0.
    9900012    2    3    3    0    0  0.20303162245E+02  0.13532710251E+02 -0.27575800029E+02  0.54367117458E+02  0.40000075870E+02 0.  0.
        -12    1    3    3    0    0 -0.20303162245E+02 -0.13532710251E+02  0.27575800029E+02  0.36820882542E+02  0.00000000000E+00 0.  1.
         11    1    4    4    0    0 -0.52376639551E+01  0.11389727366E+02 -0.10996308937E+02  0.16675665615E+02  0.51100000000E-03 0. -1.
        -11    1    4    4    0    0  0.20436561976E+02 -0.47408813990E+01 -0.23900954901E+01  0.21114961012E+02  0.51100000000E-03 0.  1.
         12    1    4    4    0    0  0.51042642243E+01  0.68838642841E+01 -0.14189395602E+02  0.16576490832E+02  0.00000000000E+00 0. -1.
</event>
<event>
 8    1  0.1248739E-006  0.9118800E+02  0.7816164E-02  0.1184000E+00
        -11   -1    0    0    0    0  0.00000000000E+00  0.00000000000E+00  0.45593999997E+02  0.45594000000E+02  0.51100000000E-03 0.  1.
         11   -1    0    0    0    0 -0.00000000000E+00 -0.00000000000E+00 -0.45593999997E+02  0.45594000000E+02  0.51100000000E-03 0. -1.
         23    2    1    2    0    0  0.17763568394E-14  0.00000000000E+00 -0.35527136788E-14  0.91188000000E+02  0.91188000000E+02 0.  0.
    9900012    2    3    3    0    0 -0.11744942990E+02  0.24612081864E+02  0.24740275733E+02  0.54367088783E+02  0.40000010498E+02 0.  0.
         12    1    3    3    0    0  0.11744942990E+02 -0.24612081864E+02 -0.24740275733E+02  0.36820911217E+02  0.00000000000E+00 0. -1.
         11    1    4    4    0    0 -0.31024280967E+01  0.41586701221E+01 -0.35553623533E+01  0.62896898973E+01  0.51100000000E-03 0.  1.
        -11    1    4    4    0    0 -0.92101194519E+01  0.14274382685E+02 -0.20434892757E+01  0.17110235242E+02  0.51100000000E-03 0. -1.
        -12    1    4    4    0    0  0.56760455825E+00  0.61790290562E+01  0.30339127362E+02  0.30967163643E+02  0.00000000000E+00 0.  1.
</event>
<event>
 8    1  0.1248739E-006  0.9118800E+02  0.7816164E-02  0.1184000E+00
        -11   -1    0    0    0    0  0.00000000000E+00  0.00000000000E+00  0.45593999997E+02  0.45594000000E+02  0.51100000000E-03 0.  1.
         11   -1    0    0    0    0 -0.00000000000E+00 -0.00000000000E+00 -0.45593999997E+02  0.45594000000E+02  0.51100000000E-03 0. -1.
         23    2    1    2    0    0  0.88817841970E-15  0.00000000000E+00  0.00000000000E+00  0.91188000000E+02  0.91188000000E+02 0.  0.
    9900012    2    3    3    0    0  0.25909342770E+01 -0.16708070835E+02 -0.32709447387E+02  0.54367074973E+02  0.39999979016E+02 0.  0.
        -12    1    3    3    0    0 -0.25909342770E+01  0.16708070835E+02  0.32709447387E+02  0.36820925027E+02  0.00000000000E+00 0.  1.
         11    1    4    4    0    0 -0.11468753892E+01 -0.96978681365E+01 -0.32683127565E+02  0.34110860401E+02  0.51100000000E-03 0. -1.
        -11    1    4    4    0    0 -0.74579866016E+01 -0.96121893792E+00  0.31439652710E+00  0.75262441785E+01  0.51100000000E-03 0.  1.
         12    1    4    4    0    0  0.11195796268E+02 -0.60489837602E+01 -0.34071634919E+00  0.12729970394E+02  0.00000000000E+00 0. -1.
</event>
<event>
 8    1  0.1248739E-006  0.9118800E+02  0.7816164E-02  0.1184000E+00
        -11   -1    0    0    0    0  0.00000000000E+00  0.00000000000E+00  0.45593999997E+02  0.45594000000E+02  0.51100000000E-03 0. -1.
         11   -1    0    0    0    0 -0.00000000000E+00 -0.00000000000E+00 -0.45593999997E+02  0.45594000000E+02  0.51100000000E-03 0.  1.
         23    2    1    2    0    0 -0.17763568394E-14  0.00000000000E+00  0.00000000000E+00  0.91188000000E+02  0.91188000000E+02 0.  0.
    9900012    2    3    3    0    0  0.68621367648E+01  0.26341223983E+02 -0.24795776873E+02  0.54367088107E+02  0.40000008958E+02 0.  0.
         12    1    3    3    0    0 -0.68621367648E+01 -0.26341223983E+02  0.24795776873E+02  0.36820911893E+02  0.00000000000E+00 0. -1.
         11    1    4    4    0    0 -0.74161945808E+01  0.73992457245E+01  0.25096464684E+00  0.10479110786E+02  0.51100000000E-03 0. -1.
        -11    1    4    4    0    0  0.16263642588E+01  0.16778107360E+02 -0.26033528254E+02  0.31014424724E+02  0.51100000000E-03 0.  1.
         12    1    4    4    0    0  0.12651967087E+02  0.21638708980E+01  0.98678673495E+00  0.12873552598E+02  0.00000000000E+00 0. -1.
</event>
<event>
 8    1  0.1248739E-006  0.9118800E+02  0.7816164E-02  0.1184000E+00
        -11   -1    0    0    0    0  0.00000000000E+00  0.00000000000E+00  0.45593999997E+02  0.45594000000E+02  0.51100000000E-03 0.  1.
         11   -1    0    0    0    0 -0.00000000000E+00 -0.00000000000E+00 -0.45593999997E+02  0.45594000000E+02  0.51100000000E-03 0. -1.
         23    2    1    2    0    0 -0.13322676296E-14  0.00000000000E+00 -0.35527136788E-14  0.91188000000E+02  0.91188000000E+02 0.  0.
    9900012    2    3    3    0    0 -0.64673327371E+00 -0.26697855416E+02  0.25349267451E+02  0.54367094144E+02  0.40000022720E+02 0.  0.
         12    1    3    3    0    0  0.64673327371E+00  0.26697855416E+02 -0.25349267451E+02  0.36820905856E+02  0.00000000000E+00 0. -1.
         11    1    4    4    0    0  0.15874279404E+02 -0.99392778663E+01  0.28979925153E+01  0.18952054030E+02  0.51100000000E-03 0. -1.
        -11    1    4    4    0    0 -0.55625599482E+01 -0.49873601214E+00 -0.29032231679E-01  0.55849488734E+01  0.51100000000E-03 0.  1.
        -12    1    4    4    0    0 -0.10958452729E+02 -0.16259841538E+02  0.22480307167E+02  0.29830091240E+02  0.00000000000E+00 0.  1.
</event>
<event>
 8    1  0.1248739E-006  0.9118800E+02  0.7816164E-02  0.1184000E+00
        -11   -1    0    0    0    0  0.00000000000E+00  0.00000000000E+00  0.45593999997E+02  0.45594000000E+02  0.51100000000E-03 0. -1.
         11   -1    0    0    0    0 -0.00000000000E+00 -0.00000000000E+00 -0.45593999997E+02  0.45594000000E+02  0.51100000000E-03 0.  1.
         23    2    1    2    0    0  0.71054273576E-14 -0.44408920985E-15 -0.17763568394E-14  0.91188000000E+02  0.91188000000E+02 0.  0.
    9900012    2    3    3    0    0  0.34569043552E+02 -0.24922229284E+01 -0.12431815778E+02  0.54367082158E+02  0.39999995396E+02 0.  0.
         12    1    3    3    0    0 -0.34569043552E+02  0.24922229284E+01  0.12431815778E+02  0.36820917842E+02  0.00000000000E+00 0. -1.
         11    1    4    4    0    0  0.37783674728E+01  0.35740861149E+01  0.95107836059E+01  0.10839979584E+02  0.51100000000E-03 0. -1.
        -11    1    4    4    0    0  0.18271942157E+02 -0.31121619356E+01 -0.52330728409E+00  0.18542472135E+02  0.51100000000E-03 0.  1.
        -12    1    4    4    0    0  0.12518733922E+02 -0.29541471078E+01 -0.21419292100E+02  0.24984630439E+02  0.00000000000E+00 0.  1.
</event>
<event>
 8    1  0.1248739E-006  0.9118800E+02  0.7816164E-02  0.1184000E+00
        -11   -1    0    0    0    0  0.00000000000E+00  0.00000000000E+00  0.45593999997E+02  0.45594000000E+02  0.51100000000E-03 0.  1.
         11   -1    0    0    0    0 -0.00000000000E+00 -0.00000000000E+00 -0.45593999997E+02  0.45594000000E+02  0.51100000000E-03 0. -1.
         23    2    1    2    0    0  0.00000000000E+00  0.00000000000E+00  0.17763568394E-14  0.91188000000E+02  0.91188000000E+02 0.  0.
    9900012    2    3    3    0    0  0.22821429124E+02 -0.25466664118E+02  0.13653317669E+02  0.54367059057E+02  0.39999942732E+02 0.  0.
         12    1    3    3    0    0 -0.22821429124E+02  0.25466664118E+02 -0.13653317669E+02  0.36820940943E+02  0.00000000000E+00 0. -1.
         11    1    4    4    0    0 -0.12995236381E+01 -0.13333228158E+01  0.15222837310E+02  0.15336273584E+02  0.51100000000E-03 0. -1.
        -11    1    4    4    0    0  0.11658824214E+02 -0.19982602923E+02 -0.79039117238E+01  0.24447994241E+02  0.51100000000E-03 0.  1.
         12    1    4    4    0    0  0.12462128548E+02 -0.41507383797E+01  0.63343920835E+01  0.14582791232E+02  0.00000000000E+00 0. -1.
</event>
<event>
 8    1  0.1248739E-006  0.9118800E+02  0.7816164E-02  0.1184000E+00
        -11   -1    0    0    0    0  0.00000000000E+00  0.00000000000E+00  0.45593999997E+02  0.45594000000E+02  0.51100000000E-03 0.  1.
         11   -1    0    0    0    0 -0.00000000000E+00 -0.00000000000E+00 -0.45593999997E+02  0.45594000000E+02  0.51100000000E-03 0. -1.
         23    2    1    2    0    0  0.13322676296E-14  0.00000000000E+00  0.35527136788E-14  0.91188000000E+02  0.91188000000E+02 0.  0.
    9900012    2    3    3    0    0  0.38686527785E+01 -0.31200930599E+02 -0.19165529890E+02  0.54367053780E+02  0.39999930702E+02 0.  0.
        -12    1    3    3    0    0 -0.38686527785E+01  0.31200930599E+02  0.19165529890E+02  0.36820946220E+02  0.00000000000E+00 0.  1.
         11    1    4    4    0    0 -0.12265760262E+01 -0.11982485448E+02 -0.16735514405E+02  0.20619454137E+02  0.51100000000E-03 0. -1.
        -11    1    4    4    0    0  0.96817624640E+01 -0.15825045110E+01 -0.10006018891E+02  0.14012896177E+02  0.51100000000E-03 0.  1.
        -12    1    4    4    0    0 -0.45865336592E+01 -0.17635940640E+02  0.75760034064E+01  0.19734703466E+02  0.00000000000E+00 0.  1.
</event>
<event>
 8    1  0.1248739E-006  0.9118800E+02  0.7816164E-02  0.1184000E+00
        -11   -1    0    0    0    0  0.00000000000E+00  0.00000000000E+00  0.45593999997E+02  0.45594000000E+02  0.51100000000E-03 0.  1.
         11   -1    0    0    0    0 -0.00000000000E+00 -0.00000000000E+00 -0.45593999997E+02  0.45594000000E+02  0.51100000000E-03 0. -1.
         23    2    1    2    0    0 -0.17763568394E-14  0.00000000000E+00 -0.17763568394E-14  0.91188000000E+02  0.91188000000E+02 0.  0.
    9900012    2    3    3    0    0  0.10473019389E+02 -0.32242624325E+02 -0.14370264355E+02  0.54367143735E+02  0.40000135772E+02 0.  0.
         12    1    3    3    0    0 -0.10473019389E+02  0.32242624325E+02  0.14370264355E+02  0.36820856265E+02  0.00000000000E+00 0. -1.
         11    1    4    4    0    0 -0.85838880173E+01  0.25304218031E+00 -0.45955683237E+01  0.97399390305E+01  0.51100000000E-03 0. -1.
        -11    1    4    4    0    0  0.37877088097E+01 -0.26517675955E+02 -0.88207839709E+01  0.28201774877E+02  0.51100000000E-03 0.  1.
        -12    1    4    4    0    0  0.15269198597E+02 -0.59779905503E+01 -0.95391206022E+00  0.16425429827E+02  0.00000000000E+00 0.  1.
</event>
<event>
 8    1  0.1248739E-006  0.9118800E+02  0.7816164E-02  0.1184000E+00
        -11   -1    0    0    0    0  0.00000000000E+00  0.00000000000E+00  0.45593999997E+02  0.45594000000E+02  0.51100000000E-03 0.  1.
         11   -1    0    0    0    0 -0.00000000000E+00 -0.00000000000E+00 -0.45593999997E+02  0.45594000000E+02  0.51100000000E-03 0. -1.
         23    2    1    2    0    0  0.00000000000E+00  0.35527136788E-14  0.00000000000E+00  0.91188000000E+02  0.91188000000E+02 0.  0.
    9900012    2    3    3    0    0 -0.66067778208E+01 -0.30534744467E+02  0.19487409089E+02  0.54367092273E+02  0.40000018454E+02 0.  0.
         12    1    3    3    0    0  0.66067778208E+01  0.30534744467E+02 -0.19487409089E+02  0.36820907727E+02  0.00000000000E+00 0. -1.
         11    1    4    4    0    0 -0.92869690024E+01 -0.11229494367E+02  0.11756695971E+02  0.18723494263E+02  0.51100000000E-03 0. -1.
        -11    1    4    4    0    0  0.27961154279E+01 -0.11815924929E+02  0.18738832675E+02  0.22328864586E+02  0.51100000000E-03 0.  1.
         12    1    4    4    0    0 -0.11592424623E+00 -0.74893251714E+01 -0.11008119557E+02  0.13314733424E+02  0.00000000000E+00 0. -1.
</event>
<event>
 8    1  0.1248739E-006  0.9118800E+02  0.7816164E-02  0.1184000E+00
        -11   -1    0    0    0    0  0.00000000000E+00  0.00000000000E+00  0.45593999997E+02  0.45594000000E+02  0.51100000000E-03 0. -1.
         11   -1    0    0    0    0 -0.00000000000E+00 -0.00000000000E+00 -0.45593999997E+02  0.45594000000E+02  0.51100000000E-03 0.  1.
         23    2    1    2    0    0  0.35527136788E-14 -0.35527136788E-14  0.00000000000E+00  0.91188000000E+02  0.91188000000E+02 0.  0.
    9900012    2    3    3    0    0  0.20441896740E+02 -0.26661952384E+02 -0.15068124984E+02  0.54367092383E+02  0.40000018705E+02 0.  0.
         12    1    3    3    0    0 -0.20441896740E+02  0.26661952384E+02  0.15068124984E+02  0.36820907617E+02  0.00000000000E+00 0. -1.
         11    1    4    4    0    0 -0.84566770626E+01  0.14278855415E-01 -0.21416063007E+01  0.87236499606E+01  0.51100000000E-03 0. -1.
        -11    1    4    4    0    0  0.62426818069E+01 -0.18726622912E+02 -0.65989514153E+01  0.20813544674E+02  0.51100000000E-03 0.  1.
        -12    1    4    4    0    0  0.22655891995E+02 -0.79496083268E+01 -0.63275672678E+01  0.24829897748E+02  0.00000000000E+00 0.  1.
</event>
<event>
 8    1  0.1248739E-006  0.9118800E+02  0.7816164E-02  0.1184000E+00
        -11   -1    0    0    0    0  0.00000000000E+00  0.00000000000E+00  0.45593999997E+02  0.45594000000E+02  0.51100000000E-03 0.  1.
         11   -1    0    0    0    0 -0.00000000000E+00 -0.00000000000E+00 -0.45593999997E+02  0.45594000000E+02  0.51100000000E-03 0. -1.
         23    2    1    2    0    0 -0.26645352591E-14 -0.35527136788E-14  0.00000000000E+00  0.91188000000E+02  0.91188000000E+02 0.  0.
    9900012    2    3    3    0    0 -0.32703152661E+01 -0.18501322804E+02  0.31666779839E+02  0.54367097611E+02  0.40000030623E+02 0.  0.
         12    1    3    3    0    0  0.32703152661E+01  0.18501322804E+02 -0.31666779839E+02  0.36820902389E+02  0.00000000000E+00 0. -1.
         11    1    4    4    0    0  0.10785170395E+02  0.81717004865E+00  0.21925810714E+02  0.24448493677E+02  0.51100000000E-03 0. -1.
        -11    1    4    4    0    0 -0.59644085951E+01 -0.10470364679E+02  0.12764177460E+02  0.17553544739E+02  0.51100000000E-03 0.  1.
         12    1    4    4    0    0 -0.80910770655E+01 -0.88481281732E+01 -0.30232083358E+01  0.12365059195E+02  0.00000000000E+00 0. -1.
</event>
<event>
 8    1  0.1248739E-006  0.9118800E+02  0.7816164E-02  0.1184000E+00
        -11   -1    0    0    0    0  0.00000000000E+00  0.00000000000E+00  0.45593999997E+02  0.45594000000E+02  0.51100000000E-03 0. -1.
         11   -1    0    0    0    0 -0.00000000000E+00 -0.00000000000E+00 -0.45593999997E+02  0.45594000000E+02  0.51100000000E-03 0.  1.
         23    2    1    2    0    0 -0.17763568394E-14 -0.88817841970E-15 -0.71054273576E-14  0.91188000000E+02  0.91188000000E+02 0.  0.
    9900012    2    3    3    0    0 -0.61948846217E+01  0.46420140663E+01  0.35997973162E+02  0.54367096129E+02  0.40000027245E+02 0.  0.
        -12    1    3    3    0    0  0.61948846217E+01 -0.46420140663E+01 -0.35997973162E+02  0.36820903871E+02  0.00000000000E+00 0.  1.
         11    1    4    4    0    0 -0.17841473907E+02  0.52307686037E+01  0.29088469300E+02  0.34522719734E+02  0.51100000000E-03 0. -1.
        -11    1    4    4    0    0  0.93814843891E+01  0.52532446106E+01  0.81060520612E+01  0.13465396710E+02  0.51100000000E-03 0.  1.
        -12    1    4    4    0    0  0.22651048960E+01 -0.58419991480E+01 -0.11965481983E+01  0.63789796853E+01  0.00000000000E+00 0.  1.
</event>
<event>
 8    1  0.1248739E-006  0.9118800E+02  0.7816164E-02  0.1184000E+00
        -11   -1    0    0    0    0  0.00000000000E+00  0.00000000000E+00  0.45593999997E+02  0.45594000000E+02  0.51100000000E-03 0. -1.
         11   -1    0    0    0    0 -0.00000000000E+00 -0.00000000000E+00 -0.45593999997E+02  0.45594000000E+02  0.51100000000E-03 0.  1.
         23    2    1    2    0    0 -0.17763568394E-14  0.71054273576E-14  0.13322676296E-14  0.91188000000E+02  0.91188000000E+02 0.  0.
    9900012    2    3    3    0    0 -0.44461519591E+01  0.36513669477E+02  0.16616225210E+01  0.54367118488E+02  0.40000078216E+02 0.  0.
         12    1    3    3    0    0  0.44461519591E+01 -0.36513669477E+02 -0.16616225210E+01  0.36820881512E+02  0.00000000000E+00 0. -1.
         11    1    4    4    0    0 -0.11418836652E+02  0.25423960104E+02  0.13966681217E+02  0.31174280462E+02  0.51100000000E-03 0. -1.
        -11    1    4    4    0    0  0.78877132574E+01  0.13103749682E+02 -0.58600996197E+01  0.16378798612E+02  0.51100000000E-03 0.  1.
         12    1    4    4    0    0 -0.91502856416E+00 -0.20140403081E+01 -0.64449590764E+01  0.68140394138E+01  0.00000000000E+00 0. -1.
</event>
<event>
 8    1  0.1248739E-006  0.9118800E+02  0.7816164E-02  0.1184000E+00
        -11   -1    0    0    0    0  0.00000000000E+00  0.00000000000E+00  0.45593999997E+02  0.45594000000E+02  0.51100000000E-03 0. -1.
         11   -1    0    0    0    0 -0.00000000000E+00 -0.00000000000E+00 -0.45593999997E+02  0.45594000000E+02  0.51100000000E-03 0.  1.
         23    2    1    2    0    0  0.00000000000E+00  0.35527136788E-14  0.00000000000E+00  0.91188000000E+02  0.91188000000E+02 0.  0.
    9900012    2    3    3    0    0 -0.10251034124E+02  0.15271477987E+02 -0.31897923065E+02  0.54367092402E+02  0.40000018749E+02 0.  0.
         12    1    3    3    0    0  0.10251034124E+02 -0.15271477987E+02  0.31897923065E+02  0.36820907598E+02  0.00000000000E+00 0. -1.
         11    1    4    4    0    0 -0.13879703927E+02 -0.28337045827E+01  0.14588726679E+01  0.14240940014E+02  0.51100000000E-03 0. -1.
        -11    1    4    4    0    0 -0.25975782216E+01  0.96016021685E+00 -0.10629286114E+02  0.10984126903E+02  0.51100000000E-03 0.  1.
         12    1    4    4    0    0  0.62262480247E+01  0.17145022352E+02 -0.22727509619E+02  0.29142025485E+02  0.00000000000E+00 0. -1.
</event>
<event>
 8    1  0.1248739E-006  0.9118800E+02  0.7816164E-02  0.1184000E+00
        -11   -1    0    0    0    0  0.00000000000E+00  0.00000000000E+00  0.45593999997E+02  0.45594000000E+02  0.51100000000E-03 0. -1.
         11   -1    0    0    0    0 -0.00000000000E+00 -0.00000000000E+00 -0.45593999997E+02  0.45594000000E+02  0.51100000000E-03 0.  1.
         23    2    1    2    0    0 -0.35527136788E-14 -0.17763568394E-14  0.00000000000E+00  0.91188000000E+02  0.91188000000E+02 0.  0.
    9900012    2    3    3    0    0  0.23271611493E+02 -0.14923694794E+02 -0.24320704375E+02  0.54367065342E+02  0.39999957060E+02 0.  0.
         12    1    3    3    0    0 -0.23271611493E+02  0.14923694794E+02  0.24320704375E+02  0.36820934658E+02  0.00000000000E+00 0. -1.
         11    1    4    4    0    0 -0.38485516631E+01 -0.61760081266E+01  0.55884711735E+01  0.91752622089E+01  0.51100000000E-03 0. -1.
        -11    1    4    4    0    0  0.28604305445E+02 -0.11397395144E+02 -0.26484625830E+02  0.40614557879E+02  0.51100000000E-03 0.  1.
         12    1    4    4    0    0 -0.14841422885E+01  0.26497084770E+01 -0.34245497182E+01  0.45772452543E+01  0.00000000000E+00 0. -1.
</event>
<event>
 8    1  0.1248739E-006  0.9118800E+02  0.7816164E-02  0.1184000E+00
        -11   -1    0    0    0    0  0.00000000000E+00  0.00000000000E+00  0.45593999997E+02  0.45594000000E+02  0.51100000000E-03 0.  1.
         11   -1    0    0    0    0 -0.00000000000E+00 -0.00000000000E+00 -0.45593999997E+02  0.45594000000E+02  0.51100000000E-03 0. -1.
         23    2    1    2    0    0  0.00000000000E+00  0.00000000000E+00  0.00000000000E+00  0.91188000000E+02  0.91188000000E+02 0.  0.
    9900012    2    3    3    0    0 -0.92519805510E+01  0.30410046852E+02 -0.18585209781E+02  0.54367080454E+02  0.39999991510E+02 0.  0.
        -12    1    3    3    0    0  0.92519805510E+01 -0.30410046852E+02  0.18585209781E+02  0.36820919546E+02  0.00000000000E+00 0.  1.
         11    1    4    4    0    0  0.57152387203E+01  0.22995632406E+02 -0.16089892551E+02  0.28641712692E+02  0.51100000000E-03 0. -1.
        -11    1    4    4    0    0 -0.13369479768E+02  0.28659085597E+01 -0.99060640333E+01  0.16884505501E+02  0.51100000000E-03 0.  1.
        -12    1    4    4    0    0 -0.15977395036E+01  0.45485058866E+01  0.74107468034E+01  0.88408622603E+01  0.00000000000E+00 0.  1.
</event>
<event>
 8    1  0.1248739E-006  0.9118800E+02  0.7816164E-02  0.1184000E+00
        -11   -1    0    0    0    0  0.00000000000E+00  0.00000000000E+00  0.45593999997E+02  0.45594000000E+02  0.51100000000E-03 0. -1.
         11   -1    0    0    0    0 -0.00000000000E+00 -0.00000000000E+00 -0.45593999997E+02  0.45594000000E+02  0.51100000000E-03 0.  1.
         23    2    1    2    0    0  0.17763568394E-14  0.35527136788E-14  0.35527136788E-14  0.91188000000E+02  0.91188000000E+02 0.  0.
    9900012    2    3    3    0    0 -0.15784523584E+02  0.23692097577E+02  0.23351930492E+02  0.54367091129E+02  0.40000015847E+02 0.  0.
        -12    1    3    3    0    0  0.15784523584E+02 -0.23692097577E+02 -0.23351930492E+02  0.36820908871E+02  0.00000000000E+00 0.  1.
         11    1    4    4    0    0 -0.33057902793E+01  0.49207280104E+01 -0.10839275452E+01  0.60263349315E+01  0.51100000000E-03 0. -1.
        -11    1    4    4    0    0 -0.41612357087E+01  0.22485648099E+02  0.65704389675E+00  0.22876887026E+02  0.51100000000E-03 0.  1.
         12    1    4    4    0    0 -0.83174975960E+01 -0.37142785322E+01  0.23778814140E+02  0.25463869172E+02  0.00000000000E+00 0. -1.
</event>
<event>
 8    1  0.1248739E-006  0.9118800E+02  0.7816164E-02  0.1184000E+00
        -11   -1    0    0    0    0  0.00000000000E+00  0.00000000000E+00  0.45593999997E+02  0.45594000000E+02  0.51100000000E-03 0.  1.
         11   -1    0    0    0    0 -0.00000000000E+00 -0.00000000000E+00 -0.45593999997E+02  0.45594000000E+02  0.51100000000E-03 0. -1.
         23    2    1    2    0    0  0.00000000000E+00  0.00000000000E+00  0.00000000000E+00  0.91188000000E+02  0.91188000000E+02 0.  0.
    9900012    2    3    3    0    0  0.96979145221E+01 -0.11359112120E+02 -0.33655639323E+02  0.54367068012E+02  0.39999963147E+02 0.  0.
        -12    1    3    3    0    0 -0.96979145221E+01  0.11359112120E+02  0.33655639323E+02  0.36820931988E+02  0.00000000000E+00 0.  1.
         11    1    4    4    0    0  0.19422481800E+02 -0.47140160752E+01 -0.15175429638E+02  0.25094788538E+02  0.51100000000E-03 0. -1.
        -11    1    4    4    0    0 -0.39787808085E+01 -0.13085081785E+02 -0.13905571700E+02  0.19504229967E+02  0.51100000000E-03 0.  1.
        -12    1    4    4    0    0 -0.57457864689E+01  0.64399857401E+01 -0.45746379848E+01  0.97680495070E+01  0.00000000000E+00 0.  1.
</event>
<event>
 8    1  0.1248739E-006  0.9118800E+02  0.7816164E-02  0.1184000E+00
        -11   -1    0    0    0    0  0.00000000000E+00  0.00000000000E+00  0.45593999997E+02  0.45594000000E+02  0.51100000000E-03 0.  1.
         11   -1    0    0    0    0 -0.00000000000E+00 -0.00000000000E+00 -0.45593999997E+02  0.45594000000E+02  0.51100000000E-03 0. -1.
         23    2    1    2    0    0  0.35527136788E-14  0.35527136788E-14 -0.35527136788E-14  0.91188000000E+02  0.91188000000E+02 0.  0.
    9900012    2    3    3    0    0 -0.24965189716E+02 -0.19219728565E+02 -0.19055730003E+02  0.54367088691E+02  0.40000010289E+02 0.  0.
         12    1    3    3    0    0  0.24965189716E+02  0.19219728565E+02  0.19055730003E+02  0.36820911309E+02  0.00000000000E+00 0. -1.
         11    1    4    4    0    0 -0.10095305587E+02  0.53040249412E+01  0.47957517477E+01  0.12371221062E+02  0.51100000000E-03 0.  1.
        -11    1    4    4    0    0  0.33661582668E+01 -0.85218123859E+01 -0.11702169442E+02  0.14862472127E+02  0.51100000000E-03 0. -1.
         12    1    4    4    0    0 -0.18236042396E+02 -0.16001941120E+02 -0.12149312308E+02  0.27133395502E+02  0.00000000000E+00 0. -1.
</event>
<event>
 8    1  0.1248739E-006  0.9118800E+02  0.7816164E-02  0.1184000E+00
        -11   -1    0    0    0    0  0.00000000000E+00  0.00000000000E+00  0.45593999997E+02  0.45594000000E+02  0.51100000000E-03 0.  1.
         11   -1    0    0    0    0 -0.00000000000E+00 -0.00000000000E+00 -0.45593999997E+02  0.45594000000E+02  0.51100000000E-03 0. -1.
         23    2    1    2    0    0  0.00000000000E+00 -0.17763568394E-14  0.00000000000E+00  0.91188000000E+02  0.91188000000E+02 0.  0.
    9900012    2    3    3    0    0 -0.48541708711E+01  0.11240678311E+02 -0.34725514725E+02  0.54367120099E+02  0.40000081890E+02 0.  0.
        -12    1    3    3    0    0  0.48541708711E+01 -0.11240678311E+02  0.34725514725E+02  0.36820879901E+02  0.00000000000E+00 0.  1.
         11    1    4    4    0    0  0.20350876704E+01 -0.51268749055E+01  0.69991716366E+00  0.55602439173E+01  0.51100000000E-03 0. -1.
        -11    1    4    4    0    0 -0.57565662347E+01  0.10243817726E+02  0.10558852979E+01  0.11797828209E+02  0.51100000000E-03 0.  1.
         12    1    4    4    0    0 -0.11326923067E+01  0.61237354904E+01 -0.36481317187E+02  0.37009047973E+02  0.00000000000E+00 0. -1.
</event>
<event>
 8    1  0.1248739E-006  0.9118800E+02  0.7816164E-02  0.1184000E+00
        -11   -1    0    0    0    0  0.00000000000E+00  0.00000000000E+00  0.45593999997E+02  0.45594000000E+02  0.51100000000E-03 0. -1.
         11   -1    0    0    0    0 -0.00000000000E+00 -0.00000000000E+00 -0.45593999997E+02  0.45594000000E+02  0.51100000000E-03 0.  1.
         23    2    1    2    0    0 -0.17763568394E-14  0.00000000000E+00  0.00000000000E+00  0.91188000000E+02  0.91188000000E+02 0.  0.
    9900012    2    3    3    0    0 -0.12834068023E+02 -0.11853360041E+02 -0.32412190898E+02  0.54367278048E+02  0.40000441964E+02 0.  0.
         12    1    3    3    0    0  0.12834068023E+02  0.11853360041E+02  0.32412190898E+02  0.36820721952E+02  0.00000000000E+00 0. -1.
         11    1    4    4    0    0 -0.71533235545E+01  0.12122939852E+01  0.57879281504E+01  0.92811533290E+01  0.51100000000E-03 0. -1.
        -11    1    4    4    0    0 -0.10274759777E+02 -0.14656294351E+02 -0.23102365625E+02  0.29224937131E+02  0.51100000000E-03 0.  1.
         12    1    4    4    0    0  0.45940153085E+01  0.15906403249E+01 -0.15097753423E+02  0.15861187589E+02  0.00000000000E+00 0. -1.
</event>
<event>
 8    1  0.1248739E-006  0.9118800E+02  0.7816164E-02  0.1184000E+00
        -11   -1    0    0    0    0  0.00000000000E+00  0.00000000000E+00  0.45593999997E+02  0.45594000000E+02  0.51100000000E-03 0. -1.
         11   -1    0    0    0    0 -0.00000000000E+00 -0.00000000000E+00 -0.45593999997E+02  0.45594000000E+02  0.51100000000E-03 0.  1.
         23    2    1    2    0    0 -0.88817841970E-15 -0.53290705182E-14  0.71054273576E-14  0.91188000000E+02  0.91188000000E+02 0.  0.
    9900012    2    3    3    0    0 -0.65852741093E+01 -0.15424480496E+02 -0.32779550585E+02  0.54367090585E+02  0.40000014606E+02 0.  0.
         12    1    3    3    0    0  0.65852741093E+01  0.15424480496E+02  0.32779550585E+02  0.36820909415E+02  0.00000000000E+00 0. -1.
         11    1    4    4    0    0 -0.15087805762E+01  0.91760776618E+01 -0.24379934875E+00  0.93024866818E+01  0.51100000000E-03 0. -1.
        -11    1    4    4    0    0  0.53014298544E+01 -0.71429408984E+01 -0.18036313140E+02  0.20110578190E+02  0.51100000000E-03 0.  1.
         12    1    4    4    0    0 -0.10377923387E+02 -0.17457617259E+02 -0.14499438096E+02  0.24954025713E+02  0.00000000000E+00 0. -1.
</event>
<event>
 8    1  0.1248739E-006  0.9118800E+02  0.7816164E-02  0.1184000E+00
        -11   -1    0    0    0    0  0.00000000000E+00  0.00000000000E+00  0.45593999997E+02  0.45594000000E+02  0.51100000000E-03 0.  1.
         11   -1    0    0    0    0 -0.00000000000E+00 -0.00000000000E+00 -0.45593999997E+02  0.45594000000E+02  0.51100000000E-03 0. -1.
         23    2    1    2    0    0  0.00000000000E+00  0.00000000000E+00  0.11934897515E-14  0.91188000000E+02  0.91188000000E+02 0.  0.
    9900012    2    3    3    0    0 -0.32676721942E+02 -0.16970914354E+02  0.21645371003E-01  0.54367074436E+02  0.39999977792E+02 0.  0.
        -12    1    3    3    0    0  0.32676721942E+02  0.16970914354E+02 -0.21645371003E-01  0.36820925564E+02  0.00000000000E+00 0.  1.
         11    1    4    4    0    0 -0.13098873682E+02 -0.58535617935E+00 -0.14487405602E+01  0.13191739198E+02  0.51100000000E-03 0. -1.
        -11    1    4    4    0    0 -0.11631617970E+02  0.59881168614E+01  0.94376200772E+01  0.16131359308E+02  0.51100000000E-03 0.  1.
         12    1    4    4    0    0 -0.79462302900E+01 -0.22373675036E+02 -0.79672341460E+01  0.25043975930E+02  0.00000000000E+00 0. -1.
</event>
<event>
 8    1  0.1248739E-006  0.9118800E+02  0.7816164E-02  0.1184000E+00
        -11   -1    0    0    0    0  0.00000000000E+00  0.00000000000E+00  0.45593999997E+02  0.45594000000E+02  0.51100000000E-03 0.  1.
         11   -1    0    0    0    0 -0.00000000000E+00 -0.00000000000E+00 -0.45593999997E+02  0.45594000000E+02  0.51100000000E-03 0. -1.
         23    2    1    2    0    0  0.00000000000E+00  0.00000000000E+00  0.00000000000E+00  0.91188000000E+02  0.91188000000E+02 0.  0.
    9900012    2    3    3    0    0  0.12774413590E+02 -0.31996665364E+02 -0.12992538303E+02  0.54367105272E+02  0.40000048090E+02 0.  0.
        -12    1    3    3    0    0 -0.12774413590E+02  0.31996665364E+02  0.12992538303E+02  0.36820894728E+02  0.00000000000E+00 0.  1.
         11    1    4    4    0    0  0.20260116462E+01 -0.20706651610E+02 -0.50439611142E+01  0.21408215434E+02  0.51100000000E-03 0. -1.
        -11    1    4    4    0    0 -0.38170504787E+00 -0.68561875125E+01  0.95435205764E+01  0.11757201674E+02  0.51100000000E-03 0.  1.
         12    1    4    4    0    0  0.11130106992E+02 -0.44338262412E+01 -0.17492097765E+02  0.21201688164E+02  0.00000000000E+00 0. -1.
</event>
<event>
 8    1  0.1248739E-006  0.9118800E+02  0.7816164E-02  0.1184000E+00
        -11   -1    0    0    0    0  0.00000000000E+00  0.00000000000E+00  0.45593999997E+02  0.45594000000E+02  0.51100000000E-03 0.  1.
         11   -1    0    0    0    0 -0.00000000000E+00 -0.00000000000E+00 -0.45593999997E+02  0.45594000000E+02  0.51100000000E-03 0. -1.
         23    2    1    2    0    0  0.00000000000E+00 -0.11102230246E-14 -0.71054273576E-14  0.91188000000E+02  0.91188000000E+02 0.  0.
    9900012    2    3    3    0    0 -0.32906019069E+02 -0.12776867109E+01 -0.16472411434E+02  0.54367096796E+02  0.40000028767E+02 0.  0.
        -12    1    3    3    0    0  0.32906019069E+02  0.12776867109E+01  0.16472411434E+02  0.36820903204E+02  0.00000000000E+00 0.  1.
         11    1    4    4    0    0 -0.89387528213E+01 -0.10756043149E+02 -0.67251852453E+00  0.14001644463E+02  0.51100000000E-03 0. -1.
        -11    1    4    4    0    0 -0.21655578701E+02  0.61801391338E+01  0.15315246818E+01  0.22572190339E+02  0.51100000000E-03 0.  1.
        -12    1    4    4    0    0 -0.23116875469E+01  0.32982173046E+01 -0.17331417591E+02  0.17793261995E+02  0.00000000000E+00 0.  1.
</event>
<event>
 8    1  0.1248739E-006  0.9118800E+02  0.7816164E-02  0.1184000E+00
        -11   -1    0    0    0    0  0.00000000000E+00  0.00000000000E+00  0.45593999997E+02  0.45594000000E+02  0.51100000000E-03 0.  1.
         11   -1    0    0    0    0 -0.00000000000E+00 -0.00000000000E+00 -0.45593999997E+02  0.45594000000E+02  0.51100000000E-03 0. -1.
         23    2    1    2    0    0  0.71054273576E-14 -0.35527136788E-14 -0.22204460493E-14  0.91188000000E+02  0.91188000000E+02 0.  0.
    9900012    2    3    3    0    0 -0.19885344474E+02  0.30738751991E+02  0.39346911685E+01  0.54367087553E+02  0.40000007695E+02 0.  0.
         12    1    3    3    0    0  0.19885344474E+02 -0.30738751991E+02 -0.39346911685E+01  0.36820912447E+02  0.00000000000E+00 0. -1.
         11    1    4    4    0    0 -0.34690910503E+01 -0.38431082820E+01  0.90473398201E+01  0.10423935536E+02  0.51100000000E-03 0.  1.
        -11    1    4    4    0    0 -0.37472438615E+01  0.22108525416E+02 -0.11310614818E+02  0.25114910720E+02  0.51100000000E-03 0. -1.
        -12    1    4    4    0    0 -0.12669009562E+02  0.12473334857E+02  0.61979661666E+01  0.18828241297E+02  0.00000000000E+00 0.  1.
</event>
<event>
 8    1  0.1248739E-006  0.9118800E+02  0.7816164E-02  0.1184000E+00
        -11   -1    0    0    0    0  0.00000000000E+00  0.00000000000E+00  0.45593999997E+02  0.45594000000E+02  0.51100000000E-03 0.  1.
         11   -1    0    0    0    0 -0.00000000000E+00 -0.00000000000E+00 -0.45593999997E+02  0.45594000000E+02  0.51100000000E-03 0. -1.
         23    2    1    2    0    0  0.00000000000E+00  0.71054273576E-14  0.00000000000E+00  0.91188000000E+02  0.91188000000E+02 0.  0.
    9900012    2    3    3    0    0  0.10027697068E+01 -0.36528659099E+02  0.45201062603E+01  0.54367084160E+02  0.39999999960E+02 0.  0.
        -12    1    3    3    0    0 -0.10027697068E+01  0.36528659099E+02 -0.45201062603E+01  0.36820915840E+02  0.00000000000E+00 0.  1.
         11    1    4    4    0    0 -0.40969420039E+01 -0.54090703587E+01 -0.81272116844E+01  0.10587471178E+02  0.51100000000E-03 0. -1.
        -11    1    4    4    0    0 -0.55225105902E+01 -0.18204985389E+02 -0.47923055086E+01  0.19618506788E+02  0.51100000000E-03 0.  1.
        -12    1    4    4    0    0  0.10622222301E+02 -0.12914603352E+02  0.17439623453E+02  0.24161106194E+02  0.00000000000E+00 0.  1.
</event>
<event>
 8    1  0.1248739E-006  0.9118800E+02  0.7816164E-02  0.1184000E+00
        -11   -1    0    0    0    0  0.00000000000E+00  0.00000000000E+00  0.45593999997E+02  0.45594000000E+02  0.51100000000E-03 0.  1.
         11   -1    0    0    0    0 -0.00000000000E+00 -0.00000000000E+00 -0.45593999997E+02  0.45594000000E+02  0.51100000000E-03 0. -1.
         23    2    1    2    0    0  0.17763568394E-14  0.35527136788E-14  0.00000000000E+00  0.91188000000E+02  0.91188000000E+02 0.  0.
    9900012    2    3    3    0    0 -0.11955394144E+02  0.17179141280E+02  0.30293970159E+02  0.54367095988E+02  0.40000026924E+02 0.  0.
         12    1    3    3    0    0  0.11955394144E+02 -0.17179141280E+02 -0.30293970159E+02  0.36820904012E+02  0.00000000000E+00 0. -1.
         11    1    4    4    0    0 -0.25634395339E+01 -0.97057841999E+01  0.80011983750E+01  0.12837158754E+02  0.51100000000E-03 0. -1.
        -11    1    4    4    0    0  0.31337743688E+01  0.51625084063E+00  0.88278003253E+01  0.93817437382E+01  0.51100000000E-03 0.  1.
        -12    1    4    4    0    0 -0.12525728979E+02  0.26368674639E+02  0.13464971459E+02  0.32148193496E+02  0.00000000000E+00 0.  1.
</event>
<event>
 8    1  0.1248739E-006  0.9118800E+02  0.7816164E-02  0.1184000E+00
        -11   -1    0    0    0    0  0.00000000000E+00  0.00000000000E+00  0.45593999997E+02  0.45594000000E+02  0.51100000000E-03 0. -1.
         11   -1    0    0    0    0 -0.00000000000E+00 -0.00000000000E+00 -0.45593999997E+02  0.45594000000E+02  0.51100000000E-03 0.  1.
         23    2    1    2    0    0  0.00000000000E+00  0.88817841970E-15  0.71054273576E-14  0.91188000000E+02  0.91188000000E+02 0.  0.
    9900012    2    3    3    0    0 -0.16874974041E+02 -0.56372285939E+01  0.32237144224E+02  0.54367128706E+02  0.40000101511E+02 0.  0.
        -12    1    3    3    0    0  0.16874974041E+02  0.56372285939E+01 -0.32237144224E+02  0.36820871294E+02  0.00000000000E+00 0.  1.
         11    1    4    4    0    0 -0.88521952373E+01  0.52813764178E+01 -0.60219475588E+01  0.11938096584E+02  0.51100000000E-03 0. -1.
        -11    1    4    4    0    0  0.25296562950E+01 -0.18830631262E+01  0.15075016834E+02  0.15401338270E+02  0.51100000000E-03 0.  1.
         12    1    4    4    0    0 -0.10552435099E+02 -0.90355418855E+01  0.23184074949E+02  0.27027693852E+02  0.00000000000E+00 0. -1.
</event>
<event>
 8    1  0.1248739E-006  0.9118800E+02  0.7816164E-02  0.1184000E+00
        -11   -1    0    0    0    0  0.00000000000E+00  0.00000000000E+00  0.45593999997E+02  0.45594000000E+02  0.51100000000E-03 0. -1.
         11   -1    0    0    0    0 -0.00000000000E+00 -0.00000000000E+00 -0.45593999997E+02  0.45594000000E+02  0.51100000000E-03 0.  1.
         23    2    1    2    0    0  0.00000000000E+00  0.99920072216E-15  0.35527136788E-14  0.91188000000E+02  0.91188000000E+02 0.  0.
    9900012    2    3    3    0    0 -0.19118637158E+02 -0.69262967253E+00  0.31460754873E+02  0.54367066825E+02  0.39999960441E+02 0.  0.
        -12    1    3    3    0    0  0.19118637158E+02  0.69262967253E+00 -0.31460754873E+02  0.36820933175E+02  0.00000000000E+00 0.  1.
         11    1    4    4    0    0  0.48703982880E+01  0.78307652338E+01  0.16601393575E+02  0.18990732806E+02  0.51100000000E-03 0. -1.
        -11    1    4    4    0    0 -0.18372780706E+02 -0.93583520400E+01  0.12810160348E+01  0.20658625949E+02  0.51100000000E-03 0.  1.
        -12    1    4    4    0    0 -0.56162547408E+01  0.83495713363E+00  0.13578345264E+02  0.14717708070E+02  0.00000000000E+00 0.  1.
</event>
<event>
 8    1  0.1248739E-006  0.9118800E+02  0.7816164E-02  0.1184000E+00
        -11   -1    0    0    0    0  0.00000000000E+00  0.00000000000E+00  0.45593999997E+02  0.45594000000E+02  0.51100000000E-03 0. -1.
         11   -1    0    0    0    0 -0.00000000000E+00 -0.00000000000E+00 -0.45593999997E+02  0.45594000000E+02  0.51100000000E-03 0.  1.
         23    2    1    2    0    0  0.22204460493E-15  0.71054273576E-14 -0.15543122345E-14  0.91188000000E+02  0.91188000000E+02 0.  0.
    9900012    2    3    3    0    0 -0.76869714976E+00  0.36798655893E+02 -0.10240970767E+01  0.54367071906E+02  0.39999972025E+02 0.  0.
        -12    1    3    3    0    0  0.76869714976E+00 -0.36798655893E+02  0.10240970767E+01  0.36820928094E+02  0.00000000000E+00 0.  1.
         11    1    4    4    0    0 -0.69151728150E+01  0.26614364999E+02 -0.17152145512E+02  0.32408951469E+02  0.51100000000E-03 0. -1.
        -11    1    4    4    0    0  0.23399876077E+01  0.15355203638E+01  0.10701462994E+02  0.11061404760E+02  0.51100000000E-03 0.  1.
         12    1    4    4    0    0  0.38064880576E+01  0.86487705298E+01  0.54265854408E+01  0.10896715677E+02  0.00000000000E+00 0. -1.
</event>
<event>
 8    1  0.1248739E-006  0.9118800E+02  0.7816164E-02  0.1184000E+00
        -11   -1    0    0    0    0  0.00000000000E+00  0.00000000000E+00  0.45593999997E+02  0.45594000000E+02  0.51100000000E-03 0. -1.
         11   -1    0    0    0    0 -0.00000000000E+00 -0.00000000000E+00 -0.45593999997E+02  0.45594000000E+02  0.51100000000E-03 0.  1.
         23    2    1    2    0    0  0.00000000000E+00 -0.17763568394E-14  0.00000000000E+00  0.91188000000E+02  0.91188000000E+02 0.  0.
    9900012    2    3    3    0    0  0.25335561630E+02  0.32488976546E+01  0.26520463137E+02  0.54367068669E+02  0.39999964645E+02 0.  0.
        -12    1    3    3    0    0 -0.25335561630E+02 -0.32488976546E+01 -0.26520463137E+02  0.36820931331E+02  0.00000000000E+00 0.  1.
         11    1    4    4    0    0  0.93963988449E+01 -0.17282053624E+02  0.15179735108E+02  0.24847254314E+02  0.51100000000E-03 0. -1.
        -11    1    4    4    0    0  0.96496526252E+01  0.17134908703E+02  0.10582746469E+02  0.22331937111E+02  0.51100000000E-03 0.  1.
         12    1    4    4    0    0  0.62895101599E+01  0.33960425761E+01  0.75798155914E+00  0.71878772440E+01  0.00000000000E+00 0. -1.
</event>
<event>
 8    1  0.1248739E-006  0.9118800E+02  0.7816164E-02  0.1184000E+00
        -11   -1    0    0    0    0  0.00000000000E+00  0.00000000000E+00  0.45593999997E+02  0.45594000000E+02  0.51100000000E-03 0. -1.
         11   -1    0    0    0    0 -0.00000000000E+00 -0.00000000000E+00 -0.45593999997E+02  0.45594000000E+02  0.51100000000E-03 0.  1.
         23    2    1    2    0    0 -0.35527136788E-14 -0.17763568394E-14 -0.35527136788E-14  0.91188000000E+02  0.91188000000E+02 0.  0.
    9900012    2    3    3    0    0  0.23364362885E+02  0.10130334676E+02  0.26594463128E+02  0.54367046689E+02  0.39999914536E+02 0.  0.
        -12    1    3    3    0    0 -0.23364362885E+02 -0.10130334676E+02 -0.26594463128E+02  0.36820953311E+02  0.00000000000E+00 0.  1.
         11    1    4    4    0    0  0.10528450766E+02  0.93413023750E+01  0.26991013279E+02  0.30440482973E+02  0.51100000000E-03 0. -1.
        -11    1    4    4    0    0  0.12842451104E+02  0.39025623149E+01  0.75442235412E+01  0.15397202735E+02  0.51100000000E-03 0.  1.
        -12    1    4    4    0    0 -0.65389840351E-02 -0.31135300139E+01 -0.79407736917E+01  0.85293609801E+01  0.00000000000E+00 0.  1.
</event>
<event>
 8    1  0.1248739E-006  0.9118800E+02  0.7816164E-02  0.1184000E+00
        -11   -1    0    0    0    0  0.00000000000E+00  0.00000000000E+00  0.45593999997E+02  0.45594000000E+02  0.51100000000E-03 0. -1.
         11   -1    0    0    0    0 -0.00000000000E+00 -0.00000000000E+00 -0.45593999997E+02  0.45594000000E+02  0.51100000000E-03 0.  1.
         23    2    1    2    0    0  0.00000000000E+00  0.00000000000E+00  0.00000000000E+00  0.91188000000E+02  0.91188000000E+02 0.  0.
    9900012    2    3    3    0    0  0.23202499394E+02 -0.19700262361E+02  0.20720081419E+02  0.54367107979E+02  0.40000054259E+02 0.  0.
        -12    1    3    3    0    0 -0.23202499394E+02  0.19700262361E+02 -0.20720081419E+02  0.36820892021E+02  0.00000000000E+00 0.  1.
         11    1    4    4    0    0  0.26046871363E+02 -0.13754406252E+02  0.66078413112E+01  0.30187526666E+02  0.51100000000E-03 0. -1.
        -11    1    4    4    0    0 -0.30829542209E+01 -0.75624271274E+01 -0.16509668636E+01  0.83319027017E+01  0.51100000000E-03 0.  1.
         12    1    4    4    0    0  0.23858225155E+00  0.16165710176E+01  0.15763206971E+02  0.15847678611E+02  0.00000000000E+00 0. -1.
</event>
<event>
 8    1  0.1248739E-006  0.9118800E+02  0.7816164E-02  0.1184000E+00
        -11   -1    0    0    0    0  0.00000000000E+00  0.00000000000E+00  0.45593999997E+02  0.45594000000E+02  0.51100000000E-03 0. -1.
         11   -1    0    0    0    0 -0.00000000000E+00 -0.00000000000E+00 -0.45593999997E+02  0.45594000000E+02  0.51100000000E-03 0.  1.
         23    2    1    2    0    0  0.17763568394E-14 -0.35527136788E-14 -0.35527136788E-14  0.91188000000E+02  0.91188000000E+02 0.  0.
    9900012    2    3    3    0    0  0.11766318095E+02 -0.18000671788E+02 -0.29888292877E+02  0.54367075549E+02  0.39999980329E+02 0.  0.
         12    1    3    3    0    0 -0.11766318095E+02  0.18000671788E+02  0.29888292877E+02  0.36820924451E+02  0.00000000000E+00 0. -1.
         11    1    4    4    0    0  0.15583754120E+01  0.11263243928E+02 -0.37307406994E+01  0.11966938795E+02  0.51100000000E-03 0. -1.
        -11    1    4    4    0    0  0.14830132901E+01  0.10452277311E+01 -0.11386530954E+01  0.21420458821E+01  0.51100000000E-03 0.  1.
         12    1    4    4    0    0  0.87249293933E+01 -0.30309143447E+02 -0.25018899082E+02  0.40258090872E+02  0.00000000000E+00 0. -1.
</event>
<event>
 8    1  0.1248739E-006  0.9118800E+02  0.7816164E-02  0.1184000E+00
        -11   -1    0    0    0    0  0.00000000000E+00  0.00000000000E+00  0.45593999997E+02  0.45594000000E+02  0.51100000000E-03 0. -1.
         11   -1    0    0    0    0 -0.00000000000E+00 -0.00000000000E+00 -0.45593999997E+02  0.45594000000E+02  0.51100000000E-03 0.  1.
         23    2    1    2    0    0  0.35527136788E-14  0.17763568394E-14 -0.35527136788E-14  0.91188000000E+02  0.91188000000E+02 0.  0.
    9900012    2    3    3    0    0 -0.27483314746E+02 -0.12175788283E+02 -0.21264933636E+02  0.54367084581E+02  0.40000000920E+02 0.  0.
         12    1    3    3    0    0  0.27483314746E+02  0.12175788283E+02  0.21264933636E+02  0.36820915419E+02  0.00000000000E+00 0. -1.
         11    1    4    4    0    0 -0.51704475780E+01 -0.21077625041E+01  0.15529974378E+01  0.57955148377E+01  0.51100000000E-03 0. -1.
        -11    1    4    4    0    0 -0.96097362668E+00 -0.12659390701E+02  0.47942250080E+01  0.13570859844E+02  0.51100000000E-03 0.  1.
        -12    1    4    4    0    0 -0.21351893541E+02  0.25913649218E+01 -0.27612156082E+02  0.35000709899E+02  0.00000000000E+00 0.  1.
</event>
<event>
 8    1  0.1248739E-006  0.9118800E+02  0.7816164E-02  0.1184000E+00
        -11   -1    0    0    0    0  0.00000000000E+00  0.00000000000E+00  0.45593999997E+02  0.45594000000E+02  0.51100000000E-03 0.  1.
         11   -1    0    0    0    0 -0.00000000000E+00 -0.00000000000E+00 -0.45593999997E+02  0.45594000000E+02  0.51100000000E-03 0. -1.
         23    2    1    2    0    0 -0.88817841970E-15  0.00000000000E+00  0.00000000000E+00  0.91188000000E+02  0.91188000000E+02 0.  0.
    9900012    2    3    3    0    0 -0.49106266370E+01 -0.35148816018E+02 -0.98094210653E+01  0.54367105618E+02  0.40000048878E+02 0.  0.
        -12    1    3    3    0    0  0.49106266370E+01  0.35148816018E+02  0.98094210653E+01  0.36820894382E+02  0.00000000000E+00 0.  1.
         11    1    4    4    0    0  0.15029662010E+00 -0.10445171527E+02 -0.18192966496E+02  0.20978756577E+02  0.51100000000E-03 0. -1.
        -11    1    4    4    0    0 -0.94565097764E-01 -0.17338401601E+02 -0.43372120698E+01  0.17872899077E+02  0.51100000000E-03 0.  1.
         12    1    4    4    0    0 -0.49663581593E+01 -0.73652428908E+01  0.12720757501E+02  0.15515449964E+02  0.00000000000E+00 0. -1.
</event>
<event>
 8    1  0.1248739E-006  0.9118800E+02  0.7816164E-02  0.1184000E+00
        -11   -1    0    0    0    0  0.00000000000E+00  0.00000000000E+00  0.45593999997E+02  0.45594000000E+02  0.51100000000E-03 0. -1.
         11   -1    0    0    0    0 -0.00000000000E+00 -0.00000000000E+00 -0.45593999997E+02  0.45594000000E+02  0.51100000000E-03 0.  1.
         23    2    1    2    0    0  0.00000000000E+00 -0.35527136788E-14 -0.17763568394E-14  0.91188000000E+02  0.91188000000E+02 0.  0.
    9900012    2    3    3    0    0  0.93876061544E+01  0.31964631057E+02 -0.15681700412E+02  0.54367075029E+02  0.39999979144E+02 0.  0.
         12    1    3    3    0    0 -0.93876061544E+01 -0.31964631057E+02  0.15681700412E+02  0.36820924971E+02  0.00000000000E+00 0. -1.
         11    1    4    4    0    0 -0.59981848371E+01  0.68495243002E+01  0.34845816908E+01  0.97486673089E+01  0.51100000000E-03 0.  1.
        -11    1    4    4    0    0  0.95884414380E+00 -0.59285796171E+01 -0.37046436059E+01  0.70563321121E+01  0.51100000000E-03 0. -1.
        -12    1    4    4    0    0  0.14426946848E+02  0.31043686374E+02 -0.15461638497E+02  0.37562075608E+02  0.00000000000E+00 0.  1.
</event>
<event>
 8    1  0.1248739E-006  0.9118800E+02  0.7816164E-02  0.1184000E+00
        -11   -1    0    0    0    0  0.00000000000E+00  0.00000000000E+00  0.45593999997E+02  0.45594000000E+02  0.51100000000E-03 0.  1.
         11   -1    0    0    0    0 -0.00000000000E+00 -0.00000000000E+00 -0.45593999997E+02  0.45594000000E+02  0.51100000000E-03 0. -1.
         23    2    1    2    0    0 -0.71054273576E-14  0.71054273576E-14 -0.88817841970E-15  0.91188000000E+02  0.91188000000E+02 0.  0.
    9900012    2    3    3    0    0  0.19423815560E+02 -0.30814449299E+02 -0.53817368028E+01  0.54367109360E+02  0.40000057407E+02 0.  0.
        -12    1    3    3    0    0 -0.19423815560E+02  0.30814449299E+02  0.53817368028E+01  0.36820890640E+02  0.00000000000E+00 0.  1.
         11    1    4    4    0    0  0.22474629586E+02 -0.22884128879E+02 -0.12059349451E+02  0.34266897132E+02  0.51100000000E-03 0. -1.
        -11    1    4    4    0    0  0.22976679064E+01 -0.10726705272E+02  0.84080911840E+01  0.13821630925E+02  0.51100000000E-03 0.  1.
        -12    1    4    4    0    0 -0.53484819323E+01  0.27963848519E+01 -0.17304785359E+01  0.62785813034E+01  0.00000000000E+00 0.  1.
</event>
<event>
 8    1  0.1248739E-006  0.9118800E+02  0.7816164E-02  0.1184000E+00
        -11   -1    0    0    0    0  0.00000000000E+00  0.00000000000E+00  0.45593999997E+02  0.45594000000E+02  0.51100000000E-03 0. -1.
         11   -1    0    0    0    0 -0.00000000000E+00 -0.00000000000E+00 -0.45593999997E+02  0.45594000000E+02  0.51100000000E-03 0.  1.
         23    2    1    2    0    0  0.17763568394E-14 -0.44408920985E-15 -0.71054273576E-14  0.91188000000E+02  0.91188000000E+02 0.  0.
    9900012    2    3    3    0    0 -0.15750667330E+02 -0.35387765046E+01  0.33093427084E+02  0.54367063338E+02  0.39999952491E+02 0.  0.
        -12    1    3    3    0    0  0.15750667330E+02  0.35387765046E+01 -0.33093427084E+02  0.36820936662E+02  0.00000000000E+00 0.  1.
         11    1    4    4    0    0 -0.19066215408E+02  0.25182175249E+00  0.83880329371E+01  0.20831300512E+02  0.51100000000E-03 0. -1.
        -11    1    4    4    0    0 -0.74947943318E+01 -0.80486324563E+01  0.10782457515E+02  0.15401747200E+02  0.51100000000E-03 0.  1.
        -12    1    4    4    0    0  0.10810342410E+02  0.42580341992E+01  0.13922936632E+02  0.18134015626E+02  0.00000000000E+00 0.  1.
</event>
<event>
 8    1  0.1248739E-006  0.9118800E+02  0.7816164E-02  0.1184000E+00
        -11   -1    0    0    0    0  0.00000000000E+00  0.00000000000E+00  0.45593999997E+02  0.45594000000E+02  0.51100000000E-03 0. -1.
         11   -1    0    0    0    0 -0.00000000000E+00 -0.00000000000E+00 -0.45593999997E+02  0.45594000000E+02  0.51100000000E-03 0.  1.
         23    2    1    2    0    0 -0.35527136788E-14 -0.35527136788E-14  0.22204460493E-15  0.91188000000E+02  0.91188000000E+02 0.  0.
    9900012    2    3    3    0    0 -0.19166172651E+02  0.31412520092E+02 -0.13003764829E+01  0.54367087849E+02  0.40000008369E+02 0.  0.
        -12    1    3    3    0    0  0.19166172651E+02 -0.31412520092E+02  0.13003764829E+01  0.36820912151E+02  0.00000000000E+00 0.  1.
         11    1    4    4    0    0 -0.59879514706E+01  0.25823116022E+02 -0.14740055195E+01  0.26549229300E+02  0.51100000000E-03 0. -1.
        -11    1    4    4    0    0 -0.17778498396E+02  0.66038472224E+01 -0.61453369557E+01  0.19936172399E+02  0.51100000000E-03 0.  1.
        -12    1    4    4    0    0  0.46002772155E+01 -0.10144431517E+01  0.63189659923E+01  0.78816861507E+01  0.00000000000E+00 0.  1.
</event>
<event>
 8    1  0.1248739E-006  0.9118800E+02  0.7816164E-02  0.1184000E+00
        -11   -1    0    0    0    0  0.00000000000E+00  0.00000000000E+00  0.45593999997E+02  0.45594000000E+02  0.51100000000E-03 0.  1.
         11   -1    0    0    0    0 -0.00000000000E+00 -0.00000000000E+00 -0.45593999997E+02  0.45594000000E+02  0.51100000000E-03 0. -1.
         23    2    1    2    0    0  0.00000000000E+00  0.35527136788E-14  0.00000000000E+00  0.91188000000E+02  0.91188000000E+02 0.  0.
    9900012    2    3    3    0    0  0.17169416908E+02 -0.16079783616E+02  0.28327282701E+02  0.54367037719E+02  0.39999894088E+02 0.  0.
         12    1    3    3    0    0 -0.17169416908E+02  0.16079783616E+02 -0.28327282701E+02  0.36820962281E+02  0.00000000000E+00 0. -1.
         11    1    4    4    0    0  0.77603730868E+01  0.10225052815E+01 -0.25409131851E+01  0.82295290007E+01  0.51100000000E-03 0. -1.
        -11    1    4    4    0    0  0.10012908729E+02 -0.12912774738E+02  0.14366160327E+01  0.16403108197E+02  0.51100000000E-03 0.  1.
        -12    1    4    4    0    0 -0.60386490781E+00 -0.41895141597E+01  0.29431579853E+02  0.29734400521E+02  0.00000000000E+00 0.  1.
</event>
<event>
 8    1  0.1248739E-006  0.9118800E+02  0.7816164E-02  0.1184000E+00
        -11   -1    0    0    0    0  0.00000000000E+00  0.00000000000E+00  0.45593999997E+02  0.45594000000E+02  0.51100000000E-03 0.  1.
         11   -1    0    0    0    0 -0.00000000000E+00 -0.00000000000E+00 -0.45593999997E+02  0.45594000000E+02  0.51100000000E-03 0. -1.
         23    2    1    2    0    0  0.00000000000E+00 -0.33306690739E-15  0.17763568394E-14  0.91188000000E+02  0.91188000000E+02 0.  0.
    9900012    2    3    3    0    0  0.35465670328E+02 -0.46204511819E+00  0.98870904413E+01  0.54367057387E+02  0.39999938926E+02 0.  0.
        -12    1    3    3    0    0 -0.35465670328E+02  0.46204511819E+00 -0.98870904413E+01  0.36820942613E+02  0.00000000000E+00 0.  1.
         11    1    4    4    0    0  0.10895994438E+02  0.87948180064E+01 -0.51637631602E+01  0.14924341486E+02  0.51100000000E-03 0. -1.
        -11    1    4    4    0    0  0.14867951575E+02 -0.15997417590E+01 -0.51033894438E+01  0.15800624729E+02  0.51100000000E-03 0.  1.
        -12    1    4    4    0    0  0.97017243145E+01 -0.76571213656E+01  0.20154243045E+02  0.23642091173E+02  0.00000000000E+00 0.  1.
</event>
<event>
 8    1  0.1248739E-006  0.9118800E+02  0.7816164E-02  0.1184000E+00
        -11   -1    0    0    0    0  0.00000000000E+00  0.00000000000E+00  0.45593999997E+02  0.45594000000E+02  0.51100000000E-03 0. -1.
         11   -1    0    0    0    0 -0.00000000000E+00 -0.00000000000E+00 -0.45593999997E+02  0.45594000000E+02  0.51100000000E-03 0.  1.
         23    2    1    2    0    0  0.17763568394E-14  0.00000000000E+00 -0.71054273576E-14  0.91188000000E+02  0.91188000000E+02 0.  0.
    9900012    2    3    3    0    0  0.15688801681E+02  0.72247070402E+01 -0.32518367325E+02  0.54367094206E+02  0.40000022862E+02 0.  0.
         12    1    3    3    0    0 -0.15688801681E+02 -0.72247070402E+01  0.32518367325E+02  0.36820905794E+02  0.00000000000E+00 0. -1.
         11    1    4    4    0    0  0.22687776018E+02  0.62452062987E+01 -0.19347418004E+02  0.30464083213E+02  0.51100000000E-03 0. -1.
        -11    1    4    4    0    0  0.47075915500E+01  0.43855868424E+01 -0.71535252784E+00  0.64735245156E+01  0.51100000000E-03 0.  1.
        -12    1    4    4    0    0 -0.11706565887E+02 -0.34060861008E+01 -0.12455596793E+02  0.17429486477E+02  0.00000000000E+00 0.  1.
</event>
<event>
 8    1  0.1248739E-006  0.9118800E+02  0.7816164E-02  0.1184000E+00
        -11   -1    0    0    0    0  0.00000000000E+00  0.00000000000E+00  0.45593999997E+02  0.45594000000E+02  0.51100000000E-03 0. -1.
         11   -1    0    0    0    0 -0.00000000000E+00 -0.00000000000E+00 -0.45593999997E+02  0.45594000000E+02  0.51100000000E-03 0.  1.
         23    2    1    2    0    0  0.17763568394E-14  0.00000000000E+00  0.00000000000E+00  0.91188000000E+02  0.91188000000E+02 0.  0.
    9900012    2    3    3    0    0 -0.59293349942E+01 -0.89521103533E+01 -0.35220568658E+02  0.54367003954E+02  0.39999817112E+02 0.  0.
         12    1    3    3    0    0  0.59293349942E+01  0.89521103533E+01  0.35220568658E+02  0.36820996046E+02  0.00000000000E+00 0. -1.
         11    1    4    4    0    0 -0.11581004656E+02 -0.70027486640E+01 -0.59488938541E+01  0.14783351989E+02  0.51100000000E-03 0. -1.
        -11    1    4    4    0    0  0.11962136902E+02 -0.27154105228E+01 -0.30707383440E+02  0.33066744193E+02  0.51100000000E-03 0.  1.
        -12    1    4    4    0    0 -0.63104672404E+01  0.76604883353E+00  0.14357086358E+01  0.65169077709E+01  0.00000000000E+00 0.  1.
</event>
<event>
 8    1  0.1248739E-006  0.9118800E+02  0.7816164E-02  0.1184000E+00
        -11   -1    0    0    0    0  0.00000000000E+00  0.00000000000E+00  0.45593999997E+02  0.45594000000E+02  0.51100000000E-03 0.  1.
         11   -1    0    0    0    0 -0.00000000000E+00 -0.00000000000E+00 -0.45593999997E+02  0.45594000000E+02  0.51100000000E-03 0. -1.
         23    2    1    2    0    0  0.00000000000E+00  0.00000000000E+00  0.00000000000E+00  0.91188000000E+02  0.91188000000E+02 0.  0.
    9900012    2    3    3    0    0 -0.85676144176E+01 -0.35460845973E+02 -0.49900415418E+01  0.54367134603E+02  0.40000114955E+02 0.  0.
        -12    1    3    3    0    0  0.85676144176E+01  0.35460845973E+02  0.49900415418E+01  0.36820865397E+02  0.00000000000E+00 0.  1.
         11    1    4    4    0    0 -0.22682098875E+01 -0.66672985755E+01 -0.39126104798E+01  0.80564363969E+01  0.51100000000E-03 0. -1.
        -11    1    4    4    0    0 -0.10438056003E+02 -0.20910408157E+02  0.15114386142E+02  0.27832406492E+02  0.51100000000E-03 0.  1.
        -12    1    4    4    0    0  0.41386514730E+01 -0.78831392409E+01 -0.16191817204E+02  0.18478291715E+02  0.00000000000E+00 0.  1.
</event>
<event>
 8    1  0.1248739E-006  0.9118800E+02  0.7816164E-02  0.1184000E+00
        -11   -1    0    0    0    0  0.00000000000E+00  0.00000000000E+00  0.45593999997E+02  0.45594000000E+02  0.51100000000E-03 0.  1.
         11   -1    0    0    0    0 -0.00000000000E+00 -0.00000000000E+00 -0.45593999997E+02  0.45594000000E+02  0.51100000000E-03 0. -1.
         23    2    1    2    0    0  0.35527136788E-14 -0.44408920985E-15  0.35527136788E-14  0.91188000000E+02  0.91188000000E+02 0.  0.
    9900012    2    3    3    0    0  0.31211020588E+02  0.25292421429E+01  0.19371486767E+02  0.54367090566E+02  0.40000014563E+02 0.  0.
         12    1    3    3    0    0 -0.31211020588E+02 -0.25292421429E+01 -0.19371486767E+02  0.36820909434E+02  0.00000000000E+00 0. -1.
         11    1    4    4    0    0  0.18257605121E+01  0.14427242120E+01 -0.49607226242E+01  0.54793817001E+01  0.51100000000E-03 0. -1.
        -11    1    4    4    0    0  0.21680826036E+02 -0.80401378529E+01  0.15634533635E+01  0.23176419503E+02  0.51100000000E-03 0.  1.
         12    1    4    4    0    0  0.77044340406E+01  0.91266557838E+01  0.22768756027E+02  0.25711289363E+02  0.00000000000E+00 0. -1.
</event>
<event>
 8    1  0.1248739E-006  0.9118800E+02  0.7816164E-02  0.1184000E+00
        -11   -1    0    0    0    0  0.00000000000E+00  0.00000000000E+00  0.45593999997E+02  0.45594000000E+02  0.51100000000E-03 0.  1.
         11   -1    0    0    0    0 -0.00000000000E+00 -0.00000000000E+00 -0.45593999997E+02  0.45594000000E+02  0.51100000000E-03 0. -1.
         23    2    1    2    0    0  0.00000000000E+00 -0.35527136788E-14  0.35527136788E-14  0.91188000000E+02  0.91188000000E+02 0.  0.
    9900012    2    3    3    0    0 -0.14194816679E+02  0.18152889059E+02 -0.28718632827E+02  0.54367081038E+02  0.39999992843E+02 0.  0.
        -12    1    3    3    0    0  0.14194816679E+02 -0.18152889059E+02  0.28718632827E+02  0.36820918962E+02  0.00000000000E+00 0.  1.
         11    1    4    4    0    0 -0.21873928776E+01  0.13700918249E+01 -0.24587981768E+02  0.24723080044E+02  0.51100000000E-03 0. -1.
        -11    1    4    4    0    0  0.34292870352E+01  0.59451649525E+01 -0.78418524569E+01  0.10421115396E+02  0.51100000000E-03 0.  1.
         12    1    4    4    0    0 -0.15436710836E+02  0.10837632281E+02  0.37112013974E+01  0.19222885598E+02  0.00000000000E+00 0. -1.
</event>
<event>
 8    1  0.1248739E-006  0.9118800E+02  0.7816164E-02  0.1184000E+00
        -11   -1    0    0    0    0  0.00000000000E+00  0.00000000000E+00  0.45593999997E+02  0.45594000000E+02  0.51100000000E-03 0.  1.
         11   -1    0    0    0    0 -0.00000000000E+00 -0.00000000000E+00 -0.45593999997E+02  0.45594000000E+02  0.51100000000E-03 0. -1.
         23    2    1    2    0    0 -0.88817841970E-15  0.00000000000E+00  0.17763568394E-14  0.91188000000E+02  0.91188000000E+02 0.  0.
    9900012    2    3    3    0    0  0.69442322612E+01  0.33177562979E+02 -0.14380782022E+02  0.54367082867E+02  0.39999997012E+02 0.  0.
        -12    1    3    3    0    0 -0.69442322612E+01 -0.33177562979E+02  0.14380782022E+02  0.36820917133E+02  0.00000000000E+00 0.  1.
         11    1    4    4    0    0 -0.17534773913E+01  0.14521928226E+02 -0.10756155260E+01  0.14666902584E+02  0.51100000000E-03 0. -1.
        -11    1    4    4    0    0 -0.59202212444E+01  0.65913143918E+01  0.74625737955E+01  0.11583801315E+02  0.51100000000E-03 0.  1.
         12    1    4    4    0    0  0.14617930897E+02  0.12064320361E+02 -0.20767740291E+02  0.28116378968E+02  0.00000000000E+00 0. -1.
</event>
<event>
 8    1  0.1248739E-006  0.9118800E+02  0.7816164E-02  0.1184000E+00
        -11   -1    0    0    0    0  0.00000000000E+00  0.00000000000E+00  0.45593999997E+02  0.45594000000E+02  0.51100000000E-03 0.  1.
         11   -1    0    0    0    0 -0.00000000000E+00 -0.00000000000E+00 -0.45593999997E+02  0.45594000000E+02  0.51100000000E-03 0. -1.
         23    2    1    2    0    0  0.53290705182E-14 -0.88817841970E-15  0.00000000000E+00  0.91188000000E+02  0.91188000000E+02 0.  0.
    9900012    2    3    3    0    0  0.11429290684E+02  0.50777481220E+01 -0.34631910669E+02  0.54367062368E+02  0.39999950279E+02 0.  0.
        -12    1    3    3    0    0 -0.11429290684E+02 -0.50777481220E+01  0.34631910669E+02  0.36820937632E+02  0.00000000000E+00 0.  1.
         11    1    4    4    0    0 -0.10447748612E+02  0.10962814887E+02 -0.57747397774E+01  0.16207602570E+02  0.51100000000E-03 0. -1.
        -11    1    4    4    0    0  0.60885718566E+01 -0.11446796526E+01 -0.17574001153E+01  0.64396781121E+01  0.51100000000E-03 0.  1.
         12    1    4    4    0    0  0.15788467439E+02 -0.47403871127E+01 -0.27099770776E+02  0.31719781686E+02  0.00000000000E+00 0. -1.
</event>
<event>
 8    1  0.1248739E-006  0.9118800E+02  0.7816164E-02  0.1184000E+00
        -11   -1    0    0    0    0  0.00000000000E+00  0.00000000000E+00  0.45593999997E+02  0.45594000000E+02  0.51100000000E-03 0.  1.
         11   -1    0    0    0    0 -0.00000000000E+00 -0.00000000000E+00 -0.45593999997E+02  0.45594000000E+02  0.51100000000E-03 0. -1.
         23    2    1    2    0    0  0.00000000000E+00  0.88817841970E-15  0.00000000000E+00  0.91188000000E+02  0.91188000000E+02 0.  0.
    9900012    2    3    3    0    0 -0.17246737190E+02 -0.51474912936E+01 -0.32122167842E+02  0.54367078268E+02  0.39999986529E+02 0.  0.
        -12    1    3    3    0    0  0.17246737190E+02  0.51474912936E+01  0.32122167842E+02  0.36820921732E+02  0.00000000000E+00 0.  1.
         11    1    4    4    0    0  0.13227657374E+01 -0.81442604662E+01 -0.17884806990E+02  0.19696319684E+02  0.51100000000E-03 0. -1.
        -11    1    4    4    0    0 -0.11613586705E+02 -0.10768038855E+02 -0.97928340187E+01  0.18620570757E+02  0.51100000000E-03 0.  1.
         12    1    4    4    0    0 -0.69559162220E+01  0.13764808028E+02 -0.44445268325E+01  0.16050187827E+02  0.00000000000E+00 0. -1.
</event>
<event>
 8    1  0.1248739E-006  0.9118800E+02  0.7816164E-02  0.1184000E+00
        -11   -1    0    0    0    0  0.00000000000E+00  0.00000000000E+00  0.45593999997E+02  0.45594000000E+02  0.51100000000E-03 0.  1.
         11   -1    0    0    0    0 -0.00000000000E+00 -0.00000000000E+00 -0.45593999997E+02  0.45594000000E+02  0.51100000000E-03 0. -1.
         23    2    1    2    0    0  0.00000000000E+00  0.35527136788E-14  0.35527136788E-14  0.91188000000E+02  0.91188000000E+02 0.  0.
    9900012    2    3    3    0    0  0.18351246868E+02 -0.25078845157E+02 -0.19750014965E+02  0.54367084380E+02  0.40000000461E+02 0.  0.
        -12    1    3    3    0    0 -0.18351246868E+02  0.25078845157E+02  0.19750014965E+02  0.36820915620E+02  0.00000000000E+00 0.  1.
         11    1    4    4    0    0  0.14883874971E+02 -0.84293053382E+01 -0.57734270566E+00  0.17114796157E+02  0.51100000000E-03 0. -1.
        -11    1    4    4    0    0  0.10653698888E+02 -0.11663437098E+02 -0.22837811546E+02  0.27768736043E+02  0.51100000000E-03 0.  1.
        -12    1    4    4    0    0 -0.71863269906E+01 -0.49861027204E+01  0.36651392876E+01  0.94835521801E+01  0.00000000000E+00 0.  1.
</event>
<event>
 8    1  0.1248739E-006  0.9118800E+02  0.7816164E-02  0.1184000E+00
        -11   -1    0    0    0    0  0.00000000000E+00  0.00000000000E+00  0.45593999997E+02  0.45594000000E+02  0.51100000000E-03 0.  1.
         11   -1    0    0    0    0 -0.00000000000E+00 -0.00000000000E+00 -0.45593999997E+02  0.45594000000E+02  0.51100000000E-03 0. -1.
         23    2    1    2    0    0  0.00000000000E+00  0.00000000000E+00 -0.35527136788E-14  0.91188000000E+02  0.91188000000E+02 0.  0.
    9900012    2    3    3    0    0  0.19583422893E+02 -0.45017028385E+01  0.30854867337E+02  0.54366829200E+02  0.39999418724E+02 0.  0.
         12    1    3    3    0    0 -0.19583422893E+02  0.45017028385E+01 -0.30854867337E+02  0.36821170800E+02  0.00000000000E+00 0. -1.
         11    1    4    4    0    0  0.98912583581E+01  0.88884412829E+01 -0.16899897097E+01  0.13405127595E+02  0.51100000000E-03 0. -1.
        -11    1    4    4    0    0 -0.34353530595E+01 -0.29792797713E+01  0.18646221347E+02  0.19192689478E+02  0.51100000000E-03 0.  1.
         12    1    4    4    0    0  0.13127517595E+02 -0.10410864350E+02  0.13898635699E+02  0.21769012128E+02  0.00000000000E+00 0. -1.
</event>
<event>
 8    1  0.1248739E-006  0.9118800E+02  0.7816164E-02  0.1184000E+00
        -11   -1    0    0    0    0  0.00000000000E+00  0.00000000000E+00  0.45593999997E+02  0.45594000000E+02  0.51100000000E-03 0.  1.
         11   -1    0    0    0    0 -0.00000000000E+00 -0.00000000000E+00 -0.45593999997E+02  0.45594000000E+02  0.51100000000E-03 0. -1.
         23    2    1    2    0    0  0.88817841970E-15 -0.35527136788E-14  0.35527136788E-14  0.91188000000E+02  0.91188000000E+02 0.  0.
    9900012    2    3    3    0    0  0.68419772804E+01 -0.21078137505E+02  0.29405428240E+02  0.54367085512E+02  0.40000003041E+02 0.  0.
         12    1    3    3    0    0 -0.68419772804E+01  0.21078137505E+02 -0.29405428240E+02  0.36820914488E+02  0.00000000000E+00 0. -1.
         11    1    4    4    0    0  0.82602279908E+01 -0.96581110722E+01  0.15684833236E+01  0.12805101177E+02  0.51100000000E-03 0. -1.
        -11    1    4    4    0    0  0.34266140849E+01 -0.15992209778E+02  0.40352708465E+01  0.16845648362E+02  0.51100000000E-03 0.  1.
         12    1    4    4    0    0 -0.48448647953E+01  0.45721833449E+01  0.23801674069E+02  0.24716335973E+02  0.00000000000E+00 0. -1.
</event>
<event>
 8    1  0.1248739E-006  0.9118800E+02  0.7816164E-02  0.1184000E+00
        -11   -1    0    0    0    0  0.00000000000E+00  0.00000000000E+00  0.45593999997E+02  0.45594000000E+02  0.51100000000E-03 0. -1.
         11   -1    0    0    0    0 -0.00000000000E+00 -0.00000000000E+00 -0.45593999997E+02  0.45594000000E+02  0.51100000000E-03 0.  1.
         23    2    1    2    0    0  0.00000000000E+00  0.00000000000E+00  0.00000000000E+00  0.91188000000E+02  0.91188000000E+02 0.  0.
    9900012    2    3    3    0    0 -0.32590787723E+02 -0.12637120036E+02  0.11572658227E+02  0.54367045834E+02  0.39999912589E+02 0.  0.
         12    1    3    3    0    0  0.32590787723E+02  0.12637120036E+02 -0.11572658227E+02  0.36820954166E+02  0.00000000000E+00 0. -1.
         11    1    4    4    0    0 -0.27778996829E+02 -0.16063589572E+02  0.11923410284E+02  0.34232722471E+02  0.51100000000E-03 0. -1.
        -11    1    4    4    0    0 -0.10076815379E+02 -0.32866870810E+01  0.29251150741E+01  0.10995490831E+02  0.51100000000E-03 0.  1.
         12    1    4    4    0    0  0.52650244844E+01  0.67131566172E+01 -0.32758671315E+01  0.91388325322E+01  0.00000000000E+00 0. -1.
</event>
<event>
 8    1  0.1248739E-006  0.9118800E+02  0.7816164E-02  0.1184000E+00
        -11   -1    0    0    0    0  0.00000000000E+00  0.00000000000E+00  0.45593999997E+02  0.45594000000E+02  0.51100000000E-03 0. -1.
         11   -1    0    0    0    0 -0.00000000000E+00 -0.00000000000E+00 -0.45593999997E+02  0.45594000000E+02  0.51100000000E-03 0.  1.
         23    2    1    2    0    0 -0.35527136788E-14  0.44408920985E-15  0.00000000000E+00  0.91188000000E+02  0.91188000000E+02 0.  0.
    9900012    2    3    3    0    0 -0.25294783052E+02  0.25219989551E+01 -0.26638189400E+02  0.54367086610E+02  0.40000005544E+02 0.  0.
         12    1    3    3    0    0  0.25294783052E+02 -0.25219989551E+01  0.26638189400E+02  0.36820913390E+02  0.00000000000E+00 0. -1.
         11    1    4    4    0    0 -0.85980519922E+01 -0.77796795750E+01  0.66332097494E+01  0.13358494832E+02  0.51100000000E-03 0. -1.
        -11    1    4    4    0    0 -0.17943668111E+01 -0.29818251726E+01 -0.85636091485E+01  0.92437241154E+01  0.51100000000E-03 0.  1.
         12    1    4    4    0    0 -0.14902364249E+02  0.13283503703E+02 -0.24707790001E+02  0.31764867662E+02  0.00000000000E+00 0. -1.
</event>
<event>
 8    1  0.1248739E-006  0.9118800E+02  0.7816164E-02  0.1184000E+00
        -11   -1    0    0    0    0  0.00000000000E+00  0.00000000000E+00  0.45593999997E+02  0.45594000000E+02  0.51100000000E-03 0.  1.
         11   -1    0    0    0    0 -0.00000000000E+00 -0.00000000000E+00 -0.45593999997E+02  0.45594000000E+02  0.51100000000E-03 0. -1.
         23    2    1    2    0    0 -0.17763568394E-14 -0.35527136788E-14 -0.35527136788E-14  0.91188000000E+02  0.91188000000E+02 0.  0.
    9900012    2    3    3    0    0 -0.74221107741E+01  0.29001064646E+02  0.21439032416E+02  0.54367060443E+02  0.39999945892E+02 0.  0.
         12    1    3    3    0    0  0.74221107741E+01 -0.29001064646E+02 -0.21439032416E+02  0.36820939557E+02  0.00000000000E+00 0. -1.
         11    1    4    4    0    0 -0.11092384659E+02  0.83659227982E+01  0.11978247481E+01  0.13945050953E+02  0.51100000000E-03 0. -1.
        -11    1    4    4    0    0 -0.57276582762E+01  0.24199329323E+02  0.15555485891E+02  0.29332349899E+02  0.51100000000E-03 0.  1.
         12    1    4    4    0    0  0.93979321615E+01 -0.35641874754E+01  0.46857217771E+01  0.11089659591E+02  0.00000000000E+00 0. -1.
</event>
<event>
 8    1  0.1248739E-006  0.9118800E+02  0.7816164E-02  0.1184000E+00
        -11   -1    0    0    0    0  0.00000000000E+00  0.00000000000E+00  0.45593999997E+02  0.45594000000E+02  0.51100000000E-03 0. -1.
         11   -1    0    0    0    0 -0.00000000000E+00 -0.00000000000E+00 -0.45593999997E+02  0.45594000000E+02  0.51100000000E-03 0.  1.
         23    2    1    2    0    0 -0.35527136788E-14 -0.17763568394E-14  0.00000000000E+00  0.91188000000E+02  0.91188000000E+02 0.  0.
    9900012    2    3    3    0    0  0.30913216602E+02  0.11570526838E+02  0.16317963838E+02  0.54367082090E+02  0.39999995240E+02 0.  0.
        -12    1    3    3    0    0 -0.30913216602E+02 -0.11570526838E+02 -0.16317963838E+02  0.36820917910E+02  0.00000000000E+00 0.  1.
         11    1    4    4    0    0  0.78872264912E+01 -0.69586999875E+01  0.15023941539E+02  0.18339865508E+02  0.51100000000E-03 0. -1.
        -11    1    4    4    0    0  0.16727521128E+02  0.22228769765E+01 -0.47516102487E+01  0.17530799907E+02  0.51100000000E-03 0.  1.
         12    1    4    4    0    0  0.62984689821E+01  0.16306349849E+02  0.60456325478E+01  0.18496416675E+02  0.00000000000E+00 0. -1.
</event>
<event>
 8    1  0.1248739E-006  0.9118800E+02  0.7816164E-02  0.1184000E+00
        -11   -1    0    0    0    0  0.00000000000E+00  0.00000000000E+00  0.45593999997E+02  0.45594000000E+02  0.51100000000E-03 0.  1.
         11   -1    0    0    0    0 -0.00000000000E+00 -0.00000000000E+00 -0.45593999997E+02  0.45594000000E+02  0.51100000000E-03 0. -1.
         23    2    1    2    0    0 -0.17763568394E-14 -0.17763568394E-14  0.00000000000E+00  0.91188000000E+02  0.91188000000E+02 0.  0.
    9900012    2    3    3    0    0  0.94319990401E+01 -0.47464143292E+01  0.35274477104E+02  0.54367084886E+02  0.40000001615E+02 0.  0.
         12    1    3    3    0    0 -0.94319990401E+01  0.47464143292E+01 -0.35274477104E+02  0.36820915114E+02  0.00000000000E+00 0. -1.
         11    1    4    4    0    0 -0.30286357566E+01 -0.17765535319E+02  0.14106255242E+02  0.22886094401E+02  0.51100000000E-03 0. -1.
        -11    1    4    4    0    0  0.85237355480E+01 -0.39669298515E+00  0.42489919934E+01  0.95323326756E+01  0.51100000000E-03 0.  1.
         12    1    4    4    0    0  0.39368992486E+01  0.13415813975E+02  0.16919229868E+02  0.21948657810E+02  0.00000000000E+00 0. -1.
</event>
<event>
 8    1  0.1248739E-006  0.9118800E+02  0.7816164E-02  0.1184000E+00
        -11   -1    0    0    0    0  0.00000000000E+00  0.00000000000E+00  0.45593999997E+02  0.45594000000E+02  0.51100000000E-03 0.  1.
         11   -1    0    0    0    0 -0.00000000000E+00 -0.00000000000E+00 -0.45593999997E+02  0.45594000000E+02  0.51100000000E-03 0. -1.
         23    2    1    2    0    0  0.00000000000E+00  0.00000000000E+00  0.00000000000E+00  0.91188000000E+02  0.91188000000E+02 0.  0.
    9900012    2    3    3    0    0 -0.16001370289E+02 -0.20013711838E+02  0.26442149638E+02  0.54367084882E+02  0.40000001605E+02 0.  0.
         12    1    3    3    0    0  0.16001370289E+02  0.20013711838E+02 -0.26442149638E+02  0.36820915118E+02  0.00000000000E+00 0. -1.
         11    1    4    4    0    0 -0.23982600613E+01 -0.19546599980E+02  0.15468513905E+02  0.25041887804E+02  0.51100000000E-03 0. -1.
        -11    1    4    4    0    0  0.55874694349E+00 -0.43991559708E+01  0.13679753976E+02  0.14380557726E+02  0.51100000000E-03 0.  1.
         12    1    4    4    0    0 -0.14161857171E+02  0.39320441125E+01 -0.27061182426E+01  0.14944639352E+02  0.00000000000E+00 0. -1.
</event>
<event>
 8    1  0.1248739E-006  0.9118800E+02  0.7816164E-02  0.1184000E+00
        -11   -1    0    0    0    0  0.00000000000E+00  0.00000000000E+00  0.45593999997E+02  0.45594000000E+02  0.51100000000E-03 0.  1.
         11   -1    0    0    0    0 -0.00000000000E+00 -0.00000000000E+00 -0.45593999997E+02  0.45594000000E+02  0.51100000000E-03 0. -1.
         23    2    1    2    0    0  0.00000000000E+00  0.00000000000E+00  0.00000000000E+00  0.91188000000E+02  0.91188000000E+02 0.  0.
    9900012    2    3    3    0    0  0.33244730154E+02 -0.10546653332E+02 -0.11803762720E+02  0.54367179886E+02  0.40000218185E+02 0.  0.
        -12    1    3    3    0    0 -0.33244730154E+02  0.10546653332E+02  0.11803762720E+02  0.36820820114E+02  0.00000000000E+00 0.  1.
         11    1    4    4    0    0  0.21778736056E+02 -0.28984679516E+01 -0.16633364994E+02  0.27556910058E+02  0.51100000000E-03 0. -1.
        -11    1    4    4    0    0  0.11184128164E+02 -0.11323169315E+02  0.11192529769E+02  0.19456916740E+02  0.51100000000E-03 0.  1.
        -12    1    4    4    0    0  0.28186593294E+00  0.36749839342E+01 -0.63629274952E+01  0.73533530875E+01  0.00000000000E+00 0.  1.
</event>
<event>
 8    1  0.1248739E-006  0.9118800E+02  0.7816164E-02  0.1184000E+00
        -11   -1    0    0    0    0  0.00000000000E+00  0.00000000000E+00  0.45593999997E+02  0.45594000000E+02  0.51100000000E-03 0.  1.
         11   -1    0    0    0    0 -0.00000000000E+00 -0.00000000000E+00 -0.45593999997E+02  0.45594000000E+02  0.51100000000E-03 0. -1.
         23    2    1    2    0    0 -0.17763568394E-14  0.35527136788E-14 -0.35527136788E-14  0.91188000000E+02  0.91188000000E+02 0.  0.
    9900012    2    3    3    0    0  0.12195688528E+02 -0.19752584389E+02  0.28581126640E+02  0.54367079198E+02  0.39999988647E+02 0.  0.
        -12    1    3    3    0    0 -0.12195688528E+02  0.19752584389E+02 -0.28581126640E+02  0.36820920802E+02  0.00000000000E+00 0.  1.
         11    1    4    4    0    0  0.77757532701E+01 -0.68751916492E+01  0.11390453303E+02  0.15410159825E+02  0.51100000000E-03 0. -1.
        -11    1    4    4    0    0 -0.13597732250E+02 -0.84743223468E+01  0.50920582949E+01  0.16811945739E+02  0.51100000000E-03 0.  1.
         12    1    4    4    0    0  0.18017667508E+02 -0.44030703926E+01  0.12098615042E+02  0.22144973634E+02  0.00000000000E+00 0. -1.
</event>
<event>
 8    1  0.1248739E-006  0.9118800E+02  0.7816164E-02  0.1184000E+00
        -11   -1    0    0    0    0  0.00000000000E+00  0.00000000000E+00  0.45593999997E+02  0.45594000000E+02  0.51100000000E-03 0. -1.
         11   -1    0    0    0    0 -0.00000000000E+00 -0.00000000000E+00 -0.45593999997E+02  0.45594000000E+02  0.51100000000E-03 0.  1.
         23    2    1    2    0    0  0.00000000000E+00  0.00000000000E+00  0.35527136788E-14  0.91188000000E+02  0.91188000000E+02 0.  0.
    9900012    2    3    3    0    0 -0.27532858303E+02  0.50025715975E+01  0.23930844741E+02  0.54367226801E+02  0.40000325138E+02 0.  0.
        -12    1    3    3    0    0  0.27532858303E+02 -0.50025715975E+01 -0.23930844741E+02  0.36820773199E+02  0.00000000000E+00 0.  1.
         11    1    4    4    0    0 -0.28778019190E+01  0.68939564860E+01  0.69879436479E+01  0.10229356607E+02  0.51100000000E-03 0. -1.
        -11    1    4    4    0    0 -0.87458806860E-01  0.72665200193E+01  0.16372380665E+02  0.17912699716E+02  0.51100000000E-03 0.  1.
         12    1    4    4    0    0 -0.24567597577E+02 -0.91579049078E+01  0.57052042832E+00  0.26225170478E+02  0.00000000000E+00 0. -1.
</event>
<event>
 8    1  0.1248739E-006  0.9118800E+02  0.7816164E-02  0.1184000E+00
        -11   -1    0    0    0    0  0.00000000000E+00  0.00000000000E+00  0.45593999997E+02  0.45594000000E+02  0.51100000000E-03 0.  1.
         11   -1    0    0    0    0 -0.00000000000E+00 -0.00000000000E+00 -0.45593999997E+02  0.45594000000E+02  0.51100000000E-03 0. -1.
         23    2    1    2    0    0 -0.35527136788E-14  0.00000000000E+00  0.00000000000E+00  0.91188000000E+02  0.91188000000E+02 0.  0.
    9900012    2    3    3    0    0  0.30774823774E+02 -0.15261667676E+02  0.13257891881E+02  0.54367082362E+02  0.39999995860E+02 0.  0.
         12    1    3    3    0    0 -0.30774823774E+02  0.15261667676E+02 -0.13257891881E+02  0.36820917638E+02  0.00000000000E+00 0. -1.
         11    1    4    4    0    0  0.78243816428E+01 -0.37645930354E+00 -0.36789962771E+01  0.86543447798E+01  0.51100000000E-03 0. -1.
        -11    1    4    4    0    0  0.23989506808E+02 -0.23604801991E+02  0.14032573009E+02  0.36463628719E+02  0.51100000000E-03 0.  1.
         12    1    4    4    0    0 -0.10390646763E+01  0.87195936180E+01  0.29043151495E+01  0.92491088626E+01  0.00000000000E+00 0. -1.
</event>
<event>
 8    1  0.1248739E-006  0.9118800E+02  0.7816164E-02  0.1184000E+00
        -11   -1    0    0    0    0  0.00000000000E+00  0.00000000000E+00  0.45593999997E+02  0.45594000000E+02  0.51100000000E-03 0.  1.
         11   -1    0    0    0    0 -0.00000000000E+00 -0.00000000000E+00 -0.45593999997E+02  0.45594000000E+02  0.51100000000E-03 0. -1.
         23    2    1    2    0    0  0.00000000000E+00  0.17763568394E-14  0.00000000000E+00  0.91188000000E+02  0.91188000000E+02 0.  0.
    9900012    2    3    3    0    0 -0.27463973556E+02  0.13581044407E+02  0.20422190549E+02  0.54367075548E+02  0.39999980326E+02 0.  0.
         12    1    3    3    0    0  0.27463973556E+02 -0.13581044407E+02 -0.20422190549E+02  0.36820924452E+02  0.00000000000E+00 0. -1.
         11    1    4    4    0    0  0.53904718070E+01  0.43544139213E+00 -0.24617577334E+01  0.59419733176E+01  0.51100000000E-03 0. -1.
        -11    1    4    4    0    0 -0.75385976560E+01 -0.65754980666E+01  0.90131605883E+01  0.13464943130E+02  0.51100000000E-03 0.  1.
        -12    1    4    4    0    0 -0.25315847707E+02  0.19721101082E+02  0.13870787695E+02  0.34960159100E+02  0.00000000000E+00 0.  1.
</event>
<event>
 8    1  0.1248739E-006  0.9118800E+02  0.7816164E-02  0.1184000E+00
        -11   -1    0    0    0    0  0.00000000000E+00  0.00000000000E+00  0.45593999997E+02  0.45594000000E+02  0.51100000000E-03 0. -1.
         11   -1    0    0    0    0 -0.00000000000E+00 -0.00000000000E+00 -0.45593999997E+02  0.45594000000E+02  0.51100000000E-03 0.  1.
         23    2    1    2    0    0  0.17763568394E-14 -0.35527136788E-14  0.35527136788E-14  0.91188000000E+02  0.91188000000E+02 0.  0.
    9900012    2    3    3    0    0  0.12699415970E+02  0.19574605077E+02  0.28484031980E+02  0.54367076496E+02  0.39999982487E+02 0.  0.
        -12    1    3    3    0    0 -0.12699415970E+02 -0.19574605077E+02 -0.28484031980E+02  0.36820923504E+02  0.00000000000E+00 0.  1.
         11    1    4    4    0    0  0.91051216866E+01  0.13681440524E+02 -0.21100090891E+01  0.16569163961E+02  0.51100000000E-03 0. -1.
        -11    1    4    4    0    0  0.86934130618E+01 -0.40936256395E+01  0.77303572302E+01  0.12332543319E+02  0.51100000000E-03 0.  1.
        -12    1    4    4    0    0 -0.50991187780E+01  0.99867901924E+01  0.22863683839E+02  0.25465369216E+02  0.00000000000E+00 0.  1.
</event>
<event>
 8    1  0.1248739E-006  0.9118800E+02  0.7816164E-02  0.1184000E+00
        -11   -1    0    0    0    0  0.00000000000E+00  0.00000000000E+00  0.45593999997E+02  0.45594000000E+02  0.51100000000E-03 0.  1.
         11   -1    0    0    0    0 -0.00000000000E+00 -0.00000000000E+00 -0.45593999997E+02  0.45594000000E+02  0.51100000000E-03 0. -1.
         23    2    1    2    0    0  0.00000000000E+00  0.35527136788E-14  0.35527136788E-14  0.91188000000E+02  0.91188000000E+02 0.  0.
    9900012    2    3    3    0    0  0.21096980682E+02 -0.25390350854E+02 -0.16310315460E+02  0.54367096959E+02  0.40000029137E+02 0.  0.
        -12    1    3    3    0    0 -0.21096980682E+02  0.25390350854E+02  0.16310315460E+02  0.36820903041E+02  0.00000000000E+00 0.  1.
         11    1    4    4    0    0  0.27143039350E+02 -0.31960401137E+02 -0.14534356305E+02  0.44378591003E+02  0.51100000000E-03 0. -1.
        -11    1    4    4    0    0 -0.32130396932E+01  0.54914916304E+01 -0.25588110931E+01  0.68576686176E+01  0.51100000000E-03 0.  1.
         12    1    4    4    0    0 -0.28330189745E+01  0.10785586531E+01  0.78285193837E+00  0.31308373378E+01  0.00000000000E+00 0. -1.
</event>
<event>
 8    1  0.1248739E-006  0.9118800E+02  0.7816164E-02  0.1184000E+00
        -11   -1    0    0    0    0  0.00000000000E+00  0.00000000000E+00  0.45593999997E+02  0.45594000000E+02  0.51100000000E-03 0.  1.
         11   -1    0    0    0    0 -0.00000000000E+00 -0.00000000000E+00 -0.45593999997E+02  0.45594000000E+02  0.51100000000E-03 0. -1.
         23    2    1    2    0    0  0.35527136788E-14  0.35527136788E-14 -0.35527136788E-14  0.91188000000E+02  0.91188000000E+02 0.  0.
    9900012    2    3    3    0    0 -0.23282741691E+02 -0.16758458254E+02  0.23083440597E+02  0.54367119871E+02  0.40000081370E+02 0.  0.
         12    1    3    3    0    0  0.23282741691E+02  0.16758458254E+02 -0.23083440597E+02  0.36820880129E+02  0.00000000000E+00 0. -1.
         11    1    4    4    0    0 -0.11884076613E+02 -0.16876893150E+02 -0.32853881550E+00  0.20643854712E+02  0.51100000000E-03 0. -1.
        -11    1    4    4    0    0  0.18562302662E+01  0.80868641819E+01  0.11604001613E+02  0.14265195996E+02  0.51100000000E-03 0.  1.
         12    1    4    4    0    0 -0.13254895344E+02 -0.79684292856E+01  0.11807977799E+02  0.19458069163E+02  0.00000000000E+00 0. -1.
</event>
<event>
 8    1  0.1248739E-006  0.9118800E+02  0.7816164E-02  0.1184000E+00
        -11   -1    0    0    0    0  0.00000000000E+00  0.00000000000E+00  0.45593999997E+02  0.45594000000E+02  0.51100000000E-03 0.  1.
         11   -1    0    0    0    0 -0.00000000000E+00 -0.00000000000E+00 -0.45593999997E+02  0.45594000000E+02  0.51100000000E-03 0. -1.
         23    2    1    2    0    0  0.00000000000E+00  0.00000000000E+00  0.00000000000E+00  0.91188000000E+02  0.91188000000E+02 0.  0.
    9900012    2    3    3    0    0  0.31111315897E+02  0.19425146856E+02 -0.32463267227E+01  0.54366960574E+02  0.39999718219E+02 0.  0.
         12    1    3    3    0    0 -0.31111315897E+02 -0.19425146856E+02  0.32463267227E+01  0.36821039426E+02  0.00000000000E+00 0. -1.
         11    1    4    4    0    0 -0.32233485359E+01  0.53953630933E+01 -0.83437846174E+01  0.10445987780E+02  0.51100000000E-03 0.  1.
        -11    1    4    4    0    0  0.20987227445E+02 -0.38109288905E+01  0.30228412600E+01  0.21543548092E+02  0.51100000000E-03 0. -1.
        -12    1    4    4    0    0  0.13347436988E+02  0.17840712653E+02  0.20746166347E+01  0.22377424702E+02  0.00000000000E+00 0.  1.
</event>
<event>
 8    1  0.1248739E-006  0.9118800E+02  0.7816164E-02  0.1184000E+00
        -11   -1    0    0    0    0  0.00000000000E+00  0.00000000000E+00  0.45593999997E+02  0.45594000000E+02  0.51100000000E-03 0. -1.
         11   -1    0    0    0    0 -0.00000000000E+00 -0.00000000000E+00 -0.45593999997E+02  0.45594000000E+02  0.51100000000E-03 0.  1.
         23    2    1    2    0    0 -0.71054273576E-14 -0.35527136788E-14  0.00000000000E+00  0.91188000000E+02  0.91188000000E+02 0.  0.
    9900012    2    3    3    0    0 -0.33414012446E+02  0.12748117886E+02 -0.87618429095E+01  0.54367073497E+02  0.39999975650E+02 0.  0.
         12    1    3    3    0    0  0.33414012446E+02 -0.12748117886E+02  0.87618429095E+01  0.36820926503E+02  0.00000000000E+00 0. -1.
         11    1    4    4    0    0 -0.18266976718E+02 -0.57199954651E+01  0.65440727764E+01  0.20229327110E+02  0.51100000000E-03 0. -1.
        -11    1    4    4    0    0 -0.53906582138E+01  0.18711507857E+02 -0.14627961021E+02  0.24354814024E+02  0.51100000000E-03 0.  1.
         12    1    4    4    0    0 -0.97563775143E+01 -0.24339450548E+00 -0.67795466476E+00  0.97829323627E+01  0.00000000000E+00 0. -1.
</event>
<event>
 8    1  0.1248739E-006  0.9118800E+02  0.7816164E-02  0.1184000E+00
        -11   -1    0    0    0    0  0.00000000000E+00  0.00000000000E+00  0.45593999997E+02  0.45594000000E+02  0.51100000000E-03 0. -1.
         11   -1    0    0    0    0 -0.00000000000E+00 -0.00000000000E+00 -0.45593999997E+02  0.45594000000E+02  0.51100000000E-03 0.  1.
         23    2    1    2    0    0 -0.35527136788E-14  0.00000000000E+00 -0.35527136788E-14  0.91188000000E+02  0.91188000000E+02 0.  0.
    9900012    2    3    3    0    0  0.17700964642E+02  0.17664564714E+02 -0.27026212070E+02  0.54367120942E+02  0.40000083811E+02 0.  0.
         12    1    3    3    0    0 -0.17700964642E+02 -0.17664564714E+02  0.27026212070E+02  0.36820879058E+02  0.00000000000E+00 0. -1.
         11    1    4    4    0    0  0.19005557292E+01  0.75818124636E+01  0.23872011099E+01  0.81728037853E+01  0.51100000000E-03 0. -1.
        -11    1    4    4    0    0 -0.81226141862E+01  0.73437423320E+01 -0.54833891643E+01  0.12246426811E+02  0.51100000000E-03 0.  1.
        -12    1    4    4    0    0  0.23923023099E+02  0.27390099182E+01 -0.23930024016E+02  0.33947890345E+02  0.00000000000E+00 0.  1.
</event>
<event>
 8    1  0.1248739E-006  0.9118800E+02  0.7816164E-02  0.1184000E+00
        -11   -1    0    0    0    0  0.00000000000E+00  0.00000000000E+00  0.45593999997E+02  0.45594000000E+02  0.51100000000E-03 0.  1.
         11   -1    0    0    0    0 -0.00000000000E+00 -0.00000000000E+00 -0.45593999997E+02  0.45594000000E+02  0.51100000000E-03 0. -1.
         23    2    1    2    0    0 -0.17763568394E-14  0.00000000000E+00 -0.17763568394E-14  0.91188000000E+02  0.91188000000E+02 0.  0.
    9900012    2    3    3    0    0 -0.11769690783E+02  0.31937467868E+02 -0.14044677808E+02  0.54367075925E+02  0.39999981187E+02 0.  0.
        -12    1    3    3    0    0  0.11769690783E+02 -0.31937467868E+02  0.14044677808E+02  0.36820924075E+02  0.00000000000E+00 0.  1.
         11    1    4    4    0    0  0.43225986734E+01  0.27857497075E+02 -0.13810889178E+02  0.31392127400E+02  0.51100000000E-03 0. -1.
        -11    1    4    4    0    0 -0.47721274445E+01  0.34311223260E+01  0.72920859156E+01  0.93659125569E+01  0.51100000000E-03 0.  1.
         12    1    4    4    0    0 -0.11320162012E+02  0.64884846736E+00 -0.75258745457E+01  0.13609035968E+02  0.00000000000E+00 0. -1.
</event>
<event>
 8    1  0.1248739E-006  0.9118800E+02  0.7816164E-02  0.1184000E+00
        -11   -1    0    0    0    0  0.00000000000E+00  0.00000000000E+00  0.45593999997E+02  0.45594000000E+02  0.51100000000E-03 0. -1.
         11   -1    0    0    0    0 -0.00000000000E+00 -0.00000000000E+00 -0.45593999997E+02  0.45594000000E+02  0.51100000000E-03 0.  1.
         23    2    1    2    0    0 -0.71054273576E-14 -0.17763568394E-14  0.44408920985E-15  0.91188000000E+02  0.91188000000E+02 0.  0.
    9900012    2    3    3    0    0  0.35210124966E+02  0.10763209135E+02 -0.42440953602E+00  0.54367086181E+02  0.40000004568E+02 0.  0.
         12    1    3    3    0    0 -0.35210124966E+02 -0.10763209135E+02  0.42440953602E+00  0.36820913819E+02  0.00000000000E+00 0. -1.
         11    1    4    4    0    0  0.69541811669E+01 -0.34240163288E+01  0.14236564916E+02  0.16210006305E+02  0.51100000000E-03 0. -1.
        -11    1    4    4    0    0  0.84845315008E+01  0.87194843804E+01  0.12022941235E+01  0.12225473163E+02  0.51100000000E-03 0.  1.
         12    1    4    4    0    0  0.19771412298E+02  0.54677410831E+01 -0.15863268576E+02  0.25931606713E+02  0.00000000000E+00 0. -1.
</event>
<event>
 8    1  0.1248739E-006  0.9118800E+02  0.7816164E-02  0.1184000E+00
        -11   -1    0    0    0    0  0.00000000000E+00  0.00000000000E+00  0.45593999997E+02  0.45594000000E+02  0.51100000000E-03 0.  1.
         11   -1    0    0    0    0 -0.00000000000E+00 -0.00000000000E+00 -0.45593999997E+02  0.45594000000E+02  0.51100000000E-03 0. -1.
         23    2    1    2    0    0  0.00000000000E+00 -0.35527136788E-14  0.35527136788E-14  0.91188000000E+02  0.91188000000E+02 0.  0.
    9900012    2    3    3    0    0  0.26800850794E+02 -0.18077687510E+02  0.17626454153E+02  0.54367078298E+02  0.39999986596E+02 0.  0.
        -12    1    3    3    0    0 -0.26800850794E+02  0.18077687510E+02 -0.17626454153E+02  0.36820921702E+02  0.00000000000E+00 0.  1.
         11    1    4    4    0    0  0.10118405253E+02  0.11955620767E+02  0.87059055500E+01  0.17919592197E+02  0.51100000000E-03 0.  1.
        -11    1    4    4    0    0 -0.33612481369E+00 -0.52823001367E+01  0.16251496631E+01  0.55368570790E+01  0.51100000000E-03 0. -1.
        -12    1    4    4    0    0  0.17018570354E+02 -0.24751008140E+02  0.72953989395E+01  0.30910629022E+02  0.00000000000E+00 0.  1.
</event>
<event>
 8    1  0.1248739E-006  0.9118800E+02  0.7816164E-02  0.1184000E+00
        -11   -1    0    0    0    0  0.00000000000E+00  0.00000000000E+00  0.45593999997E+02  0.45594000000E+02  0.51100000000E-03 0. -1.
         11   -1    0    0    0    0 -0.00000000000E+00 -0.00000000000E+00 -0.45593999997E+02  0.45594000000E+02  0.51100000000E-03 0.  1.
         23    2    1    2    0    0  0.00000000000E+00  0.00000000000E+00  0.44408920985E-15  0.91188000000E+02  0.91188000000E+02 0.  0.
    9900012    2    3    3    0    0 -0.34669881094E+02  0.12169971755E+02  0.23819116355E+01  0.54367049841E+02  0.39999921723E+02 0.  0.
         12    1    3    3    0    0  0.34669881094E+02 -0.12169971755E+02 -0.23819116355E+01  0.36820950159E+02  0.00000000000E+00 0. -1.
         11    1    4    4    0    0 -0.29628159072E+02  0.19996176999E+02  0.39293039325E+01  0.35959898974E+02  0.51100000000E-03 0. -1.
        -11    1    4    4    0    0 -0.64837994029E+01 -0.48070484191E+01  0.60622173907E+01  0.10094446451E+02  0.51100000000E-03 0.  1.
        -12    1    4    4    0    0  0.14420773814E+01 -0.30191568247E+01 -0.76096096878E+01  0.83127044159E+01  0.00000000000E+00 0.  1.
</event>
<event>
 8    1  0.1248739E-006  0.9118800E+02  0.7816164E-02  0.1184000E+00
        -11   -1    0    0    0    0  0.00000000000E+00  0.00000000000E+00  0.45593999997E+02  0.45594000000E+02  0.51100000000E-03 0. -1.
         11   -1    0    0    0    0 -0.00000000000E+00 -0.00000000000E+00 -0.45593999997E+02  0.45594000000E+02  0.51100000000E-03 0.  1.
         23    2    1    2    0    0  0.00000000000E+00 -0.88817841970E-15  0.00000000000E+00  0.91188000000E+02  0.91188000000E+02 0.  0.
    9900012    2    3    3    0    0  0.34744205864E+02 -0.61133686127E+01  0.10547318106E+02  0.54367095121E+02  0.40000024947E+02 0.  0.
        -12    1    3    3    0    0 -0.34744205864E+02  0.61133686127E+01 -0.10547318106E+02  0.36820904879E+02  0.00000000000E+00 0.  1.
         11    1    4    4    0    0  0.13953661548E+02 -0.12180822540E+02  0.45821234976E+01  0.19080696118E+02  0.51100000000E-03 0. -1.
        -11    1    4    4    0    0  0.21173862107E+02  0.13748481644E+02  0.92994358486E+01  0.26904138927E+02  0.51100000000E-03 0.  1.
         12    1    4    4    0    0 -0.38331779142E+00 -0.76810277171E+01 -0.33342412403E+01  0.83822600753E+01  0.00000000000E+00 0. -1.
</event>
<event>
 8    1  0.1248739E-006  0.9118800E+02  0.7816164E-02  0.1184000E+00
        -11   -1    0    0    0    0  0.00000000000E+00  0.00000000000E+00  0.45593999997E+02  0.45594000000E+02  0.51100000000E-03 0. -1.
         11   -1    0    0    0    0 -0.00000000000E+00 -0.00000000000E+00 -0.45593999997E+02  0.45594000000E+02  0.51100000000E-03 0.  1.
         23    2    1    2    0    0  0.00000000000E+00  0.00000000000E+00  0.00000000000E+00  0.91188000000E+02  0.91188000000E+02 0.  0.
    9900012    2    3    3    0    0 -0.33353524248E+02  0.14022285666E+02 -0.68335891062E+01  0.54367081827E+02  0.39999994641E+02 0.  0.
         12    1    3    3    0    0  0.33353524248E+02 -0.14022285666E+02  0.68335891062E+01  0.36820918173E+02  0.00000000000E+00 0. -1.
         11    1    4    4    0    0 -0.28686410285E+02  0.10724132540E+02 -0.14243915492E+02  0.33775823936E+02  0.51100000000E-03 0. -1.
        -11    1    4    4    0    0 -0.66370631647E+01  0.44924984103E+01 -0.39953727628E+01  0.89552304936E+01  0.51100000000E-03 0.  1.
         12    1    4    4    0    0  0.19699492021E+01 -0.11943452840E+01  0.11405699148E+02  0.11636027397E+02  0.00000000000E+00 0. -1.
</event>
<event>
 8    1  0.1248739E-006  0.9118800E+02  0.7816164E-02  0.1184000E+00
        -11   -1    0    0    0    0  0.00000000000E+00  0.00000000000E+00  0.45593999997E+02  0.45594000000E+02  0.51100000000E-03 0.  1.
         11   -1    0    0    0    0 -0.00000000000E+00 -0.00000000000E+00 -0.45593999997E+02  0.45594000000E+02  0.51100000000E-03 0. -1.
         23    2    1    2    0    0  0.88817841970E-15  0.00000000000E+00  0.71054273576E-14  0.91188000000E+02  0.91188000000E+02 0.  0.
    9900012    2    3    3    0    0  0.39546731724E+01  0.11566179751E+02 -0.34732774865E+02  0.54367060255E+02  0.39999945463E+02 0.  0.
        -12    1    3    3    0    0 -0.39546731724E+01 -0.11566179751E+02  0.34732774865E+02  0.36820939745E+02  0.00000000000E+00 0.  1.
         11    1    4    4    0    0 -0.82624943623E-02  0.46215636667E+01 -0.24766870434E+02  0.25194380135E+02  0.51100000000E-03 0. -1.
        -11    1    4    4    0    0  0.13095750301E+02 -0.13388186459E+01  0.24111732109E+00  0.13166216204E+02  0.51100000000E-03 0.  1.
        -12    1    4    4    0    0 -0.91328146340E+01  0.82834347299E+01 -0.10207021751E+02  0.16006463916E+02  0.00000000000E+00 0.  1.
</event>
<event>
 8    1  0.1248739E-006  0.9118800E+02  0.7816164E-02  0.1184000E+00
        -11   -1    0    0    0    0  0.00000000000E+00  0.00000000000E+00  0.45593999997E+02  0.45594000000E+02  0.51100000000E-03 0.  1.
         11   -1    0    0    0    0 -0.00000000000E+00 -0.00000000000E+00 -0.45593999997E+02  0.45594000000E+02  0.51100000000E-03 0. -1.
         23    2    1    2    0    0  0.00000000000E+00 -0.17763568394E-14 -0.44408920985E-15  0.91188000000E+02  0.91188000000E+02 0.  0.
    9900012    2    3    3    0    0  0.35939751447E+02 -0.72231416373E+01 -0.34555670930E+01  0.54367075880E+02  0.39999981083E+02 0.  0.
         12    1    3    3    0    0 -0.35939751447E+02  0.72231416373E+01  0.34555670930E+01  0.36820924120E+02  0.00000000000E+00 0. -1.
         11    1    4    4    0    0  0.11771531495E+02 -0.12617095246E+02  0.76211685829E+01  0.18863781620E+02  0.51100000000E-03 0. -1.
        -11    1    4    4    0    0  0.20579787925E+01 -0.88361710403E+00  0.63022449539E+01  0.66883740638E+01  0.51100000000E-03 0.  1.
        -12    1    4    4    0    0  0.22110241160E+02  0.62775707123E+01 -0.17378980630E+02  0.28814920196E+02  0.00000000000E+00 0.  1.
</event>
<event>
 8    1  0.1248739E-006  0.9118800E+02  0.7816164E-02  0.1184000E+00
        -11   -1    0    0    0    0  0.00000000000E+00  0.00000000000E+00  0.45593999997E+02  0.45594000000E+02  0.51100000000E-03 0. -1.
         11   -1    0    0    0    0 -0.00000000000E+00 -0.00000000000E+00 -0.45593999997E+02  0.45594000000E+02  0.51100000000E-03 0.  1.
         23    2    1    2    0    0  0.00000000000E+00  0.00000000000E+00  0.11102230246E-14  0.91188000000E+02  0.91188000000E+02 0.  0.
    9900012    2    3    3    0    0 -0.26894445981E+02  0.25126885884E+02  0.10526728371E+01  0.54367085577E+02  0.40000003189E+02 0.  0.
        -12    1    3    3    0    0  0.26894445981E+02 -0.25126885884E+02 -0.10526728371E+01  0.36820914423E+02  0.00000000000E+00 0.  1.
         11    1    4    4    0    0  0.41852172267E+01  0.12735018619E+00 -0.61213531680E+01  0.74164159925E+01  0.51100000000E-03 0. -1.
        -11    1    4    4    0    0 -0.16540315923E+02  0.26519689934E+01 -0.52250647296E+01  0.17547543762E+02  0.51100000000E-03 0.  1.
         12    1    4    4    0    0 -0.14539347285E+02  0.22347566705E+02  0.12399090735E+02  0.29403125822E+02  0.00000000000E+00 0. -1.
</event>
<event>
 8    1  0.1248739E-006  0.9118800E+02  0.7816164E-02  0.1184000E+00
        -11   -1    0    0    0    0  0.00000000000E+00  0.00000000000E+00  0.45593999997E+02  0.45594000000E+02  0.51100000000E-03 0. -1.
         11   -1    0    0    0    0 -0.00000000000E+00 -0.00000000000E+00 -0.45593999997E+02  0.45594000000E+02  0.51100000000E-03 0.  1.
         23    2    1    2    0    0 -0.55511151231E-15  0.00000000000E+00  0.00000000000E+00  0.91188000000E+02  0.91188000000E+02 0.  0.
    9900012    2    3    3    0    0 -0.66429589818E+00  0.16389870776E+02  0.32965282720E+02  0.54367095368E+02  0.40000025511E+02 0.  0.
        -12    1    3    3    0    0  0.66429589818E+00 -0.16389870776E+02 -0.32965282720E+02  0.36820904632E+02  0.00000000000E+00 0.  1.
         11    1    4    4    0    0 -0.50206555008E+01  0.27250038406E+01  0.23598726378E+02  0.24280290659E+02  0.51100000000E-03 0. -1.
        -11    1    4    4    0    0 -0.47107066794E+01 -0.54520488378E+01  0.76023518075E+00  0.72452433873E+01  0.51100000000E-03 0.  1.
         12    1    4    4    0    0  0.90670662821E+01  0.19116915774E+02  0.86063211613E+01  0.22841561321E+02  0.00000000000E+00 0. -1.
</event>
<event>
 8    1  0.1248739E-006  0.9118800E+02  0.7816164E-02  0.1184000E+00
        -11   -1    0    0    0    0  0.00000000000E+00  0.00000000000E+00  0.45593999997E+02  0.45594000000E+02  0.51100000000E-03 0.  1.
         11   -1    0    0    0    0 -0.00000000000E+00 -0.00000000000E+00 -0.45593999997E+02  0.45594000000E+02  0.51100000000E-03 0. -1.
         23    2    1    2    0    0  0.00000000000E+00  0.00000000000E+00 -0.71054273576E-14  0.91188000000E+02  0.91188000000E+02 0.  0.
    9900012    2    3    3    0    0  0.38071120163E+01 -0.72472771642E+01 -0.35899343255E+02  0.54367082381E+02  0.39999995904E+02 0.  0.
        -12    1    3    3    0    0 -0.38071120163E+01  0.72472771642E+01  0.35899343255E+02  0.36820917619E+02  0.00000000000E+00 0.  1.
         11    1    4    4    0    0 -0.11620447708E+02 -0.23186247595E+01 -0.31040668217E+02  0.33225500889E+02  0.51100000000E-03 0.  1.
        -11    1    4    4    0    0  0.14358077912E+01  0.94286400761E+00  0.34412491337E+01  0.38461321365E+01  0.51100000000E-03 0. -1.
         12    1    4    4    0    0  0.13991751933E+02 -0.58715164123E+01 -0.82999241714E+01  0.17295449355E+02  0.00000000000E+00 0. -1.
</event>
<event>
 8    1  0.1248739E-006  0.9118800E+02  0.7816164E-02  0.1184000E+00
        -11   -1    0    0    0    0  0.00000000000E+00  0.00000000000E+00  0.45593999997E+02  0.45594000000E+02  0.51100000000E-03 0. -1.
         11   -1    0    0    0    0 -0.00000000000E+00 -0.00000000000E+00 -0.45593999997E+02  0.45594000000E+02  0.51100000000E-03 0.  1.
         23    2    1    2    0    0  0.00000000000E+00  0.00000000000E+00  0.17763568394E-14  0.91188000000E+02  0.91188000000E+02 0.  0.
    9900012    2    3    3    0    0 -0.32536427535E+02  0.82261156315E+01 -0.15148900315E+02  0.54367119023E+02  0.40000079437E+02 0.  0.
         12    1    3    3    0    0  0.32536427535E+02 -0.82261156315E+01  0.15148900315E+02  0.36820880977E+02  0.00000000000E+00 0. -1.
         11    1    4    4    0    0 -0.24071799801E+02 -0.11773404420E+02 -0.16092950405E+02  0.31257761441E+02  0.51100000000E-03 0. -1.
        -11    1    4    4    0    0 -0.18267269233E+01  0.83445501086E+01  0.38753033386E+01  0.93801078882E+01  0.51100000000E-03 0.  1.
        -12    1    4    4    0    0 -0.66379008105E+01  0.11654969943E+02 -0.29312532492E+01  0.13729249694E+02  0.00000000000E+00 0.  1.
</event>
<event>
 8    1  0.1248739E-006  0.9118800E+02  0.7816164E-02  0.1184000E+00
        -11   -1    0    0    0    0  0.00000000000E+00  0.00000000000E+00  0.45593999997E+02  0.45594000000E+02  0.51100000000E-03 0.  1.
         11   -1    0    0    0    0 -0.00000000000E+00 -0.00000000000E+00 -0.45593999997E+02  0.45594000000E+02  0.51100000000E-03 0. -1.
         23    2    1    2    0    0 -0.88817841970E-15  0.35527136788E-14  0.35527136788E-14  0.91188000000E+02  0.91188000000E+02 0.  0.
    9900012    2    3    3    0    0 -0.50759203065E+01  0.24892183313E+02 -0.26653212202E+02  0.54367089124E+02  0.40000011277E+02 0.  0.
         12    1    3    3    0    0  0.50759203065E+01 -0.24892183313E+02  0.26653212202E+02  0.36820910876E+02  0.00000000000E+00 0. -1.
         11    1    4    4    0    0 -0.13970126882E+02  0.10060529062E+01 -0.70324753250E+00  0.14023948977E+02  0.51100000000E-03 0. -1.
        -11    1    4    4    0    0  0.70933415586E+01  0.49138984011E+01 -0.62928593151E+00  0.86520455968E+01  0.51100000000E-03 0.  1.
        -12    1    4    4    0    0  0.18008650169E+01  0.18972232005E+02 -0.25320678738E+02  0.31691094551E+02  0.00000000000E+00 0.  1.
</event>
<event>
 8    1  0.1248739E-006  0.9118800E+02  0.7816164E-02  0.1184000E+00
        -11   -1    0    0    0    0  0.00000000000E+00  0.00000000000E+00  0.45593999997E+02  0.45594000000E+02  0.51100000000E-03 0. -1.
         11   -1    0    0    0    0 -0.00000000000E+00 -0.00000000000E+00 -0.45593999997E+02  0.45594000000E+02  0.51100000000E-03 0.  1.
         23    2    1    2    0    0  0.00000000000E+00 -0.71054273576E-14 -0.36082248300E-15  0.91188000000E+02  0.91188000000E+02 0.  0.
    9900012    2    3    3    0    0 -0.77025837905E+01  0.36006086980E+02  0.11629798115E+00  0.54367060008E+02  0.39999944900E+02 0.  0.
        -12    1    3    3    0    0  0.77025837905E+01 -0.36006086980E+02 -0.11629798115E+00  0.36820939992E+02  0.00000000000E+00 0.  1.
         11    1    4    4    0    0 -0.10671348439E+02  0.11673189822E+02 -0.16631643872E+01  0.15903054869E+02  0.51100000000E-03 0. -1.
        -11    1    4    4    0    0 -0.10602764241E+01  0.22646512891E+02 -0.10825834652E+02  0.25123443800E+02  0.51100000000E-03 0.  1.
        -12    1    4    4    0    0  0.40290410727E+01  0.16863842671E+01  0.12605297020E+02  0.13340561339E+02  0.00000000000E+00 0.  1.
</event>
<event>
 8    1  0.1248739E-006  0.9118800E+02  0.7816164E-02  0.1184000E+00
        -11   -1    0    0    0    0  0.00000000000E+00  0.00000000000E+00  0.45593999997E+02  0.45594000000E+02  0.51100000000E-03 0.  1.
         11   -1    0    0    0    0 -0.00000000000E+00 -0.00000000000E+00 -0.45593999997E+02  0.45594000000E+02  0.51100000000E-03 0. -1.
         23    2    1    2    0    0  0.00000000000E+00  0.00000000000E+00  0.00000000000E+00  0.91188000000E+02  0.91188000000E+02 0.  0.
    9900012    2    3    3    0    0  0.33834117643E+02 -0.12755904992E+02  0.69511826760E+01  0.54367087879E+02  0.40000008438E+02 0.  0.
         12    1    3    3    0    0 -0.33834117643E+02  0.12755904992E+02 -0.69511826760E+01  0.36820912121E+02  0.00000000000E+00 0. -1.
         11    1    4    4    0    0  0.12335642910E+02  0.11679676902E+01  0.21380358844E+02  0.24711373477E+02  0.51100000000E-03 0.  1.
        -11    1    4    4    0    0  0.11928004369E+02 -0.80757445923E+01 -0.10281385928E+02  0.17697509311E+02  0.51100000000E-03 0. -1.
        -12    1    4    4    0    0  0.95704703637E+01 -0.58481280899E+01 -0.41477902405E+01  0.11958205092E+02  0.00000000000E+00 0.  1.
</event>
<event>
 8    1  0.1248739E-006  0.9118800E+02  0.7816164E-02  0.1184000E+00
        -11   -1    0    0    0    0  0.00000000000E+00  0.00000000000E+00  0.45593999997E+02  0.45594000000E+02  0.51100000000E-03 0.  1.
         11   -1    0    0    0    0 -0.00000000000E+00 -0.00000000000E+00 -0.45593999997E+02  0.45594000000E+02  0.51100000000E-03 0. -1.
         23    2    1    2    0    0  0.17763568394E-14  0.00000000000E+00  0.00000000000E+00  0.91188000000E+02  0.91188000000E+02 0.  0.
    9900012    2    3    3    0    0  0.11947774185E+02  0.26687273349E+02 -0.22378972208E+02  0.54367105608E+02  0.40000048854E+02 0.  0.
        -12    1    3    3    0    0 -0.11947774185E+02 -0.26687273349E+02  0.22378972208E+02  0.36820894392E+02  0.00000000000E+00 0.  1.
         11    1    4    4    0    0  0.50883913425E+01  0.10525935947E+02 -0.73330892301E+01  0.13800769976E+02  0.51100000000E-03 0. -1.
        -11    1    4    4    0    0  0.19152133545E+02  0.15623922612E+02 -0.64116671369E+01  0.25534695080E+02  0.51100000000E-03 0.  1.
        -12    1    4    4    0    0 -0.12292750702E+02  0.53741479006E+00 -0.86342158408E+01  0.15031640552E+02  0.00000000000E+00 0.  1.
</event>
<event>
 8    1  0.1248739E-006  0.9118800E+02  0.7816164E-02  0.1184000E+00
        -11   -1    0    0    0    0  0.00000000000E+00  0.00000000000E+00  0.45593999997E+02  0.45594000000E+02  0.51100000000E-03 0.  1.
         11   -1    0    0    0    0 -0.00000000000E+00 -0.00000000000E+00 -0.45593999997E+02  0.45594000000E+02  0.51100000000E-03 0. -1.
         23    2    1    2    0    0  0.55511151231E-15 -0.35527136788E-14  0.00000000000E+00  0.91188000000E+02  0.91188000000E+02 0.  0.
    9900012    2    3    3    0    0  0.18785402731E+00 -0.22961917483E+02  0.28783590575E+02  0.54367081624E+02  0.39999994178E+02 0.  0.
         12    1    3    3    0    0 -0.18785402731E+00  0.22961917483E+02 -0.28783590575E+02  0.36820918376E+02  0.00000000000E+00 0. -1.
         11    1    4    4    0    0  0.47100347670E+01 -0.26889974568E+01 -0.32397705757E+01  0.63175349998E+01  0.51100000000E-03 0. -1.
        -11    1    4    4    0    0  0.27062995417E+01 -0.26244942400E+02  0.22354906538E+02  0.34581250778E+02  0.51100000000E-03 0.  1.
         12    1    4    4    0    0 -0.72284802814E+01  0.59720223733E+01  0.96684546133E+01  0.13468295847E+02  0.00000000000E+00 0. -1.
</event>
<event>
 8    1  0.1248739E-006  0.9118800E+02  0.7816164E-02  0.1184000E+00
        -11   -1    0    0    0    0  0.00000000000E+00  0.00000000000E+00  0.45593999997E+02  0.45594000000E+02  0.51100000000E-03 0.  1.
         11   -1    0    0    0    0 -0.00000000000E+00 -0.00000000000E+00 -0.45593999997E+02  0.45594000000E+02  0.51100000000E-03 0. -1.
         23    2    1    2    0    0  0.00000000000E+00  0.35527136788E-14  0.00000000000E+00  0.91188000000E+02  0.91188000000E+02 0.  0.
    9900012    2    3    3    0    0  0.62196217384E+01  0.27387492237E+02  0.23812200340E+02  0.54367091393E+02  0.40000016448E+02 0.  0.
         12    1    3    3    0    0 -0.62196217384E+01 -0.27387492237E+02 -0.23812200340E+02  0.36820908607E+02  0.00000000000E+00 0. -1.
         11    1    4    4    0    0 -0.88583067019E+01  0.25903196854E+01  0.83511639479E+01  0.12446738257E+02  0.51100000000E-03 0. -1.
        -11    1    4    4    0    0  0.73645454854E+01  0.52339456362E+01 -0.67919662786E+01  0.11303164306E+02  0.51100000000E-03 0.  1.
        -12    1    4    4    0    0  0.77133829549E+01  0.19563226916E+02  0.22253002671E+02  0.30617188830E+02  0.00000000000E+00 0.  1.
</event>
<event>
 8    1  0.1248739E-006  0.9118800E+02  0.7816164E-02  0.1184000E+00
        -11   -1    0    0    0    0  0.00000000000E+00  0.00000000000E+00  0.45593999997E+02  0.45594000000E+02  0.51100000000E-03 0. -1.
         11   -1    0    0    0    0 -0.00000000000E+00 -0.00000000000E+00 -0.45593999997E+02  0.45594000000E+02  0.51100000000E-03 0.  1.
         23    2    1    2    0    0  0.00000000000E+00  0.00000000000E+00  0.00000000000E+00  0.91188000000E+02  0.91188000000E+02 0.  0.
    9900012    2    3    3    0    0 -0.42879670659E+01  0.33021152598E+02 -0.15716117859E+02  0.54367088265E+02  0.40000009317E+02 0.  0.
         12    1    3    3    0    0  0.42879670659E+01 -0.33021152598E+02  0.15716117859E+02  0.36820911735E+02  0.00000000000E+00 0. -1.
         11    1    4    4    0    0  0.12425780135E+02  0.66802439637E+01  0.40421797852E+01  0.14675315638E+02  0.51100000000E-03 0. -1.
        -11    1    4    4    0    0 -0.68767096817E+01  0.22781543348E+02 -0.11890291159E+02  0.26602008899E+02  0.51100000000E-03 0.  1.
        -12    1    4    4    0    0 -0.98370375195E+01  0.35593652864E+01 -0.78680064858E+01  0.13089763728E+02  0.00000000000E+00 0.  1.
</event>
<event>
 8    1  0.1248739E-006  0.9118800E+02  0.7816164E-02  0.1184000E+00
        -11   -1    0    0    0    0  0.00000000000E+00  0.00000000000E+00  0.45593999997E+02  0.45594000000E+02  0.51100000000E-03 0.  1.
         11   -1    0    0    0    0 -0.00000000000E+00 -0.00000000000E+00 -0.45593999997E+02  0.45594000000E+02  0.51100000000E-03 0. -1.
         23    2    1    2    0    0 -0.88817841970E-15  0.17763568394E-14  0.00000000000E+00  0.91188000000E+02  0.91188000000E+02 0.  0.
    9900012    2    3    3    0    0  0.75022047740E+01  0.15947178845E+02  0.32329304500E+02  0.54367088563E+02  0.40000009997E+02 0.  0.
         12    1    3    3    0    0 -0.75022047740E+01 -0.15947178845E+02 -0.32329304500E+02  0.36820911437E+02  0.00000000000E+00 0. -1.
         11    1    4    4    0    0  0.98860339596E+01 -0.62562856484E+01  0.61937526310E+01  0.13237724483E+02  0.51100000000E-03 0. -1.
        -11    1    4    4    0    0 -0.10186627102E+02  0.21647957293E+02  0.19239286903E+02  0.30701003037E+02  0.51100000000E-03 0.  1.
        -12    1    4    4    0    0  0.78027979163E+01  0.55550720029E+00  0.68962649662E+01  0.10428361044E+02  0.00000000000E+00 0.  1.
</event>
<event>
 8    1  0.1248739E-006  0.9118800E+02  0.7816164E-02  0.1184000E+00
        -11   -1    0    0    0    0  0.00000000000E+00  0.00000000000E+00  0.45593999997E+02  0.45594000000E+02  0.51100000000E-03 0.  1.
         11   -1    0    0    0    0 -0.00000000000E+00 -0.00000000000E+00 -0.45593999997E+02  0.45594000000E+02  0.51100000000E-03 0. -1.
         23    2    1    2    0    0 -0.35527136788E-14 -0.88817841970E-15 -0.35527136788E-14  0.91188000000E+02  0.91188000000E+02 0.  0.
    9900012    2    3    3    0    0 -0.18839651455E+02  0.45265453441E+01  0.31310606294E+02  0.54367134363E+02  0.40000114408E+02 0.  0.
         12    1    3    3    0    0  0.18839651455E+02 -0.45265453441E+01 -0.31310606294E+02  0.36820865637E+02  0.00000000000E+00 0. -1.
         11    1    4    4    0    0  0.68288219549E+01 -0.69376935011E+01  0.12339276266E+02  0.15716937979E+02  0.51100000000E-03 0. -1.
        -11    1    4    4    0    0 -0.52151891583E+01  0.10045596647E+02  0.13123136360E+02  0.17330000523E+02  0.51100000000E-03 0.  1.
         12    1    4    4    0    0 -0.20453284252E+02  0.14186421979E+01  0.58481936688E+01  0.21320195861E+02  0.00000000000E+00 0. -1.
</event>
<event>
 8    1  0.1248739E-006  0.9118800E+02  0.7816164E-02  0.1184000E+00
        -11   -1    0    0    0    0  0.00000000000E+00  0.00000000000E+00  0.45593999997E+02  0.45594000000E+02  0.51100000000E-03 0.  1.
         11   -1    0    0    0    0 -0.00000000000E+00 -0.00000000000E+00 -0.45593999997E+02  0.45594000000E+02  0.51100000000E-03 0. -1.
         23    2    1    2    0    0  0.00000000000E+00  0.00000000000E+00  0.00000000000E+00  0.91188000000E+02  0.91188000000E+02 0.  0.
    9900012    2    3    3    0    0 -0.18889289102E+02  0.21141519465E+02  0.23494876782E+02  0.54367104804E+02  0.40000047022E+02 0.  0.
         12    1    3    3    0    0  0.18889289102E+02 -0.21141519465E+02 -0.23494876782E+02  0.36820895196E+02  0.00000000000E+00 0. -1.
         11    1    4    4    0    0 -0.11469900889E+02  0.87879522480E+01  0.41779575991E+01  0.15041345055E+02  0.51100000000E-03 0.  1.
        -11    1    4    4    0    0 -0.16703618798E+02  0.25744151046E+00  0.29638031761E+01  0.16966475374E+02  0.51100000000E-03 0. -1.
         12    1    4    4    0    0  0.92842305848E+01  0.12096125706E+02  0.16353116006E+02  0.22359284375E+02  0.00000000000E+00 0. -1.
</event>
<event>
 8    1  0.1248739E-006  0.9118800E+02  0.7816164E-02  0.1184000E+00
        -11   -1    0    0    0    0  0.00000000000E+00  0.00000000000E+00  0.45593999997E+02  0.45594000000E+02  0.51100000000E-03 0.  1.
         11   -1    0    0    0    0 -0.00000000000E+00 -0.00000000000E+00 -0.45593999997E+02  0.45594000000E+02  0.51100000000E-03 0. -1.
         23    2    1    2    0    0  0.00000000000E+00 -0.35527136788E-14  0.00000000000E+00  0.91188000000E+02  0.91188000000E+02 0.  0.
    9900012    2    3    3    0    0  0.15989339971E+02 -0.31331487425E+02  0.10884036999E+02  0.54367036428E+02  0.39999891145E+02 0.  0.
        -12    1    3    3    0    0 -0.15989339971E+02  0.31331487425E+02 -0.10884036999E+02  0.36820963572E+02  0.00000000000E+00 0.  1.
         11    1    4    4    0    0  0.66325260856E+01 -0.26540474052E+02  0.46292806081E+01  0.27745583511E+02  0.51100000000E-03 0. -1.
        -11    1    4    4    0    0  0.13858573316E+02  0.19325649859E+01 -0.30182619486E+01  0.14314495005E+02  0.51100000000E-03 0.  1.
        -12    1    4    4    0    0 -0.45017594311E+01 -0.67235783595E+01  0.92730183396E+01  0.12306957912E+02  0.00000000000E+00 0.  1.
</event>
<event>
 8    1  0.1248739E-006  0.9118800E+02  0.7816164E-02  0.1184000E+00
        -11   -1    0    0    0    0  0.00000000000E+00  0.00000000000E+00  0.45593999997E+02  0.45594000000E+02  0.51100000000E-03 0.  1.
         11   -1    0    0    0    0 -0.00000000000E+00 -0.00000000000E+00 -0.45593999997E+02  0.45594000000E+02  0.51100000000E-03 0. -1.
         23    2    1    2    0    0  0.00000000000E+00  0.00000000000E+00  0.00000000000E+00  0.91188000000E+02  0.91188000000E+02 0.  0.
    9900012    2    3    3    0    0  0.93860722429E+01  0.14130143322E+02 -0.32680564547E+02  0.54367101022E+02  0.40000038400E+02 0.  0.
        -12    1    3    3    0    0 -0.93860722429E+01 -0.14130143322E+02  0.32680564547E+02  0.36820898978E+02  0.00000000000E+00 0.  1.
         11    1    4    4    0    0 -0.63716915435E+01 -0.62799676718E+01 -0.65796842982E+01  0.11105345236E+02  0.51100000000E-03 0. -1.
        -11    1    4    4    0    0  0.17381837017E+02  0.14940055809E+02 -0.28916788573E+02  0.36898701702E+02  0.51100000000E-03 0.  1.
        -12    1    4    4    0    0 -0.16240732308E+01  0.54700551851E+01  0.28159083244E+01  0.63630540842E+01  0.00000000000E+00 0.  1.
</event>
<event>
 8    1  0.1248739E-006  0.9118800E+02  0.7816164E-02  0.1184000E+00
        -11   -1    0    0    0    0  0.00000000000E+00  0.00000000000E+00  0.45593999997E+02  0.45594000000E+02  0.51100000000E-03 0.  1.
         11   -1    0    0    0    0 -0.00000000000E+00 -0.00000000000E+00 -0.45593999997E+02  0.45594000000E+02  0.51100000000E-03 0. -1.
         23    2    1    2    0    0  0.00000000000E+00  0.00000000000E+00  0.35527136788E-14  0.91188000000E+02  0.91188000000E+02 0.  0.
    9900012    2    3    3    0    0 -0.13741246543E+02 -0.14537410549E+02 -0.30913135255E+02  0.54367080765E+02  0.39999992219E+02 0.  0.
        -12    1    3    3    0    0  0.13741246543E+02  0.14537410549E+02  0.30913135255E+02  0.36820919235E+02  0.00000000000E+00 0.  1.
         11    1    4    4    0    0  0.68789318356E+01  0.13231489897E+01 -0.56007387520E+01  0.89687625277E+01  0.51100000000E-03 0. -1.
        -11    1    4    4    0    0 -0.38797113281E+01 -0.42901382040E+01  0.58196824227E+01  0.82052513405E+01  0.51100000000E-03 0.  1.
         12    1    4    4    0    0 -0.16740467050E+02 -0.11570421335E+02 -0.31132078926E+02  0.37193066897E+02  0.00000000000E+00 0. -1.
</event>
<event>
 8    1  0.1248739E-006  0.9118800E+02  0.7816164E-02  0.1184000E+00
        -11   -1    0    0    0    0  0.00000000000E+00  0.00000000000E+00  0.45593999997E+02  0.45594000000E+02  0.51100000000E-03 0. -1.
         11   -1    0    0    0    0 -0.00000000000E+00 -0.00000000000E+00 -0.45593999997E+02  0.45594000000E+02  0.51100000000E-03 0.  1.
         23    2    1    2    0    0  0.35527136788E-14  0.88817841970E-15  0.35527136788E-14  0.91188000000E+02  0.91188000000E+02 0.  0.
    9900012    2    3    3    0    0 -0.21322907637E+02 -0.65263516680E+01 -0.29300505913E+02  0.54367091497E+02  0.40000016686E+02 0.  0.
         12    1    3    3    0    0  0.21322907637E+02  0.65263516680E+01  0.29300505913E+02  0.36820908503E+02  0.00000000000E+00 0. -1.
         11    1    4    4    0    0  0.52042057277E+01 -0.59613645863E+01 -0.12534890908E+02  0.14823802323E+02  0.51100000000E-03 0. -1.
        -11    1    4    4    0    0 -0.94212442222E+01  0.93995625202E+01 -0.14396687595E+02  0.19605515352E+02  0.51100000000E-03 0.  1.
         12    1    4    4    0    0 -0.17105869142E+02 -0.99645496020E+01 -0.23689274107E+01  0.19937773822E+02  0.00000000000E+00 0. -1.
</event>
<event>
 8    1  0.1248739E-006  0.9118800E+02  0.7816164E-02  0.1184000E+00
        -11   -1    0    0    0    0  0.00000000000E+00  0.00000000000E+00  0.45593999997E+02  0.45594000000E+02  0.51100000000E-03 0. -1.
         11   -1    0    0    0    0 -0.00000000000E+00 -0.00000000000E+00 -0.45593999997E+02  0.45594000000E+02  0.51100000000E-03 0.  1.
         23    2    1    2    0    0 -0.35527136788E-14 -0.66613381478E-15  0.00000000000E+00  0.91188000000E+02  0.91188000000E+02 0.  0.
    9900012    2    3    3    0    0  0.15491003094E+02  0.85969934730E+00  0.33392667858E+02  0.54367074883E+02  0.39999978811E+02 0.  0.
        -12    1    3    3    0    0 -0.15491003094E+02 -0.85969934730E+00 -0.33392667858E+02  0.36820925117E+02  0.00000000000E+00 0.  1.
         11    1    4    4    0    0  0.88677687793E+00  0.72365821199E+01  0.96216780806E+00  0.73539282810E+01  0.51100000000E-03 0. -1.
        -11    1    4    4    0    0 -0.36856220490E+01 -0.10577632433E+02  0.21753309102E+01  0.11410617100E+02  0.51100000000E-03 0.  1.
         12    1    4    4    0    0  0.18289848265E+02  0.42007496608E+01  0.30255169139E+02  0.35602529502E+02  0.00000000000E+00 0. -1.
</event>
<event>
 8    1  0.1248739E-006  0.9118800E+02  0.7816164E-02  0.1184000E+00
        -11   -1    0    0    0    0  0.00000000000E+00  0.00000000000E+00  0.45593999997E+02  0.45594000000E+02  0.51100000000E-03 0. -1.
         11   -1    0    0    0    0 -0.00000000000E+00 -0.00000000000E+00 -0.45593999997E+02  0.45594000000E+02  0.51100000000E-03 0.  1.
         23    2    1    2    0    0  0.35527136788E-14  0.00000000000E+00  0.00000000000E+00  0.91188000000E+02  0.91188000000E+02 0.  0.
    9900012    2    3    3    0    0  0.22217502690E+02 -0.19693448940E+02 -0.21779111646E+02  0.54367094783E+02  0.40000024176E+02 0.  0.
         12    1    3    3    0    0 -0.22217502690E+02  0.19693448940E+02  0.21779111646E+02  0.36820905217E+02  0.00000000000E+00 0. -1.
         11    1    4    4    0    0  0.30634112049E+01 -0.41303023869E+01 -0.10041601040E+00  0.51433422649E+01  0.51100000000E-03 0. -1.
        -11    1    4    4    0    0  0.29469442671E+02 -0.61441594301E+01 -0.13090848774E+02  0.32826347168E+02  0.51100000000E-03 0.  1.
        -12    1    4    4    0    0 -0.10315351186E+02 -0.94189871226E+01 -0.85878468613E+01  0.16397405350E+02  0.00000000000E+00 0.  1.
</event>
<event>
 8    1  0.1248739E-006  0.9118800E+02  0.7816164E-02  0.1184000E+00
        -11   -1    0    0    0    0  0.00000000000E+00  0.00000000000E+00  0.45593999997E+02  0.45594000000E+02  0.51100000000E-03 0.  1.
         11   -1    0    0    0    0 -0.00000000000E+00 -0.00000000000E+00 -0.45593999997E+02  0.45594000000E+02  0.51100000000E-03 0. -1.
         23    2    1    2    0    0  0.17763568394E-14  0.00000000000E+00 -0.88817841970E-15  0.91188000000E+02  0.91188000000E+02 0.  0.
    9900012    2    3    3    0    0  0.12491829635E+02 -0.34445028689E+02  0.36432778878E+01  0.54367091771E+02  0.40000017311E+02 0.  0.
         12    1    3    3    0    0 -0.12491829635E+02  0.34445028689E+02 -0.36432778878E+01  0.36820908229E+02  0.00000000000E+00 0. -1.
         11    1    4    4    0    0  0.17026793265E+01 -0.22612931750E+02 -0.35112950449E+01  0.22947178310E+02  0.51100000000E-03 0. -1.
        -11    1    4    4    0    0 -0.49024677919E+01  0.58404557011E+00  0.10054424387E+02  0.11201194119E+02  0.51100000000E-03 0.  1.
        -12    1    4    4    0    0  0.15691618100E+02 -0.12416142509E+02 -0.28998514540E+01  0.20218719343E+02  0.00000000000E+00 0.  1.
</event>
<event>
 8    1  0.1248739E-006  0.9118800E+02  0.7816164E-02  0.1184000E+00
        -11   -1    0    0    0    0  0.00000000000E+00  0.00000000000E+00  0.45593999997E+02  0.45594000000E+02  0.51100000000E-03 0. -1.
         11   -1    0    0    0    0 -0.00000000000E+00 -0.00000000000E+00 -0.45593999997E+02  0.45594000000E+02  0.51100000000E-03 0.  1.
         23    2    1    2    0    0 -0.35527136788E-14  0.00000000000E+00  0.00000000000E+00  0.91188000000E+02  0.91188000000E+02 0.  0.
    9900012    2    3    3    0    0  0.19970761382E+02 -0.22944202211E+02 -0.20748791546E+02  0.54367081002E+02  0.39999992760E+02 0.  0.
         12    1    3    3    0    0 -0.19970761382E+02  0.22944202211E+02  0.20748791546E+02  0.36820918998E+02  0.00000000000E+00 0. -1.
         11    1    4    4    0    0  0.56961120019E+01  0.52764380581E+01 -0.34964800039E+00  0.77723062539E+01  0.51100000000E-03 0. -1.
        -11    1    4    4    0    0 -0.34466791967E+01 -0.23178845242E+02 -0.12347337889E+02  0.26487642731E+02  0.51100000000E-03 0.  1.
        -12    1    4    4    0    0  0.17721328577E+02 -0.50417950268E+01 -0.80518056563E+01  0.20107132017E+02  0.00000000000E+00 0.  1.
</event>
<event>
 8    1  0.1248739E-006  0.9118800E+02  0.7816164E-02  0.1184000E+00
        -11   -1    0    0    0    0  0.00000000000E+00  0.00000000000E+00  0.45593999997E+02  0.45594000000E+02  0.51100000000E-03 0.  1.
         11   -1    0    0    0    0 -0.00000000000E+00 -0.00000000000E+00 -0.45593999997E+02  0.45594000000E+02  0.51100000000E-03 0. -1.
         23    2    1    2    0    0 -0.17763568394E-14 -0.22204460493E-14  0.00000000000E+00  0.91188000000E+02  0.91188000000E+02 0.  0.
    9900012    2    3    3    0    0 -0.84254384158E+01 -0.13234349926E+01 -0.35819543063E+02  0.54367093467E+02  0.40000021176E+02 0.  0.
        -12    1    3    3    0    0  0.84254384158E+01  0.13234349926E+01  0.35819543063E+02  0.36820906533E+02  0.00000000000E+00 0.  1.
         11    1    4    4    0    0  0.54279467383E+01  0.13815008261E+02 -0.25231237256E+02  0.29273407604E+02  0.51100000000E-03 0. -1.
        -11    1    4    4    0    0 -0.79058190511E+01 -0.68574731621E+01 -0.99180349552E-01  0.10465980606E+02  0.51100000000E-03 0.  1.
         12    1    4    4    0    0 -0.59475661030E+01 -0.82809700916E+01 -0.10489125458E+02  0.14627705257E+02  0.00000000000E+00 0. -1.
</event>
<event>
 8    1  0.1248739E-006  0.9118800E+02  0.7816164E-02  0.1184000E+00
        -11   -1    0    0    0    0  0.00000000000E+00  0.00000000000E+00  0.45593999997E+02  0.45594000000E+02  0.51100000000E-03 0. -1.
         11   -1    0    0    0    0 -0.00000000000E+00 -0.00000000000E+00 -0.45593999997E+02  0.45594000000E+02  0.51100000000E-03 0.  1.
         23    2    1    2    0    0 -0.22204460493E-15 -0.10658141036E-13  0.00000000000E+00  0.91188000000E+02  0.91188000000E+02 0.  0.
    9900012    2    3    3    0    0 -0.15020724816E+01  0.31066127719E+02  0.19708395917E+02  0.54367063254E+02  0.39999952301E+02 0.  0.
        -12    1    3    3    0    0  0.15020724816E+01 -0.31066127719E+02 -0.19708395917E+02  0.36820936746E+02  0.00000000000E+00 0.  1.
         11    1    4    4    0    0  0.35007675003E+01  0.28203990724E+02  0.92654524499E+01  0.29892625767E+02  0.51100000000E-03 0. -1.
        -11    1    4    4    0    0  0.72040811278E+01 -0.26495891635E+01  0.75607928553E+01  0.10774260833E+02  0.51100000000E-03 0.  1.
        -12    1    4    4    0    0 -0.12206921110E+02  0.55117261585E+01  0.28821506123E+01  0.13700176655E+02  0.00000000000E+00 0.  1.
</event>
<event>
 8    1  0.1248739E-006  0.9118800E+02  0.7816164E-02  0.1184000E+00
        -11   -1    0    0    0    0  0.00000000000E+00  0.00000000000E+00  0.45593999997E+02  0.45594000000E+02  0.51100000000E-03 0.  1.
         11   -1    0    0    0    0 -0.00000000000E+00 -0.00000000000E+00 -0.45593999997E+02  0.45594000000E+02  0.51100000000E-03 0. -1.
         23    2    1    2    0    0  0.00000000000E+00  0.00000000000E+00  0.35527136788E-14  0.91188000000E+02  0.91188000000E+02 0.  0.
    9900012    2    3    3    0    0  0.17143988227E+02 -0.22230935842E+02  0.23825361759E+02  0.54367099635E+02  0.40000035238E+02 0.  0.
         12    1    3    3    0    0 -0.17143988227E+02  0.22230935842E+02 -0.23825361759E+02  0.36820900365E+02  0.00000000000E+00 0. -1.
         11    1    4    4    0    0 -0.14300929611E+00  0.22833669200E+01  0.11420161510E+01  0.25570329095E+01  0.51100000000E-03 0. -1.
        -11    1    4    4    0    0  0.13884935472E+02 -0.18683130791E+02  0.32450991054E+02  0.39936419843E+02  0.51100000000E-03 0.  1.
        -12    1    4    4    0    0  0.34020620512E+01 -0.58311719707E+01 -0.97676454453E+01  0.11873646883E+02  0.00000000000E+00 0.  1.
</event>
<event>
 8    1  0.1248739E-006  0.9118800E+02  0.7816164E-02  0.1184000E+00
        -11   -1    0    0    0    0  0.00000000000E+00  0.00000000000E+00  0.45593999997E+02  0.45594000000E+02  0.51100000000E-03 0.  1.
         11   -1    0    0    0    0 -0.00000000000E+00 -0.00000000000E+00 -0.45593999997E+02  0.45594000000E+02  0.51100000000E-03 0. -1.
         23    2    1    2    0    0  0.88817841970E-15  0.35527136788E-14  0.00000000000E+00  0.91188000000E+02  0.91188000000E+02 0.  0.
    9900012    2    3    3    0    0 -0.43239174301E+01  0.30919780655E+02 -0.19520499768E+02  0.54367095491E+02  0.40000025791E+02 0.  0.
        -12    1    3    3    0    0  0.43239174301E+01 -0.30919780655E+02  0.19520499768E+02  0.36820904509E+02  0.00000000000E+00 0.  1.
         11    1    4    4    0    0  0.22135403035E+01  0.16025711690E+02 -0.10914413568E+01  0.16214636608E+02  0.51100000000E-03 0. -1.
        -11    1    4    4    0    0 -0.11839368547E+02  0.15312978717E+02 -0.40522520374E+00  0.19360324700E+02  0.51100000000E-03 0.  1.
         12    1    4    4    0    0  0.53019108133E+01 -0.41890975226E+00 -0.18023833207E+02  0.18792134182E+02  0.00000000000E+00 0. -1.
</event>
<event>
 8    1  0.1248739E-006  0.9118800E+02  0.7816164E-02  0.1184000E+00
        -11   -1    0    0    0    0  0.00000000000E+00  0.00000000000E+00  0.45593999997E+02  0.45594000000E+02  0.51100000000E-03 0. -1.
         11   -1    0    0    0    0 -0.00000000000E+00 -0.00000000000E+00 -0.45593999997E+02  0.45594000000E+02  0.51100000000E-03 0.  1.
         23    2    1    2    0    0  0.00000000000E+00  0.00000000000E+00  0.00000000000E+00  0.91188000000E+02  0.91188000000E+02 0.  0.
    9900012    2    3    3    0    0 -0.28016906231E+02  0.13272345108E+02  0.19866521911E+02  0.54367070187E+02  0.39999968105E+02 0.  0.
        -12    1    3    3    0    0  0.28016906231E+02 -0.13272345108E+02 -0.19866521911E+02  0.36820929813E+02  0.00000000000E+00 0.  1.
         11    1    4    4    0    0 -0.50798243966E+01  0.44353326190E+01  0.90401773025E+01  0.11278368555E+02  0.51100000000E-03 0. -1.
        -11    1    4    4    0    0 -0.27052928015E+02  0.86980608184E+01 -0.30819876376E+01  0.28583488665E+02  0.51100000000E-03 0.  1.
         12    1    4    4    0    0  0.41158461805E+01  0.13895167087E+00  0.13908332246E+02  0.14505212967E+02  0.00000000000E+00 0. -1.
</event>
<event>
 8    1  0.1248739E-006  0.9118800E+02  0.7816164E-02  0.1184000E+00
        -11   -1    0    0    0    0  0.00000000000E+00  0.00000000000E+00  0.45593999997E+02  0.45594000000E+02  0.51100000000E-03 0.  1.
         11   -1    0    0    0    0 -0.00000000000E+00 -0.00000000000E+00 -0.45593999997E+02  0.45594000000E+02  0.51100000000E-03 0. -1.
         23    2    1    2    0    0 -0.88817841970E-15  0.00000000000E+00  0.17763568394E-14  0.91188000000E+02  0.91188000000E+02 0.  0.
    9900012    2    3    3    0    0 -0.31154097998E+01 -0.34125592156E+02 -0.13472807935E+02  0.54367104140E+02  0.40000045509E+02 0.  0.
        -12    1    3    3    0    0  0.31154097998E+01  0.34125592156E+02  0.13472807935E+02  0.36820895860E+02  0.00000000000E+00 0.  1.
         11    1    4    4    0    0 -0.15372453502E+02 -0.21804764706E+01 -0.10518062523E+02  0.18753571495E+02  0.51100000000E-03 0. -1.
        -11    1    4    4    0    0  0.93314829269E+01 -0.17098935773E+02  0.22562363447E+01  0.19609711392E+02  0.51100000000E-03 0.  1.
         12    1    4    4    0    0  0.29255607749E+01 -0.14846179913E+02 -0.52109817568E+01  0.16003821254E+02  0.00000000000E+00 0. -1.
</event>
<event>
 8    1  0.1248739E-006  0.9118800E+02  0.7816164E-02  0.1184000E+00
        -11   -1    0    0    0    0  0.00000000000E+00  0.00000000000E+00  0.45593999997E+02  0.45594000000E+02  0.51100000000E-03 0. -1.
         11   -1    0    0    0    0 -0.00000000000E+00 -0.00000000000E+00 -0.45593999997E+02  0.45594000000E+02  0.51100000000E-03 0.  1.
         23    2    1    2    0    0  0.00000000000E+00  0.88817841970E-15  0.00000000000E+00  0.91188000000E+02  0.91188000000E+02 0.  0.
    9900012    2    3    3    0    0 -0.32510616182E+02  0.65012088646E+01  0.16017733351E+02  0.54367168085E+02  0.40000191282E+02 0.  0.
         12    1    3    3    0    0  0.32510616182E+02 -0.65012088646E+01 -0.16017733351E+02  0.36820831915E+02  0.00000000000E+00 0. -1.
         11    1    4    4    0    0 -0.72240442490E+01  0.53831636290E+00  0.80774771092E+01  0.10849987858E+02  0.51100000000E-03 0. -1.
        -11    1    4    4    0    0 -0.20952581440E+02  0.75574173912E+01  0.20415565078E+02  0.30214574701E+02  0.51100000000E-03 0.  1.
        -12    1    4    4    0    0 -0.43339904924E+01 -0.15945248895E+01 -0.12475308836E+02  0.13302605525E+02  0.00000000000E+00 0.  1.
</event>
<event>
 8    1  0.1248739E-006  0.9118800E+02  0.7816164E-02  0.1184000E+00
        -11   -1    0    0    0    0  0.00000000000E+00  0.00000000000E+00  0.45593999997E+02  0.45594000000E+02  0.51100000000E-03 0. -1.
         11   -1    0    0    0    0 -0.00000000000E+00 -0.00000000000E+00 -0.45593999997E+02  0.45594000000E+02  0.51100000000E-03 0.  1.
         23    2    1    2    0    0  0.00000000000E+00  0.00000000000E+00  0.00000000000E+00  0.91188000000E+02  0.91188000000E+02 0.  0.
    9900012    2    3    3    0    0 -0.12516943864E+02 -0.26131561587E+02 -0.22721053625E+02  0.54367100058E+02  0.40000036203E+02 0.  0.
         12    1    3    3    0    0  0.12516943864E+02  0.26131561587E+02  0.22721053625E+02  0.36820899942E+02  0.00000000000E+00 0. -1.
         11    1    4    4    0    0 -0.21151650564E+01  0.80640638699E+01  0.27594106699E+01  0.87816511443E+01  0.51100000000E-03 0. -1.
        -11    1    4    4    0    0 -0.11829099554E+02 -0.17990524904E+02 -0.14603543832E+02  0.26016342466E+02  0.51100000000E-03 0.  1.
         12    1    4    4    0    0  0.14273207457E+01 -0.16205100553E+02 -0.10876920462E+02  0.19569106448E+02  0.00000000000E+00 0. -1.
</event>
<event>
 8    1  0.1248739E-006  0.9118800E+02  0.7816164E-02  0.1184000E+00
        -11   -1    0    0    0    0  0.00000000000E+00  0.00000000000E+00  0.45593999997E+02  0.45594000000E+02  0.51100000000E-03 0.  1.
         11   -1    0    0    0    0 -0.00000000000E+00 -0.00000000000E+00 -0.45593999997E+02  0.45594000000E+02  0.51100000000E-03 0. -1.
         23    2    1    2    0    0  0.88817841970E-15 -0.88817841970E-15  0.00000000000E+00  0.91188000000E+02  0.91188000000E+02 0.  0.
    9900012    2    3    3    0    0 -0.41263533086E+01  0.47097083484E+01  0.36284609251E+02  0.54367068278E+02  0.39999963753E+02 0.  0.
         12    1    3    3    0    0  0.41263533086E+01 -0.47097083484E+01 -0.36284609251E+02  0.36820931722E+02  0.00000000000E+00 0. -1.
         11    1    4    4    0    0  0.34267636778E+01  0.13110439695E+02  0.52828798547E+01  0.14544248283E+02  0.51100000000E-03 0. -1.
        -11    1    4    4    0    0  0.70356670439E+01 -0.68306272949E+00  0.38520404095E+01  0.80501801857E+01  0.51100000000E-03 0.  1.
         12    1    4    4    0    0 -0.14588784030E+02 -0.77176686167E+01  0.27149688987E+02  0.31772639809E+02  0.00000000000E+00 0. -1.
</event>
<event>
 8    1  0.1248739E-006  0.9118800E+02  0.7816164E-02  0.1184000E+00
        -11   -1    0    0    0    0  0.00000000000E+00  0.00000000000E+00  0.45593999997E+02  0.45594000000E+02  0.51100000000E-03 0.  1.
         11   -1    0    0    0    0 -0.00000000000E+00 -0.00000000000E+00 -0.45593999997E+02  0.45594000000E+02  0.51100000000E-03 0. -1.
         23    2    1    2    0    0 -0.88817841970E-15  0.00000000000E+00  0.35527136788E-14  0.91188000000E+02  0.91188000000E+02 0.  0.
    9900012    2    3    3    0    0 -0.51184455439E+01  0.18599379211E+02  0.31363108683E+02  0.54367082330E+02  0.39999995787E+02 0.  0.
         12    1    3    3    0    0  0.51184455439E+01 -0.18599379211E+02 -0.31363108683E+02  0.36820917670E+02  0.00000000000E+00 0. -1.
         11    1    4    4    0    0 -0.54784986471E+01  0.29862524261E+01 -0.27223161439E+01  0.68075440819E+01  0.51100000000E-03 0. -1.
        -11    1    4    4    0    0  0.12042721773E+02 -0.11251079180E+01  0.82834317309E+01  0.14659749556E+02  0.51100000000E-03 0.  1.
        -12    1    4    4    0    0 -0.11682668670E+02  0.16738234703E+02  0.25801993096E+02  0.32899788692E+02  0.00000000000E+00 0.  1.
</event>
<event>
 8    1  0.1248739E-006  0.9118800E+02  0.7816164E-02  0.1184000E+00
        -11   -1    0    0    0    0  0.00000000000E+00  0.00000000000E+00  0.45593999997E+02  0.45594000000E+02  0.51100000000E-03 0.  1.
         11   -1    0    0    0    0 -0.00000000000E+00 -0.00000000000E+00 -0.45593999997E+02  0.45594000000E+02  0.51100000000E-03 0. -1.
         23    2    1    2    0    0  0.00000000000E+00 -0.35527136788E-14 -0.35527136788E-14  0.91188000000E+02  0.91188000000E+02 0.  0.
    9900012    2    3    3    0    0 -0.71074654780E+01  0.20804787828E+02  0.29536872609E+02  0.54367053439E+02  0.39999929926E+02 0.  0.
         12    1    3    3    0    0  0.71074654780E+01 -0.20804787828E+02 -0.29536872609E+02  0.36820946561E+02  0.00000000000E+00 0. -1.
         11    1    4    4    0    0 -0.31919675985E+01  0.26623169113E+01 -0.48353079010E+00  0.41845418832E+01  0.51100000000E-03 0. -1.
        -11    1    4    4    0    0  0.10313381138E+02  0.22021750918E+02  0.12700167634E+02  0.27433876907E+02  0.51100000000E-03 0.  1.
        -12    1    4    4    0    0 -0.14228879017E+02 -0.38792800014E+01  0.17320235766E+02  0.22748634649E+02  0.00000000000E+00 0.  1.
</event>
<event>
 8    1  0.1248739E-006  0.9118800E+02  0.7816164E-02  0.1184000E+00
        -11   -1    0    0    0    0  0.00000000000E+00  0.00000000000E+00  0.45593999997E+02  0.45594000000E+02  0.51100000000E-03 0. -1.
         11   -1    0    0    0    0 -0.00000000000E+00 -0.00000000000E+00 -0.45593999997E+02  0.45594000000E+02  0.51100000000E-03 0.  1.
         23    2    1    2    0    0  0.35527136788E-14  0.00000000000E+00  0.88817841970E-15  0.91188000000E+02  0.91188000000E+02 0.  0.
    9900012    2    3    3    0    0  0.23192386013E+02 -0.27945421015E+02 -0.60783894108E+01  0.54367080097E+02  0.39999990698E+02 0.  0.
         12    1    3    3    0    0 -0.23192386013E+02  0.27945421015E+02  0.60783894108E+01  0.36820919903E+02  0.00000000000E+00 0. -1.
         11    1    4    4    0    0 -0.44989798333E+00 -0.13713443403E+02  0.63650078657E+00  0.13735576860E+02  0.51100000000E-03 0. -1.
        -11    1    4    4    0    0 -0.29253809152E+00 -0.13012845612E+02  0.50152943133E+01  0.13948939270E+02  0.51100000000E-03 0.  1.
        -12    1    4    4    0    0  0.23934822088E+02 -0.12191319998E+01 -0.11730184511E+02  0.26682563967E+02  0.00000000000E+00 0.  1.
</event>
<event>
 8    1  0.1248739E-006  0.9118800E+02  0.7816164E-02  0.1184000E+00
        -11   -1    0    0    0    0  0.00000000000E+00  0.00000000000E+00  0.45593999997E+02  0.45594000000E+02  0.51100000000E-03 0.  1.
         11   -1    0    0    0    0 -0.00000000000E+00 -0.00000000000E+00 -0.45593999997E+02  0.45594000000E+02  0.51100000000E-03 0. -1.
         23    2    1    2    0    0 -0.35527136788E-14  0.17763568394E-14  0.00000000000E+00  0.91188000000E+02  0.91188000000E+02 0.  0.
    9900012    2    3    3    0    0  0.80618773838E+01  0.15608191106E+02  0.32360028848E+02  0.54367068947E+02  0.39999965279E+02 0.  0.
         12    1    3    3    0    0 -0.80618773838E+01 -0.15608191106E+02 -0.32360028848E+02  0.36820931053E+02  0.00000000000E+00 0. -1.
         11    1    4    4    0    0 -0.60443709599E+01  0.84543162552E+01  0.56912547244E+01  0.11849061745E+02  0.51100000000E-03 0. -1.
        -11    1    4    4    0    0  0.22121580529E+02  0.99238611097E+01  0.16753700233E+02  0.29470897784E+02  0.51100000000E-03 0.  1.
        -12    1    4    4    0    0 -0.80153321854E+01 -0.27699862589E+01  0.99150738903E+01  0.13047109418E+02  0.00000000000E+00 0.  1.
</event>
<event>
 8    1  0.1248739E-006  0.9118800E+02  0.7816164E-02  0.1184000E+00
        -11   -1    0    0    0    0  0.00000000000E+00  0.00000000000E+00  0.45593999997E+02  0.45594000000E+02  0.51100000000E-03 0.  1.
         11   -1    0    0    0    0 -0.00000000000E+00 -0.00000000000E+00 -0.45593999997E+02  0.45594000000E+02  0.51100000000E-03 0. -1.
         23    2    1    2    0    0  0.00000000000E+00  0.35527136788E-14  0.00000000000E+00  0.91188000000E+02  0.91188000000E+02 0.  0.
    9900012    2    3    3    0    0 -0.34901883403E+02  0.11640132218E+02  0.14612936408E+01  0.54367224312E+02  0.40000319464E+02 0.  0.
         12    1    3    3    0    0  0.34901883403E+02 -0.11640132218E+02 -0.14612936408E+01  0.36820775688E+02  0.00000000000E+00 0. -1.
         11    1    4    4    0    0 -0.35040659399E+01  0.68994344120E+01  0.35012186061E+01  0.84934801645E+01  0.51100000000E-03 0. -1.
        -11    1    4    4    0    0 -0.20642253933E+01  0.14044073830E+02  0.34648296938E+01  0.14611710416E+02  0.51100000000E-03 0.  1.
         12    1    4    4    0    0 -0.29333592070E+02 -0.93033760246E+01 -0.55047546591E+01  0.31262033732E+02  0.00000000000E+00 0. -1.
</event>
<event>
 8    1  0.1248739E-006  0.9118800E+02  0.7816164E-02  0.1184000E+00
        -11   -1    0    0    0    0  0.00000000000E+00  0.00000000000E+00  0.45593999997E+02  0.45594000000E+02  0.51100000000E-03 0.  1.
         11   -1    0    0    0    0 -0.00000000000E+00 -0.00000000000E+00 -0.45593999997E+02  0.45594000000E+02  0.51100000000E-03 0. -1.
         23    2    1    2    0    0  0.00000000000E+00 -0.88817841970E-15 -0.88817841970E-15  0.91188000000E+02  0.91188000000E+02 0.  0.
    9900012    2    3    3    0    0  0.36017487658E+02  0.66686109811E+01  0.37483733161E+01  0.54367080781E+02  0.39999992256E+02 0.  0.
         12    1    3    3    0    0 -0.36017487658E+02 -0.66686109811E+01 -0.37483733161E+01  0.36820919219E+02  0.00000000000E+00 0. -1.
         11    1    4    4    0    0  0.20272677182E+01  0.61171556355E+01 -0.76824242625E+01  0.10027414935E+02  0.51100000000E-03 0. -1.
        -11    1    4    4    0    0  0.17940555730E+02  0.12807859624E+02  0.22544949739E+01  0.22158239008E+02  0.51100000000E-03 0.  1.
         12    1    4    4    0    0  0.16049664210E+02 -0.12256404279E+02  0.91763026046E+01  0.22181426838E+02  0.00000000000E+00 0. -1.
</event>
<event>
 8    1  0.1248739E-006  0.9118800E+02  0.7816164E-02  0.1184000E+00
        -11   -1    0    0    0    0  0.00000000000E+00  0.00000000000E+00  0.45593999997E+02  0.45594000000E+02  0.51100000000E-03 0.  1.
         11   -1    0    0    0    0 -0.00000000000E+00 -0.00000000000E+00 -0.45593999997E+02  0.45594000000E+02  0.51100000000E-03 0. -1.
         23    2    1    2    0    0 -0.44408920985E-15  0.17763568394E-14  0.00000000000E+00  0.91188000000E+02  0.91188000000E+02 0.  0.
    9900012    2    3    3    0    0 -0.27116754368E+01  0.13171902156E+02 -0.34277325725E+02  0.54366983597E+02  0.39999770705E+02 0.  0.
        -12    1    3    3    0    0  0.27116754368E+01 -0.13171902156E+02  0.34277325725E+02  0.36821016403E+02  0.00000000000E+00 0.  1.
         11    1    4    4    0    0  0.17018048960E+01  0.14166723499E+02 -0.28502402702E+02  0.31874427910E+02  0.51100000000E-03 0. -1.
        -11    1    4    4    0    0  0.47653119322E+01 -0.82322475609E+01 -0.13218607573E+00  0.95129160164E+01  0.51100000000E-03 0.  1.
        -12    1    4    4    0    0 -0.91787922649E+01  0.72374262178E+01 -0.56427369480E+01  0.12979639670E+02  0.00000000000E+00 0.  1.
</event>
<event>
 8    1  0.1248739E-006  0.9118800E+02  0.7816164E-02  0.1184000E+00
        -11   -1    0    0    0    0  0.00000000000E+00  0.00000000000E+00  0.45593999997E+02  0.45594000000E+02  0.51100000000E-03 0.  1.
         11   -1    0    0    0    0 -0.00000000000E+00 -0.00000000000E+00 -0.45593999997E+02  0.45594000000E+02  0.51100000000E-03 0. -1.
         23    2    1    2    0    0  0.00000000000E+00  0.00000000000E+00  0.35527136788E-14  0.91188000000E+02  0.91188000000E+02 0.  0.
    9900012    2    3    3    0    0  0.72320141942E+01  0.19099272131E+02  0.30638142827E+02  0.54367081746E+02  0.39999994455E+02 0.  0.
         12    1    3    3    0    0 -0.72320141942E+01 -0.19099272131E+02 -0.30638142827E+02  0.36820918254E+02  0.00000000000E+00 0. -1.
         11    1    4    4    0    0 -0.11291792775E+02  0.29365540162E+01 -0.12997426618E+01  0.11739559822E+02  0.51100000000E-03 0. -1.
        -11    1    4    4    0    0  0.17236349218E+02  0.12780054627E+02  0.32520466468E+02  0.38961548611E+02  0.51100000000E-03 0.  1.
         12    1    4    4    0    0  0.12874577511E+01  0.33826634880E+01 -0.58258097951E+00  0.36659733130E+01  0.00000000000E+00 0. -1.
</event>
<event>
 8    1  0.1248739E-006  0.9118800E+02  0.7816164E-02  0.1184000E+00
        -11   -1    0    0    0    0  0.00000000000E+00  0.00000000000E+00  0.45593999997E+02  0.45594000000E+02  0.51100000000E-03 0. -1.
         11   -1    0    0    0    0 -0.00000000000E+00 -0.00000000000E+00 -0.45593999997E+02  0.45594000000E+02  0.51100000000E-03 0.  1.
         23    2    1    2    0    0  0.35527136788E-14 -0.88817841970E-15  0.00000000000E+00  0.91188000000E+02  0.91188000000E+02 0.  0.
    9900012    2    3    3    0    0  0.24688658865E+02  0.78888805101E+01  0.26153690374E+02  0.54367084308E+02  0.40000000297E+02 0.  0.
        -12    1    3    3    0    0 -0.24688658865E+02 -0.78888805101E+01 -0.26153690374E+02  0.36820915692E+02  0.00000000000E+00 0.  1.
         11    1    4    4    0    0  0.16738927234E+02 -0.23464354525E+01  0.34519031570E+01  0.17251466023E+02  0.51100000000E-03 0. -1.
        -11    1    4    4    0    0  0.14595772893E+02  0.29172788354E+01  0.31606803356E+01  0.15216339987E+02  0.51100000000E-03 0.  1.
         12    1    4    4    0    0 -0.66460412619E+01  0.73180371272E+01  0.19541106881E+02  0.21899278298E+02  0.00000000000E+00 0. -1.
</event>
<event>
 8    1  0.1248739E-006  0.9118800E+02  0.7816164E-02  0.1184000E+00
        -11   -1    0    0    0    0  0.00000000000E+00  0.00000000000E+00  0.45593999997E+02  0.45594000000E+02  0.51100000000E-03 0.  1.
         11   -1    0    0    0    0 -0.00000000000E+00 -0.00000000000E+00 -0.45593999997E+02  0.45594000000E+02  0.51100000000E-03 0. -1.
         23    2    1    2    0    0  0.00000000000E+00  0.35527136788E-14  0.00000000000E+00  0.91188000000E+02  0.91188000000E+02 0.  0.
    9900012    2    3    3    0    0  0.19578580173E+02  0.73167649158E+01 -0.30313751504E+02  0.54367090442E+02  0.40000014281E+02 0.  0.
        -12    1    3    3    0    0 -0.19578580173E+02 -0.73167649158E+01  0.30313751504E+02  0.36820909558E+02  0.00000000000E+00 0.  1.
         11    1    4    4    0    0 -0.18166069483E+01  0.15814359909E+02 -0.21958375685E+02  0.27121288744E+02  0.51100000000E-03 0. -1.
        -11    1    4    4    0    0  0.90304173091E+01 -0.28782472820E+01  0.25642118880E+01  0.98187538446E+01  0.51100000000E-03 0.  1.
         12    1    4    4    0    0  0.12364769812E+02 -0.56193477116E+01 -0.10919587707E+02  0.17427047854E+02  0.00000000000E+00 0. -1.
</event>
<event>
 8    1  0.1248739E-006  0.9118800E+02  0.7816164E-02  0.1184000E+00
        -11   -1    0    0    0    0  0.00000000000E+00  0.00000000000E+00  0.45593999997E+02  0.45594000000E+02  0.51100000000E-03 0.  1.
         11   -1    0    0    0    0 -0.00000000000E+00 -0.00000000000E+00 -0.45593999997E+02  0.45594000000E+02  0.51100000000E-03 0. -1.
         23    2    1    2    0    0  0.00000000000E+00  0.17763568394E-14  0.00000000000E+00  0.91188000000E+02  0.91188000000E+02 0.  0.
    9900012    2    3    3    0    0  0.35303792519E+02 -0.90168534350E+01 -0.53025159499E+01  0.54367108002E+02  0.40000054313E+02 0.  0.
        -12    1    3    3    0    0 -0.35303792519E+02  0.90168534350E+01  0.53025159499E+01  0.36820891998E+02  0.00000000000E+00 0.  1.
         11    1    4    4    0    0  0.65785506832E+01 -0.12507726902E+02 -0.27445902024E+01  0.14396295947E+02  0.51100000000E-03 0. -1.
        -11    1    4    4    0    0  0.24380720093E+02  0.61281600348E+01  0.95088934837E+01  0.26877368048E+02  0.51100000000E-03 0.  1.
        -12    1    4    4    0    0  0.43445217436E+01 -0.26372865680E+01 -0.12066819231E+02  0.13093444008E+02  0.00000000000E+00 0.  1.
</event>
<event>
 8    1  0.1248739E-006  0.9118800E+02  0.7816164E-02  0.1184000E+00
        -11   -1    0    0    0    0  0.00000000000E+00  0.00000000000E+00  0.45593999997E+02  0.45594000000E+02  0.51100000000E-03 0. -1.
         11   -1    0    0    0    0 -0.00000000000E+00 -0.00000000000E+00 -0.45593999997E+02  0.45594000000E+02  0.51100000000E-03 0.  1.
         23    2    1    2    0    0  0.00000000000E+00 -0.71054273576E-14  0.17763568394E-14  0.91188000000E+02  0.91188000000E+02 0.  0.
    9900012    2    3    3    0    0  0.17942707494E+02 -0.28036213696E+02  0.15741976884E+02  0.54367083840E+02  0.39999999229E+02 0.  0.
        -12    1    3    3    0    0 -0.17942707494E+02  0.28036213696E+02 -0.15741976884E+02  0.36820916160E+02  0.00000000000E+00 0.  1.
         11    1    4    4    0    0  0.77749233613E+01 -0.18270528965E+02  0.22220083858E+01  0.19979964551E+02  0.51100000000E-03 0. -1.
        -11    1    4    4    0    0  0.94170165229E+01 -0.17145303638E+02  0.69748099418E+00  0.19573658755E+02  0.51100000000E-03 0.  1.
        -12    1    4    4    0    0  0.75076761024E+00  0.73796189063E+01  0.12822487504E+02  0.14813460534E+02  0.00000000000E+00 0.  1.
</event>
<event>
 8    1  0.1248739E-006  0.9118800E+02  0.7816164E-02  0.1184000E+00
        -11   -1    0    0    0    0  0.00000000000E+00  0.00000000000E+00  0.45593999997E+02  0.45594000000E+02  0.51100000000E-03 0.  1.
         11   -1    0    0    0    0 -0.00000000000E+00 -0.00000000000E+00 -0.45593999997E+02  0.45594000000E+02  0.51100000000E-03 0. -1.
         23    2    1    2    0    0 -0.42327252814E-15 -0.17763568394E-14  0.71054273576E-14  0.91188000000E+02  0.91188000000E+02 0.  0.
    9900012    2    3    3    0    0  0.12866046575E-01  0.13916162911E+01 -0.36794787218E+02  0.54366903766E+02  0.39999588713E+02 0.  0.
        -12    1    3    3    0    0 -0.12866046575E-01 -0.13916162911E+01  0.36794787218E+02  0.36821096234E+02  0.00000000000E+00 0.  1.
         11    1    4    4    0    0 -0.48950015114E+01 -0.44269068955E+01 -0.12906711263E+02  0.14496266428E+02  0.51100000000E-03 0. -1.
        -11    1    4    4    0    0 -0.13747961854E+01  0.18070560608E+02 -0.14434158672E+02  0.23168516614E+02  0.51100000000E-03 0.  1.
        -12    1    4    4    0    0  0.62826637433E+01 -0.12252037421E+02 -0.94539172828E+01  0.16702120724E+02  0.00000000000E+00 0.  1.
</event>
<event>
 8    1  0.1248739E-006  0.9118800E+02  0.7816164E-02  0.1184000E+00
        -11   -1    0    0    0    0  0.00000000000E+00  0.00000000000E+00  0.45593999997E+02  0.45594000000E+02  0.51100000000E-03 0. -1.
         11   -1    0    0    0    0 -0.00000000000E+00 -0.00000000000E+00 -0.45593999997E+02  0.45594000000E+02  0.51100000000E-03 0.  1.
         23    2    1    2    0    0 -0.22759572005E-14  0.71054273576E-14  0.00000000000E+00  0.91188000000E+02  0.91188000000E+02 0.  0.
    9900012    2    3    3    0    0 -0.41532603041E+00  0.34823470502E+02  0.11955493113E+02  0.54367076477E+02  0.39999982445E+02 0.  0.
        -12    1    3    3    0    0  0.41532603041E+00 -0.34823470502E+02 -0.11955493113E+02  0.36820923523E+02  0.00000000000E+00 0.  1.
         11    1    4    4    0    0 -0.60745915394E+01  0.47481581701E+01  0.94839139469E+01  0.12222532160E+02  0.51100000000E-03 0. -1.
        -11    1    4    4    0    0  0.91240623791E+01  0.27051698137E+02  0.12459106128E+02  0.31149192801E+02  0.51100000000E-03 0.  1.
        -12    1    4    4    0    0 -0.34647968701E+01  0.30236141943E+01 -0.99875269621E+01  0.10995351516E+02  0.00000000000E+00 0.  1.
</event>
<event>
 8    1  0.1248739E-006  0.9118800E+02  0.7816164E-02  0.1184000E+00
        -11   -1    0    0    0    0  0.00000000000E+00  0.00000000000E+00  0.45593999997E+02  0.45594000000E+02  0.51100000000E-03 0. -1.
         11   -1    0    0    0    0 -0.00000000000E+00 -0.00000000000E+00 -0.45593999997E+02  0.45594000000E+02  0.51100000000E-03 0.  1.
         23    2    1    2    0    0  0.00000000000E+00  0.00000000000E+00  0.00000000000E+00  0.91188000000E+02  0.91188000000E+02 0.  0.
    9900012    2    3    3    0    0  0.32658252795E+02  0.69279983697E+01  0.15531297367E+02  0.54367084273E+02  0.40000000218E+02 0.  0.
         12    1    3    3    0    0 -0.32658252795E+02 -0.69279983697E+01 -0.15531297367E+02  0.36820915727E+02  0.00000000000E+00 0. -1.
         11    1    4    4    0    0  0.17819492350E+02 -0.35621102188E+01  0.22878509897E+02  0.29217274893E+02  0.51100000000E-03 0. -1.
        -11    1    4    4    0    0  0.12699705828E+02  0.35821115717E+01 -0.10879187646E+02  0.17101776971E+02  0.51100000000E-03 0.  1.
        -12    1    4    4    0    0  0.21390546165E+01  0.69079970168E+01  0.35319751166E+01  0.80480324093E+01  0.00000000000E+00 0.  1.
</event>
<event>
 8    1  0.1248739E-006  0.9118800E+02  0.7816164E-02  0.1184000E+00
        -11   -1    0    0    0    0  0.00000000000E+00  0.00000000000E+00  0.45593999997E+02  0.45594000000E+02  0.51100000000E-03 0.  1.
         11   -1    0    0    0    0 -0.00000000000E+00 -0.00000000000E+00 -0.45593999997E+02  0.45594000000E+02  0.51100000000E-03 0. -1.
         23    2    1    2    0    0  0.00000000000E+00  0.00000000000E+00  0.00000000000E+00  0.91188000000E+02  0.91188000000E+02 0.  0.
    9900012    2    3    3    0    0  0.33504740581E+02  0.30187893651E+01 -0.14969920379E+02  0.54367092261E+02  0.40000018426E+02 0.  0.
         12    1    3    3    0    0 -0.33504740581E+02 -0.30187893651E+01  0.14969920379E+02  0.36820907739E+02  0.00000000000E+00 0. -1.
         11    1    4    4    0    0  0.21769767528E+00  0.91326185609E+01  0.54001836469E+01  0.10611978974E+02  0.51100000000E-03 0. -1.
        -11    1    4    4    0    0  0.21148174681E+02 -0.16096794666E+01 -0.20314957962E+01  0.21306415366E+02  0.51100000000E-03 0.  1.
        -12    1    4    4    0    0  0.12138868225E+02 -0.45041497292E+01 -0.18338608229E+02  0.22448697921E+02  0.00000000000E+00 0.  1.
</event>
<event>
 8    1  0.1248739E-006  0.9118800E+02  0.7816164E-02  0.1184000E+00
        -11   -1    0    0    0    0  0.00000000000E+00  0.00000000000E+00  0.45593999997E+02  0.45594000000E+02  0.51100000000E-03 0. -1.
         11   -1    0    0    0    0 -0.00000000000E+00 -0.00000000000E+00 -0.45593999997E+02  0.45594000000E+02  0.51100000000E-03 0.  1.
         23    2    1    2    0    0 -0.35527136788E-14  0.00000000000E+00  0.00000000000E+00  0.91188000000E+02  0.91188000000E+02 0.  0.
    9900012    2    3    3    0    0  0.20757934349E+02 -0.16178424742E+02 -0.25751634483E+02  0.54367082790E+02  0.39999996837E+02 0.  0.
         12    1    3    3    0    0 -0.20757934349E+02  0.16178424742E+02  0.25751634483E+02  0.36820917210E+02  0.00000000000E+00 0. -1.
         11    1    4    4    0    0  0.87372393496E+01 -0.66145132691E+01  0.61200407712E+01  0.12551734404E+02  0.51100000000E-03 0. -1.
        -11    1    4    4    0    0  0.84549685733E+01 -0.68954926465E+01 -0.13766149679E+01  0.10996789597E+02  0.51100000000E-03 0.  1.
        -12    1    4    4    0    0  0.35657264265E+01 -0.26684188268E+01 -0.30495060286E+02  0.30818558789E+02  0.00000000000E+00 0.  1.
</event>
<event>
 8    1  0.1248739E-006  0.9118800E+02  0.7816164E-02  0.1184000E+00
        -11   -1    0    0    0    0  0.00000000000E+00  0.00000000000E+00  0.45593999997E+02  0.45594000000E+02  0.51100000000E-03 0.  1.
         11   -1    0    0    0    0 -0.00000000000E+00 -0.00000000000E+00 -0.45593999997E+02  0.45594000000E+02  0.51100000000E-03 0. -1.
         23    2    1    2    0    0  0.00000000000E+00  0.14432899320E-14  0.00000000000E+00  0.91188000000E+02  0.91188000000E+02 0.  0.
    9900012    2    3    3    0    0 -0.32399533592E+02  0.54214759776E+00  0.17485874409E+02  0.54367088756E+02  0.40000010437E+02 0.  0.
         12    1    3    3    0    0  0.32399533592E+02 -0.54214759776E+00 -0.17485874409E+02  0.36820911244E+02  0.00000000000E+00 0. -1.
         11    1    4    4    0    0 -0.13345614606E+02 -0.11576511646E+02  0.38341498941E+01  0.18078212212E+02  0.51100000000E-03 0. -1.
        -11    1    4    4    0    0 -0.12920257909E+02  0.99275215340E+01  0.20928171155E+02  0.26523142657E+02  0.51100000000E-03 0.  1.
         12    1    4    4    0    0 -0.61336610762E+01  0.21911377099E+01 -0.72764466395E+01  0.97657338873E+01  0.00000000000E+00 0. -1.
</event>
<event>
 8    1  0.1248739E-006  0.9118800E+02  0.7816164E-02  0.1184000E+00
        -11   -1    0    0    0    0  0.00000000000E+00  0.00000000000E+00  0.45593999997E+02  0.45594000000E+02  0.51100000000E-03 0.  1.
         11   -1    0    0    0    0 -0.00000000000E+00 -0.00000000000E+00 -0.45593999997E+02  0.45594000000E+02  0.51100000000E-03 0. -1.
         23    2    1    2    0    0  0.00000000000E+00  0.00000000000E+00  0.00000000000E+00  0.91188000000E+02  0.91188000000E+02 0.  0.
    9900012    2    3    3    0    0 -0.66714649603E+01  0.21304392240E+02  0.29281300333E+02  0.54367080367E+02  0.39999991312E+02 0.  0.
         12    1    3    3    0    0  0.66714649603E+01 -0.21304392240E+02 -0.29281300333E+02  0.36820919633E+02  0.00000000000E+00 0. -1.
         11    1    4    4    0    0  0.30128938650E+01 -0.63139084428E+01  0.98232286168E+01  0.12059800578E+02  0.51100000000E-03 0. -1.
        -11    1    4    4    0    0 -0.10505556082E+02  0.42055839132E+01 -0.78852835847E+00  0.11343518937E+02  0.51100000000E-03 0.  1.
        -12    1    4    4    0    0  0.82119725663E+00  0.23412716770E+02  0.20246600075E+02  0.30963760852E+02  0.00000000000E+00 0.  1.
</event>
<event>
 8    1  0.1248739E-006  0.9118800E+02  0.7816164E-02  0.1184000E+00
        -11   -1    0    0    0    0  0.00000000000E+00  0.00000000000E+00  0.45593999997E+02  0.45594000000E+02  0.51100000000E-03 0. -1.
         11   -1    0    0    0    0 -0.00000000000E+00 -0.00000000000E+00 -0.45593999997E+02  0.45594000000E+02  0.51100000000E-03 0.  1.
         23    2    1    2    0    0  0.00000000000E+00  0.00000000000E+00  0.71054273576E-14  0.91188000000E+02  0.91188000000E+02 0.  0.
    9900012    2    3    3    0    0  0.43833516615E+01  0.29516320085E+01  0.36439715892E+02  0.54367098360E+02  0.40000032331E+02 0.  0.
        -12    1    3    3    0    0 -0.43833516615E+01 -0.29516320085E+01 -0.36439715892E+02  0.36820901640E+02  0.00000000000E+00 0.  1.
         11    1    4    4    0    0  0.42211215946E+01 -0.13912827536E+02  0.19600879637E+02  0.24404489759E+02  0.51100000000E-03 0. -1.
        -11    1    4    4    0    0 -0.22564065404E+01  0.12563045597E+02  0.20268735247E+02  0.23952935392E+02  0.51100000000E-03 0.  1.
        -12    1    4    4    0    0  0.24186366073E+01  0.43014139469E+01 -0.34298989921E+01  0.60096732088E+01  0.00000000000E+00 0.  1.
</event>
<event>
 8    1  0.1248739E-006  0.9118800E+02  0.7816164E-02  0.1184000E+00
        -11   -1    0    0    0    0  0.00000000000E+00  0.00000000000E+00  0.45593999997E+02  0.45594000000E+02  0.51100000000E-03 0. -1.
         11   -1    0    0    0    0 -0.00000000000E+00 -0.00000000000E+00 -0.45593999997E+02  0.45594000000E+02  0.51100000000E-03 0.  1.
         23    2    1    2    0    0 -0.35527136788E-14  0.00000000000E+00  0.17763568394E-14  0.91188000000E+02  0.91188000000E+02 0.  0.
    9900012    2    3    3    0    0  0.24931966392E+02  0.22593697173E+02 -0.14956664207E+02  0.54367083331E+02  0.39999998070E+02 0.  0.
         12    1    3    3    0    0 -0.24931966392E+02 -0.22593697173E+02  0.14956664207E+02  0.36820916669E+02  0.00000000000E+00 0. -1.
         11    1    4    4    0    0  0.11498969890E+02 -0.88043906703E+01 -0.79173941002E+01  0.16505415269E+02  0.51100000000E-03 0. -1.
        -11    1    4    4    0    0  0.68451110339E+01  0.29228986318E+02 -0.39849819380E+01  0.30283151546E+02  0.51100000000E-03 0.  1.
         12    1    4    4    0    0  0.65878854681E+01  0.21691015256E+01 -0.30542881686E+01  0.75785165162E+01  0.00000000000E+00 0. -1.
</event>
<event>
 8    1  0.1248739E-006  0.9118800E+02  0.7816164E-02  0.1184000E+00
        -11   -1    0    0    0    0  0.00000000000E+00  0.00000000000E+00  0.45593999997E+02  0.45594000000E+02  0.51100000000E-03 0.  1.
         11   -1    0    0    0    0 -0.00000000000E+00 -0.00000000000E+00 -0.45593999997E+02  0.45594000000E+02  0.51100000000E-03 0. -1.
         23    2    1    2    0    0  0.00000000000E+00  0.17763568394E-14  0.00000000000E+00  0.91188000000E+02  0.91188000000E+02 0.  0.
    9900012    2    3    3    0    0 -0.38910196998E+01  0.79460734140E+01  0.35742138037E+02  0.54367074584E+02  0.39999978130E+02 0.  0.
         12    1    3    3    0    0  0.38910196998E+01 -0.79460734140E+01 -0.35742138037E+02  0.36820925416E+02  0.00000000000E+00 0. -1.
         11    1    4    4    0    0 -0.83991303311E+01  0.12469683544E+02  0.12696885905E+01  0.15088091576E+02  0.51100000000E-03 0. -1.
        -11    1    4    4    0    0  0.26888934991E+01  0.53483884247E+01  0.24148174549E+02  0.24879102502E+02  0.51100000000E-03 0.  1.
        -12    1    4    4    0    0  0.18192171321E+01 -0.98719985551E+01  0.10324274898E+02  0.14399880507E+02  0.00000000000E+00 0.  1.
</event>
<event>
 8    1  0.1248739E-006  0.9118800E+02  0.7816164E-02  0.1184000E+00
        -11   -1    0    0    0    0  0.00000000000E+00  0.00000000000E+00  0.45593999997E+02  0.45594000000E+02  0.51100000000E-03 0.  1.
         11   -1    0    0    0    0 -0.00000000000E+00 -0.00000000000E+00 -0.45593999997E+02  0.45594000000E+02  0.51100000000E-03 0. -1.
         23    2    1    2    0    0  0.22204460493E-14  0.00000000000E+00  0.00000000000E+00  0.91188000000E+02  0.91188000000E+02 0.  0.
    9900012    2    3    3    0    0 -0.38824003790E+01  0.11899380497E+02  0.34628170657E+02  0.54367102510E+02  0.40000041792E+02 0.  0.
         12    1    3    3    0    0  0.38824003790E+01 -0.11899380497E+02 -0.34628170657E+02  0.36820897490E+02  0.00000000000E+00 0. -1.
         11    1    4    4    0    0  0.54693822018E+01 -0.62098893436E+01  0.90496672879E+01  0.12262681012E+02  0.51100000000E-03 0. -1.
        -11    1    4    4    0    0  0.85672521536E+01  0.10650053442E+02  0.13679673446E+02  0.19337913890E+02  0.51100000000E-03 0.  1.
        -12    1    4    4    0    0 -0.17919034734E+02  0.74592163994E+01  0.11898829923E+02  0.22766507608E+02  0.00000000000E+00 0.  1.
</event>
<event>
 8    1  0.1248739E-006  0.9118800E+02  0.7816164E-02  0.1184000E+00
        -11   -1    0    0    0    0  0.00000000000E+00  0.00000000000E+00  0.45593999997E+02  0.45594000000E+02  0.51100000000E-03 0.  1.
         11   -1    0    0    0    0 -0.00000000000E+00 -0.00000000000E+00 -0.45593999997E+02  0.45594000000E+02  0.51100000000E-03 0. -1.
         23    2    1    2    0    0 -0.17763568394E-14  0.00000000000E+00  0.35527136788E-14  0.91188000000E+02  0.91188000000E+02 0.  0.
    9900012    2    3    3    0    0  0.11289631265E+02  0.31198912478E+02 -0.15967216095E+02  0.54367083339E+02  0.39999998089E+02 0.  0.
        -12    1    3    3    0    0 -0.11289631265E+02 -0.31198912478E+02  0.15967216095E+02  0.36820916661E+02  0.00000000000E+00 0.  1.
         11    1    4    4    0    0 -0.67457344913E+01  0.11611688647E+02 -0.62262712322E+01  0.14802118118E+02  0.51100000000E-03 0. -1.
        -11    1    4    4    0    0  0.10958721665E+02  0.17384212707E+02  0.66311074245E+01  0.21593425340E+02  0.51100000000E-03 0.  1.
        -12    1    4    4    0    0  0.70766440910E+01  0.22030111238E+01 -0.16372052287E+02  0.17971539881E+02  0.00000000000E+00 0.  1.
</event>
<event>
 8    1  0.1248739E-006  0.9118800E+02  0.7816164E-02  0.1184000E+00
        -11   -1    0    0    0    0  0.00000000000E+00  0.00000000000E+00  0.45593999997E+02  0.45594000000E+02  0.51100000000E-03 0. -1.
         11   -1    0    0    0    0 -0.00000000000E+00 -0.00000000000E+00 -0.45593999997E+02  0.45594000000E+02  0.51100000000E-03 0.  1.
         23    2    1    2    0    0 -0.88817841970E-15  0.00000000000E+00  0.00000000000E+00  0.91188000000E+02  0.91188000000E+02 0.  0.
    9900012    2    3    3    0    0  0.42955128031E+01  0.33934560484E+02  0.13629880945E+02  0.54367089092E+02  0.40000011204E+02 0.  0.
        -12    1    3    3    0    0 -0.42955128031E+01 -0.33934560484E+02 -0.13629880945E+02  0.36820910908E+02  0.00000000000E+00 0.  1.
         11    1    4    4    0    0  0.67455194150E+01  0.18143492383E+02  0.12086011570E+02  0.22820167045E+02  0.51100000000E-03 0. -1.
        -11    1    4    4    0    0 -0.12331518003E+02  0.52545591096E+01  0.81235743529E+01  0.15673837699E+02  0.51100000000E-03 0.  1.
         12    1    4    4    0    0  0.98815113912E+01  0.10536508992E+02 -0.65797049787E+01  0.15873084348E+02  0.00000000000E+00 0. -1.
</event>
<event>
 8    1  0.1248739E-006  0.9118800E+02  0.7816164E-02  0.1184000E+00
        -11   -1    0    0    0    0  0.00000000000E+00  0.00000000000E+00  0.45593999997E+02  0.45594000000E+02  0.51100000000E-03 0. -1.
         11   -1    0    0    0    0 -0.00000000000E+00 -0.00000000000E+00 -0.45593999997E+02  0.45594000000E+02  0.51100000000E-03 0.  1.
         23    2    1    2    0    0 -0.35527136788E-14 -0.10547118734E-14  0.00000000000E+00  0.91188000000E+02  0.91188000000E+02 0.  0.
    9900012    2    3    3    0    0 -0.16072881266E+02  0.49208561965E+00 -0.33124014950E+02  0.54367081668E+02  0.39999994278E+02 0.  0.
         12    1    3    3    0    0  0.16072881266E+02 -0.49208561965E+00  0.33124014950E+02  0.36820918332E+02  0.00000000000E+00 0. -1.
         11    1    4    4    0    0 -0.10050177235E+02  0.71862273802E+01  0.28356092673E+01  0.12676300982E+02  0.51100000000E-03 0. -1.
        -11    1    4    4    0    0 -0.28860930538E+01  0.59563324012E+01 -0.20105873913E+02  0.21167276510E+02  0.51100000000E-03 0.  1.
        -12    1    4    4    0    0 -0.31366109769E+01 -0.12650474162E+02 -0.15853750304E+02  0.20523504176E+02  0.00000000000E+00 0.  1.
</event>
<event>
 8    1  0.1248739E-006  0.9118800E+02  0.7816164E-02  0.1184000E+00
        -11   -1    0    0    0    0  0.00000000000E+00  0.00000000000E+00  0.45593999997E+02  0.45594000000E+02  0.51100000000E-03 0.  1.
         11   -1    0    0    0    0 -0.00000000000E+00 -0.00000000000E+00 -0.45593999997E+02  0.45594000000E+02  0.51100000000E-03 0. -1.
         23    2    1    2    0    0 -0.11102230246E-15  0.00000000000E+00 -0.35527136788E-14  0.91188000000E+02  0.91188000000E+02 0.  0.
    9900012    2    3    3    0    0  0.51036209621E+00 -0.21574158590E+02 -0.29834127316E+02  0.54367082833E+02  0.39999996934E+02 0.  0.
        -12    1    3    3    0    0 -0.51036209621E+00  0.21574158590E+02  0.29834127316E+02  0.36820917167E+02  0.00000000000E+00 0.  1.
         11    1    4    4    0    0 -0.36401307910E+01 -0.45898010660E+01 -0.17613243246E+02  0.18561873933E+02  0.51100000000E-03 0. -1.
        -11    1    4    4    0    0  0.34699830861E+01  0.41221774158E+01  0.58917201747E+01  0.79840776639E+01  0.51100000000E-03 0.  1.
        -12    1    4    4    0    0  0.68050980115E+00 -0.21106534939E+02 -0.18112604245E+02  0.27821131236E+02  0.00000000000E+00 0.  1.
</event>
<event>
 8    1  0.1248739E-006  0.9118800E+02  0.7816164E-02  0.1184000E+00
        -11   -1    0    0    0    0  0.00000000000E+00  0.00000000000E+00  0.45593999997E+02  0.45594000000E+02  0.51100000000E-03 0. -1.
         11   -1    0    0    0    0 -0.00000000000E+00 -0.00000000000E+00 -0.45593999997E+02  0.45594000000E+02  0.51100000000E-03 0.  1.
         23    2    1    2    0    0  0.17763568394E-14  0.00000000000E+00  0.00000000000E+00  0.91188000000E+02  0.91188000000E+02 0.  0.
    9900012    2    3    3    0    0  0.80421801061E+01  0.56871314285E+01  0.35478992578E+02  0.54367095080E+02  0.40000024855E+02 0.  0.
        -12    1    3    3    0    0 -0.80421801061E+01 -0.56871314285E+01 -0.35478992578E+02  0.36820904920E+02  0.00000000000E+00 0.  1.
         11    1    4    4    0    0  0.12666201128E+02  0.15801528470E+02  0.27648387365E+02  0.34271770849E+02  0.51100000000E-03 0. -1.
        -11    1    4    4    0    0 -0.15410536868E+01 -0.93344879872E+01 -0.20801864974E+01  0.96868306775E+01  0.51100000000E-03 0.  1.
        -12    1    4    4    0    0 -0.30829673355E+01 -0.77990905394E+00  0.99107917108E+01  0.10408493554E+02  0.00000000000E+00 0.  1.
</event>
<event>
 8    1  0.1248739E-006  0.9118800E+02  0.7816164E-02  0.1184000E+00
        -11   -1    0    0    0    0  0.00000000000E+00  0.00000000000E+00  0.45593999997E+02  0.45594000000E+02  0.51100000000E-03 0.  1.
         11   -1    0    0    0    0 -0.00000000000E+00 -0.00000000000E+00 -0.45593999997E+02  0.45594000000E+02  0.51100000000E-03 0. -1.
         23    2    1    2    0    0  0.35527136788E-14  0.35527136788E-14  0.35527136788E-14  0.91188000000E+02  0.91188000000E+02 0.  0.
    9900012    2    3    3    0    0 -0.19729096503E+02 -0.20241246124E+02 -0.23597317177E+02  0.54367100073E+02  0.40000036237E+02 0.  0.
        -12    1    3    3    0    0  0.19729096503E+02  0.20241246124E+02  0.23597317177E+02  0.36820899927E+02  0.00000000000E+00 0.  1.
         11    1    4    4    0    0 -0.21803627071E+02 -0.17109826967E+02 -0.11415645711E+02  0.29974344022E+02  0.51100000000E-03 0. -1.
        -11    1    4    4    0    0  0.43573663035E+01 -0.11445923125E+02 -0.90150073879E+01  0.15207437514E+02  0.51100000000E-03 0.  1.
        -12    1    4    4    0    0 -0.22828357353E+01  0.83145039684E+01 -0.31666640781E+01  0.91853185366E+01  0.00000000000E+00 0.  1.
</event>
<event>
 8    1  0.1248739E-006  0.9118800E+02  0.7816164E-02  0.1184000E+00
        -11   -1    0    0    0    0  0.00000000000E+00  0.00000000000E+00  0.45593999997E+02  0.45594000000E+02  0.51100000000E-03 0.  1.
         11   -1    0    0    0    0 -0.00000000000E+00 -0.00000000000E+00 -0.45593999997E+02  0.45594000000E+02  0.51100000000E-03 0. -1.
         23    2    1    2    0    0  0.88817841970E-15  0.71054273576E-14  0.00000000000E+00  0.91188000000E+02  0.91188000000E+02 0.  0.
    9900012    2    3    3    0    0 -0.73237860401E+01 -0.32611942039E+02 -0.15446748379E+02  0.54367100486E+02  0.40000037177E+02 0.  0.
        -12    1    3    3    0    0  0.73237860401E+01  0.32611942039E+02  0.15446748379E+02  0.36820899514E+02  0.00000000000E+00 0.  1.
         11    1    4    4    0    0 -0.39704143571E+01 -0.24528142232E+02 -0.56154325618E+01  0.25474046295E+02  0.51100000000E-03 0. -1.
        -11    1    4    4    0    0 -0.13414156741E+02 -0.10076536460E+02 -0.46907346733E+01  0.17420653838E+02  0.51100000000E-03 0.  1.
         12    1    4    4    0    0  0.10060785058E+02  0.19927366531E+01 -0.51405811442E+01  0.11472400353E+02  0.00000000000E+00 0. -1.
</event>
<event>
 8    1  0.1248739E-006  0.9118800E+02  0.7816164E-02  0.1184000E+00
        -11   -1    0    0    0    0  0.00000000000E+00  0.00000000000E+00  0.45593999997E+02  0.45594000000E+02  0.51100000000E-03 0.  1.
         11   -1    0    0    0    0 -0.00000000000E+00 -0.00000000000E+00 -0.45593999997E+02  0.45594000000E+02  0.51100000000E-03 0. -1.
         23    2    1    2    0    0  0.00000000000E+00  0.00000000000E+00  0.00000000000E+00  0.91188000000E+02  0.91188000000E+02 0.  0.
    9900012    2    3    3    0    0  0.27776203057E+02  0.16775804967E+02  0.17402040043E+02  0.54367135178E+02  0.40000116265E+02 0.  0.
        -12    1    3    3    0    0 -0.27776203057E+02 -0.16775804967E+02 -0.17402040043E+02  0.36820864822E+02  0.00000000000E+00 0.  1.
         11    1    4    4    0    0  0.61932211148E+01  0.78087941599E+01  0.22697645287E+02  0.24789440410E+02  0.51100000000E-03 0.  1.
        -11    1    4    4    0    0  0.66028101125E+01  0.92349771638E+01 -0.85912113025E+01  0.14236952501E+02  0.51100000000E-03 0. -1.
        -12    1    4    4    0    0  0.14980171830E+02 -0.26796635631E+00  0.32956060582E+01  0.15340742267E+02  0.00000000000E+00 0.  1.
</event>
<event>
 8    1  0.1248739E-006  0.9118800E+02  0.7816164E-02  0.1184000E+00
        -11   -1    0    0    0    0  0.00000000000E+00  0.00000000000E+00  0.45593999997E+02  0.45594000000E+02  0.51100000000E-03 0.  1.
         11   -1    0    0    0    0 -0.00000000000E+00 -0.00000000000E+00 -0.45593999997E+02  0.45594000000E+02  0.51100000000E-03 0. -1.
         23    2    1    2    0    0  0.71054273576E-14 -0.22204460493E-14 -0.22204460493E-15  0.91188000000E+02  0.91188000000E+02 0.  0.
    9900012    2    3    3    0    0 -0.36778130955E+02 -0.17647802245E+01 -0.17125170115E+00  0.54367154098E+02  0.40000159398E+02 0.  0.
         12    1    3    3    0    0  0.36778130955E+02  0.17647802245E+01  0.17125170115E+00  0.36820845902E+02  0.00000000000E+00 0. -1.
         11    1    4    4    0    0  0.21267807763E+01 -0.99088219026E+01  0.38444197280E+01  0.10839165617E+02  0.51100000000E-03 0. -1.
        -11    1    4    4    0    0 -0.36331058373E+02  0.33054352846E+01 -0.72066636390E+01  0.37186122492E+02  0.51100000000E-03 0.  1.
         12    1    4    4    0    0 -0.25738533577E+01  0.48386063934E+01  0.31909922099E+01  0.63418659889E+01  0.00000000000E+00 0. -1.
</event>
<event>
 8    1  0.1248739E-006  0.9118800E+02  0.7816164E-02  0.1184000E+00
        -11   -1    0    0    0    0  0.00000000000E+00  0.00000000000E+00  0.45593999997E+02  0.45594000000E+02  0.51100000000E-03 0.  1.
         11   -1    0    0    0    0 -0.00000000000E+00 -0.00000000000E+00 -0.45593999997E+02  0.45594000000E+02  0.51100000000E-03 0. -1.
         23    2    1    2    0    0  0.00000000000E+00 -0.38857805862E-15 -0.44408920985E-15  0.91188000000E+02  0.91188000000E+02 0.  0.
    9900012    2    3    3    0    0 -0.36607411296E+02  0.14784014278E+00 -0.39566778551E+01  0.54367085859E+02  0.40000003834E+02 0.  0.
         12    1    3    3    0    0  0.36607411296E+02 -0.14784014278E+00  0.39566778551E+01  0.36820914141E+02  0.00000000000E+00 0. -1.
         11    1    4    4    0    0  0.20931301006E+01 -0.55844512515E+01 -0.35894122455E+01  0.69606874609E+01  0.51100000000E-03 0.  1.
        -11    1    4    4    0    0 -0.34212801654E+01 -0.14392702819E+00  0.96707863602E+01  0.10259141389E+02  0.51100000000E-03 0. -1.
         12    1    4    4    0    0 -0.35279261231E+02  0.58762184225E+01 -0.10038051970E+02  0.37147257009E+02  0.00000000000E+00 0. -1.
</event>
<event>
 8    1  0.1248739E-006  0.9118800E+02  0.7816164E-02  0.1184000E+00
        -11   -1    0    0    0    0  0.00000000000E+00  0.00000000000E+00  0.45593999997E+02  0.45594000000E+02  0.51100000000E-03 0. -1.
         11   -1    0    0    0    0 -0.00000000000E+00 -0.00000000000E+00 -0.45593999997E+02  0.45594000000E+02  0.51100000000E-03 0.  1.
         23    2    1    2    0    0  0.00000000000E+00  0.00000000000E+00 -0.35527136788E-14  0.91188000000E+02  0.91188000000E+02 0.  0.
    9900012    2    3    3    0    0  0.76878791636E+01  0.21916233596E+02  0.28571929768E+02  0.54367082687E+02  0.39999996603E+02 0.  0.
        -12    1    3    3    0    0 -0.76878791636E+01 -0.21916233596E+02 -0.28571929768E+02  0.36820917313E+02  0.00000000000E+00 0.  1.
         11    1    4    4    0    0  0.37289871726E+01  0.10582468137E+02  0.22222548013E+02  0.24894489704E+02  0.51100000000E-03 0. -1.
        -11    1    4    4    0    0  0.14714449934E+01  0.14997207225E+02  0.14041337208E+02  0.20597099936E+02  0.51100000000E-03 0.  1.
         12    1    4    4    0    0  0.24874469976E+01 -0.36634417664E+01 -0.76919554527E+01  0.88754930470E+01  0.00000000000E+00 0. -1.
</event>
<event>
 8    1  0.1248739E-006  0.9118800E+02  0.7816164E-02  0.1184000E+00
        -11   -1    0    0    0    0  0.00000000000E+00  0.00000000000E+00  0.45593999997E+02  0.45594000000E+02  0.51100000000E-03 0.  1.
         11   -1    0    0    0    0 -0.00000000000E+00 -0.00000000000E+00 -0.45593999997E+02  0.45594000000E+02  0.51100000000E-03 0. -1.
         23    2    1    2    0    0  0.71054273576E-14 -0.44408920985E-15 -0.17763568394E-14  0.91188000000E+02  0.91188000000E+02 0.  0.
    9900012    2    3    3    0    0 -0.33894439655E+02  0.37805262194E+01  0.13880023532E+02  0.54367075633E+02  0.39999980521E+02 0.  0.
         12    1    3    3    0    0  0.33894439655E+02 -0.37805262194E+01 -0.13880023532E+02  0.36820924367E+02  0.00000000000E+00 0. -1.
         11    1    4    4    0    0  0.46135685244E+01  0.57996110063E+00 -0.12148916356E+01  0.48059683056E+01  0.51100000000E-03 0. -1.
        -11    1    4    4    0    0 -0.24022670431E+01  0.93755039933E+01  0.72699464669E+01  0.12104671989E+02  0.51100000000E-03 0.  1.
        -12    1    4    4    0    0 -0.36105741136E+02 -0.61749388745E+01  0.78249687006E+01  0.37456435338E+02  0.00000000000E+00 0.  1.
</event>
<event>
 8    1  0.1248739E-006  0.9118800E+02  0.7816164E-02  0.1184000E+00
        -11   -1    0    0    0    0  0.00000000000E+00  0.00000000000E+00  0.45593999997E+02  0.45594000000E+02  0.51100000000E-03 0.  1.
         11   -1    0    0    0    0 -0.00000000000E+00 -0.00000000000E+00 -0.45593999997E+02  0.45594000000E+02  0.51100000000E-03 0. -1.
         23    2    1    2    0    0  0.00000000000E+00  0.17763568394E-14  0.00000000000E+00  0.91188000000E+02  0.91188000000E+02 0.  0.
    9900012    2    3    3    0    0  0.26824749428E+02 -0.13564594870E+01  0.25186904514E+02  0.54366982589E+02  0.39999768407E+02 0.  0.
         12    1    3    3    0    0 -0.26824749428E+02  0.13564594870E+01 -0.25186904514E+02  0.36821017411E+02  0.00000000000E+00 0. -1.
         11    1    4    4    0    0  0.14546721996E+01 -0.10274760964E+02  0.33519446255E+01  0.10905150943E+02  0.51100000000E-03 0. -1.
        -11    1    4    4    0    0  0.11864857638E+02 -0.10462875955E+01 -0.40769589784E+01  0.12589327197E+02  0.51100000000E-03 0.  1.
         12    1    4    4    0    0  0.13505219590E+02  0.99645890720E+01  0.25911918867E+02  0.30872504448E+02  0.00000000000E+00 0. -1.
</event>
<event>
 8    1  0.1248739E-006  0.9118800E+02  0.7816164E-02  0.1184000E+00
        -11   -1    0    0    0    0  0.00000000000E+00  0.00000000000E+00  0.45593999997E+02  0.45594000000E+02  0.51100000000E-03 0.  1.
         11   -1    0    0    0    0 -0.00000000000E+00 -0.00000000000E+00 -0.45593999997E+02  0.45594000000E+02  0.51100000000E-03 0. -1.
         23    2    1    2    0    0  0.00000000000E+00 -0.17763568394E-14 -0.71054273576E-14  0.91188000000E+02  0.91188000000E+02 0.  0.
    9900012    2    3    3    0    0 -0.12813349815E+02  0.10081769528E+02  0.33014301266E+02  0.54367243647E+02  0.40000363540E+02 0.  0.
         12    1    3    3    0    0  0.12813349815E+02 -0.10081769528E+02 -0.33014301266E+02  0.36820756353E+02  0.00000000000E+00 0. -1.
         11    1    4    4    0    0 -0.97254968389E+01 -0.34208125071E+01  0.29554229269E+02  0.31300794158E+02  0.51100000000E-03 0.  1.
        -11    1    4    4    0    0 -0.55306592961E+01  0.65235828468E+01  0.10025700110E+02  0.13178011548E+02  0.51100000000E-03 0. -1.
         12    1    4    4    0    0  0.24428063196E+01  0.69789991887E+01 -0.65656281128E+01  0.98884379407E+01  0.00000000000E+00 0. -1.
</event>
<event>
 8    1  0.1248739E-006  0.9118800E+02  0.7816164E-02  0.1184000E+00
        -11   -1    0    0    0    0  0.00000000000E+00  0.00000000000E+00  0.45593999997E+02  0.45594000000E+02  0.51100000000E-03 0.  1.
         11   -1    0    0    0    0 -0.00000000000E+00 -0.00000000000E+00 -0.45593999997E+02  0.45594000000E+02  0.51100000000E-03 0. -1.
         23    2    1    2    0    0 -0.22204460493E-15  0.00000000000E+00  0.71054273576E-14  0.91188000000E+02  0.91188000000E+02 0.  0.
    9900012    2    3    3    0    0 -0.78890815502E+00  0.17654287943E+02  0.32303013735E+02  0.54367069061E+02  0.39999965539E+02 0.  0.
         12    1    3    3    0    0  0.78890815502E+00 -0.17654287943E+02 -0.32303013735E+02  0.36820930939E+02  0.00000000000E+00 0. -1.
         11    1    4    4    0    0  0.26627580870E+01  0.56899400278E+00 -0.65153111902E+00  0.27997371064E+01  0.51100000000E-03 0. -1.
        -11    1    4    4    0    0  0.36029358967E+01  0.15722366528E+02  0.38982998884E+02  0.42188246687E+02  0.51100000000E-03 0.  1.
        -12    1    4    4    0    0 -0.70546021387E+01  0.13629274119E+01 -0.60284540299E+01  0.93790852675E+01  0.00000000000E+00 0.  1.
</event>
<event>
 8    1  0.1248739E-006  0.9118800E+02  0.7816164E-02  0.1184000E+00
        -11   -1    0    0    0    0  0.00000000000E+00  0.00000000000E+00  0.45593999997E+02  0.45594000000E+02  0.51100000000E-03 0. -1.
         11   -1    0    0    0    0 -0.00000000000E+00 -0.00000000000E+00 -0.45593999997E+02  0.45594000000E+02  0.51100000000E-03 0.  1.
         23    2    1    2    0    0  0.88817841970E-15  0.00000000000E+00  0.00000000000E+00  0.91188000000E+02  0.91188000000E+02 0.  0.
    9900012    2    3    3    0    0 -0.25423771490E+01 -0.16959699379E+02  0.32583506961E+02  0.54367081890E+02  0.39999994785E+02 0.  0.
        -12    1    3    3    0    0  0.25423771490E+01  0.16959699379E+02 -0.32583506961E+02  0.36820918110E+02  0.00000000000E+00 0.  1.
         11    1    4    4    0    0  0.26572054314E+01 -0.29369204956E+01  0.30185677059E+01  0.49797584237E+01  0.51100000000E-03 0. -1.
        -11    1    4    4    0    0  0.11611993990E+02 -0.11698681380E+02  0.14497470381E+01  0.16546882401E+02  0.51100000000E-03 0.  1.
        -12    1    4    4    0    0 -0.16811576571E+02 -0.23240975038E+01  0.28115192217E+02  0.32840441065E+02  0.00000000000E+00 0.  1.
</event>
<event>
 8    1  0.1248739E-006  0.9118800E+02  0.7816164E-02  0.1184000E+00
        -11   -1    0    0    0    0  0.00000000000E+00  0.00000000000E+00  0.45593999997E+02  0.45594000000E+02  0.51100000000E-03 0. -1.
         11   -1    0    0    0    0 -0.00000000000E+00 -0.00000000000E+00 -0.45593999997E+02  0.45594000000E+02  0.51100000000E-03 0.  1.
         23    2    1    2    0    0  0.00000000000E+00  0.00000000000E+00  0.00000000000E+00  0.91188000000E+02  0.91188000000E+02 0.  0.
    9900012    2    3    3    0    0  0.17619602941E+02  0.31257275079E+02  0.82649955314E+01  0.54367111848E+02  0.40000063080E+02 0.  0.
        -12    1    3    3    0    0 -0.17619602941E+02 -0.31257275079E+02 -0.82649955314E+01  0.36820888152E+02  0.00000000000E+00 0.  1.
         11    1    4    4    0    0  0.14972304879E+02  0.50165130882E+01 -0.36378913683E+01  0.16203998606E+02  0.51100000000E-03 0. -1.
        -11    1    4    4    0    0  0.66387802277E+01  0.17991480239E+01  0.11493390122E+02  0.13394340346E+02  0.51100000000E-03 0.  1.
        -12    1    4    4    0    0 -0.39914821662E+01  0.24441613967E+02  0.40949677722E+00  0.24768772896E+02  0.00000000000E+00 0.  1.
</event>
<event>
 8    1  0.1248739E-006  0.9118800E+02  0.7816164E-02  0.1184000E+00
        -11   -1    0    0    0    0  0.00000000000E+00  0.00000000000E+00  0.45593999997E+02  0.45594000000E+02  0.51100000000E-03 0. -1.
         11   -1    0    0    0    0 -0.00000000000E+00 -0.00000000000E+00 -0.45593999997E+02  0.45594000000E+02  0.51100000000E-03 0.  1.
         23    2    1    2    0    0  0.17763568394E-14  0.00000000000E+00  0.35527136788E-14  0.91188000000E+02  0.91188000000E+02 0.  0.
    9900012    2    3    3    0    0  0.12974006058E+02  0.22663421902E+02  0.25958116489E+02  0.54367091033E+02  0.40000015628E+02 0.  0.
        -12    1    3    3    0    0 -0.12974006058E+02 -0.22663421902E+02 -0.25958116489E+02  0.36820908967E+02  0.00000000000E+00 0.  1.
         11    1    4    4    0    0  0.23787001180E+02  0.89796286899E+01  0.73652283735E+01  0.26470771538E+02  0.51100000000E-03 0. -1.
        -11    1    4    4    0    0 -0.51899575631E+00  0.35331891376E+01 -0.84691203158E+00  0.36701556271E+01  0.51100000000E-03 0.  1.
        -12    1    4    4    0    0 -0.10293999366E+02  0.10150604075E+02  0.19439800147E+02  0.24226163868E+02  0.00000000000E+00 0.  1.
</event>
<event>
 8    1  0.1248739E-006  0.9118800E+02  0.7816164E-02  0.1184000E+00
        -11   -1    0    0    0    0  0.00000000000E+00  0.00000000000E+00  0.45593999997E+02  0.45594000000E+02  0.51100000000E-03 0. -1.
         11   -1    0    0    0    0 -0.00000000000E+00 -0.00000000000E+00 -0.45593999997E+02  0.45594000000E+02  0.51100000000E-03 0.  1.
         23    2    1    2    0    0  0.17763568394E-14  0.00000000000E+00  0.21649348980E-14  0.91188000000E+02  0.91188000000E+02 0.  0.
    9900012    2    3    3    0    0 -0.13030233771E+02  0.34438083872E+02 -0.10290529220E+00  0.54367092863E+02  0.40000019800E+02 0.  0.
        -12    1    3    3    0    0  0.13030233771E+02 -0.34438083872E+02  0.10290529220E+00  0.36820907137E+02  0.00000000000E+00 0.  1.
         11    1    4    4    0    0 -0.32950769617E+01  0.12141271533E+02  0.75129439248E+01  0.14653065662E+02  0.51100000000E-03 0. -1.
        -11    1    4    4    0    0  0.29312937589E+01 -0.89705790124E+00  0.83111700407E+01  0.88584842770E+01  0.51100000000E-03 0.  1.
         12    1    4    4    0    0 -0.12666450568E+02  0.23193870240E+02 -0.15927019258E+02  0.30855542924E+02  0.00000000000E+00 0. -1.
</event>
<event>
 8    1  0.1248739E-006  0.9118800E+02  0.7816164E-02  0.1184000E+00
        -11   -1    0    0    0    0  0.00000000000E+00  0.00000000000E+00  0.45593999997E+02  0.45594000000E+02  0.51100000000E-03 0.  1.
         11   -1    0    0    0    0 -0.00000000000E+00 -0.00000000000E+00 -0.45593999997E+02  0.45594000000E+02  0.51100000000E-03 0. -1.
         23    2    1    2    0    0 -0.88817841970E-15 -0.35527136788E-14  0.00000000000E+00  0.91188000000E+02  0.91188000000E+02 0.  0.
    9900012    2    3    3    0    0 -0.51399189075E+01  0.17028770107E+02 -0.32239444711E+02  0.54367087830E+02  0.40000008326E+02 0.  0.
        -12    1    3    3    0    0  0.51399189075E+01 -0.17028770107E+02  0.32239444711E+02  0.36820912170E+02  0.00000000000E+00 0.  1.
         11    1    4    4    0    0 -0.10910159803E+01 -0.84141536662E+01 -0.19843759944E+02  0.21581545514E+02  0.51100000000E-03 0. -1.
        -11    1    4    4    0    0 -0.86456904706E+01  0.67796151760E+01 -0.60594173153E+01  0.12547018933E+02  0.51100000000E-03 0.  1.
         12    1    4    4    0    0  0.45967875434E+01  0.18663308597E+02 -0.63362674519E+01  0.20238523383E+02  0.00000000000E+00 0. -1.
</event>
<event>
 8    1  0.1248739E-006  0.9118800E+02  0.7816164E-02  0.1184000E+00
        -11   -1    0    0    0    0  0.00000000000E+00  0.00000000000E+00  0.45593999997E+02  0.45594000000E+02  0.51100000000E-03 0. -1.
         11   -1    0    0    0    0 -0.00000000000E+00 -0.00000000000E+00 -0.45593999997E+02  0.45594000000E+02  0.51100000000E-03 0.  1.
         23    2    1    2    0    0  0.22204460493E-15  0.00000000000E+00  0.00000000000E+00  0.91188000000E+02  0.91188000000E+02 0.  0.
    9900012    2    3    3    0    0 -0.14390542330E+01 -0.48907179284E+01  0.36466302401E+02  0.54367065604E+02  0.39999957658E+02 0.  0.
        -12    1    3    3    0    0  0.14390542330E+01  0.48907179284E+01 -0.36466302401E+02  0.36820934396E+02  0.00000000000E+00 0.  1.
         11    1    4    4    0    0 -0.60458945483E+01 -0.23906746771E+01  0.29626202605E+02  0.30331172865E+02  0.51100000000E-03 0. -1.
        -11    1    4    4    0    0 -0.73628846784E+01  0.18999112036E+01 -0.27431190537E+01  0.80837142313E+01  0.51100000000E-03 0.  1.
         12    1    4    4    0    0  0.11969724994E+02 -0.43999544549E+01  0.95832188499E+01  0.15952178508E+02  0.00000000000E+00 0. -1.
</event>
<event>
 8    1  0.1248739E-006  0.9118800E+02  0.7816164E-02  0.1184000E+00
        -11   -1    0    0    0    0  0.00000000000E+00  0.00000000000E+00  0.45593999997E+02  0.45594000000E+02  0.51100000000E-03 0.  1.
         11   -1    0    0    0    0 -0.00000000000E+00 -0.00000000000E+00 -0.45593999997E+02  0.45594000000E+02  0.51100000000E-03 0. -1.
         23    2    1    2    0    0  0.00000000000E+00  0.71054273576E-14  0.00000000000E+00  0.91188000000E+02  0.91188000000E+02 0.  0.
    9900012    2    3    3    0    0  0.16659497631E+02 -0.32083027831E+02 -0.69943081381E+01  0.54367083628E+02  0.39999998748E+02 0.  0.
        -12    1    3    3    0    0 -0.16659497631E+02  0.32083027831E+02  0.69943081381E+01  0.36820916372E+02  0.00000000000E+00 0.  1.
         11    1    4    4    0    0 -0.31724964868E+01  0.70825466696E+01 -0.30499062868E+01  0.83384129129E+01  0.51100000000E-03 0. -1.
        -11    1    4    4    0    0  0.12913008363E+02 -0.31063498780E+02 -0.80841920004E+01  0.34598278888E+02  0.51100000000E-03 0.  1.
        -12    1    4    4    0    0  0.69189857549E+01 -0.81020757207E+01  0.41397901491E+01  0.11430391828E+02  0.00000000000E+00 0.  1.
</event>
<event>
 8    1  0.1248739E-006  0.9118800E+02  0.7816164E-02  0.1184000E+00
        -11   -1    0    0    0    0  0.00000000000E+00  0.00000000000E+00  0.45593999997E+02  0.45594000000E+02  0.51100000000E-03 0.  1.
         11   -1    0    0    0    0 -0.00000000000E+00 -0.00000000000E+00 -0.45593999997E+02  0.45594000000E+02  0.51100000000E-03 0. -1.
         23    2    1    2    0    0  0.00000000000E+00 -0.35527136788E-14 -0.17763568394E-14  0.91188000000E+02  0.91188000000E+02 0.  0.
    9900012    2    3    3    0    0 -0.13956240979E+02  0.31834758734E+02  0.12147091496E+02  0.54367077174E+02  0.39999984034E+02 0.  0.
         12    1    3    3    0    0  0.13956240979E+02 -0.31834758734E+02 -0.12147091496E+02  0.36820922826E+02  0.00000000000E+00 0. -1.
         11    1    4    4    0    0  0.53042086765E+01 -0.17909628379E+01  0.12690835773E+02  0.13870814340E+02  0.51100000000E-03 0. -1.
        -11    1    4    4    0    0 -0.12536822326E+02  0.21765670069E+02  0.52869348964E+01  0.25668423957E+02  0.51100000000E-03 0.  1.
         12    1    4    4    0    0 -0.67236273296E+01  0.11860051503E+02 -0.58306791741E+01  0.14827838877E+02  0.00000000000E+00 0. -1.
</event>
<event>
 8    1  0.1248739E-006  0.9118800E+02  0.7816164E-02  0.1184000E+00
        -11   -1    0    0    0    0  0.00000000000E+00  0.00000000000E+00  0.45593999997E+02  0.45594000000E+02  0.51100000000E-03 0.  1.
         11   -1    0    0    0    0 -0.00000000000E+00 -0.00000000000E+00 -0.45593999997E+02  0.45594000000E+02  0.51100000000E-03 0. -1.
         23    2    1    2    0    0  0.88817841970E-15 -0.88817841970E-15  0.71054273576E-14  0.91188000000E+02  0.91188000000E+02 0.  0.
    9900012    2    3    3    0    0  0.54839483720E+01  0.65054562931E+01  0.35824376375E+02  0.54367073966E+02  0.39999976721E+02 0.  0.
         12    1    3    3    0    0 -0.54839483720E+01 -0.65054562931E+01 -0.35824376375E+02  0.36820926034E+02  0.00000000000E+00 0. -1.
         11    1    4    4    0    0  0.15123958449E+01 -0.10206350808E+02  0.23670387887E+00  0.10320511954E+02  0.51100000000E-03 0. -1.
        -11    1    4    4    0    0 -0.12939757089E+01 -0.41217086617E+01  0.78353798483E+01  0.89474037047E+01  0.51100000000E-03 0.  1.
        -12    1    4    4    0    0  0.52655282360E+01  0.20833515763E+02  0.27752292648E+02  0.35099158307E+02  0.00000000000E+00 0.  1.
</event>
<event>
 8    1  0.1248739E-006  0.9118800E+02  0.7816164E-02  0.1184000E+00
        -11   -1    0    0    0    0  0.00000000000E+00  0.00000000000E+00  0.45593999997E+02  0.45594000000E+02  0.51100000000E-03 0. -1.
         11   -1    0    0    0    0 -0.00000000000E+00 -0.00000000000E+00 -0.45593999997E+02  0.45594000000E+02  0.51100000000E-03 0.  1.
         23    2    1    2    0    0  0.35527136788E-14 -0.66613381478E-15  0.35527136788E-14  0.91188000000E+02  0.91188000000E+02 0.  0.
    9900012    2    3    3    0    0 -0.30559688371E+02 -0.16444582496E+01 -0.20473891149E+02  0.54367095407E+02  0.40000025600E+02 0.  0.
         12    1    3    3    0    0  0.30559688371E+02  0.16444582496E+01  0.20473891149E+02  0.36820904593E+02  0.00000000000E+00 0. -1.
         11    1    4    4    0    0 -0.13777026871E+02 -0.77758570434E+01 -0.25747084056E+02  0.30218913942E+02  0.51100000000E-03 0.  1.
        -11    1    4    4    0    0 -0.67682687792E-01 -0.39562076763E+01  0.12961408480E+00  0.39589089654E+01  0.51100000000E-03 0. -1.
        -12    1    4    4    0    0 -0.16714978812E+02  0.10087606470E+02  0.51435788224E+01  0.20189272500E+02  0.00000000000E+00 0.  1.
</event>
<event>
 8    1  0.1248739E-006  0.9118800E+02  0.7816164E-02  0.1184000E+00
        -11   -1    0    0    0    0  0.00000000000E+00  0.00000000000E+00  0.45593999997E+02  0.45594000000E+02  0.51100000000E-03 0.  1.
         11   -1    0    0    0    0 -0.00000000000E+00 -0.00000000000E+00 -0.45593999997E+02  0.45594000000E+02  0.51100000000E-03 0. -1.
         23    2    1    2    0    0  0.00000000000E+00  0.00000000000E+00  0.00000000000E+00  0.91188000000E+02  0.91188000000E+02 0.  0.
    9900012    2    3    3    0    0  0.19589458665E+01 -0.19300409062E+02 -0.31295948510E+02  0.54367086758E+02  0.40000005882E+02 0.  0.
        -12    1    3    3    0    0 -0.19589458665E+01  0.19300409062E+02  0.31295948510E+02  0.36820913242E+02  0.00000000000E+00 0.  1.
         11    1    4    4    0    0 -0.14265439837E+02 -0.87378966953E+01 -0.13457717310E+02  0.21470066787E+02  0.51100000000E-03 0. -1.
        -11    1    4    4    0    0  0.14033593224E+02 -0.16052027090E+02 -0.16157748533E+02  0.26752236363E+02  0.51100000000E-03 0.  1.
        -12    1    4    4    0    0  0.21907924799E+01  0.54895147238E+01 -0.16804826668E+01  0.61447836077E+01  0.00000000000E+00 0.  1.
</event>
<event>
 8    1  0.1248739E-006  0.9118800E+02  0.7816164E-02  0.1184000E+00
        -11   -1    0    0    0    0  0.00000000000E+00  0.00000000000E+00  0.45593999997E+02  0.45594000000E+02  0.51100000000E-03 0.  1.
         11   -1    0    0    0    0 -0.00000000000E+00 -0.00000000000E+00 -0.45593999997E+02  0.45594000000E+02  0.51100000000E-03 0. -1.
         23    2    1    2    0    0  0.00000000000E+00  0.88817841970E-15 -0.71054273576E-14  0.91188000000E+02  0.91188000000E+02 0.  0.
    9900012    2    3    3    0    0  0.12259158791E+02 -0.46671047386E+01  0.34405096315E+02  0.54367088912E+02  0.40000010792E+02 0.  0.
         12    1    3    3    0    0 -0.12259158791E+02  0.46671047386E+01 -0.34405096315E+02  0.36820911088E+02  0.00000000000E+00 0. -1.
         11    1    4    4    0    0  0.20988122799E+02  0.44265774537E+01  0.46516952152E+01  0.21948443116E+02  0.51100000000E-03 0. -1.
        -11    1    4    4    0    0 -0.47877511280E+01 -0.55933724543E+01  0.20315241705E+02  0.21608272075E+02  0.51100000000E-03 0.  1.
         12    1    4    4    0    0 -0.39412128795E+01 -0.35003097379E+01  0.94381593945E+01  0.10810373721E+02  0.00000000000E+00 0. -1.
</event>
<event>
 8    1  0.1248739E-006  0.9118800E+02  0.7816164E-02  0.1184000E+00
        -11   -1    0    0    0    0  0.00000000000E+00  0.00000000000E+00  0.45593999997E+02  0.45594000000E+02  0.51100000000E-03 0. -1.
         11   -1    0    0    0    0 -0.00000000000E+00 -0.00000000000E+00 -0.45593999997E+02  0.45594000000E+02  0.51100000000E-03 0.  1.
         23    2    1    2    0    0 -0.71054273576E-14  0.00000000000E+00 -0.35527136788E-14  0.91188000000E+02  0.91188000000E+02 0.  0.
    9900012    2    3    3    0    0 -0.16441120346E+02  0.12372988851E+02 -0.30534831059E+02  0.54367120065E+02  0.40000081813E+02 0.  0.
         12    1    3    3    0    0  0.16441120346E+02 -0.12372988851E+02  0.30534831059E+02  0.36820879935E+02  0.00000000000E+00 0. -1.
         11    1    4    4    0    0 -0.41356490677E+00 -0.39627405178E+01  0.38899457786E+01  0.55683055560E+01  0.51100000000E-03 0. -1.
        -11    1    4    4    0    0 -0.22450702983E+02  0.16065626574E+02 -0.24153234972E+02  0.36681291982E+02  0.51100000000E-03 0.  1.
         12    1    4    4    0    0  0.64231475434E+01  0.27010279483E+00 -0.10271541866E+02  0.12117522527E+02  0.00000000000E+00 0. -1.
</event>
<event>
 8    1  0.1248739E-006  0.9118800E+02  0.7816164E-02  0.1184000E+00
        -11   -1    0    0    0    0  0.00000000000E+00  0.00000000000E+00  0.45593999997E+02  0.45594000000E+02  0.51100000000E-03 0. -1.
         11   -1    0    0    0    0 -0.00000000000E+00 -0.00000000000E+00 -0.45593999997E+02  0.45594000000E+02  0.51100000000E-03 0.  1.
         23    2    1    2    0    0  0.00000000000E+00  0.71054273576E-14  0.17763568394E-14  0.91188000000E+02  0.91188000000E+02 0.  0.
    9900012    2    3    3    0    0  0.20517031476E+02  0.29805621927E+02  0.68157766797E+01  0.54367102526E+02  0.40000041828E+02 0.  0.
         12    1    3    3    0    0 -0.20517031476E+02 -0.29805621927E+02 -0.68157766797E+01  0.36820897474E+02  0.00000000000E+00 0. -1.
         11    1    4    4    0    0  0.45017355207E+01 -0.51732369847E+01  0.82249039324E+01  0.10708737020E+02  0.51100000000E-03 0.  1.
        -11    1    4    4    0    0  0.13722156294E+02  0.83403772589E+01 -0.46699029443E+01  0.16723261044E+02  0.51100000000E-03 0. -1.
         12    1    4    4    0    0  0.22931396620E+01  0.26638481653E+02  0.32607756916E+01  0.26935104462E+02  0.00000000000E+00 0. -1.
</event>
<event>
 8    1  0.1248739E-006  0.9118800E+02  0.7816164E-02  0.1184000E+00
        -11   -1    0    0    0    0  0.00000000000E+00  0.00000000000E+00  0.45593999997E+02  0.45594000000E+02  0.51100000000E-03 0.  1.
         11   -1    0    0    0    0 -0.00000000000E+00 -0.00000000000E+00 -0.45593999997E+02  0.45594000000E+02  0.51100000000E-03 0. -1.
         23    2    1    2    0    0  0.00000000000E+00  0.53290705182E-14  0.88817841970E-15  0.91188000000E+02  0.91188000000E+02 0.  0.
    9900012    2    3    3    0    0 -0.33563058416E+02 -0.13806804243E+02  0.62187646292E+01  0.54367085194E+02  0.40000002317E+02 0.  0.
        -12    1    3    3    0    0  0.33563058416E+02  0.13806804243E+02 -0.62187646292E+01  0.36820914806E+02  0.00000000000E+00 0.  1.
         11    1    4    4    0    0 -0.11556139365E+01  0.19169547230E+01 -0.12402350448E+01  0.25589728814E+01  0.51100000000E-03 0. -1.
        -11    1    4    4    0    0 -0.28346821248E+02 -0.26150376127E+02  0.10942599005E+02  0.40088962567E+02  0.51100000000E-03 0.  1.
        -12    1    4    4    0    0 -0.40606232316E+01  0.10426617162E+02 -0.34835993308E+01  0.11719149746E+02  0.00000000000E+00 0.  1.
</event>
<event>
 8    1  0.1248739E-006  0.9118800E+02  0.7816164E-02  0.1184000E+00
        -11   -1    0    0    0    0  0.00000000000E+00  0.00000000000E+00  0.45593999997E+02  0.45594000000E+02  0.51100000000E-03 0. -1.
         11   -1    0    0    0    0 -0.00000000000E+00 -0.00000000000E+00 -0.45593999997E+02  0.45594000000E+02  0.51100000000E-03 0.  1.
         23    2    1    2    0    0 -0.35527136788E-14  0.00000000000E+00  0.88817841970E-15  0.91188000000E+02  0.91188000000E+02 0.  0.
    9900012    2    3    3    0    0  0.29607957333E+02 -0.20783639571E+02  0.68693947575E+01  0.54367090240E+02  0.40000013819E+02 0.  0.
         12    1    3    3    0    0 -0.29607957333E+02  0.20783639571E+02 -0.68693947575E+01  0.36820909760E+02  0.00000000000E+00 0. -1.
         11    1    4    4    0    0  0.96970187083E+01  0.71833500338E+01 -0.83646968944E+00  0.12096791779E+02  0.51100000000E-03 0. -1.
        -11    1    4    4    0    0  0.20022528939E+02 -0.11387237731E+02 -0.18934508390E+01  0.23111815260E+02  0.51100000000E-03 0.  1.
        -12    1    4    4    0    0 -0.11159031490E+00 -0.16579751874E+02  0.95993152859E+01  0.19158483201E+02  0.00000000000E+00 0.  1.
</event>
<event>
 8    1  0.1248739E-006  0.9118800E+02  0.7816164E-02  0.1184000E+00
        -11   -1    0    0    0    0  0.00000000000E+00  0.00000000000E+00  0.45593999997E+02  0.45594000000E+02  0.51100000000E-03 0. -1.
         11   -1    0    0    0    0 -0.00000000000E+00 -0.00000000000E+00 -0.45593999997E+02  0.45594000000E+02  0.51100000000E-03 0.  1.
         23    2    1    2    0    0  0.00000000000E+00  0.00000000000E+00  0.00000000000E+00  0.91188000000E+02  0.91188000000E+02 0.  0.
    9900012    2    3    3    0    0 -0.16638086361E+02  0.25835839808E+02  0.20284571116E+02  0.54367077120E+02  0.39999983911E+02 0.  0.
        -12    1    3    3    0    0  0.16638086361E+02 -0.25835839808E+02 -0.20284571116E+02  0.36820922880E+02  0.00000000000E+00 0.  1.
         11    1    4    4    0    0 -0.13527936105E+02  0.16826866478E+01  0.20847450379E+01  0.13790672636E+02  0.51100000000E-03 0. -1.
        -11    1    4    4    0    0 -0.64102190504E+01  0.26966553838E+01 -0.51803962952E+01  0.86717567176E+01  0.51100000000E-03 0.  1.
         12    1    4    4    0    0  0.33000687949E+01  0.21456497777E+02  0.23380222373E+02  0.31904647766E+02  0.00000000000E+00 0. -1.
</event>
<event>
 8    1  0.1248739E-006  0.9118800E+02  0.7816164E-02  0.1184000E+00
        -11   -1    0    0    0    0  0.00000000000E+00  0.00000000000E+00  0.45593999997E+02  0.45594000000E+02  0.51100000000E-03 0. -1.
         11   -1    0    0    0    0 -0.00000000000E+00 -0.00000000000E+00 -0.45593999997E+02  0.45594000000E+02  0.51100000000E-03 0.  1.
         23    2    1    2    0    0 -0.35527136788E-14  0.00000000000E+00  0.17763568394E-14  0.91188000000E+02  0.91188000000E+02 0.  0.
    9900012    2    3    3    0    0 -0.26522495003E+02  0.23829766583E+02  0.91912638633E+01  0.54367084096E+02  0.39999999814E+02 0.  0.
        -12    1    3    3    0    0  0.26522495003E+02 -0.23829766583E+02 -0.91912638633E+01  0.36820915904E+02  0.00000000000E+00 0.  1.
         11    1    4    4    0    0 -0.43106072721E+01  0.22167131168E+02  0.11680036384E+02  0.25424128096E+02  0.51100000000E-03 0. -1.
        -11    1    4    4    0    0 -0.51202981536E+01  0.75453239495E+01 -0.54547318616E+01  0.10625604295E+02  0.51100000000E-03 0.  1.
         12    1    4    4    0    0 -0.17091589578E+02 -0.58826885342E+01  0.29659593413E+01  0.18317351705E+02  0.00000000000E+00 0. -1.
</event>
<event>
 8    1  0.1248739E-006  0.9118800E+02  0.7816164E-02  0.1184000E+00
        -11   -1    0    0    0    0  0.00000000000E+00  0.00000000000E+00  0.45593999997E+02  0.45594000000E+02  0.51100000000E-03 0. -1.
         11   -1    0    0    0    0 -0.00000000000E+00 -0.00000000000E+00 -0.45593999997E+02  0.45594000000E+02  0.51100000000E-03 0.  1.
         23    2    1    2    0    0  0.35527136788E-14  0.00000000000E+00 -0.88817841970E-15  0.91188000000E+02  0.91188000000E+02 0.  0.
    9900012    2    3    3    0    0 -0.25057726741E+02 -0.26037079875E+02  0.70683067296E+01  0.54367079888E+02  0.39999990221E+02 0.  0.
        -12    1    3    3    0    0  0.25057726741E+02  0.26037079875E+02 -0.70683067296E+01  0.36820920112E+02  0.00000000000E+00 0.  1.
         11    1    4    4    0    0 -0.38904158825E+01  0.28372357596E+01  0.88545135016E+01  0.10079070002E+02  0.51100000000E-03 0. -1.
        -11    1    4    4    0    0 -0.23365138826E+02 -0.32169268624E+02  0.40570756661E+00  0.39761239355E+02  0.51100000000E-03 0.  1.
        -12    1    4    4    0    0  0.21978279676E+01  0.32949529889E+01 -0.21919143386E+01  0.45267705312E+01  0.00000000000E+00 0.  1.
</event>
<event>
 8    1  0.1248739E-006  0.9118800E+02  0.7816164E-02  0.1184000E+00
        -11   -1    0    0    0    0  0.00000000000E+00  0.00000000000E+00  0.45593999997E+02  0.45594000000E+02  0.51100000000E-03 0. -1.
         11   -1    0    0    0    0 -0.00000000000E+00 -0.00000000000E+00 -0.45593999997E+02  0.45594000000E+02  0.51100000000E-03 0.  1.
         23    2    1    2    0    0  0.00000000000E+00  0.00000000000E+00  0.35527136788E-14  0.91188000000E+02  0.91188000000E+02 0.  0.
    9900012    2    3    3    0    0 -0.18120161109E+02  0.12205963090E+02  0.29638722859E+02  0.54367086564E+02  0.40000005439E+02 0.  0.
        -12    1    3    3    0    0  0.18120161109E+02 -0.12205963090E+02 -0.29638722859E+02  0.36820913436E+02  0.00000000000E+00 0.  1.
         11    1    4    4    0    0 -0.31201084771E+01  0.79694997533E+01  0.34586562938E+02  0.35629739535E+02  0.51100000000E-03 0. -1.
        -11    1    4    4    0    0 -0.10845393884E+02 -0.44023497655E+00 -0.59870330586E+01  0.12396005020E+02  0.51100000000E-03 0.  1.
         12    1    4    4    0    0 -0.41546587480E+01  0.46766983137E+01  0.10391929797E+01  0.63413420093E+01  0.00000000000E+00 0. -1.
</event>
<event>
 8    1  0.1248739E-006  0.9118800E+02  0.7816164E-02  0.1184000E+00
        -11   -1    0    0    0    0  0.00000000000E+00  0.00000000000E+00  0.45593999997E+02  0.45594000000E+02  0.51100000000E-03 0. -1.
         11   -1    0    0    0    0 -0.00000000000E+00 -0.00000000000E+00 -0.45593999997E+02  0.45594000000E+02  0.51100000000E-03 0.  1.
         23    2    1    2    0    0  0.35527136788E-14  0.00000000000E+00  0.71054273576E-14  0.91188000000E+02  0.91188000000E+02 0.  0.
    9900012    2    3    3    0    0  0.20523832225E+02  0.14249050394E+02  0.27046564396E+02  0.54367085129E+02  0.40000002169E+02 0.  0.
        -12    1    3    3    0    0 -0.20523832225E+02 -0.14249050394E+02 -0.27046564396E+02  0.36820914871E+02  0.00000000000E+00 0.  1.
         11    1    4    4    0    0  0.24509161203E+01  0.34643546809E+01 -0.40817811885E+01  0.58880965614E+01  0.51100000000E-03 0. -1.
        -11    1    4    4    0    0  0.62308670922E+01  0.11127067701E+02 -0.23488721038E+01  0.12967364450E+02  0.51100000000E-03 0.  1.
         12    1    4    4    0    0  0.11842049012E+02 -0.34237198823E+00  0.33477217688E+02  0.35511624118E+02  0.00000000000E+00 0. -1.
</event>
<event>
 8    1  0.1248739E-006  0.9118800E+02  0.7816164E-02  0.1184000E+00
        -11   -1    0    0    0    0  0.00000000000E+00  0.00000000000E+00  0.45593999997E+02  0.45594000000E+02  0.51100000000E-03 0. -1.
         11   -1    0    0    0    0 -0.00000000000E+00 -0.00000000000E+00 -0.45593999997E+02  0.45594000000E+02  0.51100000000E-03 0.  1.
         23    2    1    2    0    0 -0.17763568394E-14  0.00000000000E+00  0.35527136788E-14  0.91188000000E+02  0.91188000000E+02 0.  0.
    9900012    2    3    3    0    0  0.82136446717E+01 -0.25405472641E+02  0.25355022427E+02  0.54367093422E+02  0.40000021075E+02 0.  0.
        -12    1    3    3    0    0 -0.82136446717E+01  0.25405472641E+02 -0.25355022427E+02  0.36820906578E+02  0.00000000000E+00 0.  1.
         11    1    4    4    0    0 -0.36286864930E+00 -0.18914902616E+02  0.24844012413E+02  0.31227074273E+02  0.51100000000E-03 0. -1.
        -11    1    4    4    0    0 -0.37626986719E+01  0.32413207374E+00 -0.64075364998E+01  0.74377071168E+01  0.51100000000E-03 0.  1.
        -12    1    4    4    0    0  0.12339211993E+02 -0.68147020991E+01  0.69185465141E+01  0.15702312033E+02  0.00000000000E+00 0.  1.
</event>
<event>
 8    1  0.1248739E-006  0.9118800E+02  0.7816164E-02  0.1184000E+00
        -11   -1    0    0    0    0  0.00000000000E+00  0.00000000000E+00  0.45593999997E+02  0.45594000000E+02  0.51100000000E-03 0.  1.
         11   -1    0    0    0    0 -0.00000000000E+00 -0.00000000000E+00 -0.45593999997E+02  0.45594000000E+02  0.51100000000E-03 0. -1.
         23    2    1    2    0    0  0.35527136788E-14 -0.88817841970E-15  0.00000000000E+00  0.91188000000E+02  0.91188000000E+02 0.  0.
    9900012    2    3    3    0    0  0.20285334787E+02  0.44730698896E+01  0.30401922988E+02  0.54367080905E+02  0.39999992539E+02 0.  0.
         12    1    3    3    0    0 -0.20285334787E+02 -0.44730698896E+01 -0.30401922988E+02  0.36820919095E+02  0.00000000000E+00 0. -1.
         11    1    4    4    0    0 -0.36324478177E+01 -0.26769724290E+01  0.16337242880E+02  0.16948933999E+02  0.51100000000E-03 0. -1.
        -11    1    4    4    0    0  0.21242721775E+02 -0.14098571700E+01  0.17753933600E+02  0.27720805981E+02  0.51100000000E-03 0.  1.
        -12    1    4    4    0    0  0.26750608291E+01  0.85598994886E+01 -0.36892534920E+01  0.96973409254E+01  0.00000000000E+00 0.  1.
</event>
<event>
 8    1  0.1248739E-006  0.9118800E+02  0.7816164E-02  0.1184000E+00
        -11   -1    0    0    0    0  0.00000000000E+00  0.00000000000E+00  0.45593999997E+02  0.45594000000E+02  0.51100000000E-03 0. -1.
         11   -1    0    0    0    0 -0.00000000000E+00 -0.00000000000E+00 -0.45593999997E+02  0.45594000000E+02  0.51100000000E-03 0.  1.
         23    2    1    2    0    0  0.71054273576E-14  0.00000000000E+00  0.17763568394E-14  0.91188000000E+02  0.91188000000E+02 0.  0.
    9900012    2    3    3    0    0  0.33502746136E+02 -0.12377089168E+02 -0.89528983136E+01  0.54367072212E+02  0.39999972722E+02 0.  0.
         12    1    3    3    0    0 -0.33502746136E+02  0.12377089168E+02  0.89528983136E+01  0.36820927788E+02  0.00000000000E+00 0. -1.
         11    1    4    4    0    0  0.21883355224E+02 -0.63968378259E+01  0.24762112758E+01  0.22933215923E+02  0.51100000000E-03 0. -1.
        -11    1    4    4    0    0  0.13770946023E+02  0.20757993847E+01 -0.16564488446E+02  0.21640937484E+02  0.51100000000E-03 0.  1.
        -12    1    4    4    0    0 -0.21515551115E+01 -0.80560507272E+01  0.51353788564E+01  0.97929188047E+01  0.00000000000E+00 0.  1.
</event>
<event>
 8    1  0.1248739E-006  0.9118800E+02  0.7816164E-02  0.1184000E+00
        -11   -1    0    0    0    0  0.00000000000E+00  0.00000000000E+00  0.45593999997E+02  0.45594000000E+02  0.51100000000E-03 0. -1.
         11   -1    0    0    0    0 -0.00000000000E+00 -0.00000000000E+00 -0.45593999997E+02  0.45594000000E+02  0.51100000000E-03 0.  1.
         23    2    1    2    0    0  0.35527136788E-14  0.00000000000E+00  0.17763568394E-14  0.91188000000E+02  0.91188000000E+02 0.  0.
    9900012    2    3    3    0    0  0.20040736229E+02  0.29949191968E+02  0.75627537465E+01  0.54367075889E+02  0.39999981105E+02 0.  0.
        -12    1    3    3    0    0 -0.20040736229E+02 -0.29949191968E+02 -0.75627537465E+01  0.36820924111E+02  0.00000000000E+00 0.  1.
         11    1    4    4    0    0  0.36871336302E+01  0.18224764865E+02 -0.12040330178E+02  0.22151897433E+02  0.51100000000E-03 0. -1.
        -11    1    4    4    0    0  0.49591882434E+01 -0.37949822612E+01  0.38270244848E+01  0.73240395319E+01  0.51100000000E-03 0.  1.
         12    1    4    4    0    0  0.11394414356E+02  0.15519409364E+02  0.15776059440E+02  0.24891138925E+02  0.00000000000E+00 0. -1.
</event>
<event>
 8    1  0.1248739E-006  0.9118800E+02  0.7816164E-02  0.1184000E+00
        -11   -1    0    0    0    0  0.00000000000E+00  0.00000000000E+00  0.45593999997E+02  0.45594000000E+02  0.51100000000E-03 0.  1.
         11   -1    0    0    0    0 -0.00000000000E+00 -0.00000000000E+00 -0.45593999997E+02  0.45594000000E+02  0.51100000000E-03 0. -1.
         23    2    1    2    0    0  0.00000000000E+00  0.35527136788E-14  0.00000000000E+00  0.91188000000E+02  0.91188000000E+02 0.  0.
    9900012    2    3    3    0    0  0.50459775014E+01  0.28630447940E+02  0.22596796782E+02  0.54367086608E+02  0.40000005541E+02 0.  0.
         12    1    3    3    0    0 -0.50459775014E+01 -0.28630447940E+02 -0.22596796782E+02  0.36820913392E+02  0.00000000000E+00 0. -1.
         11    1    4    4    0    0 -0.26739756662E+01  0.74041988646E+01 -0.54143562948E+00  0.78908465637E+01  0.51100000000E-03 0. -1.
        -11    1    4    4    0    0 -0.11488586517E+02  0.17136480844E+02  0.10861055373E+02  0.23315426652E+02  0.51100000000E-03 0.  1.
         12    1    4    4    0    0  0.19208539684E+02  0.40897682308E+01  0.12277177039E+02  0.23160813393E+02  0.00000000000E+00 0. -1.
</event>
<event>
 8    1  0.1248739E-006  0.9118800E+02  0.7816164E-02  0.1184000E+00
        -11   -1    0    0    0    0  0.00000000000E+00  0.00000000000E+00  0.45593999997E+02  0.45594000000E+02  0.51100000000E-03 0. -1.
         11   -1    0    0    0    0 -0.00000000000E+00 -0.00000000000E+00 -0.45593999997E+02  0.45594000000E+02  0.51100000000E-03 0.  1.
         23    2    1    2    0    0  0.35527136788E-14  0.00000000000E+00 -0.35527136788E-14  0.91188000000E+02  0.91188000000E+02 0.  0.
    9900012    2    3    3    0    0 -0.16555847205E+02  0.16079669877E+02 -0.28690161665E+02  0.54367119560E+02  0.40000080660E+02 0.  0.
         12    1    3    3    0    0  0.16555847205E+02 -0.16079669877E+02  0.28690161665E+02  0.36820880440E+02  0.00000000000E+00 0. -1.
         11    1    4    4    0    0 -0.24688958030E+01  0.96448160420E+01 -0.26575288452E+02  0.28378933728E+02  0.51100000000E-03 0. -1.
        -11    1    4    4    0    0  0.45932388532E+01  0.38933650502E+01  0.25946581516E+01  0.65565528871E+01  0.51100000000E-03 0.  1.
         12    1    4    4    0    0 -0.18680190255E+02  0.25414887852E+01 -0.47095313641E+01  0.19431632945E+02  0.00000000000E+00 0. -1.
</event>
<event>
 8    1  0.1248739E-006  0.9118800E+02  0.7816164E-02  0.1184000E+00
        -11   -1    0    0    0    0  0.00000000000E+00  0.00000000000E+00  0.45593999997E+02  0.45594000000E+02  0.51100000000E-03 0. -1.
         11   -1    0    0    0    0 -0.00000000000E+00 -0.00000000000E+00 -0.45593999997E+02  0.45594000000E+02  0.51100000000E-03 0.  1.
         23    2    1    2    0    0  0.17763568394E-14  0.44408920985E-15  0.00000000000E+00  0.91188000000E+02  0.91188000000E+02 0.  0.
    9900012    2    3    3    0    0 -0.10119738089E+02 -0.20439487532E+01  0.35343918439E+02  0.54367090232E+02  0.40000013802E+02 0.  0.
        -12    1    3    3    0    0  0.10119738089E+02  0.20439487532E+01 -0.35343918439E+02  0.36820909768E+02  0.00000000000E+00 0.  1.
         11    1    4    4    0    0 -0.75321335472E+01 -0.37815240506E+01  0.21926657856E+02  0.23490663782E+02  0.51100000000E-03 0. -1.
        -11    1    4    4    0    0 -0.11786778116E+02  0.96728285430E+01  0.10077386023E+02  0.18276910562E+02  0.51100000000E-03 0.  1.
        -12    1    4    4    0    0  0.91991735748E+01 -0.79352532456E+01  0.33398745605E+01  0.12599515888E+02  0.00000000000E+00 0.  1.
</event>
<event>
 8    1  0.1248739E-006  0.9118800E+02  0.7816164E-02  0.1184000E+00
        -11   -1    0    0    0    0  0.00000000000E+00  0.00000000000E+00  0.45593999997E+02  0.45594000000E+02  0.51100000000E-03 0.  1.
         11   -1    0    0    0    0 -0.00000000000E+00 -0.00000000000E+00 -0.45593999997E+02  0.45594000000E+02  0.51100000000E-03 0. -1.
         23    2    1    2    0    0  0.00000000000E+00 -0.35527136788E-14  0.00000000000E+00  0.91188000000E+02  0.91188000000E+02 0.  0.
    9900012    2    3    3    0    0 -0.17268319204E+02 -0.15393691011E+02  0.28646455016E+02  0.54367082629E+02  0.39999996470E+02 0.  0.
         12    1    3    3    0    0  0.17268319204E+02  0.15393691011E+02 -0.28646455016E+02  0.36820917371E+02  0.00000000000E+00 0. -1.
         11    1    4    4    0    0  0.10504869211E+02 -0.21562530232E+01  0.16848383762E+01  0.10855431123E+02  0.51100000000E-03 0. -1.
        -11    1    4    4    0    0 -0.68421723695E+01 -0.59541716238E+00  0.14549897977E+02  0.16089418129E+02  0.51100000000E-03 0.  1.
         12    1    4    4    0    0 -0.20931016046E+02 -0.12642020825E+02  0.12411718663E+02  0.27422233377E+02  0.00000000000E+00 0. -1.
</event>
<event>
 8    1  0.1248739E-006  0.9118800E+02  0.7816164E-02  0.1184000E+00
        -11   -1    0    0    0    0  0.00000000000E+00  0.00000000000E+00  0.45593999997E+02  0.45594000000E+02  0.51100000000E-03 0.  1.
         11   -1    0    0    0    0 -0.00000000000E+00 -0.00000000000E+00 -0.45593999997E+02  0.45594000000E+02  0.51100000000E-03 0. -1.
         23    2    1    2    0    0  0.00000000000E+00  0.11102230246E-14  0.71054273576E-14  0.91188000000E+02  0.91188000000E+02 0.  0.
    9900012    2    3    3    0    0 -0.75321984428E+01 -0.19635432755E+01  0.35988719082E+02  0.54367117111E+02  0.40000075077E+02 0.  0.
         12    1    3    3    0    0  0.75321984428E+01  0.19635432755E+01 -0.35988719082E+02  0.36820882889E+02  0.00000000000E+00 0. -1.
         11    1    4    4    0    0  0.35426709057E+00  0.51146556389E+01 -0.44752917394E+01  0.68053981434E+01  0.51100000000E-03 0. -1.
        -11    1    4    4    0    0 -0.88165095762E+01 -0.14399496518E+02  0.22418410784E+02  0.28065307471E+02  0.51100000000E-03 0.  1.
        -12    1    4    4    0    0  0.93004404279E+00  0.73212976040E+01  0.18045600038E+02  0.19496411497E+02  0.00000000000E+00 0.  1.
</event>
<event>
 8    1  0.1248739E-006  0.9118800E+02  0.7816164E-02  0.1184000E+00
        -11   -1    0    0    0    0  0.00000000000E+00  0.00000000000E+00  0.45593999997E+02  0.45594000000E+02  0.51100000000E-03 0.  1.
         11   -1    0    0    0    0 -0.00000000000E+00 -0.00000000000E+00 -0.45593999997E+02  0.45594000000E+02  0.51100000000E-03 0. -1.
         23    2    1    2    0    0 -0.35527136788E-14  0.00000000000E+00 -0.17763568394E-14  0.91188000000E+02  0.91188000000E+02 0.  0.
    9900012    2    3    3    0    0 -0.27267691325E+02  0.19907114737E+02  0.14695560623E+02  0.54367085979E+02  0.40000004105E+02 0.  0.
         12    1    3    3    0    0  0.27267691325E+02 -0.19907114737E+02 -0.14695560623E+02  0.36820914021E+02  0.00000000000E+00 0. -1.
         11    1    4    4    0    0  0.47724625594E+01  0.18310455388E+02  0.88595804824E+01  0.20893571786E+02  0.51100000000E-03 0. -1.
        -11    1    4    4    0    0 -0.13142965402E+02  0.29259387248E+01  0.54494932754E+01  0.14525688769E+02  0.51100000000E-03 0.  1.
         12    1    4    4    0    0 -0.18897188482E+02 -0.13292793760E+01  0.38648686546E+00  0.18947825424E+02  0.00000000000E+00 0. -1.
</event>
<event>
 8    1  0.1248739E-006  0.9118800E+02  0.7816164E-02  0.1184000E+00
        -11   -1    0    0    0    0  0.00000000000E+00  0.00000000000E+00  0.45593999997E+02  0.45594000000E+02  0.51100000000E-03 0.  1.
         11   -1    0    0    0    0 -0.00000000000E+00 -0.00000000000E+00 -0.45593999997E+02  0.45594000000E+02  0.51100000000E-03 0. -1.
         23    2    1    2    0    0  0.00000000000E+00 -0.16653345369E-14  0.00000000000E+00  0.91188000000E+02  0.91188000000E+02 0.  0.
    9900012    2    3    3    0    0 -0.17378228065E+02  0.74486705893E+00  0.32453384763E+02  0.54367084473E+02  0.40000000674E+02 0.  0.
         12    1    3    3    0    0  0.17378228065E+02 -0.74486705893E+00 -0.32453384763E+02  0.36820915527E+02  0.00000000000E+00 0. -1.
         11    1    4    4    0    0 -0.13472973003E+02 -0.37314078204E+01  0.21339647771E+01  0.14142072401E+02  0.51100000000E-03 0. -1.
        -11    1    4    4    0    0  0.81305593591E+00 -0.92271940104E+01  0.38168793017E+01  0.10018519707E+02  0.51100000000E-03 0.  1.
        -12    1    4    4    0    0 -0.47183109980E+01  0.13703468890E+02  0.26502540685E+02  0.30206492365E+02  0.00000000000E+00 0.  1.
</event>
<event>
 8    1  0.1248739E-006  0.9118800E+02  0.7816164E-02  0.1184000E+00
        -11   -1    0    0    0    0  0.00000000000E+00  0.00000000000E+00  0.45593999997E+02  0.45594000000E+02  0.51100000000E-03 0.  1.
         11   -1    0    0    0    0 -0.00000000000E+00 -0.00000000000E+00 -0.45593999997E+02  0.45594000000E+02  0.51100000000E-03 0. -1.
         23    2    1    2    0    0  0.00000000000E+00 -0.44408920985E-15  0.71054273576E-14  0.91188000000E+02  0.91188000000E+02 0.  0.
    9900012    2    3    3    0    0 -0.15592531434E+02 -0.25200095228E+01  0.33261099229E+02  0.54367106387E+02  0.40000050631E+02 0.  0.
         12    1    3    3    0    0  0.15592531434E+02  0.25200095228E+01 -0.33261099229E+02  0.36820893613E+02  0.00000000000E+00 0. -1.
         11    1    4    4    0    0 -0.21128221341E+02 -0.72335132603E+01  0.14136466195E+02  0.26430382666E+02  0.51100000000E-03 0. -1.
        -11    1    4    4    0    0 -0.10826232830E+01 -0.23123952240E+01  0.18044509732E+02  0.18224257915E+02  0.51100000000E-03 0.  1.
        -12    1    4    4    0    0  0.66183131894E+01  0.70258989616E+01  0.10801233025E+01  0.97124658064E+01  0.00000000000E+00 0.  1.
</event>
<event>
 8    1  0.1248739E-006  0.9118800E+02  0.7816164E-02  0.1184000E+00
        -11   -1    0    0    0    0  0.00000000000E+00  0.00000000000E+00  0.45593999997E+02  0.45594000000E+02  0.51100000000E-03 0. -1.
         11   -1    0    0    0    0 -0.00000000000E+00 -0.00000000000E+00 -0.45593999997E+02  0.45594000000E+02  0.51100000000E-03 0.  1.
         23    2    1    2    0    0  0.00000000000E+00  0.00000000000E+00  0.00000000000E+00  0.91188000000E+02  0.91188000000E+02 0.  0.
    9900012    2    3    3    0    0  0.51554415059E+01 -0.49818723044E+01  0.36116232176E+02  0.54367083996E+02  0.39999999585E+02 0.  0.
        -12    1    3    3    0    0 -0.51554415059E+01  0.49818723044E+01 -0.36116232176E+02  0.36820916004E+02  0.00000000000E+00 0.  1.
         11    1    4    4    0    0 -0.64383388930E+00  0.38297197483E+01  0.25962631075E+02  0.26251466398E+02  0.51100000000E-03 0. -1.
        -11    1    4    4    0    0  0.49305888772E+01 -0.78934913444E+01 -0.65395454080E+01  0.11374689740E+02  0.51100000000E-03 0.  1.
        -12    1    4    4    0    0  0.86868651797E+00 -0.91810070827E+00  0.16693146509E+02  0.16740927858E+02  0.00000000000E+00 0.  1.
</event>
<event>
 8    1  0.1248739E-006  0.9118800E+02  0.7816164E-02  0.1184000E+00
        -11   -1    0    0    0    0  0.00000000000E+00  0.00000000000E+00  0.45593999997E+02  0.45594000000E+02  0.51100000000E-03 0. -1.
         11   -1    0    0    0    0 -0.00000000000E+00 -0.00000000000E+00 -0.45593999997E+02  0.45594000000E+02  0.51100000000E-03 0.  1.
         23    2    1    2    0    0  0.00000000000E+00  0.17763568394E-14  0.00000000000E+00  0.91188000000E+02  0.91188000000E+02 0.  0.
    9900012    2    3    3    0    0 -0.27733673787E+02 -0.14750614114E+02 -0.19210467430E+02  0.54367091031E+02  0.40000015623E+02 0.  0.
         12    1    3    3    0    0  0.27733673787E+02  0.14750614114E+02  0.19210467430E+02  0.36820908969E+02  0.00000000000E+00 0. -1.
         11    1    4    4    0    0 -0.10664026851E+02 -0.25709928965E+02 -0.41542289233E+01  0.28142130947E+02  0.51100000000E-03 0. -1.
        -11    1    4    4    0    0 -0.13019759283E+02  0.49411927741E+01 -0.11885551775E+02  0.18308354898E+02  0.51100000000E-03 0.  1.
        -12    1    4    4    0    0 -0.40498876521E+01  0.60181220761E+01 -0.31706867317E+01  0.79166051858E+01  0.00000000000E+00 0.  1.
</event>
<event>
 8    1  0.1248739E-006  0.9118800E+02  0.7816164E-02  0.1184000E+00
        -11   -1    0    0    0    0  0.00000000000E+00  0.00000000000E+00  0.45593999997E+02  0.45594000000E+02  0.51100000000E-03 0.  1.
         11   -1    0    0    0    0 -0.00000000000E+00 -0.00000000000E+00 -0.45593999997E+02  0.45594000000E+02  0.51100000000E-03 0. -1.
         23    2    1    2    0    0 -0.35527136788E-14  0.35527136788E-14  0.00000000000E+00  0.91188000000E+02  0.91188000000E+02 0.  0.
    9900012    2    3    3    0    0 -0.19644555328E+02  0.27155107798E+02  0.15246988585E+02  0.54367094329E+02  0.40000023141E+02 0.  0.
         12    1    3    3    0    0  0.19644555328E+02 -0.27155107798E+02 -0.15246988585E+02  0.36820905671E+02  0.00000000000E+00 0. -1.
         11    1    4    4    0    0  0.20756666668E+01 -0.15238588534E+01  0.11439757380E+02  0.11725979153E+02  0.51100000000E-03 0. -1.
        -11    1    4    4    0    0 -0.22976647864E+02  0.16967200494E+02  0.87418681125E+01  0.29870261097E+02  0.51100000000E-03 0.  1.
         12    1    4    4    0    0  0.12564258688E+01  0.11711766158E+02 -0.49346369075E+01  0.12770854079E+02  0.00000000000E+00 0. -1.
</event>
<event>
 8    1  0.1248739E-006  0.9118800E+02  0.7816164E-02  0.1184000E+00
        -11   -1    0    0    0    0  0.00000000000E+00  0.00000000000E+00  0.45593999997E+02  0.45594000000E+02  0.51100000000E-03 0. -1.
         11   -1    0    0    0    0 -0.00000000000E+00 -0.00000000000E+00 -0.45593999997E+02  0.45594000000E+02  0.51100000000E-03 0.  1.
         23    2    1    2    0    0  0.00000000000E+00  0.00000000000E+00  0.00000000000E+00  0.91188000000E+02  0.91188000000E+02 0.  0.
    9900012    2    3    3    0    0  0.10035007625E+02 -0.25353259857E+02 -0.24744526676E+02  0.54367071660E+02  0.39999971463E+02 0.  0.
         12    1    3    3    0    0 -0.10035007625E+02  0.25353259857E+02  0.24744526676E+02  0.36820928340E+02  0.00000000000E+00 0. -1.
         11    1    4    4    0    0 -0.75891841561E+01 -0.26358722814E+01  0.13355649589E+01  0.81441557487E+01  0.51100000000E-03 0. -1.
        -11    1    4    4    0    0  0.67744118114E+01 -0.19200392063E+02 -0.28037723582E+02  0.34650564997E+02  0.51100000000E-03 0.  1.
         12    1    4    4    0    0  0.10849779970E+02 -0.35169955130E+01  0.19576319465E+01  0.11572350914E+02  0.00000000000E+00 0. -1.
</event>
<event>
 8    1  0.1248739E-006  0.9118800E+02  0.7816164E-02  0.1184000E+00
        -11   -1    0    0    0    0  0.00000000000E+00  0.00000000000E+00  0.45593999997E+02  0.45594000000E+02  0.51100000000E-03 0.  1.
         11   -1    0    0    0    0 -0.00000000000E+00 -0.00000000000E+00 -0.45593999997E+02  0.45594000000E+02  0.51100000000E-03 0. -1.
         23    2    1    2    0    0  0.00000000000E+00  0.22204460493E-15  0.71054273576E-14  0.91188000000E+02  0.91188000000E+02 0.  0.
    9900012    2    3    3    0    0 -0.10712538140E+02  0.82296655536E+00 -0.35218513263E+02  0.54367089856E+02  0.40000012945E+02 0.  0.
        -12    1    3    3    0    0  0.10712538140E+02 -0.82296655536E+00  0.35218513263E+02  0.36820910144E+02  0.00000000000E+00 0.  1.
         11    1    4    4    0    0 -0.17083318013E+02  0.18435730443E+01 -0.93175274624E+01  0.19546223016E+02  0.51100000000E-03 0. -1.
        -11    1    4    4    0    0  0.13049212211E+02  0.39285486737E+01 -0.10084978995E+02  0.16953531656E+02  0.51100000000E-03 0.  1.
        -12    1    4    4    0    0 -0.66784323383E+01 -0.49491551626E+01 -0.15816006806E+02  0.17867335185E+02  0.00000000000E+00 0.  1.
</event>
<event>
 8    1  0.1248739E-006  0.9118800E+02  0.7816164E-02  0.1184000E+00
        -11   -1    0    0    0    0  0.00000000000E+00  0.00000000000E+00  0.45593999997E+02  0.45594000000E+02  0.51100000000E-03 0.  1.
         11   -1    0    0    0    0 -0.00000000000E+00 -0.00000000000E+00 -0.45593999997E+02  0.45594000000E+02  0.51100000000E-03 0. -1.
         23    2    1    2    0    0  0.00000000000E+00  0.00000000000E+00 -0.35527136788E-14  0.91188000000E+02  0.91188000000E+02 0.  0.
    9900012    2    3    3    0    0 -0.16888710628E+02  0.10215244037E+02  0.31083735854E+02  0.54367103866E+02  0.40000044884E+02 0.  0.
         12    1    3    3    0    0  0.16888710628E+02 -0.10215244037E+02 -0.31083735854E+02  0.36820896134E+02  0.00000000000E+00 0. -1.
         11    1    4    4    0    0 -0.11433862988E+02  0.51060630433E+01  0.47528761508E+01  0.13393839427E+02  0.51100000000E-03 0. -1.
        -11    1    4    4    0    0 -0.74547619014E+01 -0.10269842223E+02  0.21070433881E+02  0.24596876193E+02  0.51100000000E-03 0.  1.
         12    1    4    4    0    0  0.19999142610E+01  0.15379023216E+02  0.52604258230E+01  0.16376388246E+02  0.00000000000E+00 0. -1.
</event>
<event>
 8    1  0.1248739E-006  0.9118800E+02  0.7816164E-02  0.1184000E+00
        -11   -1    0    0    0    0  0.00000000000E+00  0.00000000000E+00  0.45593999997E+02  0.45594000000E+02  0.51100000000E-03 0.  1.
         11   -1    0    0    0    0 -0.00000000000E+00 -0.00000000000E+00 -0.45593999997E+02  0.45594000000E+02  0.51100000000E-03 0. -1.
         23    2    1    2    0    0  0.00000000000E+00  0.17763568394E-14 -0.17763568394E-14  0.91188000000E+02  0.91188000000E+02 0.  0.
    9900012    2    3    3    0    0 -0.35254257740E+02  0.96057595596E+01 -0.45439454238E+01  0.54367071908E+02  0.39999972030E+02 0.  0.
         12    1    3    3    0    0  0.35254257740E+02 -0.96057595596E+01  0.45439454238E+01  0.36820928092E+02  0.00000000000E+00 0. -1.
         11    1    4    4    0    0 -0.28891621608E+02  0.11169056736E+02 -0.15823508380E+02  0.34782999371E+02  0.51100000000E-03 0. -1.
        -11    1    4    4    0    0 -0.67225686176E+01 -0.73340452397E+01  0.53256555155E+01  0.11284669039E+02  0.51100000000E-03 0.  1.
        -12    1    4    4    0    0  0.35993248585E+00  0.57707480637E+01  0.59539074411E+01  0.82994034982E+01  0.00000000000E+00 0.  1.
</event>
<event>
 8    1  0.1248739E-006  0.9118800E+02  0.7816164E-02  0.1184000E+00
        -11   -1    0    0    0    0  0.00000000000E+00  0.00000000000E+00  0.45593999997E+02  0.45594000000E+02  0.51100000000E-03 0. -1.
         11   -1    0    0    0    0 -0.00000000000E+00 -0.00000000000E+00 -0.45593999997E+02  0.45594000000E+02  0.51100000000E-03 0.  1.
         23    2    1    2    0    0  0.00000000000E+00 -0.22204460493E-14  0.00000000000E+00  0.91188000000E+02  0.91188000000E+02 0.  0.
    9900012    2    3    3    0    0  0.16002100215E+02 -0.39024789484E+01  0.32931508631E+02  0.54367070979E+02  0.39999969911E+02 0.  0.
        -12    1    3    3    0    0 -0.16002100215E+02  0.39024789484E+01 -0.32931508631E+02  0.36820929021E+02  0.00000000000E+00 0.  1.
         11    1    4    4    0    0  0.51295741915E+01 -0.42096274337E+01  0.11691017827E+02  0.13442968147E+02  0.51100000000E-03 0. -1.
        -11    1    4    4    0    0  0.15593202911E+02  0.12788254190E+02  0.68481323891E+01  0.21297519568E+02  0.51100000000E-03 0.  1.
        -12    1    4    4    0    0 -0.47206768880E+01 -0.12481105704E+02  0.14392358415E+02  0.19626583264E+02  0.00000000000E+00 0.  1.
</event>
<event>
 8    1  0.1248739E-006  0.9118800E+02  0.7816164E-02  0.1184000E+00
        -11   -1    0    0    0    0  0.00000000000E+00  0.00000000000E+00  0.45593999997E+02  0.45594000000E+02  0.51100000000E-03 0. -1.
         11   -1    0    0    0    0 -0.00000000000E+00 -0.00000000000E+00 -0.45593999997E+02  0.45594000000E+02  0.51100000000E-03 0.  1.
         23    2    1    2    0    0  0.00000000000E+00  0.17763568394E-14 -0.35527136788E-14  0.91188000000E+02  0.91188000000E+02 0.  0.
    9900012    2    3    3    0    0 -0.19771101905E+02  0.14577063227E+02 -0.27429762410E+02  0.54367094135E+02  0.40000022699E+02 0.  0.
         12    1    3    3    0    0  0.19771101905E+02 -0.14577063227E+02  0.27429762410E+02  0.36820905865E+02  0.00000000000E+00 0. -1.
         11    1    4    4    0    0  0.11686532610E+02  0.49188031254E+00 -0.66692795154E+01  0.13464630712E+02  0.51100000000E-03 0. -1.
        -11    1    4    4    0    0 -0.82914541589E+01  0.60123156801E+01 -0.31909800222E+01  0.10727465016E+02  0.51100000000E-03 0.  1.
        -12    1    4    4    0    0 -0.23166180357E+02  0.80728672347E+01 -0.17569502872E+02  0.30174998407E+02  0.00000000000E+00 0.  1.
</event>
<event>
 8    1  0.1248739E-006  0.9118800E+02  0.7816164E-02  0.1184000E+00
        -11   -1    0    0    0    0  0.00000000000E+00  0.00000000000E+00  0.45593999997E+02  0.45594000000E+02  0.51100000000E-03 0. -1.
         11   -1    0    0    0    0 -0.00000000000E+00 -0.00000000000E+00 -0.45593999997E+02  0.45594000000E+02  0.51100000000E-03 0.  1.
         23    2    1    2    0    0 -0.88817841970E-15 -0.35527136788E-14  0.00000000000E+00  0.91188000000E+02  0.91188000000E+02 0.  0.
    9900012    2    3    3    0    0 -0.48824971375E+01 -0.25528319852E+02 -0.26081507242E+02  0.54367096795E+02  0.40000028764E+02 0.  0.
         12    1    3    3    0    0  0.48824971375E+01  0.25528319852E+02  0.26081507242E+02  0.36820903205E+02  0.00000000000E+00 0. -1.
         11    1    4    4    0    0  0.97591786569E+00 -0.32594106900E+01 -0.10992497415E+02  0.11507005406E+02  0.51100000000E-03 0. -1.
        -11    1    4    4    0    0 -0.10522546637E+01  0.33219339503E+00 -0.19335238527E+02  0.19366699293E+02  0.51100000000E-03 0.  1.
         12    1    4    4    0    0 -0.48061603394E+01 -0.22601102557E+02  0.42462287002E+01  0.23493392096E+02  0.00000000000E+00 0. -1.
</event>
<event>
 8    1  0.1248739E-006  0.9118800E+02  0.7816164E-02  0.1184000E+00
        -11   -1    0    0    0    0  0.00000000000E+00  0.00000000000E+00  0.45593999997E+02  0.45594000000E+02  0.51100000000E-03 0.  1.
         11   -1    0    0    0    0 -0.00000000000E+00 -0.00000000000E+00 -0.45593999997E+02  0.45594000000E+02  0.51100000000E-03 0. -1.
         23    2    1    2    0    0  0.00000000000E+00  0.00000000000E+00 -0.35527136788E-14  0.91188000000E+02  0.91188000000E+02 0.  0.
    9900012    2    3    3    0    0 -0.57932395348E+01 -0.22665057378E+02 -0.28434373246E+02  0.54367081595E+02  0.39999994112E+02 0.  0.
        -12    1    3    3    0    0  0.57932395348E+01  0.22665057378E+02  0.28434373246E+02  0.36820918405E+02  0.00000000000E+00 0.  1.
         11    1    4    4    0    0  0.12870150223E+02 -0.16591555170E+02 -0.23416911364E+02  0.31452697942E+02  0.51100000000E-03 0. -1.
        -11    1    4    4    0    0 -0.11098358002E+02  0.83515866339E+00  0.75462433959E+00  0.11155290157E+02  0.51100000000E-03 0.  1.
        -12    1    4    4    0    0 -0.75650317557E+01 -0.69086608721E+01 -0.57720862218E+01  0.11759093497E+02  0.00000000000E+00 0.  1.
</event>
<event>
 8    1  0.1248739E-006  0.9118800E+02  0.7816164E-02  0.1184000E+00
        -11   -1    0    0    0    0  0.00000000000E+00  0.00000000000E+00  0.45593999997E+02  0.45594000000E+02  0.51100000000E-03 0.  1.
         11   -1    0    0    0    0 -0.00000000000E+00 -0.00000000000E+00 -0.45593999997E+02  0.45594000000E+02  0.51100000000E-03 0. -1.
         23    2    1    2    0    0  0.00000000000E+00  0.00000000000E+00  0.94368957093E-15  0.91188000000E+02  0.91188000000E+02 0.  0.
    9900012    2    3    3    0    0 -0.22325067322E+02  0.29279391865E+02  0.29718655017E+00  0.54367085580E+02  0.40000003196E+02 0.  0.
        -12    1    3    3    0    0  0.22325067322E+02 -0.29279391865E+02 -0.29718655017E+00  0.36820914420E+02  0.00000000000E+00 0.  1.
         11    1    4    4    0    0 -0.15429845368E+02  0.30083808174E+02 -0.13906255364E+02  0.36558167088E+02  0.51100000000E-03 0. -1.
        -11    1    4    4    0    0 -0.89044189972E+00 -0.25283064986E+01  0.47017810108E+00  0.27214496569E+01  0.51100000000E-03 0.  1.
         12    1    4    4    0    0 -0.60047800538E+01  0.17238901897E+01  0.13733263813E+02  0.15087468835E+02  0.00000000000E+00 0. -1.
</event>
<event>
 8    1  0.1248739E-006  0.9118800E+02  0.7816164E-02  0.1184000E+00
        -11   -1    0    0    0    0  0.00000000000E+00  0.00000000000E+00  0.45593999997E+02  0.45594000000E+02  0.51100000000E-03 0.  1.
         11   -1    0    0    0    0 -0.00000000000E+00 -0.00000000000E+00 -0.45593999997E+02  0.45594000000E+02  0.51100000000E-03 0. -1.
         23    2    1    2    0    0  0.00000000000E+00  0.00000000000E+00  0.44408920985E-15  0.91188000000E+02  0.91188000000E+02 0.  0.
    9900012    2    3    3    0    0  0.35509646404E+02 -0.96587313031E+01  0.12452471827E+01  0.54367126590E+02  0.40000096688E+02 0.  0.
        -12    1    3    3    0    0 -0.35509646404E+02  0.96587313031E+01 -0.12452471827E+01  0.36820873410E+02  0.00000000000E+00 0.  1.
         11    1    4    4    0    0  0.11712308609E+02 -0.11564132121E+01  0.10987909873E+02  0.16101230639E+02  0.51100000000E-03 0. -1.
        -11    1    4    4    0    0 -0.46718825021E+01  0.37519638202E+01 -0.11380052669E+01  0.60990798379E+01  0.51100000000E-03 0.  1.
         12    1    4    4    0    0  0.28469220297E+02 -0.12254281911E+02 -0.86046574231E+01  0.32166816113E+02  0.00000000000E+00 0. -1.
</event>
<event>
 8    1  0.1248739E-006  0.9118800E+02  0.7816164E-02  0.1184000E+00
        -11   -1    0    0    0    0  0.00000000000E+00  0.00000000000E+00  0.45593999997E+02  0.45594000000E+02  0.51100000000E-03 0. -1.
         11   -1    0    0    0    0 -0.00000000000E+00 -0.00000000000E+00 -0.45593999997E+02  0.45594000000E+02  0.51100000000E-03 0.  1.
         23    2    1    2    0    0  0.17763568394E-14  0.00000000000E+00  0.00000000000E+00  0.91188000000E+02  0.91188000000E+02 0.  0.
    9900012    2    3    3    0    0 -0.12423355456E+02  0.59767241995E+01 -0.34142625557E+02  0.54367083759E+02  0.39999999045E+02 0.  0.
         12    1    3    3    0    0  0.12423355456E+02 -0.59767241995E+01  0.34142625557E+02  0.36820916241E+02  0.00000000000E+00 0. -1.
         11    1    4    4    0    0 -0.10086281690E+02  0.23881356754E+01 -0.24688161538E+02  0.26775764988E+02  0.51100000000E-03 0.  1.
        -11    1    4    4    0    0  0.11525837397E+02  0.58825945785E+00 -0.25635028585E+01  0.11822120117E+02  0.51100000000E-03 0. -1.
         12    1    4    4    0    0 -0.13862911164E+02  0.30003290663E+01 -0.68909611603E+01  0.15769198653E+02  0.00000000000E+00 0. -1.
</event>
<event>
 8    1  0.1248739E-006  0.9118800E+02  0.7816164E-02  0.1184000E+00
        -11   -1    0    0    0    0  0.00000000000E+00  0.00000000000E+00  0.45593999997E+02  0.45594000000E+02  0.51100000000E-03 0.  1.
         11   -1    0    0    0    0 -0.00000000000E+00 -0.00000000000E+00 -0.45593999997E+02  0.45594000000E+02  0.51100000000E-03 0. -1.
         23    2    1    2    0    0  0.35527136788E-14  0.17763568394E-14  0.00000000000E+00  0.91188000000E+02  0.91188000000E+02 0.  0.
    9900012    2    3    3    0    0  0.11049684766E+02  0.89083066307E+01  0.33975365619E+02  0.54367096570E+02  0.40000028251E+02 0.  0.
         12    1    3    3    0    0 -0.11049684766E+02 -0.89083066307E+01 -0.33975365619E+02  0.36820903430E+02  0.00000000000E+00 0. -1.
         11    1    4    4    0    0 -0.66769097458E+00  0.21229163364E+01  0.45361692962E+01  0.50526643619E+01  0.51100000000E-03 0. -1.
        -11    1    4    4    0    0 -0.11355998580E+02 -0.30726888927E+01  0.18541927699E+02  0.21959125753E+02  0.51100000000E-03 0.  1.
         12    1    4    4    0    0  0.23073374321E+02  0.98580791870E+01  0.10897268624E+02  0.27355306455E+02  0.00000000000E+00 0. -1.
</event>
<event>
 8    1  0.1248739E-006  0.9118800E+02  0.7816164E-02  0.1184000E+00
        -11   -1    0    0    0    0  0.00000000000E+00  0.00000000000E+00  0.45593999997E+02  0.45594000000E+02  0.51100000000E-03 0.  1.
         11   -1    0    0    0    0 -0.00000000000E+00 -0.00000000000E+00 -0.45593999997E+02  0.45594000000E+02  0.51100000000E-03 0. -1.
         23    2    1    2    0    0  0.00000000000E+00 -0.71054273576E-14  0.00000000000E+00  0.91188000000E+02  0.91188000000E+02 0.  0.
    9900012    2    3    3    0    0 -0.93257250719E+01  0.21515031429E+02  0.28388574487E+02  0.54367124305E+02  0.40000091479E+02 0.  0.
         12    1    3    3    0    0  0.93257250719E+01 -0.21515031429E+02 -0.28388574487E+02  0.36820875695E+02  0.00000000000E+00 0. -1.
         11    1    4    4    0    0 -0.13192890585E+02 -0.43967849519E+01  0.79825721761E+01  0.16034510866E+02  0.51100000000E-03 0. -1.
        -11    1    4    4    0    0 -0.62167767916E+01  0.32156828258E+01  0.78037108208E+01  0.10482692047E+02  0.51100000000E-03 0.  1.
        -12    1    4    4    0    0  0.10083942305E+02  0.22696133555E+02  0.12602291490E+02  0.27849921393E+02  0.00000000000E+00 0.  1.
</event>
<event>
 8    1  0.1248739E-006  0.9118800E+02  0.7816164E-02  0.1184000E+00
        -11   -1    0    0    0    0  0.00000000000E+00  0.00000000000E+00  0.45593999997E+02  0.45594000000E+02  0.51100000000E-03 0.  1.
         11   -1    0    0    0    0 -0.00000000000E+00 -0.00000000000E+00 -0.45593999997E+02  0.45594000000E+02  0.51100000000E-03 0. -1.
         23    2    1    2    0    0  0.00000000000E+00  0.22204460493E-15  0.17763568394E-14  0.91188000000E+02  0.91188000000E+02 0.  0.
    9900012    2    3    3    0    0  0.36007412104E+02 -0.18471222552E+01  0.74721718819E+01  0.54367096430E+02  0.40000027932E+02 0.  0.
         12    1    3    3    0    0 -0.36007412104E+02  0.18471222552E+01 -0.74721718819E+01  0.36820903570E+02  0.00000000000E+00 0. -1.
         11    1    4    4    0    0  0.10531083374E+02  0.67280667173E+01 -0.46525437640E+01  0.13334795181E+02  0.51100000000E-03 0. -1.
        -11    1    4    4    0    0  0.19116177317E+02  0.68832834842E+01 -0.10916300798E+00  0.20317966029E+02  0.51100000000E-03 0.  1.
         12    1    4    4    0    0  0.63601514138E+01 -0.15458472457E+02  0.12233878654E+02  0.20714335220E+02  0.00000000000E+00 0. -1.
</event>
<event>
 8    1  0.1248739E-006  0.9118800E+02  0.7816164E-02  0.1184000E+00
        -11   -1    0    0    0    0  0.00000000000E+00  0.00000000000E+00  0.45593999997E+02  0.45594000000E+02  0.51100000000E-03 0. -1.
         11   -1    0    0    0    0 -0.00000000000E+00 -0.00000000000E+00 -0.45593999997E+02  0.45594000000E+02  0.51100000000E-03 0.  1.
         23    2    1    2    0    0  0.00000000000E+00  0.00000000000E+00  0.17763568394E-14  0.91188000000E+02  0.91188000000E+02 0.  0.
    9900012    2    3    3    0    0  0.33095570290E+02  0.10814079939E+02 -0.11979931994E+02  0.54367083820E+02  0.39999999185E+02 0.  0.
        -12    1    3    3    0    0 -0.33095570290E+02 -0.10814079939E+02  0.11979931994E+02  0.36820916180E+02  0.00000000000E+00 0.  1.
         11    1    4    4    0    0  0.14521322584E+02  0.11132335222E+02  0.82715758525E+01  0.20080255586E+02  0.51100000000E-03 0. -1.
        -11    1    4    4    0    0  0.94708746340E+01  0.23772663097E+01  0.21129001270E+01  0.99906560669E+01  0.51100000000E-03 0.  1.
        -12    1    4    4    0    0  0.91033730720E+01 -0.26955215927E+01 -0.22364407974E+02  0.24296172167E+02  0.00000000000E+00 0.  1.
</event>
<event>
 8    1  0.1248739E-006  0.9118800E+02  0.7816164E-02  0.1184000E+00
        -11   -1    0    0    0    0  0.00000000000E+00  0.00000000000E+00  0.45593999997E+02  0.45594000000E+02  0.51100000000E-03 0.  1.
         11   -1    0    0    0    0 -0.00000000000E+00 -0.00000000000E+00 -0.45593999997E+02  0.45594000000E+02  0.51100000000E-03 0. -1.
         23    2    1    2    0    0  0.00000000000E+00 -0.88817841970E-15  0.00000000000E+00  0.91188000000E+02  0.91188000000E+02 0.  0.
    9900012    2    3    3    0    0  0.20876433747E+02 -0.47729045382E+01 -0.29952858663E+02  0.54367084125E+02  0.39999999881E+02 0.  0.
        -12    1    3    3    0    0 -0.20876433747E+02  0.47729045382E+01  0.29952858663E+02  0.36820915875E+02  0.00000000000E+00 0.  1.
         11    1    4    4    0    0  0.61538148259E+01  0.99384733862E+01 -0.10688779687E+02  0.15839592849E+02  0.51100000000E-03 0. -1.
        -11    1    4    4    0    0 -0.34195188559E+01 -0.30865552588E+01  0.45067131525E+01  0.64444081397E+01  0.51100000000E-03 0.  1.
        -12    1    4    4    0    0  0.18142137777E+02 -0.11624822666E+02 -0.23770792129E+02  0.32083083137E+02  0.00000000000E+00 0.  1.
</event>
<event>
 8    1  0.1248739E-006  0.9118800E+02  0.7816164E-02  0.1184000E+00
        -11   -1    0    0    0    0  0.00000000000E+00  0.00000000000E+00  0.45593999997E+02  0.45594000000E+02  0.51100000000E-03 0.  1.
         11   -1    0    0    0    0 -0.00000000000E+00 -0.00000000000E+00 -0.45593999997E+02  0.45594000000E+02  0.51100000000E-03 0. -1.
         23    2    1    2    0    0  0.00000000000E+00  0.44408920985E-15  0.35527136788E-14  0.91188000000E+02  0.91188000000E+02 0.  0.
    9900012    2    3    3    0    0  0.30225943058E+02  0.38232061294E+01 -0.20677331282E+02  0.54367128638E+02  0.40000101357E+02 0.  0.
        -12    1    3    3    0    0 -0.30225943058E+02 -0.38232061294E+01  0.20677331282E+02  0.36820871362E+02  0.00000000000E+00 0.  1.
         11    1    4    4    0    0  0.58154845737E+01 -0.40369996081E+01 -0.10612784566E+02  0.12757289021E+02  0.51100000000E-03 0. -1.
        -11    1    4    4    0    0  0.22087434104E+02 -0.16789686739E+00  0.65270100647E+01  0.23032255541E+02  0.51100000000E-03 0.  1.
        -12    1    4    4    0    0  0.23230243811E+01  0.80281026049E+01 -0.16591556781E+02  0.18577584076E+02  0.00000000000E+00 0.  1.
</event>
<event>
 8    1  0.1248739E-006  0.9118800E+02  0.7816164E-02  0.1184000E+00
        -11   -1    0    0    0    0  0.00000000000E+00  0.00000000000E+00  0.45593999997E+02  0.45594000000E+02  0.51100000000E-03 0. -1.
         11   -1    0    0    0    0 -0.00000000000E+00 -0.00000000000E+00 -0.45593999997E+02  0.45594000000E+02  0.51100000000E-03 0.  1.
         23    2    1    2    0    0 -0.35527136788E-14  0.33306690739E-15  0.35527136788E-14  0.91188000000E+02  0.91188000000E+02 0.  0.
    9900012    2    3    3    0    0  0.28624708662E+02 -0.76691923158E+00 -0.23147730725E+02  0.54367088159E+02  0.40000009076E+02 0.  0.
         12    1    3    3    0    0 -0.28624708662E+02  0.76691923158E+00  0.23147730725E+02  0.36820911841E+02  0.00000000000E+00 0. -1.
         11    1    4    4    0    0  0.48682700908E+01  0.43649412454E+01  0.92692186204E+01  0.11343331955E+02  0.51100000000E-03 0. -1.
        -11    1    4    4    0    0  0.44640081307E+01 -0.75307167556E+01 -0.11711659292E+02  0.14621970697E+02  0.51100000000E-03 0.  1.
         12    1    4    4    0    0  0.19292430441E+02  0.23988562787E+01 -0.20705290053E+02  0.28401785506E+02  0.00000000000E+00 0. -1.
</event>
<event>
 8    1  0.1248739E-006  0.9118800E+02  0.7816164E-02  0.1184000E+00
        -11   -1    0    0    0    0  0.00000000000E+00  0.00000000000E+00  0.45593999997E+02  0.45594000000E+02  0.51100000000E-03 0.  1.
         11   -1    0    0    0    0 -0.00000000000E+00 -0.00000000000E+00 -0.45593999997E+02  0.45594000000E+02  0.51100000000E-03 0. -1.
         23    2    1    2    0    0  0.35527136788E-14  0.00000000000E+00  0.00000000000E+00  0.91188000000E+02  0.91188000000E+02 0.  0.
    9900012    2    3    3    0    0 -0.21764879727E+02 -0.16710791152E+02  0.24552592401E+02  0.54366941839E+02  0.39999675509E+02 0.  0.
         12    1    3    3    0    0  0.21764879727E+02  0.16710791152E+02 -0.24552592401E+02  0.36821058161E+02  0.00000000000E+00 0. -1.
         11    1    4    4    0    0 -0.27330630274E+01 -0.12190728948E+02 -0.50845315608E+01  0.13488364143E+02  0.51100000000E-03 0. -1.
        -11    1    4    4    0    0 -0.96229484264E+01 -0.76892027612E+01  0.28295179461E+02  0.30860041421E+02  0.51100000000E-03 0.  1.
        -12    1    4    4    0    0 -0.94088682731E+01  0.31691405570E+01  0.13419445008E+01  0.10018536275E+02  0.00000000000E+00 0.  1.
</event>
<event>
 8    1  0.1248739E-006  0.9118800E+02  0.7816164E-02  0.1184000E+00
        -11   -1    0    0    0    0  0.00000000000E+00  0.00000000000E+00  0.45593999997E+02  0.45594000000E+02  0.51100000000E-03 0.  1.
         11   -1    0    0    0    0 -0.00000000000E+00 -0.00000000000E+00 -0.45593999997E+02  0.45594000000E+02  0.51100000000E-03 0. -1.
         23    2    1    2    0    0  0.00000000000E+00 -0.17763568394E-14  0.00000000000E+00  0.91188000000E+02  0.91188000000E+02 0.  0.
    9900012    2    3    3    0    0 -0.11382315603E+02  0.13093094013E+02 -0.32477588124E+02  0.54367082715E+02  0.39999996665E+02 0.  0.
        -12    1    3    3    0    0  0.11382315603E+02 -0.13093094013E+02  0.32477588124E+02  0.36820917285E+02  0.00000000000E+00 0.  1.
         11    1    4    4    0    0 -0.79992721927E+01  0.13466711594E+01 -0.33563149531E+01  0.87787658102E+01  0.51100000000E-03 0. -1.
        -11    1    4    4    0    0 -0.51171804554E+01  0.23007060444E+02 -0.17890480467E+02  0.29590195297E+02  0.51100000000E-03 0.  1.
         12    1    4    4    0    0  0.17341370449E+01 -0.11260637590E+02 -0.11230792704E+02  0.15998121608E+02  0.00000000000E+00 0. -1.
</event>
<event>
 8    1  0.1248739E-006  0.9118800E+02  0.7816164E-02  0.1184000E+00
        -11   -1    0    0    0    0  0.00000000000E+00  0.00000000000E+00  0.45593999997E+02  0.45594000000E+02  0.51100000000E-03 0.  1.
         11   -1    0    0    0    0 -0.00000000000E+00 -0.00000000000E+00 -0.45593999997E+02  0.45594000000E+02  0.51100000000E-03 0. -1.
         23    2    1    2    0    0  0.00000000000E+00  0.00000000000E+00  0.17763568394E-14  0.91188000000E+02  0.91188000000E+02 0.  0.
    9900012    2    3    3    0    0  0.10578714222E+02  0.33962009231E+02 -0.95105070731E+01  0.54367122629E+02  0.40000087657E+02 0.  0.
         12    1    3    3    0    0 -0.10578714222E+02 -0.33962009231E+02  0.95105070731E+01  0.36820877371E+02  0.00000000000E+00 0. -1.
         11    1    4    4    0    0  0.93840298581E+01  0.19099003704E+02  0.49134281473E+00  0.21285520357E+02  0.51100000000E-03 0. -1.
        -11    1    4    4    0    0 -0.82315466235E+01  0.12230072265E+02  0.46530545132E+01  0.15459105536E+02  0.51100000000E-03 0.  1.
         12    1    4    4    0    0  0.94262309871E+01  0.26329332631E+01 -0.14654904401E+02  0.17622496736E+02  0.00000000000E+00 0. -1.
</event>
<event>
 8    1  0.1248739E-006  0.9118800E+02  0.7816164E-02  0.1184000E+00
        -11   -1    0    0    0    0  0.00000000000E+00  0.00000000000E+00  0.45593999997E+02  0.45594000000E+02  0.51100000000E-03 0.  1.
         11   -1    0    0    0    0 -0.00000000000E+00 -0.00000000000E+00 -0.45593999997E+02  0.45594000000E+02  0.51100000000E-03 0. -1.
         23    2    1    2    0    0 -0.35527136788E-14 -0.17763568394E-14  0.00000000000E+00  0.91188000000E+02  0.91188000000E+02 0.  0.
    9900012    2    3    3    0    0 -0.30905407046E+02 -0.11576421906E+02  0.16328512365E+02  0.54367108581E+02  0.40000055633E+02 0.  0.
        -12    1    3    3    0    0  0.30905407046E+02  0.11576421906E+02 -0.16328512365E+02  0.36820891419E+02  0.00000000000E+00 0.  1.
         11    1    4    4    0    0  0.49538603244E+01 -0.41762932344E+01  0.49210119231E+01  0.81362470404E+01  0.51100000000E-03 0. -1.
        -11    1    4    4    0    0 -0.32025308802E+02 -0.70336344648E+00 -0.50548572952E+00  0.32037019837E+02  0.51100000000E-03 0.  1.
        -12    1    4    4    0    0 -0.38339585682E+01 -0.66967652252E+01  0.11912986172E+02  0.14193841704E+02  0.00000000000E+00 0.  1.
</event>
<event>
 8    1  0.1248739E-006  0.9118800E+02  0.7816164E-02  0.1184000E+00
        -11   -1    0    0    0    0  0.00000000000E+00  0.00000000000E+00  0.45593999997E+02  0.45594000000E+02  0.51100000000E-03 0. -1.
         11   -1    0    0    0    0 -0.00000000000E+00 -0.00000000000E+00 -0.45593999997E+02  0.45594000000E+02  0.51100000000E-03 0.  1.
         23    2    1    2    0    0  0.00000000000E+00  0.88817841970E-15  0.00000000000E+00  0.91188000000E+02  0.91188000000E+02 0.  0.
    9900012    2    3    3    0    0  0.61148846243E+01 -0.41243571694E+01  0.36074610974E+02  0.54367086201E+02  0.40000004613E+02 0.  0.
        -12    1    3    3    0    0 -0.61148846243E+01  0.41243571694E+01 -0.36074610974E+02  0.36820913799E+02  0.00000000000E+00 0.  1.
         11    1    4    4    0    0  0.36724935859E+01  0.77797271752E+01  0.18998384993E+02  0.20855454842E+02  0.51100000000E-03 0. -1.
        -11    1    4    4    0    0 -0.25503044926E+01 -0.18563921508E+02  0.16826487668E+02  0.25184398390E+02  0.51100000000E-03 0.  1.
        -12    1    4    4    0    0  0.49926955309E+01  0.66598371635E+01  0.24973831402E+00  0.83272329698E+01  0.00000000000E+00 0.  1.
</event>
<event>
 8    1  0.1248739E-006  0.9118800E+02  0.7816164E-02  0.1184000E+00
        -11   -1    0    0    0    0  0.00000000000E+00  0.00000000000E+00  0.45593999997E+02  0.45594000000E+02  0.51100000000E-03 0. -1.
         11   -1    0    0    0    0 -0.00000000000E+00 -0.00000000000E+00 -0.45593999997E+02  0.45594000000E+02  0.51100000000E-03 0.  1.
         23    2    1    2    0    0  0.00000000000E+00  0.88817841970E-15  0.00000000000E+00  0.91188000000E+02  0.91188000000E+02 0.  0.
    9900012    2    3    3    0    0  0.14476029386E+01 -0.57323730233E+01  0.36343225012E+02  0.54367005187E+02  0.39999819923E+02 0.  0.
        -12    1    3    3    0    0 -0.14476029386E+01  0.57323730233E+01 -0.36343225012E+02  0.36820994813E+02  0.00000000000E+00 0.  1.
         11    1    4    4    0    0  0.15067767268E+02  0.54345058237E+01  0.30121163876E+02  0.34115333466E+02  0.51100000000E-03 0. -1.
        -11    1    4    4    0    0 -0.10840047697E+02 -0.52860517700E+01  0.13726118545E+01  0.12138082260E+02  0.51100000000E-03 0.  1.
         12    1    4    4    0    0 -0.27801166319E+01 -0.58808270770E+01  0.48494492823E+01  0.81135894608E+01  0.00000000000E+00 0. -1.
</event>
<event>
 8    1  0.1248739E-006  0.9118800E+02  0.7816164E-02  0.1184000E+00
        -11   -1    0    0    0    0  0.00000000000E+00  0.00000000000E+00  0.45593999997E+02  0.45594000000E+02  0.51100000000E-03 0. -1.
         11   -1    0    0    0    0 -0.00000000000E+00 -0.00000000000E+00 -0.45593999997E+02  0.45594000000E+02  0.51100000000E-03 0.  1.
         23    2    1    2    0    0  0.44408920985E-15  0.00000000000E+00  0.00000000000E+00  0.91188000000E+02  0.91188000000E+02 0.  0.
    9900012    2    3    3    0    0 -0.35853164628E+01 -0.16641604351E+02  0.32649357603E+02  0.54367108629E+02  0.40000055741E+02 0.  0.
        -12    1    3    3    0    0  0.35853164628E+01  0.16641604351E+02 -0.32649357603E+02  0.36820891371E+02  0.00000000000E+00 0.  1.
         11    1    4    4    0    0  0.70473462692E+01 -0.24225238201E+01  0.18341867925E+02  0.19797924900E+02  0.51100000000E-03 0. -1.
        -11    1    4    4    0    0 -0.89724262782E+01  0.12662713095E+01  0.16516839026E+02  0.18839157306E+02  0.51100000000E-03 0.  1.
        -12    1    4    4    0    0 -0.16602364539E+01 -0.15485351840E+02 -0.22093493484E+01  0.15730026422E+02  0.00000000000E+00 0.  1.
</event>
<event>
 8    1  0.1248739E-006  0.9118800E+02  0.7816164E-02  0.1184000E+00
        -11   -1    0    0    0    0  0.00000000000E+00  0.00000000000E+00  0.45593999997E+02  0.45594000000E+02  0.51100000000E-03 0.  1.
         11   -1    0    0    0    0 -0.00000000000E+00 -0.00000000000E+00 -0.45593999997E+02  0.45594000000E+02  0.51100000000E-03 0. -1.
         23    2    1    2    0    0  0.00000000000E+00  0.00000000000E+00  0.35527136788E-14  0.91188000000E+02  0.91188000000E+02 0.  0.
    9900012    2    3    3    0    0 -0.11232822786E+02 -0.20539463184E+02  0.28420679133E+02  0.54367070381E+02  0.39999968547E+02 0.  0.
         12    1    3    3    0    0  0.11232822786E+02  0.20539463184E+02 -0.28420679133E+02  0.36820929619E+02  0.00000000000E+00 0. -1.
         11    1    4    4    0    0  0.46834125754E+01  0.48815447967E+01  0.36313189491E+01  0.76779105572E+01  0.51100000000E-03 0. -1.
        -11    1    4    4    0    0 -0.36934187712E+01 -0.18837092587E+02  0.26477370261E+02  0.32703647129E+02  0.51100000000E-03 0.  1.
        -12    1    4    4    0    0 -0.12222816590E+02 -0.65839153936E+01 -0.16880100768E+01  0.13985512695E+02  0.00000000000E+00 0.  1.
</event>
<event>
 8    1  0.1248739E-006  0.9118800E+02  0.7816164E-02  0.1184000E+00
        -11   -1    0    0    0    0  0.00000000000E+00  0.00000000000E+00  0.45593999997E+02  0.45594000000E+02  0.51100000000E-03 0. -1.
         11   -1    0    0    0    0 -0.00000000000E+00 -0.00000000000E+00 -0.45593999997E+02  0.45594000000E+02  0.51100000000E-03 0.  1.
         23    2    1    2    0    0  0.00000000000E+00  0.35527136788E-14 -0.35527136788E-14  0.91188000000E+02  0.91188000000E+02 0.  0.
    9900012    2    3    3    0    0  0.77228388369E+01 -0.31855860712E+02  0.16773219287E+02  0.54367095792E+02  0.40000026478E+02 0.  0.
        -12    1    3    3    0    0 -0.77228388369E+01  0.31855860712E+02 -0.16773219287E+02  0.36820904208E+02  0.00000000000E+00 0.  1.
         11    1    4    4    0    0 -0.96546819862E+01 -0.13056412174E+02  0.70944799717E+01  0.17720452292E+02  0.51100000000E-03 0.  1.
        -11    1    4    4    0    0  0.11837021218E+01 -0.89142335283E+01  0.14508225873E+02  0.17069075205E+02  0.51100000000E-03 0. -1.
        -12    1    4    4    0    0  0.16193818701E+02 -0.98852150103E+01 -0.48294865583E+01  0.19577568295E+02  0.00000000000E+00 0.  1.
</event>
<event>
 8    1  0.1248739E-006  0.9118800E+02  0.7816164E-02  0.1184000E+00
        -11   -1    0    0    0    0  0.00000000000E+00  0.00000000000E+00  0.45593999997E+02  0.45594000000E+02  0.51100000000E-03 0. -1.
         11   -1    0    0    0    0 -0.00000000000E+00 -0.00000000000E+00 -0.45593999997E+02  0.45594000000E+02  0.51100000000E-03 0.  1.
         23    2    1    2    0    0 -0.66613381478E-15  0.00000000000E+00  0.00000000000E+00  0.91188000000E+02  0.91188000000E+02 0.  0.
    9900012    2    3    3    0    0 -0.11329478420E+01  0.32084840471E+02 -0.18029689551E+02  0.54366942653E+02  0.39999677365E+02 0.  0.
         12    1    3    3    0    0  0.11329478420E+01 -0.32084840471E+02  0.18029689551E+02  0.36821057347E+02  0.00000000000E+00 0. -1.
         11    1    4    4    0    0 -0.19077760965E+02  0.22000779819E+02 -0.16664524706E+02  0.33551477763E+02  0.51100000000E-03 0. -1.
        -11    1    4    4    0    0  0.12912658369E+02  0.85209979019E+01 -0.52558918669E+00  0.15479676858E+02  0.51100000000E-03 0.  1.
         12    1    4    4    0    0  0.50321547550E+01  0.15630627500E+01 -0.83957565749E+00  0.53357880320E+01  0.00000000000E+00 0. -1.
</event>
<event>
 8    1  0.1248739E-006  0.9118800E+02  0.7816164E-02  0.1184000E+00
        -11   -1    0    0    0    0  0.00000000000E+00  0.00000000000E+00  0.45593999997E+02  0.45594000000E+02  0.51100000000E-03 0.  1.
         11   -1    0    0    0    0 -0.00000000000E+00 -0.00000000000E+00 -0.45593999997E+02  0.45594000000E+02  0.51100000000E-03 0. -1.
         23    2    1    2    0    0  0.35527136788E-14  0.71054273576E-14  0.00000000000E+00  0.91188000000E+02  0.91188000000E+02 0.  0.
    9900012    2    3    3    0    0  0.16408266628E+02  0.23730328080E+02 -0.22878390799E+02  0.54367075920E+02  0.39999981176E+02 0.  0.
         12    1    3    3    0    0 -0.16408266628E+02 -0.23730328080E+02  0.22878390799E+02  0.36820924080E+02  0.00000000000E+00 0. -1.
         11    1    4    4    0    0  0.22963541083E+02  0.28244773783E+02 -0.25254038039E+02  0.44304152206E+02  0.51100000000E-03 0. -1.
        -11    1    4    4    0    0 -0.16690029923E+01 -0.29282174817E+01  0.34406067888E+01  0.48164098605E+01  0.51100000000E-03 0.  1.
         12    1    4    4    0    0 -0.48862714630E+01 -0.15862282211E+01 -0.10649595479E+01  0.52465138538E+01  0.00000000000E+00 0. -1.
</event>
<event>
 8    1  0.1248739E-006  0.9118800E+02  0.7816164E-02  0.1184000E+00
        -11   -1    0    0    0    0  0.00000000000E+00  0.00000000000E+00  0.45593999997E+02  0.45594000000E+02  0.51100000000E-03 0. -1.
         11   -1    0    0    0    0 -0.00000000000E+00 -0.00000000000E+00 -0.45593999997E+02  0.45594000000E+02  0.51100000000E-03 0.  1.
         23    2    1    2    0    0  0.00000000000E+00  0.00000000000E+00  0.22204460493E-15  0.91188000000E+02  0.91188000000E+02 0.  0.
    9900012    2    3    3    0    0  0.33490233118E+02 -0.15289880808E+02  0.63742065663E+00  0.54367048430E+02  0.39999918507E+02 0.  0.
        -12    1    3    3    0    0 -0.33490233118E+02  0.15289880808E+02 -0.63742065663E+00  0.36820951570E+02  0.00000000000E+00 0.  1.
         11    1    4    4    0    0 -0.67063983316E+01 -0.13036977440E+01  0.43882162378E+01  0.81198428803E+01  0.51100000000E-03 0. -1.
        -11    1    4    4    0    0 -0.11234475951E+01  0.13977780721E+01  0.71511211679E+00  0.19306226038E+01  0.51100000000E-03 0.  1.
         12    1    4    4    0    0  0.41320079044E+02 -0.15383961136E+02 -0.44659076979E+01  0.44316582946E+02  0.00000000000E+00 0. -1.
</event>
<event>
 8    1  0.1248739E-006  0.9118800E+02  0.7816164E-02  0.1184000E+00
        -11   -1    0    0    0    0  0.00000000000E+00  0.00000000000E+00  0.45593999997E+02  0.45594000000E+02  0.51100000000E-03 0. -1.
         11   -1    0    0    0    0 -0.00000000000E+00 -0.00000000000E+00 -0.45593999997E+02  0.45594000000E+02  0.51100000000E-03 0.  1.
         23    2    1    2    0    0  0.00000000000E+00  0.00000000000E+00  0.00000000000E+00  0.91188000000E+02  0.91188000000E+02 0.  0.
    9900012    2    3    3    0    0  0.10602728032E+02  0.70932405700E+01  0.34540518733E+02  0.54367091023E+02  0.40000015606E+02 0.  0.
        -12    1    3    3    0    0 -0.10602728032E+02 -0.70932405700E+01 -0.34540518733E+02  0.36820908977E+02  0.00000000000E+00 0.  1.
         11    1    4    4    0    0  0.34496997830E+01  0.16053829605E+02  0.29408748202E+02  0.33682344702E+02  0.51100000000E-03 0. -1.
        -11    1    4    4    0    0  0.27984797778E+01  0.42783145921E+01 -0.13895931108E+01  0.52977763345E+01  0.51100000000E-03 0.  1.
        -12    1    4    4    0    0  0.43545484716E+01 -0.13238903627E+02  0.65213636421E+01  0.15386969987E+02  0.00000000000E+00 0.  1.
</event>
<event>
 8    1  0.1248739E-006  0.9118800E+02  0.7816164E-02  0.1184000E+00
        -11   -1    0    0    0    0  0.00000000000E+00  0.00000000000E+00  0.45593999997E+02  0.45594000000E+02  0.51100000000E-03 0. -1.
         11   -1    0    0    0    0 -0.00000000000E+00 -0.00000000000E+00 -0.45593999997E+02  0.45594000000E+02  0.51100000000E-03 0.  1.
         23    2    1    2    0    0  0.00000000000E+00  0.00000000000E+00  0.88817841970E-15  0.91188000000E+02  0.91188000000E+02 0.  0.
    9900012    2    3    3    0    0  0.25574192269E+02  0.25748501509E+02 -0.62252884367E+01  0.54367097563E+02  0.40000030514E+02 0.  0.
        -12    1    3    3    0    0 -0.25574192269E+02 -0.25748501509E+02  0.62252884367E+01  0.36820902437E+02  0.00000000000E+00 0.  1.
         11    1    4    4    0    0  0.10020667980E+02  0.12760221924E+02 -0.12056861582E+02  0.20213979365E+02  0.51100000000E-03 0. -1.
        -11    1    4    4    0    0  0.31471959276E+01 -0.27966268707E+01 -0.85001905001E+01  0.94857368117E+01  0.51100000000E-03 0.  1.
        -12    1    4    4    0    0  0.12406328362E+02  0.15784906456E+02  0.14331763646E+02  0.24667381386E+02  0.00000000000E+00 0.  1.
</event>
<event>
 8    1  0.1248739E-006  0.9118800E+02  0.7816164E-02  0.1184000E+00
        -11   -1    0    0    0    0  0.00000000000E+00  0.00000000000E+00  0.45593999997E+02  0.45594000000E+02  0.51100000000E-03 0.  1.
         11   -1    0    0    0    0 -0.00000000000E+00 -0.00000000000E+00 -0.45593999997E+02  0.45594000000E+02  0.51100000000E-03 0. -1.
         23    2    1    2    0    0  0.17763568394E-14  0.00000000000E+00  0.00000000000E+00  0.91188000000E+02  0.91188000000E+02 0.  0.
    9900012    2    3    3    0    0  0.78597177903E+01  0.26647460738E+02 -0.24164384712E+02  0.54367084531E+02  0.40000000804E+02 0.  0.
         12    1    3    3    0    0 -0.78597177903E+01 -0.26647460738E+02  0.24164384712E+02  0.36820915469E+02  0.00000000000E+00 0. -1.
         11    1    4    4    0    0  0.92982285602E+01 -0.42273710912E+01 -0.79360378324E+01  0.12934775508E+02  0.51100000000E-03 0. -1.
        -11    1    4    4    0    0 -0.53678147753E+01  0.65992223328E+01  0.41774227254E+01  0.94770265246E+01  0.51100000000E-03 0.  1.
        -12    1    4    4    0    0  0.39293040053E+01  0.24275609496E+02 -0.20405769605E+02  0.31955282498E+02  0.00000000000E+00 0.  1.
</event>
<event>
 8    1  0.1248739E-006  0.9118800E+02  0.7816164E-02  0.1184000E+00
        -11   -1    0    0    0    0  0.00000000000E+00  0.00000000000E+00  0.45593999997E+02  0.45594000000E+02  0.51100000000E-03 0. -1.
         11   -1    0    0    0    0 -0.00000000000E+00 -0.00000000000E+00 -0.45593999997E+02  0.45594000000E+02  0.51100000000E-03 0.  1.
         23    2    1    2    0    0  0.00000000000E+00  0.00000000000E+00  0.35527136788E-14  0.91188000000E+02  0.91188000000E+02 0.  0.
    9900012    2    3    3    0    0 -0.24742813298E+02  0.13996035327E+02 -0.23402789135E+02  0.54366995749E+02  0.39999798407E+02 0.  0.
         12    1    3    3    0    0  0.24742813298E+02 -0.13996035327E+02  0.23402789135E+02  0.36821004251E+02  0.00000000000E+00 0. -1.
         11    1    4    4    0    0  0.32890324026E+01  0.74211689242E+01  0.28415173238E+01  0.86003315814E+01  0.51100000000E-03 0. -1.
        -11    1    4    4    0    0 -0.49800433874E+01  0.34139354880E+01 -0.21087071110E+02  0.21934455906E+02  0.51100000000E-03 0.  1.
        -12    1    4    4    0    0 -0.23051802313E+02  0.31609309146E+01 -0.51572353494E+01  0.23832208261E+02  0.00000000000E+00 0.  1.
</event>
<event>
 8    1  0.1248739E-006  0.9118800E+02  0.7816164E-02  0.1184000E+00
        -11   -1    0    0    0    0  0.00000000000E+00  0.00000000000E+00  0.45593999997E+02  0.45594000000E+02  0.51100000000E-03 0.  1.
         11   -1    0    0    0    0 -0.00000000000E+00 -0.00000000000E+00 -0.45593999997E+02  0.45594000000E+02  0.51100000000E-03 0. -1.
         23    2    1    2    0    0  0.00000000000E+00  0.00000000000E+00  0.00000000000E+00  0.91188000000E+02  0.91188000000E+02 0.  0.
    9900012    2    3    3    0    0 -0.27570058432E+02 -0.10920432238E+02  0.21826997494E+02  0.54367057837E+02  0.39999939951E+02 0.  0.
         12    1    3    3    0    0  0.27570058432E+02  0.10920432238E+02 -0.21826997494E+02  0.36820942163E+02  0.00000000000E+00 0. -1.
         11    1    4    4    0    0 -0.97785560979E+01 -0.22775858939E+02  0.59053906864E+01  0.25480061797E+02  0.51100000000E-03 0. -1.
        -11    1    4    4    0    0 -0.96247699624E+01  0.16679692082E+01  0.11529725829E+02  0.15111349909E+02  0.51100000000E-03 0.  1.
         12    1    4    4    0    0 -0.81667323713E+01  0.10187457493E+02  0.43918809782E+01  0.13775646131E+02  0.00000000000E+00 0. -1.
</event>
<event>
 8    1  0.1248739E-006  0.9118800E+02  0.7816164E-02  0.1184000E+00
        -11   -1    0    0    0    0  0.00000000000E+00  0.00000000000E+00  0.45593999997E+02  0.45594000000E+02  0.51100000000E-03 0. -1.
         11   -1    0    0    0    0 -0.00000000000E+00 -0.00000000000E+00 -0.45593999997E+02  0.45594000000E+02  0.51100000000E-03 0.  1.
         23    2    1    2    0    0  0.00000000000E+00  0.00000000000E+00  0.00000000000E+00  0.91188000000E+02  0.91188000000E+02 0.  0.
    9900012    2    3    3    0    0 -0.15863123075E+02  0.84668501910E+01  0.32131822273E+02  0.54367078930E+02  0.39999988037E+02 0.  0.
        -12    1    3    3    0    0  0.15863123075E+02 -0.84668501910E+01 -0.32131822273E+02  0.36820921070E+02  0.00000000000E+00 0.  1.
         11    1    4    4    0    0 -0.65692214292E+01  0.27292136014E+01  0.12173919593E+02  0.14099914737E+02  0.51100000000E-03 0. -1.
        -11    1    4    4    0    0 -0.17219253337E+02  0.32239803767E+01  0.25012237622E+02  0.30537006502E+02  0.51100000000E-03 0.  1.
        -12    1    4    4    0    0  0.79253516913E+01  0.25136562128E+01 -0.50543349424E+01  0.97301576913E+01  0.00000000000E+00 0.  1.
</event>
<event>
 8    1  0.1248739E-006  0.9118800E+02  0.7816164E-02  0.1184000E+00
        -11   -1    0    0    0    0  0.00000000000E+00  0.00000000000E+00  0.45593999997E+02  0.45594000000E+02  0.51100000000E-03 0.  1.
         11   -1    0    0    0    0 -0.00000000000E+00 -0.00000000000E+00 -0.45593999997E+02  0.45594000000E+02  0.51100000000E-03 0. -1.
         23    2    1    2    0    0  0.35527136788E-14 -0.17763568394E-14  0.00000000000E+00  0.91188000000E+02  0.91188000000E+02 0.  0.
    9900012    2    3    3    0    0  0.26192110426E+02  0.90396831914E+01  0.24249499878E+02  0.54367071643E+02  0.39999971424E+02 0.  0.
         12    1    3    3    0    0 -0.26192110426E+02 -0.90396831914E+01 -0.24249499878E+02  0.36820928357E+02  0.00000000000E+00 0. -1.
         11    1    4    4    0    0  0.79222854424E+01  0.13543079817E+02 -0.13794870615E+01  0.15750574668E+02  0.51100000000E-03 0. -1.
        -11    1    4    4    0    0  0.62496933973E+01 -0.71871971076E+01  0.24455362485E+02  0.26244603719E+02  0.51100000000E-03 0.  1.
         12    1    4    4    0    0  0.12020131586E+02  0.26838004818E+01  0.11736244547E+01  0.12371893256E+02  0.00000000000E+00 0. -1.
</event>
<event>
 8    1  0.1248739E-006  0.9118800E+02  0.7816164E-02  0.1184000E+00
        -11   -1    0    0    0    0  0.00000000000E+00  0.00000000000E+00  0.45593999997E+02  0.45594000000E+02  0.51100000000E-03 0.  1.
         11   -1    0    0    0    0 -0.00000000000E+00 -0.00000000000E+00 -0.45593999997E+02  0.45594000000E+02  0.51100000000E-03 0. -1.
         23    2    1    2    0    0  0.35527136788E-14  0.35527136788E-14  0.00000000000E+00  0.91188000000E+02  0.91188000000E+02 0.  0.
    9900012    2    3    3    0    0 -0.23081619433E+02  0.28325360727E+02 -0.45488379272E+01  0.54367093677E+02  0.40000021656E+02 0.  0.
        -12    1    3    3    0    0  0.23081619433E+02 -0.28325360727E+02  0.45488379272E+01  0.36820906323E+02  0.00000000000E+00 0.  1.
         11    1    4    4    0    0 -0.62294528413E+01  0.73153639043E+01 -0.10633586528E+02  0.14331566365E+02  0.51100000000E-03 0. -1.
        -11    1    4    4    0    0  0.58034776828E+01  0.19598520798E+01 -0.55159840771E+01  0.82430245655E+01  0.51100000000E-03 0.  1.
        -12    1    4    4    0    0 -0.22655644275E+02  0.19050144743E+02  0.11600732678E+02  0.31792502747E+02  0.00000000000E+00 0.  1.
</event>
<event>
 8    1  0.1248739E-006  0.9118800E+02  0.7816164E-02  0.1184000E+00
        -11   -1    0    0    0    0  0.00000000000E+00  0.00000000000E+00  0.45593999997E+02  0.45594000000E+02  0.51100000000E-03 0. -1.
         11   -1    0    0    0    0 -0.00000000000E+00 -0.00000000000E+00 -0.45593999997E+02  0.45594000000E+02  0.51100000000E-03 0.  1.
         23    2    1    2    0    0 -0.71054273576E-14  0.00000000000E+00  0.17763568394E-14  0.91188000000E+02  0.91188000000E+02 0.  0.
    9900012    2    3    3    0    0  0.33004090715E+02 -0.13858359807E+02 -0.86287224323E+01  0.54367095730E+02  0.40000026336E+02 0.  0.
        -12    1    3    3    0    0 -0.33004090715E+02  0.13858359807E+02  0.86287224323E+01  0.36820904270E+02  0.00000000000E+00 0.  1.
         11    1    4    4    0    0  0.76523566890E+01 -0.14445598119E+02  0.16210127990E+01  0.16427463306E+02  0.51100000000E-03 0. -1.
        -11    1    4    4    0    0 -0.21430868637E+01  0.47494968394E+01 -0.86342249984E+01  0.10084660783E+02  0.51100000000E-03 0.  1.
         12    1    4    4    0    0  0.27494820889E+02 -0.41622585273E+01 -0.16155102329E+01  0.27854971641E+02  0.00000000000E+00 0. -1.
</event>
<event>
 8    1  0.1248739E-006  0.9118800E+02  0.7816164E-02  0.1184000E+00
        -11   -1    0    0    0    0  0.00000000000E+00  0.00000000000E+00  0.45593999997E+02  0.45594000000E+02  0.51100000000E-03 0.  1.
         11   -1    0    0    0    0 -0.00000000000E+00 -0.00000000000E+00 -0.45593999997E+02  0.45594000000E+02  0.51100000000E-03 0. -1.
         23    2    1    2    0    0  0.00000000000E+00 -0.44408920985E-15  0.35527136788E-14  0.91188000000E+02  0.91188000000E+02 0.  0.
    9900012    2    3    3    0    0 -0.23622520986E+02 -0.67852196336E+00  0.28236419690E+02  0.54367091718E+02  0.40000017190E+02 0.  0.
         12    1    3    3    0    0  0.23622520986E+02  0.67852196336E+00 -0.28236419690E+02  0.36820908282E+02  0.00000000000E+00 0. -1.
         11    1    4    4    0    0 -0.46097591298E+01  0.37110921651E+01 -0.49513914774E+01  0.77161105563E+01  0.51100000000E-03 0. -1.
        -11    1    4    4    0    0 -0.14751176638E+01 -0.52630398680E+01  0.27729123939E+02  0.28262694058E+02  0.51100000000E-03 0.  1.
        -12    1    4    4    0    0 -0.17537644192E+02  0.87342573954E+00  0.54586872288E+01  0.18388287104E+02  0.00000000000E+00 0.  1.
</event>
<event>
 8    1  0.1248739E-006  0.9118800E+02  0.7816164E-02  0.1184000E+00
        -11   -1    0    0    0    0  0.00000000000E+00  0.00000000000E+00  0.45593999997E+02  0.45594000000E+02  0.51100000000E-03 0.  1.
         11   -1    0    0    0    0 -0.00000000000E+00 -0.00000000000E+00 -0.45593999997E+02  0.45594000000E+02  0.51100000000E-03 0. -1.
         23    2    1    2    0    0  0.00000000000E+00  0.00000000000E+00  0.12212453271E-14  0.91188000000E+02  0.91188000000E+02 0.  0.
    9900012    2    3    3    0    0  0.29548869818E+02  0.21962057895E+02 -0.55889401367E+00  0.54367081258E+02  0.39999993343E+02 0.  0.
        -12    1    3    3    0    0 -0.29548869818E+02 -0.21962057895E+02  0.55889401367E+00  0.36820918742E+02  0.00000000000E+00 0.  1.
         11    1    4    4    0    0  0.50635584357E+01 -0.58192255935E+01  0.36414121885E+00  0.77224095739E+01  0.51100000000E-03 0.  1.
        -11    1    4    4    0    0  0.98777698288E+01  0.23601483871E+02 -0.11582350284E+02  0.28084714990E+02  0.51100000000E-03 0. -1.
         12    1    4    4    0    0  0.14607541554E+02  0.41797996169E+01  0.10659315052E+02  0.18559956693E+02  0.00000000000E+00 0. -1.
</event>
<event>
 8    1  0.1248739E-006  0.9118800E+02  0.7816164E-02  0.1184000E+00
        -11   -1    0    0    0    0  0.00000000000E+00  0.00000000000E+00  0.45593999997E+02  0.45594000000E+02  0.51100000000E-03 0.  1.
         11   -1    0    0    0    0 -0.00000000000E+00 -0.00000000000E+00 -0.45593999997E+02  0.45594000000E+02  0.51100000000E-03 0. -1.
         23    2    1    2    0    0  0.00000000000E+00  0.00000000000E+00  0.00000000000E+00  0.91188000000E+02  0.91188000000E+02 0.  0.
    9900012    2    3    3    0    0 -0.16727486866E+02  0.18560284376E+02 -0.27046014463E+02  0.54367083780E+02  0.39999999092E+02 0.  0.
        -12    1    3    3    0    0  0.16727486866E+02 -0.18560284376E+02  0.27046014463E+02  0.36820916220E+02  0.00000000000E+00 0.  1.
         11    1    4    4    0    0 -0.75134794632E+00  0.90976887179E+01 -0.25118041479E+01  0.94679260709E+01  0.51100000000E-03 0. -1.
        -11    1    4    4    0    0 -0.12209185708E+02 -0.26826334740E+01  0.44334882009E+01  0.13263353871E+02  0.51100000000E-03 0.  1.
        -12    1    4    4    0    0 -0.37669532121E+01  0.12145229132E+02 -0.28967698516E+02  0.31635803838E+02  0.00000000000E+00 0.  1.
</event>
<event>
 8    1  0.1248739E-006  0.9118800E+02  0.7816164E-02  0.1184000E+00
        -11   -1    0    0    0    0  0.00000000000E+00  0.00000000000E+00  0.45593999997E+02  0.45594000000E+02  0.51100000000E-03 0. -1.
         11   -1    0    0    0    0 -0.00000000000E+00 -0.00000000000E+00 -0.45593999997E+02  0.45594000000E+02  0.51100000000E-03 0.  1.
         23    2    1    2    0    0  0.35527136788E-14  0.11102230246E-15  0.35527136788E-14  0.91188000000E+02  0.91188000000E+02 0.  0.
    9900012    2    3    3    0    0 -0.25525062782E+02  0.72591266398E+00 -0.26527804548E+02  0.54367079406E+02  0.39999989122E+02 0.  0.
         12    1    3    3    0    0  0.25525062782E+02 -0.72591266398E+00  0.26527804548E+02  0.36820920594E+02  0.00000000000E+00 0. -1.
         11    1    4    4    0    0 -0.21243078534E+02  0.27605584668E+01 -0.34379932312E+01  0.21695826012E+02  0.51100000000E-03 0. -1.
        -11    1    4    4    0    0 -0.67810896412E+01  0.75291011800E+00  0.21513932346E+01  0.71539180509E+01  0.51100000000E-03 0.  1.
         12    1    4    4    0    0  0.24991053931E+01 -0.27875559209E+01 -0.25241204552E+02  0.25517335343E+02  0.00000000000E+00 0. -1.
</event>
<event>
 8    1  0.1248739E-006  0.9118800E+02  0.7816164E-02  0.1184000E+00
        -11   -1    0    0    0    0  0.00000000000E+00  0.00000000000E+00  0.45593999997E+02  0.45594000000E+02  0.51100000000E-03 0.  1.
         11   -1    0    0    0    0 -0.00000000000E+00 -0.00000000000E+00 -0.45593999997E+02  0.45594000000E+02  0.51100000000E-03 0. -1.
         23    2    1    2    0    0 -0.35527136788E-14  0.00000000000E+00  0.00000000000E+00  0.91188000000E+02  0.91188000000E+02 0.  0.
    9900012    2    3    3    0    0  0.18185270192E+02 -0.14010187460E+02 -0.28789001723E+02  0.54366864427E+02  0.39999499032E+02 0.  0.
        -12    1    3    3    0    0 -0.18185270192E+02  0.14010187460E+02  0.28789001723E+02  0.36821135573E+02  0.00000000000E+00 0.  1.
         11    1    4    4    0    0  0.83167860271E+00  0.91592073399E+01 -0.18250252898E+02  0.20436597063E+02  0.51100000000E-03 0. -1.
        -11    1    4    4    0    0  0.57031493065E+01 -0.18388712237E+02 -0.89697093331E+01  0.21239734827E+02  0.51100000000E-03 0.  1.
        -12    1    4    4    0    0  0.11650442283E+02 -0.47806825638E+01 -0.15690394917E+01  0.12690532538E+02  0.00000000000E+00 0.  1.
</event>
<event>
 8    1  0.1248739E-006  0.9118800E+02  0.7816164E-02  0.1184000E+00
        -11   -1    0    0    0    0  0.00000000000E+00  0.00000000000E+00  0.45593999997E+02  0.45594000000E+02  0.51100000000E-03 0.  1.
         11   -1    0    0    0    0 -0.00000000000E+00 -0.00000000000E+00 -0.45593999997E+02  0.45594000000E+02  0.51100000000E-03 0. -1.
         23    2    1    2    0    0 -0.35527136788E-14  0.00000000000E+00  0.35527136788E-14  0.91188000000E+02  0.91188000000E+02 0.  0.
    9900012    2    3    3    0    0 -0.23893126608E+02  0.29062636101E+01  0.27864888604E+02  0.54367083605E+02  0.39999998693E+02 0.  0.
         12    1    3    3    0    0  0.23893126608E+02 -0.29062636101E+01 -0.27864888604E+02  0.36820916395E+02  0.00000000000E+00 0. -1.
         11    1    4    4    0    0 -0.19669518044E+01 -0.73428914362E+01  0.68376142549E+00  0.76324625117E+01  0.51100000000E-03 0. -1.
        -11    1    4    4    0    0 -0.22999782586E+02  0.18547300209E+02  0.19710246793E+02  0.35517406619E+02  0.51100000000E-03 0.  1.
        -12    1    4    4    0    0  0.10736077830E+01 -0.82981451624E+01  0.74708803861E+01  0.11217214474E+02  0.00000000000E+00 0.  1.
</event>
<event>
 8    1  0.1248739E-006  0.9118800E+02  0.7816164E-02  0.1184000E+00
        -11   -1    0    0    0    0  0.00000000000E+00  0.00000000000E+00  0.45593999997E+02  0.45594000000E+02  0.51100000000E-03 0.  1.
         11   -1    0    0    0    0 -0.00000000000E+00 -0.00000000000E+00 -0.45593999997E+02  0.45594000000E+02  0.51100000000E-03 0. -1.
         23    2    1    2    0    0  0.00000000000E+00  0.35527136788E-14 -0.17763568394E-14  0.91188000000E+02  0.91188000000E+02 0.  0.
    9900012    2    3    3    0    0 -0.20471418970E+02  0.27149597987E+02  0.14128013139E+02  0.54367076319E+02  0.39999982084E+02 0.  0.
         12    1    3    3    0    0  0.20471418970E+02 -0.27149597987E+02 -0.14128013139E+02  0.36820923681E+02  0.00000000000E+00 0. -1.
         11    1    4    4    0    0 -0.12160183846E+02  0.24741690723E+01  0.18857807534E+02  0.22574509718E+02  0.51100000000E-03 0.  1.
        -11    1    4    4    0    0 -0.66811581218E+01  0.79972834518E-01  0.60949392340E-01  0.66819147400E+01  0.51100000000E-03 0. -1.
         12    1    4    4    0    0 -0.16300770022E+01  0.24595456080E+02 -0.47907437875E+01  0.25110651860E+02  0.00000000000E+00 0. -1.
</event>
<event>
 8    1  0.1248739E-006  0.9118800E+02  0.7816164E-02  0.1184000E+00
        -11   -1    0    0    0    0  0.00000000000E+00  0.00000000000E+00  0.45593999997E+02  0.45594000000E+02  0.51100000000E-03 0.  1.
         11   -1    0    0    0    0 -0.00000000000E+00 -0.00000000000E+00 -0.45593999997E+02  0.45594000000E+02  0.51100000000E-03 0. -1.
         23    2    1    2    0    0  0.00000000000E+00  0.17763568394E-14  0.71054273576E-14  0.91188000000E+02  0.91188000000E+02 0.  0.
    9900012    2    3    3    0    0 -0.11688251892E+02  0.93131131123E+01  0.33651647747E+02  0.54367045311E+02  0.39999911396E+02 0.  0.
         12    1    3    3    0    0  0.11688251892E+02 -0.93131131123E+01 -0.33651647747E+02  0.36820954689E+02  0.00000000000E+00 0. -1.
         11    1    4    4    0    0  0.30689181333E+01 -0.55957390388E+01  0.33534598640E+01  0.72094554039E+01  0.51100000000E-03 0. -1.
        -11    1    4    4    0    0 -0.21778525611E+02  0.12508063898E+02  0.12880755807E+02  0.28225338097E+02  0.51100000000E-03 0.  1.
        -12    1    4    4    0    0  0.70213555863E+01  0.24007882530E+01  0.17417432076E+02  0.18932251811E+02  0.00000000000E+00 0.  1.
</event>
<event>
 8    1  0.1248739E-006  0.9118800E+02  0.7816164E-02  0.1184000E+00
        -11   -1    0    0    0    0  0.00000000000E+00  0.00000000000E+00  0.45593999997E+02  0.45594000000E+02  0.51100000000E-03 0. -1.
         11   -1    0    0    0    0 -0.00000000000E+00 -0.00000000000E+00 -0.45593999997E+02  0.45594000000E+02  0.51100000000E-03 0.  1.
         23    2    1    2    0    0  0.35527136788E-14  0.00000000000E+00  0.00000000000E+00  0.91188000000E+02  0.91188000000E+02 0.  0.
    9900012    2    3    3    0    0  0.26822754828E+02  0.17791507299E+02 -0.17882517921E+02  0.54367050043E+02  0.39999922182E+02 0.  0.
         12    1    3    3    0    0 -0.26822754828E+02 -0.17791507299E+02  0.17882517921E+02  0.36820949957E+02  0.00000000000E+00 0. -1.
         11    1    4    4    0    0  0.31636324724E+01 -0.62488692401E+01  0.49888608025E+01  0.85991667950E+01  0.51100000000E-03 0. -1.
        -11    1    4    4    0    0  0.11712052137E+02  0.16484852210E+02 -0.16759865907E+01  0.20291166772E+02  0.51100000000E-03 0.  1.
         12    1    4    4    0    0  0.11947070219E+02  0.75555243292E+01 -0.21195392133E+02  0.25476716475E+02  0.00000000000E+00 0. -1.
</event>
<event>
 8    1  0.1248739E-006  0.9118800E+02  0.7816164E-02  0.1184000E+00
        -11   -1    0    0    0    0  0.00000000000E+00  0.00000000000E+00  0.45593999997E+02  0.45594000000E+02  0.51100000000E-03 0.  1.
         11   -1    0    0    0    0 -0.00000000000E+00 -0.00000000000E+00 -0.45593999997E+02  0.45594000000E+02  0.51100000000E-03 0. -1.
         23    2    1    2    0    0  0.17763568394E-14 -0.35527136788E-14  0.00000000000E+00  0.91188000000E+02  0.91188000000E+02 0.  0.
    9900012    2    3    3    0    0  0.12515206441E+02 -0.30771246688E+02  0.15883232874E+02  0.54367121391E+02  0.40000084835E+02 0.  0.
         12    1    3    3    0    0 -0.12515206441E+02  0.30771246688E+02 -0.15883232874E+02  0.36820878609E+02  0.00000000000E+00 0. -1.
         11    1    4    4    0    0 -0.78227852999E+00  0.47462997403E+01  0.75915803234E+01  0.89872917495E+01  0.51100000000E-03 0. -1.
        -11    1    4    4    0    0  0.73885765641E+01  0.11477571257E+01  0.13265197971E+01  0.75939492424E+01  0.51100000000E-03 0.  1.
         12    1    4    4    0    0  0.59089084074E+01 -0.36665303554E+02  0.69651327536E+01  0.37785880399E+02  0.00000000000E+00 0. -1.
</event>
<event>
 8    1  0.1248739E-006  0.9118800E+02  0.7816164E-02  0.1184000E+00
        -11   -1    0    0    0    0  0.00000000000E+00  0.00000000000E+00  0.45593999997E+02  0.45594000000E+02  0.51100000000E-03 0.  1.
         11   -1    0    0    0    0 -0.00000000000E+00 -0.00000000000E+00 -0.45593999997E+02  0.45594000000E+02  0.51100000000E-03 0. -1.
         23    2    1    2    0    0  0.00000000000E+00 -0.35527136788E-14  0.00000000000E+00  0.91188000000E+02  0.91188000000E+02 0.  0.
    9900012    2    3    3    0    0  0.25164190283E+02  0.26507362418E+02  0.44616955859E+01  0.54367035014E+02  0.39999887922E+02 0.  0.
        -12    1    3    3    0    0 -0.25164190283E+02 -0.26507362418E+02 -0.44616955859E+01  0.36820964986E+02  0.00000000000E+00 0.  1.
         11    1    4    4    0    0  0.69481632891E+01  0.18149137074E+02 -0.23213622185E+00  0.19435072346E+02  0.51100000000E-03 0. -1.
        -11    1    4    4    0    0  0.93481811799E+01  0.14413274682E+02  0.12845163916E+02  0.21450622712E+02  0.51100000000E-03 0.  1.
         12    1    4    4    0    0  0.88678458139E+01 -0.60550493378E+01 -0.81513321086E+01  0.13481339956E+02  0.00000000000E+00 0. -1.
</event>
<event>
 8    1  0.1248739E-006  0.9118800E+02  0.7816164E-02  0.1184000E+00
        -11   -1    0    0    0    0  0.00000000000E+00  0.00000000000E+00  0.45593999997E+02  0.45594000000E+02  0.51100000000E-03 0.  1.
         11   -1    0    0    0    0 -0.00000000000E+00 -0.00000000000E+00 -0.45593999997E+02  0.45594000000E+02  0.51100000000E-03 0. -1.
         23    2    1    2    0    0  0.88817841970E-15  0.17763568394E-14  0.00000000000E+00  0.91188000000E+02  0.91188000000E+02 0.  0.
    9900012    2    3    3    0    0 -0.56786198648E+01 -0.15964407561E+02  0.32690521357E+02  0.54367092638E+02  0.40000019287E+02 0.  0.
         12    1    3    3    0    0  0.56786198648E+01  0.15964407561E+02 -0.32690521357E+02  0.36820907362E+02  0.00000000000E+00 0. -1.
         11    1    4    4    0    0  0.12084910489E+02 -0.10431049598E+02  0.32368079282E+01  0.16288915957E+02  0.51100000000E-03 0. -1.
        -11    1    4    4    0    0 -0.26674405757E+01 -0.67782300854E+00  0.18738717734E+02  0.18939752529E+02  0.51100000000E-03 0.  1.
         12    1    4    4    0    0 -0.15096089778E+02 -0.48555349550E+01  0.10714995694E+02  0.19138424152E+02  0.00000000000E+00 0. -1.
</event>
<event>
 8    1  0.1248739E-006  0.9118800E+02  0.7816164E-02  0.1184000E+00
        -11   -1    0    0    0    0  0.00000000000E+00  0.00000000000E+00  0.45593999997E+02  0.45594000000E+02  0.51100000000E-03 0. -1.
         11   -1    0    0    0    0 -0.00000000000E+00 -0.00000000000E+00 -0.45593999997E+02  0.45594000000E+02  0.51100000000E-03 0.  1.
         23    2    1    2    0    0  0.71054273576E-14  0.00000000000E+00 -0.35527136788E-14  0.91188000000E+02  0.91188000000E+02 0.  0.
    9900012    2    3    3    0    0 -0.35753428328E+02 -0.24708643433E+01  0.84477871399E+01  0.54367110340E+02  0.40000059641E+02 0.  0.
        -12    1    3    3    0    0  0.35753428328E+02  0.24708643433E+01 -0.84477871399E+01  0.36820889660E+02  0.00000000000E+00 0.  1.
         11    1    4    4    0    0 -0.25884048950E+01 -0.85739937166E+00 -0.84208192975E+01  0.88512807822E+01  0.51100000000E-03 0. -1.
        -11    1    4    4    0    0 -0.10082340381E+01 -0.19708951180E+01 -0.57750938660E+01  0.61848745229E+01  0.51100000000E-03 0.  1.
         12    1    4    4    0    0 -0.32156789395E+02  0.35743014636E+00  0.22643700303E+02  0.39330955035E+02  0.00000000000E+00 0. -1.
</event>
<event>
 8    1  0.1248739E-006  0.9118800E+02  0.7816164E-02  0.1184000E+00
        -11   -1    0    0    0    0  0.00000000000E+00  0.00000000000E+00  0.45593999997E+02  0.45594000000E+02  0.51100000000E-03 0.  1.
         11   -1    0    0    0    0 -0.00000000000E+00 -0.00000000000E+00 -0.45593999997E+02  0.45594000000E+02  0.51100000000E-03 0. -1.
         23    2    1    2    0    0 -0.35527136788E-14  0.17763568394E-14  0.00000000000E+00  0.91188000000E+02  0.91188000000E+02 0.  0.
    9900012    2    3    3    0    0  0.12995894459E+02 -0.13697183213E+02 -0.31611302490E+02  0.54367074620E+02  0.39999978210E+02 0.  0.
        -12    1    3    3    0    0 -0.12995894459E+02  0.13697183213E+02  0.31611302490E+02  0.36820925380E+02  0.00000000000E+00 0.  1.
         11    1    4    4    0    0  0.11747669826E+02 -0.56721961838E+01 -0.72673881252E+01  0.14933066875E+02  0.51100000000E-03 0. -1.
        -11    1    4    4    0    0  0.11290462643E+02  0.47323255382E+00  0.51135529115E+00  0.11311939720E+02  0.51100000000E-03 0.  1.
        -12    1    4    4    0    0 -0.10042238009E+02 -0.84982195832E+01 -0.24855269656E+02  0.28122068024E+02  0.00000000000E+00 0.  1.
</event>
<event>
 8    1  0.1248739E-006  0.9118800E+02  0.7816164E-02  0.1184000E+00
        -11   -1    0    0    0    0  0.00000000000E+00  0.00000000000E+00  0.45593999997E+02  0.45594000000E+02  0.51100000000E-03 0. -1.
         11   -1    0    0    0    0 -0.00000000000E+00 -0.00000000000E+00 -0.45593999997E+02  0.45594000000E+02  0.51100000000E-03 0.  1.
         23    2    1    2    0    0  0.22204460493E-14 -0.35527136788E-14  0.00000000000E+00  0.91188000000E+02  0.91188000000E+02 0.  0.
    9900012    2    3    3    0    0 -0.32090649740E+01  0.30789632038E+02  0.19936787044E+02  0.54367149702E+02  0.40000149376E+02 0.  0.
        -12    1    3    3    0    0  0.32090649740E+01 -0.30789632038E+02 -0.19936787044E+02  0.36820850298E+02  0.00000000000E+00 0.  1.
         11    1    4    4    0    0 -0.10084440020E+02  0.41746187375E+01  0.33967964666E+01  0.11430730449E+02  0.51100000000E-03 0. -1.
        -11    1    4    4    0    0 -0.33608154556E+01  0.71214458506E+01 -0.71202239737E+01  0.10616386449E+02  0.51100000000E-03 0.  1.
         12    1    4    4    0    0  0.10236190501E+02  0.19493567450E+02  0.23660214551E+02  0.32320032804E+02  0.00000000000E+00 0. -1.
</event>
<event>
 8    1  0.1248739E-006  0.9118800E+02  0.7816164E-02  0.1184000E+00
        -11   -1    0    0    0    0  0.00000000000E+00  0.00000000000E+00  0.45593999997E+02  0.45594000000E+02  0.51100000000E-03 0.  1.
         11   -1    0    0    0    0 -0.00000000000E+00 -0.00000000000E+00 -0.45593999997E+02  0.45594000000E+02  0.51100000000E-03 0. -1.
         23    2    1    2    0    0 -0.71054273576E-14  0.88817841970E-15  0.35527136788E-14  0.91188000000E+02  0.91188000000E+02 0.  0.
    9900012    2    3    3    0    0 -0.26764380463E+02  0.77178826295E+01  0.24080756861E+02  0.54367073547E+02  0.39999975766E+02 0.  0.
         12    1    3    3    0    0  0.26764380463E+02 -0.77178826295E+01 -0.24080756861E+02  0.36820926453E+02  0.00000000000E+00 0. -1.
         11    1    4    4    0    0 -0.51832006733E+00  0.40014966167E+01  0.67572016376E+01  0.78702226842E+01  0.51100000000E-03 0. -1.
        -11    1    4    4    0    0 -0.50394427286E+01  0.16082818280E+02  0.13621805531E+02  0.21670408696E+02  0.51100000000E-03 0.  1.
         12    1    4    4    0    0 -0.21206617667E+02 -0.12366432268E+02  0.37017496922E+01  0.24826442167E+02  0.00000000000E+00 0. -1.
</event>
<event>
 8    1  0.1248739E-006  0.9118800E+02  0.7816164E-02  0.1184000E+00
        -11   -1    0    0    0    0  0.00000000000E+00  0.00000000000E+00  0.45593999997E+02  0.45594000000E+02  0.51100000000E-03 0.  1.
         11   -1    0    0    0    0 -0.00000000000E+00 -0.00000000000E+00 -0.45593999997E+02  0.45594000000E+02  0.51100000000E-03 0. -1.
         23    2    1    2    0    0  0.00000000000E+00  0.00000000000E+00  0.00000000000E+00  0.91188000000E+02  0.91188000000E+02 0.  0.
    9900012    2    3    3    0    0 -0.14695981368E+02  0.98914239355E+01 -0.32279535876E+02  0.54367074262E+02  0.39999977395E+02 0.  0.
        -12    1    3    3    0    0  0.14695981368E+02 -0.98914239355E+01  0.32279535876E+02  0.36820925738E+02  0.00000000000E+00 0.  1.
         11    1    4    4    0    0 -0.18982437654E+02  0.20186052203E+01 -0.35340817944E+02  0.40166915733E+02  0.51100000000E-03 0. -1.
        -11    1    4    4    0    0  0.30053392771E+00  0.80019256340E+00  0.56226214860E+01  0.56872226452E+01  0.51100000000E-03 0.  1.
         12    1    4    4    0    0  0.39859223591E+01  0.70726261518E+01 -0.25613394187E+01  0.85129358833E+01  0.00000000000E+00 0. -1.
</event>
<event>
 8    1  0.1248739E-006  0.9118800E+02  0.7816164E-02  0.1184000E+00
        -11   -1    0    0    0    0  0.00000000000E+00  0.00000000000E+00  0.45593999997E+02  0.45594000000E+02  0.51100000000E-03 0.  1.
         11   -1    0    0    0    0 -0.00000000000E+00 -0.00000000000E+00 -0.45593999997E+02  0.45594000000E+02  0.51100000000E-03 0. -1.
         23    2    1    2    0    0  0.00000000000E+00  0.00000000000E+00  0.35527136788E-14  0.91188000000E+02  0.91188000000E+02 0.  0.
    9900012    2    3    3    0    0  0.10456095645E+02  0.16349300024E+02 -0.31291379044E+02  0.54367082712E+02  0.39999996660E+02 0.  0.
        -12    1    3    3    0    0 -0.10456095645E+02 -0.16349300024E+02  0.31291379044E+02  0.36820917288E+02  0.00000000000E+00 0.  1.
         11    1    4    4    0    0  0.71972430564E+01  0.13537632031E+02 -0.23823544965E+02  0.28330709196E+02  0.51100000000E-03 0. -1.
        -11    1    4    4    0    0  0.65679025174E+01  0.55340936047E+01  0.69165333383E+01  0.11027328289E+02  0.51100000000E-03 0.  1.
        -12    1    4    4    0    0 -0.33090499291E+01 -0.27224256110E+01 -0.14384367418E+02  0.15009045228E+02  0.00000000000E+00 0.  1.
</event>
<event>
 8    1  0.1248739E-006  0.9118800E+02  0.7816164E-02  0.1184000E+00
        -11   -1    0    0    0    0  0.00000000000E+00  0.00000000000E+00  0.45593999997E+02  0.45594000000E+02  0.51100000000E-03 0.  1.
         11   -1    0    0    0    0 -0.00000000000E+00 -0.00000000000E+00 -0.45593999997E+02  0.45594000000E+02  0.51100000000E-03 0. -1.
         23    2    1    2    0    0  0.00000000000E+00  0.35527136788E-14  0.00000000000E+00  0.91188000000E+02  0.91188000000E+02 0.  0.
    9900012    2    3    3    0    0  0.17438528531E+02 -0.18388953668E+02 -0.26711856457E+02  0.54367093307E+02  0.40000020812E+02 0.  0.
        -12    1    3    3    0    0 -0.17438528531E+02  0.18388953668E+02  0.26711856457E+02  0.36820906693E+02  0.00000000000E+00 0.  1.
         11    1    4    4    0    0 -0.42583895023E+00 -0.53948206464E+01 -0.23247569321E+02  0.23869120390E+02  0.51100000000E-03 0. -1.
        -11    1    4    4    0    0  0.69980201252E+01 -0.17073915013E+02 -0.24977078827E+00  0.18454084785E+02  0.51100000000E-03 0.  1.
         12    1    4    4    0    0  0.10866347356E+02  0.40797819922E+01 -0.32145163482E+01  0.12043888131E+02  0.00000000000E+00 0. -1.
</event>
<event>
 8    1  0.1248739E-006  0.9118800E+02  0.7816164E-02  0.1184000E+00
        -11   -1    0    0    0    0  0.00000000000E+00  0.00000000000E+00  0.45593999997E+02  0.45594000000E+02  0.51100000000E-03 0.  1.
         11   -1    0    0    0    0 -0.00000000000E+00 -0.00000000000E+00 -0.45593999997E+02  0.45594000000E+02  0.51100000000E-03 0. -1.
         23    2    1    2    0    0  0.35527136788E-14  0.00000000000E+00  0.00000000000E+00  0.91188000000E+02  0.91188000000E+02 0.  0.
    9900012    2    3    3    0    0  0.24808874348E+02  0.25638014378E+02  0.91100098267E+01  0.54367077867E+02  0.39999985614E+02 0.  0.
        -12    1    3    3    0    0 -0.24808874348E+02 -0.25638014378E+02 -0.91100098267E+01  0.36820922133E+02  0.00000000000E+00 0.  1.
         11    1    4    4    0    0 -0.58361358323E+00 -0.82597688704E+01 -0.45917413814E+01  0.94682879013E+01  0.51100000000E-03 0. -1.
        -11    1    4    4    0    0  0.25302205813E+01  0.25477455463E+01  0.29190831548E+01  0.46275339312E+01  0.51100000000E-03 0.  1.
         12    1    4    4    0    0  0.22862267350E+02  0.31350037702E+02  0.10782668053E+02  0.40271256035E+02  0.00000000000E+00 0. -1.
</event>
<event>
 8    1  0.1248739E-006  0.9118800E+02  0.7816164E-02  0.1184000E+00
        -11   -1    0    0    0    0  0.00000000000E+00  0.00000000000E+00  0.45593999997E+02  0.45594000000E+02  0.51100000000E-03 0. -1.
         11   -1    0    0    0    0 -0.00000000000E+00 -0.00000000000E+00 -0.45593999997E+02  0.45594000000E+02  0.51100000000E-03 0.  1.
         23    2    1    2    0    0 -0.17763568394E-14  0.00000000000E+00  0.00000000000E+00  0.91188000000E+02  0.91188000000E+02 0.  0.
    9900012    2    3    3    0    0  0.11242776596E+02  0.22152242525E+02  0.27178256026E+02  0.54367089160E+02  0.40000011359E+02 0.  0.
        -12    1    3    3    0    0 -0.11242776596E+02 -0.22152242525E+02 -0.27178256026E+02  0.36820910840E+02  0.00000000000E+00 0.  1.
         11    1    4    4    0    0  0.18418896680E+02  0.63461328303E+01  0.20186945275E+02  0.28054267351E+02  0.51100000000E-03 0. -1.
        -11    1    4    4    0    0  0.18751043859E+01  0.32929007921E+01  0.98975424176E+01  0.10598139377E+02  0.51100000000E-03 0.  1.
        -12    1    4    4    0    0 -0.90512244700E+01  0.12513208902E+02 -0.29062316670E+01  0.15714682432E+02  0.00000000000E+00 0.  1.
</event>
<event>
 8    1  0.1248739E-006  0.9118800E+02  0.7816164E-02  0.1184000E+00
        -11   -1    0    0    0    0  0.00000000000E+00  0.00000000000E+00  0.45593999997E+02  0.45594000000E+02  0.51100000000E-03 0.  1.
         11   -1    0    0    0    0 -0.00000000000E+00 -0.00000000000E+00 -0.45593999997E+02  0.45594000000E+02  0.51100000000E-03 0. -1.
         23    2    1    2    0    0 -0.11102230246E-14  0.00000000000E+00  0.00000000000E+00  0.91188000000E+02  0.91188000000E+02 0.  0.
    9900012    2    3    3    0    0 -0.13574832554E+01  0.17771153071E+02 -0.32219926133E+02  0.54367078199E+02  0.39999986370E+02 0.  0.
        -12    1    3    3    0    0  0.13574832554E+01 -0.17771153071E+02  0.32219926133E+02  0.36820921801E+02  0.00000000000E+00 0.  1.
         11    1    4    4    0    0 -0.11527725749E+02  0.26990656130E+01 -0.52986301232E+01  0.12971079276E+02  0.51100000000E-03 0. -1.
        -11    1    4    4    0    0 -0.76303626797E+01  0.18981986659E+01 -0.21138851787E+01  0.81421191105E+01  0.51100000000E-03 0.  1.
        -12    1    4    4    0    0  0.17800605174E+02  0.13173888792E+02 -0.24807410831E+02  0.33253879813E+02  0.00000000000E+00 0.  1.
</event>
<event>
 8    1  0.1248739E-006  0.9118800E+02  0.7816164E-02  0.1184000E+00
        -11   -1    0    0    0    0  0.00000000000E+00  0.00000000000E+00  0.45593999997E+02  0.45594000000E+02  0.51100000000E-03 0. -1.
         11   -1    0    0    0    0 -0.00000000000E+00 -0.00000000000E+00 -0.45593999997E+02  0.45594000000E+02  0.51100000000E-03 0.  1.
         23    2    1    2    0    0  0.17763568394E-14  0.35527136788E-14  0.00000000000E+00  0.91188000000E+02  0.91188000000E+02 0.  0.
    9900012    2    3    3    0    0 -0.84297805757E+01  0.29717865078E+02  0.20039194957E+02  0.54367054332E+02  0.39999931960E+02 0.  0.
        -12    1    3    3    0    0  0.84297805757E+01 -0.29717865078E+02 -0.20039194957E+02  0.36820945668E+02  0.00000000000E+00 0.  1.
         11    1    4    4    0    0  0.48351457564E+01  0.12123241626E+02  0.29781021848E+01  0.13387334122E+02  0.51100000000E-03 0. -1.
        -11    1    4    4    0    0  0.47976202369E+01 -0.79207072663E+00 -0.50573162683E+01  0.70157668200E+01  0.51100000000E-03 0.  1.
         12    1    4    4    0    0 -0.18062546569E+02  0.18386694179E+02  0.22118409041E+02  0.33963953390E+02  0.00000000000E+00 0. -1.
</event>
<event>
 8    1  0.1248739E-006  0.9118800E+02  0.7816164E-02  0.1184000E+00
        -11   -1    0    0    0    0  0.00000000000E+00  0.00000000000E+00  0.45593999997E+02  0.45594000000E+02  0.51100000000E-03 0. -1.
         11   -1    0    0    0    0 -0.00000000000E+00 -0.00000000000E+00 -0.45593999997E+02  0.45594000000E+02  0.51100000000E-03 0.  1.
         23    2    1    2    0    0  0.44408920985E-15  0.00000000000E+00  0.00000000000E+00  0.91188000000E+02  0.91188000000E+02 0.  0.
    9900012    2    3    3    0    0  0.30930352574E+01  0.36556106141E+02 -0.31404576245E+01  0.54367105967E+02  0.40000049673E+02 0.  0.
         12    1    3    3    0    0 -0.30930352574E+01 -0.36556106141E+02  0.31404576245E+01  0.36820894033E+02  0.00000000000E+00 0. -1.
         11    1    4    4    0    0  0.67809435840E+01  0.13294636965E+01 -0.12161310803E+02  0.13987356803E+02  0.51100000000E-03 0. -1.
        -11    1    4    4    0    0  0.27773684104E+01  0.10199434148E+02 -0.41653431831E+01  0.11361879964E+02  0.51100000000E-03 0.  1.
         12    1    4    4    0    0 -0.64652767371E+01  0.25027208297E+02  0.13186196362E+02  0.29017869200E+02  0.00000000000E+00 0. -1.
</event>
<event>
 8    1  0.1248739E-006  0.9118800E+02  0.7816164E-02  0.1184000E+00
        -11   -1    0    0    0    0  0.00000000000E+00  0.00000000000E+00  0.45593999997E+02  0.45594000000E+02  0.51100000000E-03 0.  1.
         11   -1    0    0    0    0 -0.00000000000E+00 -0.00000000000E+00 -0.45593999997E+02  0.45594000000E+02  0.51100000000E-03 0. -1.
         23    2    1    2    0    0  0.00000000000E+00  0.00000000000E+00 -0.17763568394E-14  0.91188000000E+02  0.91188000000E+02 0.  0.
    9900012    2    3    3    0    0  0.24968830337E+02  0.22245139215E+02  0.15411132086E+02  0.54366923166E+02  0.39999632939E+02 0.  0.
         12    1    3    3    0    0 -0.24968830337E+02 -0.22245139215E+02 -0.15411132086E+02  0.36821076834E+02  0.00000000000E+00 0. -1.
         11    1    4    4    0    0  0.22588261200E+01 -0.61888499064E+01  0.17801692943E+01  0.68244532075E+01  0.51100000000E-03 0. -1.
        -11    1    4    4    0    0 -0.25275025196E+01 -0.67569218602E+00 -0.43110460571E+01  0.50428114465E+01  0.51100000000E-03 0.  1.
        -12    1    4    4    0    0  0.25237506736E+02  0.29109681307E+02  0.17942008849E+02  0.42499658512E+02  0.00000000000E+00 0.  1.
</event>
<event>
 8    1  0.1248739E-006  0.9118800E+02  0.7816164E-02  0.1184000E+00
        -11   -1    0    0    0    0  0.00000000000E+00  0.00000000000E+00  0.45593999997E+02  0.45594000000E+02  0.51100000000E-03 0.  1.
         11   -1    0    0    0    0 -0.00000000000E+00 -0.00000000000E+00 -0.45593999997E+02  0.45594000000E+02  0.51100000000E-03 0. -1.
         23    2    1    2    0    0 -0.88817841970E-15 -0.35527136788E-14  0.00000000000E+00  0.91188000000E+02  0.91188000000E+02 0.  0.
    9900012    2    3    3    0    0  0.64958222715E+01 -0.31539956339E+02 -0.17855406173E+02  0.54367080913E+02  0.39999992557E+02 0.  0.
        -12    1    3    3    0    0 -0.64958222715E+01  0.31539956339E+02  0.17855406173E+02  0.36820919087E+02  0.00000000000E+00 0.  1.
         11    1    4    4    0    0 -0.33196242897E+01 -0.24913948780E+02 -0.19201645910E+02  0.31629542443E+02  0.51100000000E-03 0. -1.
        -11    1    4    4    0    0  0.44728980067E+01  0.20342103420E+01 -0.76920126755E+01  0.91275345825E+01  0.51100000000E-03 0.  1.
         12    1    4    4    0    0  0.53425485545E+01 -0.86602179005E+01  0.90382524123E+01  0.13610003887E+02  0.00000000000E+00 0. -1.
</event>
<event>
 8    1  0.1248739E-006  0.9118800E+02  0.7816164E-02  0.1184000E+00
        -11   -1    0    0    0    0  0.00000000000E+00  0.00000000000E+00  0.45593999997E+02  0.45594000000E+02  0.51100000000E-03 0. -1.
         11   -1    0    0    0    0 -0.00000000000E+00 -0.00000000000E+00 -0.45593999997E+02  0.45594000000E+02  0.51100000000E-03 0.  1.
         23    2    1    2    0    0  0.00000000000E+00  0.22204460493E-15  0.00000000000E+00  0.91188000000E+02  0.91188000000E+02 0.  0.
    9900012    2    3    3    0    0 -0.33350366673E+02 -0.66133391397E+00 -0.15591522684E+02  0.54367083399E+02  0.39999998225E+02 0.  0.
         12    1    3    3    0    0  0.33350366673E+02  0.66133391397E+00  0.15591522684E+02  0.36820916601E+02  0.00000000000E+00 0. -1.
         11    1    4    4    0    0  0.67326295244E+01  0.11981800704E+01 -0.26773672977E+00  0.68436553837E+01  0.51100000000E-03 0. -1.
        -11    1    4    4    0    0 -0.25177985881E+02 -0.77211957882E+01 -0.15192692045E+01  0.26379082937E+02  0.51100000000E-03 0.  1.
        -12    1    4    4    0    0 -0.14905010316E+02  0.58616818039E+01 -0.13804516750E+02  0.21144345078E+02  0.00000000000E+00 0.  1.
</event>
<event>
 8    1  0.1248739E-006  0.9118800E+02  0.7816164E-02  0.1184000E+00
        -11   -1    0    0    0    0  0.00000000000E+00  0.00000000000E+00  0.45593999997E+02  0.45594000000E+02  0.51100000000E-03 0. -1.
         11   -1    0    0    0    0 -0.00000000000E+00 -0.00000000000E+00 -0.45593999997E+02  0.45594000000E+02  0.51100000000E-03 0.  1.
         23    2    1    2    0    0  0.35527136788E-14 -0.35527136788E-14  0.35527136788E-14  0.91188000000E+02  0.91188000000E+02 0.  0.
    9900012    2    3    3    0    0  0.16318991819E+02 -0.24074228682E+02  0.22581028381E+02  0.54367070851E+02  0.39999969620E+02 0.  0.
        -12    1    3    3    0    0 -0.16318991819E+02  0.24074228682E+02 -0.22581028381E+02  0.36820929149E+02  0.00000000000E+00 0.  1.
         11    1    4    4    0    0  0.47175499047E+00  0.20737457577E+01  0.59813031482E+01  0.63481463318E+01  0.51100000000E-03 0. -1.
        -11    1    4    4    0    0  0.51478196024E+01  0.64049274553E+01  0.10303763003E+02  0.13179175796E+02  0.51100000000E-03 0.  1.
         12    1    4    4    0    0  0.10699417227E+02 -0.32552901895E+02  0.62959622297E+01  0.34839748724E+02  0.00000000000E+00 0. -1.
</event>
<event>
 8    1  0.1248739E-006  0.9118800E+02  0.7816164E-02  0.1184000E+00
        -11   -1    0    0    0    0  0.00000000000E+00  0.00000000000E+00  0.45593999997E+02  0.45594000000E+02  0.51100000000E-03 0. -1.
         11   -1    0    0    0    0 -0.00000000000E+00 -0.00000000000E+00 -0.45593999997E+02  0.45594000000E+02  0.51100000000E-03 0.  1.
         23    2    1    2    0    0  0.00000000000E+00 -0.35527136788E-14 -0.88817841970E-15  0.91188000000E+02  0.91188000000E+02 0.  0.
    9900012    2    3    3    0    0  0.16997601790E+02 -0.31705712518E+02 -0.78491724675E+01  0.54367079570E+02  0.39999989496E+02 0.  0.
         12    1    3    3    0    0 -0.16997601790E+02  0.31705712518E+02  0.78491724675E+01  0.36820920430E+02  0.00000000000E+00 0. -1.
         11    1    4    4    0    0  0.87173794315E+01 -0.46823137806E+01 -0.57039626055E+01  0.11421556643E+02  0.51100000000E-03 0. -1.
        -11    1    4    4    0    0  0.26892764621E+01 -0.33045650807E+02 -0.62832204618E+01  0.33745015999E+02  0.51100000000E-03 0.  1.
         12    1    4    4    0    0  0.55909458966E+01  0.60222520696E+01  0.41380105999E+01  0.92005069280E+01  0.00000000000E+00 0. -1.
</event>
<event>
 8    1  0.1248739E-006  0.9118800E+02  0.7816164E-02  0.1184000E+00
        -11   -1    0    0    0    0  0.00000000000E+00  0.00000000000E+00  0.45593999997E+02  0.45594000000E+02  0.51100000000E-03 0.  1.
         11   -1    0    0    0    0 -0.00000000000E+00 -0.00000000000E+00 -0.45593999997E+02  0.45594000000E+02  0.51100000000E-03 0. -1.
         23    2    1    2    0    0  0.22204460493E-15  0.00000000000E+00  0.00000000000E+00  0.91188000000E+02  0.91188000000E+02 0.  0.
    9900012    2    3    3    0    0  0.10475365782E+01  0.31460977671E+02  0.19102081538E+02  0.54367082467E+02  0.39999996099E+02 0.  0.
         12    1    3    3    0    0 -0.10475365782E+01 -0.31460977671E+02 -0.19102081538E+02  0.36820917533E+02  0.00000000000E+00 0. -1.
         11    1    4    4    0    0  0.74826631291E+01  0.33949223798E+02  0.15112303976E+02  0.37906751057E+02  0.51100000000E-03 0. -1.
        -11    1    4    4    0    0  0.14487167098E+01 -0.28458762317E+01  0.72494938310E+01  0.79216761294E+01  0.51100000000E-03 0.  1.
         12    1    4    4    0    0 -0.78838432607E+01  0.35763010527E+00 -0.32597162685E+01  0.85386552807E+01  0.00000000000E+00 0. -1.
</event>
<event>
 8    1  0.1248739E-006  0.9118800E+02  0.7816164E-02  0.1184000E+00
        -11   -1    0    0    0    0  0.00000000000E+00  0.00000000000E+00  0.45593999997E+02  0.45594000000E+02  0.51100000000E-03 0.  1.
         11   -1    0    0    0    0 -0.00000000000E+00 -0.00000000000E+00 -0.45593999997E+02  0.45594000000E+02  0.51100000000E-03 0. -1.
         23    2    1    2    0    0  0.00000000000E+00  0.00000000000E+00  0.00000000000E+00  0.91188000000E+02  0.91188000000E+02 0.  0.
    9900012    2    3    3    0    0  0.22314682747E+01  0.27614784072E+02 -0.24253345882E+02  0.54367074747E+02  0.39999978500E+02 0.  0.
        -12    1    3    3    0    0 -0.22314682747E+01 -0.27614784072E+02  0.24253345882E+02  0.36820925253E+02  0.00000000000E+00 0.  1.
         11    1    4    4    0    0 -0.23746035165E+00 -0.27225657178E+00 -0.11298740802E+01  0.11862237385E+01  0.51100000000E-03 0. -1.
        -11    1    4    4    0    0  0.49574754088E+01 -0.37632868303E+01  0.70341947235E+01  0.93924856063E+01  0.51100000000E-03 0.  1.
         12    1    4    4    0    0 -0.24885467825E+01  0.31650327474E+02 -0.30157666525E+02  0.43788365402E+02  0.00000000000E+00 0. -1.
</event>
<event>
 8    1  0.1248739E-006  0.9118800E+02  0.7816164E-02  0.1184000E+00
        -11   -1    0    0    0    0  0.00000000000E+00  0.00000000000E+00  0.45593999997E+02  0.45594000000E+02  0.51100000000E-03 0. -1.
         11   -1    0    0    0    0 -0.00000000000E+00 -0.00000000000E+00 -0.45593999997E+02  0.45594000000E+02  0.51100000000E-03 0.  1.
         23    2    1    2    0    0  0.00000000000E+00  0.66613381478E-15  0.00000000000E+00  0.91188000000E+02  0.91188000000E+02 0.  0.
    9900012    2    3    3    0    0 -0.26144962992E+02 -0.97621703497E+00 -0.25908850399E+02  0.54367073633E+02  0.39999975961E+02 0.  0.
         12    1    3    3    0    0  0.26144962992E+02  0.97621703497E+00  0.25908850399E+02  0.36820926367E+02  0.00000000000E+00 0. -1.
         11    1    4    4    0    0 -0.11044767809E+02  0.48072985904E+01 -0.21288930776E+01  0.12232301570E+02  0.51100000000E-03 0. -1.
        -11    1    4    4    0    0  0.32249775302E+00  0.87144008243E+00 -0.25255722077E+02  0.25272809707E+02  0.51100000000E-03 0.  1.
        -12    1    4    4    0    0 -0.15422692936E+02 -0.66549557078E+01  0.14757647557E+01  0.16861962356E+02  0.00000000000E+00 0.  1.
</event>
<event>
 8    1  0.1248739E-006  0.9118800E+02  0.7816164E-02  0.1184000E+00
        -11   -1    0    0    0    0  0.00000000000E+00  0.00000000000E+00  0.45593999997E+02  0.45594000000E+02  0.51100000000E-03 0. -1.
         11   -1    0    0    0    0 -0.00000000000E+00 -0.00000000000E+00 -0.45593999997E+02  0.45594000000E+02  0.51100000000E-03 0.  1.
         23    2    1    2    0    0 -0.17763568394E-14  0.00000000000E+00  0.00000000000E+00  0.91188000000E+02  0.91188000000E+02 0.  0.
    9900012    2    3    3    0    0  0.15804103200E+02 -0.48479301746E+01 -0.32901501857E+02  0.54367069412E+02  0.39999966338E+02 0.  0.
         12    1    3    3    0    0 -0.15804103200E+02  0.48479301746E+01  0.32901501857E+02  0.36820930588E+02  0.00000000000E+00 0. -1.
         11    1    4    4    0    0 -0.96683855152E+00  0.66924890374E+01  0.14464824885E+01  0.69149474439E+01  0.51100000000E-03 0. -1.
        -11    1    4    4    0    0  0.19871467213E+02 -0.12129049423E+01 -0.13727316300E+02  0.24182339851E+02  0.51100000000E-03 0.  1.
        -12    1    4    4    0    0 -0.31005254620E+01 -0.10327514270E+02 -0.20620668045E+02  0.23269782117E+02  0.00000000000E+00 0.  1.
</event>
<event>
 8    1  0.1248739E-006  0.9118800E+02  0.7816164E-02  0.1184000E+00
        -11   -1    0    0    0    0  0.00000000000E+00  0.00000000000E+00  0.45593999997E+02  0.45594000000E+02  0.51100000000E-03 0. -1.
         11   -1    0    0    0    0 -0.00000000000E+00 -0.00000000000E+00 -0.45593999997E+02  0.45594000000E+02  0.51100000000E-03 0.  1.
         23    2    1    2    0    0  0.00000000000E+00  0.00000000000E+00  0.00000000000E+00  0.91188000000E+02  0.91188000000E+02 0.  0.
    9900012    2    3    3    0    0  0.31329948471E+02  0.16516462286E+02 -0.10070824036E+02  0.54367072602E+02  0.39999973611E+02 0.  0.
         12    1    3    3    0    0 -0.31329948471E+02 -0.16516462286E+02  0.10070824036E+02  0.36820927398E+02  0.00000000000E+00 0. -1.
         11    1    4    4    0    0  0.31415516114E+01 -0.10112967416E+01  0.82703362588E+01  0.89045229924E+01  0.51100000000E-03 0. -1.
        -11    1    4    4    0    0  0.25425497560E+02  0.38186772145E+01 -0.51159236870E+01  0.26214707652E+02  0.51100000000E-03 0.  1.
         12    1    4    4    0    0  0.27628993001E+01  0.13709081813E+02 -0.13225236608E+02  0.19247841958E+02  0.00000000000E+00 0. -1.
</event>
<event>
 8    1  0.1248739E-006  0.9118800E+02  0.7816164E-02  0.1184000E+00
        -11   -1    0    0    0    0  0.00000000000E+00  0.00000000000E+00  0.45593999997E+02  0.45594000000E+02  0.51100000000E-03 0. -1.
         11   -1    0    0    0    0 -0.00000000000E+00 -0.00000000000E+00 -0.45593999997E+02  0.45594000000E+02  0.51100000000E-03 0.  1.
         23    2    1    2    0    0  0.00000000000E+00  0.35527136788E-14  0.00000000000E+00  0.91188000000E+02  0.91188000000E+02 0.  0.
    9900012    2    3    3    0    0  0.25967192748E+02  0.22399311769E+02  0.13407301124E+02  0.54367082163E+02  0.39999995407E+02 0.  0.
        -12    1    3    3    0    0 -0.25967192748E+02 -0.22399311769E+02 -0.13407301124E+02  0.36820917837E+02  0.00000000000E+00 0.  1.
         11    1    4    4    0    0  0.29587661060E+02  0.23689633553E+02  0.19880118524E+02  0.42800088057E+02  0.51100000000E-03 0. -1.
        -11    1    4    4    0    0 -0.47419270006E+01 -0.25871044832E+01 -0.58347217743E+00  0.54331778297E+01  0.51100000000E-03 0.  1.
         12    1    4    4    0    0  0.11214586877E+01  0.12967827002E+01 -0.58893452228E+01  0.61338162764E+01  0.00000000000E+00 0. -1.
</event>
<event>
 8    1  0.1248739E-006  0.9118800E+02  0.7816164E-02  0.1184000E+00
        -11   -1    0    0    0    0  0.00000000000E+00  0.00000000000E+00  0.45593999997E+02  0.45594000000E+02  0.51100000000E-03 0. -1.
         11   -1    0    0    0    0 -0.00000000000E+00 -0.00000000000E+00 -0.45593999997E+02  0.45594000000E+02  0.51100000000E-03 0.  1.
         23    2    1    2    0    0  0.00000000000E+00 -0.35527136788E-14  0.00000000000E+00  0.91188000000E+02  0.91188000000E+02 0.  0.
    9900012    2    3    3    0    0 -0.18608277156E+02  0.23986573862E+02  0.20836456416E+02  0.54367060029E+02  0.39999944948E+02 0.  0.
         12    1    3    3    0    0  0.18608277156E+02 -0.23986573862E+02 -0.20836456416E+02  0.36820939971E+02  0.00000000000E+00 0. -1.
         11    1    4    4    0    0 -0.72273818998E+01  0.17279210346E+02 -0.22937363923E+01  0.18869747911E+02  0.51100000000E-03 0. -1.
        -11    1    4    4    0    0  0.14594845177E+01  0.64551516920E+01 -0.23014472660E+01  0.70068351060E+01  0.51100000000E-03 0.  1.
         12    1    4    4    0    0 -0.12840379774E+02  0.25221182426E+00  0.25431640074E+02  0.28490477013E+02  0.00000000000E+00 0. -1.
</event>
<event>
 8    1  0.1248739E-006  0.9118800E+02  0.7816164E-02  0.1184000E+00
        -11   -1    0    0    0    0  0.00000000000E+00  0.00000000000E+00  0.45593999997E+02  0.45594000000E+02  0.51100000000E-03 0. -1.
         11   -1    0    0    0    0 -0.00000000000E+00 -0.00000000000E+00 -0.45593999997E+02  0.45594000000E+02  0.51100000000E-03 0.  1.
         23    2    1    2    0    0  0.00000000000E+00 -0.17763568394E-14  0.00000000000E+00  0.91188000000E+02  0.91188000000E+02 0.  0.
    9900012    2    3    3    0    0  0.28524995910E+02  0.14946735279E+02  0.17852164177E+02  0.54367081313E+02  0.39999993468E+02 0.  0.
        -12    1    3    3    0    0 -0.28524995910E+02 -0.14946735279E+02 -0.17852164177E+02  0.36820918687E+02  0.00000000000E+00 0.  1.
         11    1    4    4    0    0  0.20009138620E+02  0.30704747065E+01  0.94318618369E+01  0.22332788926E+02  0.51100000000E-03 0. -1.
        -11    1    4    4    0    0  0.11970340705E+02  0.17347141448E+02  0.12385084623E+02  0.24445913655E+02  0.51100000000E-03 0.  1.
        -12    1    4    4    0    0 -0.34544834146E+01 -0.54708808764E+01 -0.39647822833E+01  0.75883787320E+01  0.00000000000E+00 0.  1.
</event>
<event>
 8    1  0.1248739E-006  0.9118800E+02  0.7816164E-02  0.1184000E+00
        -11   -1    0    0    0    0  0.00000000000E+00  0.00000000000E+00  0.45593999997E+02  0.45594000000E+02  0.51100000000E-03 0.  1.
         11   -1    0    0    0    0 -0.00000000000E+00 -0.00000000000E+00 -0.45593999997E+02  0.45594000000E+02  0.51100000000E-03 0. -1.
         23    2    1    2    0    0  0.00000000000E+00  0.00000000000E+00  0.17763568394E-14  0.91188000000E+02  0.91188000000E+02 0.  0.
    9900012    2    3    3    0    0  0.10819518178E+02  0.31437216966E+02  0.15824629980E+02  0.54367088847E+02  0.40000010644E+02 0.  0.
         12    1    3    3    0    0 -0.10819518178E+02 -0.31437216966E+02 -0.15824629980E+02  0.36820911153E+02  0.00000000000E+00 0. -1.
         11    1    4    4    0    0 -0.79431550925E+01  0.14354674700E+02  0.89183488173E+01  0.18673171783E+02  0.51100000000E-03 0.  1.
        -11    1    4    4    0    0  0.47188965995E+01  0.19388797327E+02  0.18719166428E+00  0.19955663053E+02  0.51100000000E-03 0. -1.
         12    1    4    4    0    0  0.14043776671E+02 -0.23062550615E+01  0.67190894983E+01  0.15738254010E+02  0.00000000000E+00 0. -1.
</event>
<event>
 8    1  0.1248739E-006  0.9118800E+02  0.7816164E-02  0.1184000E+00
        -11   -1    0    0    0    0  0.00000000000E+00  0.00000000000E+00  0.45593999997E+02  0.45594000000E+02  0.51100000000E-03 0. -1.
         11   -1    0    0    0    0 -0.00000000000E+00 -0.00000000000E+00 -0.45593999997E+02  0.45594000000E+02  0.51100000000E-03 0.  1.
         23    2    1    2    0    0  0.17763568394E-14 -0.17763568394E-14 -0.71054273576E-14  0.91188000000E+02  0.91188000000E+02 0.  0.
    9900012    2    3    3    0    0  0.95133823322E+01 -0.58399998566E+01 -0.35088029335E+02  0.54367084146E+02  0.39999999927E+02 0.  0.
         12    1    3    3    0    0 -0.95133823322E+01  0.58399998566E+01  0.35088029335E+02  0.36820915854E+02  0.00000000000E+00 0. -1.
         11    1    4    4    0    0 -0.41772831710E+01 -0.70436507372E+01 -0.15324460265E+02  0.17375321380E+02  0.51100000000E-03 0.  1.
        -11    1    4    4    0    0  0.40883963741E+01 -0.13172611429E+02 -0.67659080636E+01  0.15362623114E+02  0.51100000000E-03 0. -1.
        -12    1    4    4    0    0  0.96022691291E+01  0.14376262309E+02 -0.12997661007E+02  0.21629139651E+02  0.00000000000E+00 0.  1.
</event>
<event>
 8    1  0.1248739E-006  0.9118800E+02  0.7816164E-02  0.1184000E+00
        -11   -1    0    0    0    0  0.00000000000E+00  0.00000000000E+00  0.45593999997E+02  0.45594000000E+02  0.51100000000E-03 0. -1.
         11   -1    0    0    0    0 -0.00000000000E+00 -0.00000000000E+00 -0.45593999997E+02  0.45594000000E+02  0.51100000000E-03 0.  1.
         23    2    1    2    0    0  0.00000000000E+00  0.00000000000E+00  0.17763568394E-14  0.91188000000E+02  0.91188000000E+02 0.  0.
    9900012    2    3    3    0    0  0.17333607299E+02 -0.29067781018E+02  0.14504821152E+02  0.54367086486E+02  0.40000005262E+02 0.  0.
        -12    1    3    3    0    0 -0.17333607299E+02  0.29067781018E+02 -0.14504821152E+02  0.36820913514E+02  0.00000000000E+00 0.  1.
         11    1    4    4    0    0  0.10963049258E+02 -0.30046826863E+02  0.55386429929E+01  0.32460388476E+02  0.51100000000E-03 0. -1.
        -11    1    4    4    0    0  0.99497524449E+01 -0.29164484380E+01 -0.12088653308E+01  0.10438611060E+02  0.51100000000E-03 0.  1.
         12    1    4    4    0    0 -0.35791944033E+01  0.38954942822E+01  0.10175043490E+02  0.11468086951E+02  0.00000000000E+00 0. -1.
</event>
<event>
 8    1  0.1248739E-006  0.9118800E+02  0.7816164E-02  0.1184000E+00
        -11   -1    0    0    0    0  0.00000000000E+00  0.00000000000E+00  0.45593999997E+02  0.45594000000E+02  0.51100000000E-03 0.  1.
         11   -1    0    0    0    0 -0.00000000000E+00 -0.00000000000E+00 -0.45593999997E+02  0.45594000000E+02  0.51100000000E-03 0. -1.
         23    2    1    2    0    0  0.00000000000E+00  0.00000000000E+00  0.00000000000E+00  0.91188000000E+02  0.91188000000E+02 0.  0.
    9900012    2    3    3    0    0  0.15420182785E+02  0.23308555623E+02 -0.23973082995E+02  0.54367088678E+02  0.40000010258E+02 0.  0.
        -12    1    3    3    0    0 -0.15420182785E+02 -0.23308555623E+02  0.23973082995E+02  0.36820911322E+02  0.00000000000E+00 0.  1.
         11    1    4    4    0    0 -0.65932283835E+01  0.13245868192E+00 -0.87967619244E+01  0.10994145098E+02  0.51100000000E-03 0. -1.
        -11    1    4    4    0    0 -0.51967839138E+01  0.57334544124E+00 -0.25157005570E+01  0.58020718364E+01  0.51100000000E-03 0.  1.
         12    1    4    4    0    0  0.27210195082E+02  0.22602751500E+02 -0.12660620513E+02  0.37570871743E+02  0.00000000000E+00 0. -1.
</event>
<event>
 8    1  0.1248739E-006  0.9118800E+02  0.7816164E-02  0.1184000E+00
        -11   -1    0    0    0    0  0.00000000000E+00  0.00000000000E+00  0.45593999997E+02  0.45594000000E+02  0.51100000000E-03 0. -1.
         11   -1    0    0    0    0 -0.00000000000E+00 -0.00000000000E+00 -0.45593999997E+02  0.45594000000E+02  0.51100000000E-03 0.  1.
         23    2    1    2    0    0 -0.35527136788E-14  0.17763568394E-14  0.00000000000E+00  0.91188000000E+02  0.91188000000E+02 0.  0.
    9900012    2    3    3    0    0  0.26344848842E+02 -0.48450876990E+01 -0.25263627305E+02  0.54367125487E+02  0.40000094172E+02 0.  0.
         12    1    3    3    0    0 -0.26344848842E+02  0.48450876990E+01  0.25263627305E+02  0.36820874513E+02  0.00000000000E+00 0. -1.
         11    1    4    4    0    0  0.29130859875E+02  0.29379335429E+01 -0.71450122439E+01  0.30137844162E+02  0.51100000000E-03 0. -1.
        -11    1    4    4    0    0  0.47920615533E-01  0.30501538021E+01 -0.14635787007E+00  0.30540392088E+01  0.51100000000E-03 0.  1.
        -12    1    4    4    0    0 -0.28339316479E+01 -0.10833175044E+02 -0.17972257191E+02  0.21175242115E+02  0.00000000000E+00 0.  1.
</event>
<event>
 8    1  0.1248739E-006  0.9118800E+02  0.7816164E-02  0.1184000E+00
        -11   -1    0    0    0    0  0.00000000000E+00  0.00000000000E+00  0.45593999997E+02  0.45594000000E+02  0.51100000000E-03 0. -1.
         11   -1    0    0    0    0 -0.00000000000E+00 -0.00000000000E+00 -0.45593999997E+02  0.45594000000E+02  0.51100000000E-03 0.  1.
         23    2    1    2    0    0 -0.17763568394E-14  0.88817841970E-15  0.00000000000E+00  0.91188000000E+02  0.91188000000E+02 0.  0.
    9900012    2    3    3    0    0  0.13523024190E+02 -0.46224819034E+01  0.33934337671E+02  0.54367098391E+02  0.40000032401E+02 0.  0.
        -12    1    3    3    0    0 -0.13523024190E+02  0.46224819034E+01 -0.33934337671E+02  0.36820901609E+02  0.00000000000E+00 0.  1.
         11    1    4    4    0    0 -0.25460530894E+01  0.11529077415E+01  0.32449930008E+02  0.32570071237E+02  0.51100000000E-03 0. -1.
        -11    1    4    4    0    0  0.14034707173E+02 -0.57941391591E+01 -0.42046585779E+01  0.15755132752E+02  0.51100000000E-03 0.  1.
        -12    1    4    4    0    0  0.20343701065E+01  0.18749514208E-01  0.56890662404E+01  0.60418944018E+01  0.00000000000E+00 0.  1.
</event>
<event>
 8    1  0.1248739E-006  0.9118800E+02  0.7816164E-02  0.1184000E+00
        -11   -1    0    0    0    0  0.00000000000E+00  0.00000000000E+00  0.45593999997E+02  0.45594000000E+02  0.51100000000E-03 0. -1.
         11   -1    0    0    0    0 -0.00000000000E+00 -0.00000000000E+00 -0.45593999997E+02  0.45594000000E+02  0.51100000000E-03 0.  1.
         23    2    1    2    0    0  0.44408920985E-15 -0.35527136788E-14  0.00000000000E+00  0.91188000000E+02  0.91188000000E+02 0.  0.
    9900012    2    3    3    0    0 -0.31261490054E+01  0.28448551935E+02  0.23166507259E+02  0.54367082394E+02  0.39999995934E+02 0.  0.
        -12    1    3    3    0    0  0.31261490054E+01 -0.28448551935E+02 -0.23166507259E+02  0.36820917606E+02  0.00000000000E+00 0.  1.
         11    1    4    4    0    0  0.59519282411E+01  0.10407898934E+02  0.94836019229E+01  0.15286873968E+02  0.51100000000E-03 0.  1.
        -11    1    4    4    0    0  0.50976600636E+01  0.10492218743E+02  0.18886112786E+02  0.22198154174E+02  0.51100000000E-03 0. -1.
        -12    1    4    4    0    0 -0.14175737310E+02  0.75484342576E+01 -0.52032074504E+01  0.16882054253E+02  0.00000000000E+00 0.  1.
</event>
<event>
 8    1  0.1248739E-006  0.9118800E+02  0.7816164E-02  0.1184000E+00
        -11   -1    0    0    0    0  0.00000000000E+00  0.00000000000E+00  0.45593999997E+02  0.45594000000E+02  0.51100000000E-03 0. -1.
         11   -1    0    0    0    0 -0.00000000000E+00 -0.00000000000E+00 -0.45593999997E+02  0.45594000000E+02  0.51100000000E-03 0.  1.
         23    2    1    2    0    0  0.88817841970E-15  0.71054273576E-14  0.88817841970E-15  0.91188000000E+02  0.91188000000E+02 0.  0.
    9900012    2    3    3    0    0 -0.20727062392E+01 -0.35899525935E+02  0.79187939826E+01  0.54367090565E+02  0.40000014560E+02 0.  0.
        -12    1    3    3    0    0  0.20727062392E+01  0.35899525935E+02 -0.79187939826E+01  0.36820909435E+02  0.00000000000E+00 0.  1.
         11    1    4    4    0    0  0.15701006877E+02 -0.11333312866E+02  0.18156687950E+01  0.19448965291E+02  0.51100000000E-03 0. -1.
        -11    1    4    4    0    0 -0.23616331172E+01 -0.87527985967E+01  0.88464012297E+01  0.12666791592E+02  0.51100000000E-03 0.  1.
        -12    1    4    4    0    0 -0.15412079999E+02 -0.15813414472E+02 -0.27432760421E+01  0.22251333682E+02  0.00000000000E+00 0.  1.
</event>
<event>
 8    1  0.1248739E-006  0.9118800E+02  0.7816164E-02  0.1184000E+00
        -11   -1    0    0    0    0  0.00000000000E+00  0.00000000000E+00  0.45593999997E+02  0.45594000000E+02  0.51100000000E-03 0.  1.
         11   -1    0    0    0    0 -0.00000000000E+00 -0.00000000000E+00 -0.45593999997E+02  0.45594000000E+02  0.51100000000E-03 0. -1.
         23    2    1    2    0    0 -0.17763568394E-14  0.00000000000E+00 -0.88817841970E-15  0.91188000000E+02  0.91188000000E+02 0.  0.
    9900012    2    3    3    0    0 -0.13996082633E+02  0.33708475680E+02 -0.48612101073E+01  0.54367040949E+02  0.39999901451E+02 0.  0.
         12    1    3    3    0    0  0.13996082633E+02 -0.33708475680E+02  0.48612101073E+01  0.36820959051E+02  0.00000000000E+00 0. -1.
         11    1    4    4    0    0 -0.15733388990E+02  0.18637420795E+01  0.52005982415E+01  0.16675109774E+02  0.51100000000E-03 0. -1.
        -11    1    4    4    0    0  0.47790934543E-01  0.16216827350E+02  0.38871235465E+01  0.16676255664E+02  0.51100000000E-03 0.  1.
         12    1    4    4    0    0  0.16895154221E+01  0.15627906251E+02 -0.13948931895E+02  0.21015675510E+02  0.00000000000E+00 0. -1.
</event>
<event>
 8    1  0.1248739E-006  0.9118800E+02  0.7816164E-02  0.1184000E+00
        -11   -1    0    0    0    0  0.00000000000E+00  0.00000000000E+00  0.45593999997E+02  0.45594000000E+02  0.51100000000E-03 0.  1.
         11   -1    0    0    0    0 -0.00000000000E+00 -0.00000000000E+00 -0.45593999997E+02  0.45594000000E+02  0.51100000000E-03 0. -1.
         23    2    1    2    0    0 -0.17763568394E-14  0.00000000000E+00  0.17763568394E-14  0.91188000000E+02  0.91188000000E+02 0.  0.
    9900012    2    3    3    0    0  0.10957256355E+02 -0.32808239544E+02  0.12622927233E+02  0.54367077405E+02  0.39999984559E+02 0.  0.
         12    1    3    3    0    0 -0.10957256355E+02  0.32808239544E+02 -0.12622927233E+02  0.36820922595E+02  0.00000000000E+00 0. -1.
         11    1    4    4    0    0 -0.38341010990E+01 -0.20183447556E+02  0.14336658111E+02  0.25052178598E+02  0.51100000000E-03 0. -1.
        -11    1    4    4    0    0  0.12790488657E+02 -0.11160567160E+02  0.83730696534E+01  0.18927840741E+02  0.51100000000E-03 0.  1.
         12    1    4    4    0    0  0.20008687971E+01 -0.14642248286E+01 -0.10086800531E+02  0.10387058065E+02  0.00000000000E+00 0. -1.
</event>
<event>
 8    1  0.1248739E-006  0.9118800E+02  0.7816164E-02  0.1184000E+00
        -11   -1    0    0    0    0  0.00000000000E+00  0.00000000000E+00  0.45593999997E+02  0.45594000000E+02  0.51100000000E-03 0. -1.
         11   -1    0    0    0    0 -0.00000000000E+00 -0.00000000000E+00 -0.45593999997E+02  0.45594000000E+02  0.51100000000E-03 0.  1.
         23    2    1    2    0    0  0.00000000000E+00  0.00000000000E+00  0.00000000000E+00  0.91188000000E+02  0.91188000000E+02 0.  0.
    9900012    2    3    3    0    0  0.45217245361E+01 -0.29239312118E+02  0.21917934284E+02  0.54367092771E+02  0.40000019590E+02 0.  0.
        -12    1    3    3    0    0 -0.45217245361E+01  0.29239312118E+02 -0.21917934284E+02  0.36820907229E+02  0.00000000000E+00 0.  1.
         11    1    4    4    0    0 -0.25116227381E+01 -0.19450664314E+02  0.87190210626E+01  0.21462942939E+02  0.51100000000E-03 0. -1.
        -11    1    4    4    0    0  0.45885301006E+01 -0.16454071332E+02 -0.91372733131E+00  0.17106313740E+02  0.51100000000E-03 0.  1.
        -12    1    4    4    0    0  0.24448171737E+01  0.66654235283E+01  0.14112640552E+02  0.15797836092E+02  0.00000000000E+00 0.  1.
</event>
<event>
 8    1  0.1248739E-006  0.9118800E+02  0.7816164E-02  0.1184000E+00
        -11   -1    0    0    0    0  0.00000000000E+00  0.00000000000E+00  0.45593999997E+02  0.45594000000E+02  0.51100000000E-03 0.  1.
         11   -1    0    0    0    0 -0.00000000000E+00 -0.00000000000E+00 -0.45593999997E+02  0.45594000000E+02  0.51100000000E-03 0. -1.
         23    2    1    2    0    0  0.00000000000E+00 -0.17763568394E-14  0.00000000000E+00  0.91188000000E+02  0.91188000000E+02 0.  0.
    9900012    2    3    3    0    0  0.24949888001E+02 -0.15263763221E+02  0.22367387892E+02  0.54367089907E+02  0.40000013062E+02 0.  0.
         12    1    3    3    0    0 -0.24949888001E+02  0.15263763221E+02 -0.22367387892E+02  0.36820910093E+02  0.00000000000E+00 0. -1.
         11    1    4    4    0    0  0.75702934454E+01  0.46952936692E+01  0.46006672477E+01  0.10026029367E+02  0.51100000000E-03 0. -1.
        -11    1    4    4    0    0  0.17327657099E+02  0.14550516492E+00  0.16919552150E+02  0.24218590329E+02  0.51100000000E-03 0.  1.
         12    1    4    4    0    0  0.51937455808E-01 -0.20104562056E+02  0.84716849493E+00  0.20122470211E+02  0.00000000000E+00 0. -1.
</event>
<event>
 8    1  0.1248739E-006  0.9118800E+02  0.7816164E-02  0.1184000E+00
        -11   -1    0    0    0    0  0.00000000000E+00  0.00000000000E+00  0.45593999997E+02  0.45594000000E+02  0.51100000000E-03 0. -1.
         11   -1    0    0    0    0 -0.00000000000E+00 -0.00000000000E+00 -0.45593999997E+02  0.45594000000E+02  0.51100000000E-03 0.  1.
         23    2    1    2    0    0  0.35527136788E-14  0.00000000000E+00 -0.35527136788E-14  0.91188000000E+02  0.91188000000E+02 0.  0.
    9900012    2    3    3    0    0 -0.20200738335E+02  0.14222042293E+02  0.27302824061E+02  0.54367074999E+02  0.39999979074E+02 0.  0.
        -12    1    3    3    0    0  0.20200738335E+02 -0.14222042293E+02 -0.27302824061E+02  0.36820925001E+02  0.00000000000E+00 0.  1.
         11    1    4    4    0    0 -0.39620008130E+01  0.10938586034E+02  0.17399644138E+01  0.11763400498E+02  0.51100000000E-03 0. -1.
        -11    1    4    4    0    0 -0.59267189993E+01 -0.74870185182E+01  0.25987731437E+02  0.27686524338E+02  0.51100000000E-03 0.  1.
        -12    1    4    4    0    0 -0.10312018522E+02  0.10770474777E+02 -0.42487178991E+00  0.14917150163E+02  0.00000000000E+00 0.  1.
</event>
<event>
 8    1  0.1248739E-006  0.9118800E+02  0.7816164E-02  0.1184000E+00
        -11   -1    0    0    0    0  0.00000000000E+00  0.00000000000E+00  0.45593999997E+02  0.45594000000E+02  0.51100000000E-03 0.  1.
         11   -1    0    0    0    0 -0.00000000000E+00 -0.00000000000E+00 -0.45593999997E+02  0.45594000000E+02  0.51100000000E-03 0. -1.
         23    2    1    2    0    0 -0.17763568394E-14 -0.17763568394E-14  0.00000000000E+00  0.91188000000E+02  0.91188000000E+02 0.  0.
    9900012    2    3    3    0    0  0.90609294463E+00  0.15177151045E+02  0.33535090988E+02  0.54367228065E+02  0.40000328020E+02 0.  0.
         12    1    3    3    0    0 -0.90609294463E+00 -0.15177151045E+02 -0.33535090988E+02  0.36820771935E+02  0.00000000000E+00 0. -1.
         11    1    4    4    0    0 -0.12620472979E+02  0.25398356584E+01  0.26032133535E+02  0.29041333992E+02  0.51100000000E-03 0. -1.
        -11    1    4    4    0    0 -0.72279385576E+00  0.84323231688E+01  0.60393306054E+01  0.10397115918E+02  0.51100000000E-03 0.  1.
         12    1    4    4    0    0  0.14249359779E+02  0.42049922183E+01  0.14636268472E+01  0.14928778156E+02  0.00000000000E+00 0. -1.
</event>
<event>
 8    1  0.1248739E-006  0.9118800E+02  0.7816164E-02  0.1184000E+00
        -11   -1    0    0    0    0  0.00000000000E+00  0.00000000000E+00  0.45593999997E+02  0.45594000000E+02  0.51100000000E-03 0. -1.
         11   -1    0    0    0    0 -0.00000000000E+00 -0.00000000000E+00 -0.45593999997E+02  0.45594000000E+02  0.51100000000E-03 0.  1.
         23    2    1    2    0    0  0.00000000000E+00  0.00000000000E+00  0.88817841970E-15  0.91188000000E+02  0.91188000000E+02 0.  0.
    9900012    2    3    3    0    0 -0.49530055829E+01  0.35855365888E+02  0.67557392256E+01  0.54367088282E+02  0.40000009355E+02 0.  0.
        -12    1    3    3    0    0  0.49530055829E+01 -0.35855365888E+02 -0.67557392256E+01  0.36820911718E+02  0.00000000000E+00 0.  1.
         11    1    4    4    0    0 -0.67723650362E+01  0.10424967722E+02 -0.11092400201E+02  0.16660919022E+02  0.51100000000E-03 0. -1.
        -11    1    4    4    0    0  0.28059488170E+01 -0.31718349549E+01  0.56301109386E+00  0.42721034044E+01  0.51100000000E-03 0.  1.
         12    1    4    4    0    0 -0.98658936372E+00  0.28602233122E+02  0.17285128333E+02  0.33434065855E+02  0.00000000000E+00 0. -1.
</event>
<event>
 8    1  0.1248739E-006  0.9118800E+02  0.7816164E-02  0.1184000E+00
        -11   -1    0    0    0    0  0.00000000000E+00  0.00000000000E+00  0.45593999997E+02  0.45594000000E+02  0.51100000000E-03 0. -1.
         11   -1    0    0    0    0 -0.00000000000E+00 -0.00000000000E+00 -0.45593999997E+02  0.45594000000E+02  0.51100000000E-03 0.  1.
         23    2    1    2    0    0  0.00000000000E+00 -0.35527136788E-14  0.35527136788E-14  0.91188000000E+02  0.91188000000E+02 0.  0.
    9900012    2    3    3    0    0 -0.90333590430E+01  0.21426899397E+02 -0.28549382466E+02  0.54367070727E+02  0.39999969335E+02 0.  0.
         12    1    3    3    0    0  0.90333590430E+01 -0.21426899397E+02  0.28549382466E+02  0.36820929273E+02  0.00000000000E+00 0. -1.
         11    1    4    4    0    0  0.12299341492E+02 -0.81078063928E+00 -0.51208375088E+01  0.13347439584E+02  0.51100000000E-03 0. -1.
        -11    1    4    4    0    0  0.67253438974E+00 -0.49372442249E+00 -0.35691058432E+01  0.36653216901E+01  0.51100000000E-03 0.  1.
        -12    1    4    4    0    0 -0.22005234925E+02  0.22731404459E+02 -0.19859439114E+02  0.37354309453E+02  0.00000000000E+00 0.  1.
</event>
<event>
 8    1  0.1248739E-006  0.9118800E+02  0.7816164E-02  0.1184000E+00
        -11   -1    0    0    0    0  0.00000000000E+00  0.00000000000E+00  0.45593999997E+02  0.45594000000E+02  0.51100000000E-03 0.  1.
         11   -1    0    0    0    0 -0.00000000000E+00 -0.00000000000E+00 -0.45593999997E+02  0.45594000000E+02  0.51100000000E-03 0. -1.
         23    2    1    2    0    0 -0.17763568394E-14  0.10658141036E-13  0.71054273576E-14  0.91188000000E+02  0.91188000000E+02 0.  0.
    9900012    2    3    3    0    0 -0.95591105180E+01  0.20415965841E+02  0.29113402271E+02  0.54367103122E+02  0.40000043188E+02 0.  0.
         12    1    3    3    0    0  0.95591105180E+01 -0.20415965841E+02 -0.29113402271E+02  0.36820896878E+02  0.00000000000E+00 0. -1.
         11    1    4    4    0    0 -0.16388595864E+02 -0.54224654557E+01  0.10857525693E+02  0.20393015237E+02  0.51100000000E-03 0. -1.
        -11    1    4    4    0    0 -0.27213198321E+01  0.49362191857E+01  0.29420133920E+01  0.63582453978E+01  0.51100000000E-03 0.  1.
        -12    1    4    4    0    0  0.95508051779E+01  0.20902212110E+02  0.15313863186E+02  0.27615842488E+02  0.00000000000E+00 0.  1.
</event>
<event>
 8    1  0.1248739E-006  0.9118800E+02  0.7816164E-02  0.1184000E+00
        -11   -1    0    0    0    0  0.00000000000E+00  0.00000000000E+00  0.45593999997E+02  0.45594000000E+02  0.51100000000E-03 0.  1.
         11   -1    0    0    0    0 -0.00000000000E+00 -0.00000000000E+00 -0.45593999997E+02  0.45594000000E+02  0.51100000000E-03 0. -1.
         23    2    1    2    0    0  0.35527136788E-14  0.00000000000E+00  0.88817841970E-15  0.91188000000E+02  0.91188000000E+02 0.  0.
    9900012    2    3    3    0    0  0.28358393546E+02 -0.23351153809E+02 -0.25115037304E+01  0.54367047817E+02  0.39999917107E+02 0.  0.
         12    1    3    3    0    0 -0.28358393546E+02  0.23351153809E+02  0.25115037304E+01  0.36820952183E+02  0.00000000000E+00 0. -1.
         11    1    4    4    0    0  0.66596901784E+00  0.44653142629E+01 -0.92418204967E+01  0.10285610947E+02  0.51100000000E-03 0. -1.
        -11    1    4    4    0    0  0.12614863696E+02 -0.49635067823E+01  0.95140145309E+01  0.16561632118E+02  0.51100000000E-03 0.  1.
         12    1    4    4    0    0  0.15077560832E+02 -0.22852961289E+02 -0.27836977646E+01  0.27519804752E+02  0.00000000000E+00 0. -1.
</event>
<event>
 8    1  0.1248739E-006  0.9118800E+02  0.7816164E-02  0.1184000E+00
        -11   -1    0    0    0    0  0.00000000000E+00  0.00000000000E+00  0.45593999997E+02  0.45594000000E+02  0.51100000000E-03 0. -1.
         11   -1    0    0    0    0 -0.00000000000E+00 -0.00000000000E+00 -0.45593999997E+02  0.45594000000E+02  0.51100000000E-03 0.  1.
         23    2    1    2    0    0 -0.77715611724E-15 -0.35527136788E-14  0.00000000000E+00  0.91188000000E+02  0.91188000000E+02 0.  0.
    9900012    2    3    3    0    0  0.86188416220E+00  0.16965356984E+02  0.32668270167E+02  0.54367054091E+02  0.39999931412E+02 0.  0.
        -12    1    3    3    0    0 -0.86188416220E+00 -0.16965356984E+02 -0.32668270167E+02  0.36820945909E+02  0.00000000000E+00 0.  1.
         11    1    4    4    0    0  0.34933721269E+01  0.24331555860E+02  0.13601814689E+02  0.28093373284E+02  0.51100000000E-03 0. -1.
        -11    1    4    4    0    0 -0.35240531874E+01 -0.12331537295E+02  0.15378013071E+02  0.20024211575E+02  0.51100000000E-03 0.  1.
        -12    1    4    4    0    0  0.89256522268E+00  0.49653384193E+01  0.36884424072E+01  0.62494692323E+01  0.00000000000E+00 0.  1.
</event>
<event>
 8    1  0.1248739E-006  0.9118800E+02  0.7816164E-02  0.1184000E+00
        -11   -1    0    0    0    0  0.00000000000E+00  0.00000000000E+00  0.45593999997E+02  0.45594000000E+02  0.51100000000E-03 0.  1.
         11   -1    0    0    0    0 -0.00000000000E+00 -0.00000000000E+00 -0.45593999997E+02  0.45594000000E+02  0.51100000000E-03 0. -1.
         23    2    1    2    0    0  0.00000000000E+00  0.00000000000E+00  0.00000000000E+00  0.91188000000E+02  0.91188000000E+02 0.  0.
    9900012    2    3    3    0    0 -0.13666767544E+02 -0.11168163007E+02 -0.32315210061E+02  0.54367065719E+02  0.39999957919E+02 0.  0.
        -12    1    3    3    0    0  0.13666767544E+02  0.11168163007E+02  0.32315210061E+02  0.36820934281E+02  0.00000000000E+00 0.  1.
         11    1    4    4    0    0 -0.14212953773E+02 -0.48260568600E+01 -0.36210679963E+02  0.39198370163E+02  0.51100000000E-03 0. -1.
        -11    1    4    4    0    0 -0.53216304487E+01  0.57138442349E+00  0.14055372510E+00  0.53540626073E+01  0.51100000000E-03 0.  1.
         12    1    4    4    0    0  0.58678166779E+01 -0.69134905703E+01  0.37549161767E+01  0.98146329490E+01  0.00000000000E+00 0. -1.
</event>
<event>
 8    1  0.1248739E-006  0.9118800E+02  0.7816164E-02  0.1184000E+00
        -11   -1    0    0    0    0  0.00000000000E+00  0.00000000000E+00  0.45593999997E+02  0.45594000000E+02  0.51100000000E-03 0. -1.
         11   -1    0    0    0    0 -0.00000000000E+00 -0.00000000000E+00 -0.45593999997E+02  0.45594000000E+02  0.51100000000E-03 0.  1.
         23    2    1    2    0    0 -0.26645352591E-14  0.35527136788E-14  0.35527136788E-14  0.91188000000E+02  0.91188000000E+02 0.  0.
    9900012    2    3    3    0    0  0.77604970597E+01 -0.28167778083E+02 -0.22408295690E+02  0.54367071814E+02  0.39999971814E+02 0.  0.
         12    1    3    3    0    0 -0.77604970597E+01  0.28167778083E+02  0.22408295690E+02  0.36820928186E+02  0.00000000000E+00 0. -1.
         11    1    4    4    0    0 -0.52685235602E+01 -0.51612056818E+01  0.40106857421E+01  0.83952954074E+01  0.51100000000E-03 0. -1.
        -11    1    4    4    0    0 -0.61532954613E+01  0.16356001377E+01 -0.38305614094E+01  0.74304396786E+01  0.51100000000E-03 0.  1.
        -12    1    4    4    0    0  0.19182316081E+02 -0.24642172539E+02 -0.22588420023E+02  0.38541336728E+02  0.00000000000E+00 0.  1.
</event>
<event>
 8    1  0.1248739E-006  0.9118800E+02  0.7816164E-02  0.1184000E+00
        -11   -1    0    0    0    0  0.00000000000E+00  0.00000000000E+00  0.45593999997E+02  0.45594000000E+02  0.51100000000E-03 0.  1.
         11   -1    0    0    0    0 -0.00000000000E+00 -0.00000000000E+00 -0.45593999997E+02  0.45594000000E+02  0.51100000000E-03 0. -1.
         23    2    1    2    0    0  0.35527136788E-14 -0.35527136788E-14  0.35527136788E-14  0.91188000000E+02  0.91188000000E+02 0.  0.
    9900012    2    3    3    0    0  0.17834816611E+02 -0.26440129974E+02 -0.18401569094E+02  0.54367096946E+02  0.40000029107E+02 0.  0.
        -12    1    3    3    0    0 -0.17834816611E+02  0.26440129974E+02  0.18401569094E+02  0.36820903054E+02  0.00000000000E+00 0.  1.
         11    1    4    4    0    0 -0.59976892911E+00 -0.12500303899E+02 -0.17105943554E+01  0.12631051169E+02  0.51100000000E-03 0. -1.
        -11    1    4    4    0    0 -0.20699995315E+01  0.68306770336E+01 -0.91249699145E+01  0.11584822959E+02  0.51100000000E-03 0.  1.
         12    1    4    4    0    0  0.20504585072E+02 -0.20770503109E+02 -0.75660048239E+01  0.30151222817E+02  0.00000000000E+00 0. -1.
</event>
<event>
 8    1  0.1248739E-006  0.9118800E+02  0.7816164E-02  0.1184000E+00
        -11   -1    0    0    0    0  0.00000000000E+00  0.00000000000E+00  0.45593999997E+02  0.45594000000E+02  0.51100000000E-03 0. -1.
         11   -1    0    0    0    0 -0.00000000000E+00 -0.00000000000E+00 -0.45593999997E+02  0.45594000000E+02  0.51100000000E-03 0.  1.
         23    2    1    2    0    0  0.88817841970E-15  0.00000000000E+00  0.00000000000E+00  0.91188000000E+02  0.91188000000E+02 0.  0.
    9900012    2    3    3    0    0 -0.51782319653E+01 -0.21417897922E+01 -0.36392042872E+02  0.54367053051E+02  0.39999929041E+02 0.  0.
         12    1    3    3    0    0  0.51782319653E+01  0.21417897922E+01  0.36392042872E+02  0.36820946949E+02  0.00000000000E+00 0. -1.
         11    1    4    4    0    0 -0.32387723631E+01  0.33824693496E+01 -0.83617175834E+01  0.95837918658E+01  0.51100000000E-03 0.  1.
        -11    1    4    4    0    0  0.35786501001E+01 -0.10030903242E+02  0.44413907558E+01  0.11539138117E+02  0.51100000000E-03 0. -1.
         12    1    4    4    0    0 -0.55181097022E+01  0.45066440999E+01 -0.32471716044E+02  0.33244123068E+02  0.00000000000E+00 0. -1.
</event>
<event>
 8    1  0.1248739E-006  0.9118800E+02  0.7816164E-02  0.1184000E+00
        -11   -1    0    0    0    0  0.00000000000E+00  0.00000000000E+00  0.45593999997E+02  0.45594000000E+02  0.51100000000E-03 0.  1.
         11   -1    0    0    0    0 -0.00000000000E+00 -0.00000000000E+00 -0.45593999997E+02  0.45594000000E+02  0.51100000000E-03 0. -1.
         23    2    1    2    0    0 -0.35527136788E-14  0.71054273576E-14  0.35527136788E-14  0.91188000000E+02  0.91188000000E+02 0.  0.
    9900012    2    3    3    0    0 -0.16910152606E+02  0.25083912952E+02  0.20991025977E+02  0.54367093959E+02  0.40000022297E+02 0.  0.
         12    1    3    3    0    0  0.16910152606E+02 -0.25083912952E+02 -0.20991025977E+02  0.36820906041E+02  0.00000000000E+00 0. -1.
         11    1    4    4    0    0 -0.28397990703E+00 -0.48181081094E+01 -0.63490624932E+01  0.79752996900E+01  0.51100000000E-03 0. -1.
        -11    1    4    4    0    0 -0.14069174820E+02  0.10551508187E+02  0.16239235698E+02  0.23937184075E+02  0.51100000000E-03 0.  1.
         12    1    4    4    0    0 -0.25569978789E+01  0.19350512874E+02  0.11100852773E+02  0.22454610193E+02  0.00000000000E+00 0. -1.
</event>
<event>
 8    1  0.1248739E-006  0.9118800E+02  0.7816164E-02  0.1184000E+00
        -11   -1    0    0    0    0  0.00000000000E+00  0.00000000000E+00  0.45593999997E+02  0.45594000000E+02  0.51100000000E-03 0.  1.
         11   -1    0    0    0    0 -0.00000000000E+00 -0.00000000000E+00 -0.45593999997E+02  0.45594000000E+02  0.51100000000E-03 0. -1.
         23    2    1    2    0    0  0.00000000000E+00  0.00000000000E+00 -0.17763568394E-14  0.91188000000E+02  0.91188000000E+02 0.  0.
    9900012    2    3    3    0    0  0.26664112013E+02 -0.19771103109E+02 -0.15934089135E+02  0.54367264209E+02  0.40000410416E+02 0.  0.
        -12    1    3    3    0    0 -0.26664112013E+02  0.19771103109E+02  0.15934089135E+02  0.36820735791E+02  0.00000000000E+00 0.  1.
         11    1    4    4    0    0  0.16498615781E+02 -0.11829187295E+02 -0.36063723538E+01  0.20618921324E+02  0.51100000000E-03 0. -1.
        -11    1    4    4    0    0  0.14171748213E+02  0.57102079433E+01 -0.12147500952E+02  0.19519392967E+02  0.51100000000E-03 0.  1.
        -12    1    4    4    0    0 -0.40062519812E+01 -0.13652123757E+02 -0.18021582982E+00  0.14228949918E+02  0.00000000000E+00 0.  1.
</event>
<event>
 8    1  0.1248739E-006  0.9118800E+02  0.7816164E-02  0.1184000E+00
        -11   -1    0    0    0    0  0.00000000000E+00  0.00000000000E+00  0.45593999997E+02  0.45594000000E+02  0.51100000000E-03 0. -1.
         11   -1    0    0    0    0 -0.00000000000E+00 -0.00000000000E+00 -0.45593999997E+02  0.45594000000E+02  0.51100000000E-03 0.  1.
         23    2    1    2    0    0  0.00000000000E+00  0.88817841970E-15  0.00000000000E+00  0.91188000000E+02  0.91188000000E+02 0.  0.
    9900012    2    3    3    0    0  0.32251096671E+01  0.48969668073E+01  0.36351014215E+02  0.54367111218E+02  0.40000061643E+02 0.  0.
        -12    1    3    3    0    0 -0.32251096671E+01 -0.48969668073E+01 -0.36351014215E+02  0.36820888782E+02  0.00000000000E+00 0.  1.
         11    1    4    4    0    0  0.51840320232E+01  0.23007078002E+01  0.13490303346E+02  0.14634060578E+02  0.51100000000E-03 0. -1.
        -11    1    4    4    0    0  0.34420457867E+01 -0.37613933184E+01  0.28955971422E+02  0.29401429219E+02  0.51100000000E-03 0.  1.
        -12    1    4    4    0    0 -0.54009681427E+01  0.63576523254E+01 -0.60952605525E+01  0.10331621420E+02  0.00000000000E+00 0.  1.
</event>
<event>
 8    1  0.1248739E-006  0.9118800E+02  0.7816164E-02  0.1184000E+00
        -11   -1    0    0    0    0  0.00000000000E+00  0.00000000000E+00  0.45593999997E+02  0.45594000000E+02  0.51100000000E-03 0. -1.
         11   -1    0    0    0    0 -0.00000000000E+00 -0.00000000000E+00 -0.45593999997E+02  0.45594000000E+02  0.51100000000E-03 0.  1.
         23    2    1    2    0    0  0.00000000000E+00  0.00000000000E+00  0.88817841970E-15  0.91188000000E+02  0.91188000000E+02 0.  0.
    9900012    2    3    3    0    0 -0.31020169716E+02  0.19301835666E+02  0.45791232484E+01  0.54367079873E+02  0.39999990186E+02 0.  0.
        -12    1    3    3    0    0  0.31020169716E+02 -0.19301835666E+02 -0.45791232484E+01  0.36820920127E+02  0.00000000000E+00 0.  1.
         11    1    4    4    0    0  0.29035239503E+01 -0.11820271973E+01  0.87546045082E+01  0.92989644575E+01  0.51100000000E-03 0.  1.
        -11    1    4    4    0    0 -0.59267156387E+01  0.15281709382E+02 -0.19180494635E+01  0.16502591127E+02  0.51100000000E-03 0. -1.
        -12    1    4    4    0    0 -0.27996978028E+02  0.52021534808E+01 -0.22574317963E+01  0.28565524288E+02  0.00000000000E+00 0.  1.
</event>
<event>
 8    1  0.1248739E-006  0.9118800E+02  0.7816164E-02  0.1184000E+00
        -11   -1    0    0    0    0  0.00000000000E+00  0.00000000000E+00  0.45593999997E+02  0.45594000000E+02  0.51100000000E-03 0. -1.
         11   -1    0    0    0    0 -0.00000000000E+00 -0.00000000000E+00 -0.45593999997E+02  0.45594000000E+02  0.51100000000E-03 0.  1.
         23    2    1    2    0    0 -0.35527136788E-14  0.00000000000E+00  0.00000000000E+00  0.91188000000E+02  0.91188000000E+02 0.  0.
    9900012    2    3    3    0    0  0.15684383862E+02  0.30759151043E+02 -0.12792756517E+02  0.54367083535E+02  0.39999998535E+02 0.  0.
        -12    1    3    3    0    0 -0.15684383862E+02 -0.30759151043E+02  0.12792756517E+02  0.36820916465E+02  0.00000000000E+00 0.  1.
         11    1    4    4    0    0  0.18445276345E+02  0.13092251462E+02  0.99415127403E+01  0.24707669733E+02  0.51100000000E-03 0. -1.
        -11    1    4    4    0    0 -0.44310178999E+01  0.13499874861E+02 -0.14625101580E+02  0.20390540390E+02  0.51100000000E-03 0.  1.
        -12    1    4    4    0    0  0.16701254165E+01  0.41670247208E+01 -0.81091676769E+01  0.92688734128E+01  0.00000000000E+00 0.  1.
</event>
<event>
 8    1  0.1248739E-006  0.9118800E+02  0.7816164E-02  0.1184000E+00
        -11   -1    0    0    0    0  0.00000000000E+00  0.00000000000E+00  0.45593999997E+02  0.45594000000E+02  0.51100000000E-03 0.  1.
         11   -1    0    0    0    0 -0.00000000000E+00 -0.00000000000E+00 -0.45593999997E+02  0.45594000000E+02  0.51100000000E-03 0. -1.
         23    2    1    2    0    0 -0.35527136788E-14 -0.44408920985E-15  0.71054273576E-14  0.91188000000E+02  0.91188000000E+02 0.  0.
    9900012    2    3    3    0    0 -0.21381598321E+02 -0.29960377695E+01  0.29826668071E+02  0.54367094018E+02  0.40000022433E+02 0.  0.
         12    1    3    3    0    0  0.21381598321E+02  0.29960377695E+01 -0.29826668071E+02  0.36820905982E+02  0.00000000000E+00 0. -1.
         11    1    4    4    0    0  0.58896069570E+01 -0.58087303556E+01  0.10050791423E+01  0.83330068280E+01  0.51100000000E-03 0. -1.
        -11    1    4    4    0    0  0.22365630452E+01 -0.35876302349E+00  0.11395533333E+02  0.11618481199E+02  0.51100000000E-03 0.  1.
         12    1    4    4    0    0 -0.29507768323E+02  0.31714556095E+01  0.17426055596E+02  0.34415605991E+02  0.00000000000E+00 0. -1.
</event>
<event>
 8    1  0.1248739E-006  0.9118800E+02  0.7816164E-02  0.1184000E+00
        -11   -1    0    0    0    0  0.00000000000E+00  0.00000000000E+00  0.45593999997E+02  0.45594000000E+02  0.51100000000E-03 0.  1.
         11   -1    0    0    0    0 -0.00000000000E+00 -0.00000000000E+00 -0.45593999997E+02  0.45594000000E+02  0.51100000000E-03 0. -1.
         23    2    1    2    0    0  0.00000000000E+00 -0.17763568394E-14  0.53290705182E-14  0.91188000000E+02  0.91188000000E+02 0.  0.
    9900012    2    3    3    0    0 -0.34451516178E+02  0.78804848247E+01 -0.10332956412E+02  0.54367095662E+02  0.40000026182E+02 0.  0.
        -12    1    3    3    0    0  0.34451516178E+02 -0.78804848247E+01  0.10332956412E+02  0.36820904338E+02  0.00000000000E+00 0.  1.
         11    1    4    4    0    0 -0.31021875790E+02  0.79746964607E+01 -0.14792125942E+02  0.35281150085E+02  0.51100000000E-03 0. -1.
        -11    1    4    4    0    0 -0.38943743753E+01 -0.51295542475E+01  0.98026758471E+01  0.11729063585E+02  0.51100000000E-03 0.  1.
        -12    1    4    4    0    0  0.46473398747E+00  0.50353426114E+01 -0.53435063169E+01  0.73568819925E+01  0.00000000000E+00 0.  1.
</event>
<event>
 8    1  0.1248739E-006  0.9118800E+02  0.7816164E-02  0.1184000E+00
        -11   -1    0    0    0    0  0.00000000000E+00  0.00000000000E+00  0.45593999997E+02  0.45594000000E+02  0.51100000000E-03 0.  1.
         11   -1    0    0    0    0 -0.00000000000E+00 -0.00000000000E+00 -0.45593999997E+02  0.45594000000E+02  0.51100000000E-03 0. -1.
         23    2    1    2    0    0  0.00000000000E+00  0.00000000000E+00 -0.44408920985E-15  0.91188000000E+02  0.91188000000E+02 0.  0.
    9900012    2    3    3    0    0  0.34923736877E+02  0.11428840432E+02 -0.23439927012E+01  0.54367080771E+02  0.39999992234E+02 0.  0.
         12    1    3    3    0    0 -0.34923736877E+02 -0.11428840432E+02  0.23439927012E+01  0.36820919229E+02  0.00000000000E+00 0. -1.
         11    1    4    4    0    0  0.48490256103E+01 -0.21878341012E+00 -0.11899681423E+02  0.12851588765E+02  0.51100000000E-03 0. -1.
        -11    1    4    4    0    0  0.28864006111E+02  0.80683514059E+00  0.10107937210E+02  0.30593336310E+02  0.51100000000E-03 0.  1.
         12    1    4    4    0    0  0.12107051559E+01  0.10840788702E+02 -0.55224848823E+00  0.10922155696E+02  0.00000000000E+00 0. -1.
</event>
<event>
 8    1  0.1248739E-006  0.9118800E+02  0.7816164E-02  0.1184000E+00
        -11   -1    0    0    0    0  0.00000000000E+00  0.00000000000E+00  0.45593999997E+02  0.45594000000E+02  0.51100000000E-03 0.  1.
         11   -1    0    0    0    0 -0.00000000000E+00 -0.00000000000E+00 -0.45593999997E+02  0.45594000000E+02  0.51100000000E-03 0. -1.
         23    2    1    2    0    0 -0.35527136788E-14  0.35527136788E-14  0.55511151231E-16  0.91188000000E+02  0.91188000000E+02 0.  0.
    9900012    2    3    3    0    0 -0.29246032917E+02  0.22367365287E+02  0.38940145763E+00  0.54367067030E+02  0.39999960909E+02 0.  0.
        -12    1    3    3    0    0  0.29246032917E+02 -0.22367365287E+02 -0.38940145763E+00  0.36820932970E+02  0.00000000000E+00 0.  1.
         11    1    4    4    0    0  0.71969525768E+01  0.91862451106E+01 -0.40560106890E+01  0.12354531500E+02  0.51100000000E-03 0.  1.
        -11    1    4    4    0    0 -0.94692638387E+01 -0.19124451144E+01 -0.31907387453E+01  0.10173751420E+02  0.51100000000E-03 0. -1.
        -12    1    4    4    0    0 -0.26973721655E+02  0.15093565291E+02  0.76361508920E+01  0.31838784109E+02  0.00000000000E+00 0.  1.
</event>
<event>
 8    1  0.1248739E-006  0.9118800E+02  0.7816164E-02  0.1184000E+00
        -11   -1    0    0    0    0  0.00000000000E+00  0.00000000000E+00  0.45593999997E+02  0.45594000000E+02  0.51100000000E-03 0.  1.
         11   -1    0    0    0    0 -0.00000000000E+00 -0.00000000000E+00 -0.45593999997E+02  0.45594000000E+02  0.51100000000E-03 0. -1.
         23    2    1    2    0    0  0.22204460493E-15  0.00000000000E+00  0.00000000000E+00  0.91188000000E+02  0.91188000000E+02 0.  0.
    9900012    2    3    3    0    0  0.18619444655E+01  0.92451582782E+01 -0.35592717272E+02  0.54367064222E+02  0.39999954507E+02 0.  0.
        -12    1    3    3    0    0 -0.18619444655E+01 -0.92451582782E+01  0.35592717272E+02  0.36820935778E+02  0.00000000000E+00 0.  1.
         11    1    4    4    0    0 -0.45906159156E+01  0.83824348816E+01 -0.33812397975E+02  0.35137120344E+02  0.51100000000E-03 0. -1.
        -11    1    4    4    0    0 -0.30086390012E+01 -0.64975250829E+01 -0.63698545069E+00  0.71885667256E+01  0.51100000000E-03 0.  1.
         12    1    4    4    0    0  0.94611993823E+01  0.73602484795E+01 -0.11433338465E+01  0.12041377152E+02  0.00000000000E+00 0. -1.
</event>
<event>
 8    1  0.1248739E-006  0.9118800E+02  0.7816164E-02  0.1184000E+00
        -11   -1    0    0    0    0  0.00000000000E+00  0.00000000000E+00  0.45593999997E+02  0.45594000000E+02  0.51100000000E-03 0.  1.
         11   -1    0    0    0    0 -0.00000000000E+00 -0.00000000000E+00 -0.45593999997E+02  0.45594000000E+02  0.51100000000E-03 0. -1.
         23    2    1    2    0    0 -0.35527136788E-14 -0.17763568394E-14  0.00000000000E+00  0.91188000000E+02  0.91188000000E+02 0.  0.
    9900012    2    3    3    0    0  0.24973221415E+02 -0.71357626665E+01 -0.26099794815E+02  0.54367079506E+02  0.39999989349E+02 0.  0.
        -12    1    3    3    0    0 -0.24973221415E+02  0.71357626665E+01  0.26099794815E+02  0.36820920494E+02  0.00000000000E+00 0.  1.
         11    1    4    4    0    0  0.26473163934E+02 -0.10083581361E+02 -0.15671063758E+02  0.32374206729E+02  0.51100000000E-03 0. -1.
        -11    1    4    4    0    0 -0.55375078183E+01 -0.54136345084E+01  0.36768170860E+00  0.77528460276E+01  0.51100000000E-03 0.  1.
        -12    1    4    4    0    0  0.40375652996E+01  0.83614532034E+01 -0.10796412765E+02  0.14240026749E+02  0.00000000000E+00 0.  1.
</event>
<event>
 8    1  0.1248739E-006  0.9118800E+02  0.7816164E-02  0.1184000E+00
        -11   -1    0    0    0    0  0.00000000000E+00  0.00000000000E+00  0.45593999997E+02  0.45594000000E+02  0.51100000000E-03 0.  1.
         11   -1    0    0    0    0 -0.00000000000E+00 -0.00000000000E+00 -0.45593999997E+02  0.45594000000E+02  0.51100000000E-03 0. -1.
         23    2    1    2    0    0  0.17763568394E-14  0.35527136788E-14 -0.35527136788E-14  0.91188000000E+02  0.91188000000E+02 0.  0.
    9900012    2    3    3    0    0 -0.12195570113E+02 -0.22110686051E+02  0.26798624915E+02  0.54367072997E+02  0.39999974511E+02 0.  0.
         12    1    3    3    0    0  0.12195570113E+02  0.22110686051E+02 -0.26798624915E+02  0.36820927003E+02  0.00000000000E+00 0. -1.
         11    1    4    4    0    0  0.65541950245E+01 -0.21265628735E+01 -0.15955556473E+01  0.70728735433E+01  0.51100000000E-03 0. -1.
        -11    1    4    4    0    0  0.15657056080E+01  0.36286931943E+01 -0.13972995316E+01  0.41918128049E+01  0.51100000000E-03 0.  1.
        -12    1    4    4    0    0 -0.20315470745E+02 -0.23612816372E+02  0.29791480094E+02  0.43102386649E+02  0.00000000000E+00 0.  1.
</event>
<event>
 8    1  0.1248739E-006  0.9118800E+02  0.7816164E-02  0.1184000E+00
        -11   -1    0    0    0    0  0.00000000000E+00  0.00000000000E+00  0.45593999997E+02  0.45594000000E+02  0.51100000000E-03 0.  1.
         11   -1    0    0    0    0 -0.00000000000E+00 -0.00000000000E+00 -0.45593999997E+02  0.45594000000E+02  0.51100000000E-03 0. -1.
         23    2    1    2    0    0  0.35527136788E-14  0.88817841970E-15  0.00000000000E+00  0.91188000000E+02  0.91188000000E+02 0.  0.
    9900012    2    3    3    0    0  0.26847933823E+02  0.14056147264E+01 -0.25159241847E+02  0.54367153273E+02  0.40000157517E+02 0.  0.
        -12    1    3    3    0    0 -0.26847933823E+02 -0.14056147264E+01  0.25159241847E+02  0.36820846727E+02  0.00000000000E+00 0.  1.
         11    1    4    4    0    0  0.64707823357E+01  0.37492995726E+01 -0.13450013552E+02  0.15389318897E+02  0.51100000000E-03 0. -1.
        -11    1    4    4    0    0 -0.93071054617E+00  0.10955767572E+02  0.58890316200E+00  0.11010988712E+02  0.51100000000E-03 0.  1.
         12    1    4    4    0    0  0.21307862033E+02 -0.13299452418E+02 -0.12298131458E+02  0.27966845664E+02  0.00000000000E+00 0. -1.
</event>
<event>
 8    1  0.1248739E-006  0.9118800E+02  0.7816164E-02  0.1184000E+00
        -11   -1    0    0    0    0  0.00000000000E+00  0.00000000000E+00  0.45593999997E+02  0.45594000000E+02  0.51100000000E-03 0.  1.
         11   -1    0    0    0    0 -0.00000000000E+00 -0.00000000000E+00 -0.45593999997E+02  0.45594000000E+02  0.51100000000E-03 0. -1.
         23    2    1    2    0    0  0.00000000000E+00  0.35527136788E-14 -0.71054273576E-14  0.91188000000E+02  0.91188000000E+02 0.  0.
    9900012    2    3    3    0    0 -0.16198107086E+02  0.81040444281E+01 -0.32058122531E+02  0.54367116938E+02  0.40000074683E+02 0.  0.
        -12    1    3    3    0    0  0.16198107086E+02 -0.81040444281E+01  0.32058122531E+02  0.36820883062E+02  0.00000000000E+00 0.  1.
         11    1    4    4    0    0 -0.39608103895E+01  0.74265163732E+01 -0.18518616123E+02  0.20341590591E+02  0.51100000000E-03 0. -1.
        -11    1    4    4    0    0  0.19116552253E+01 -0.10911871876E+02 -0.10909243873E+02  0.15547828648E+02  0.51100000000E-03 0.  1.
        -12    1    4    4    0    0 -0.14148951922E+02  0.11589399931E+02 -0.26302625349E+01  0.18477697699E+02  0.00000000000E+00 0.  1.
</event>
<event>
 8    1  0.1248739E-006  0.9118800E+02  0.7816164E-02  0.1184000E+00
        -11   -1    0    0    0    0  0.00000000000E+00  0.00000000000E+00  0.45593999997E+02  0.45594000000E+02  0.51100000000E-03 0. -1.
         11   -1    0    0    0    0 -0.00000000000E+00 -0.00000000000E+00 -0.45593999997E+02  0.45594000000E+02  0.51100000000E-03 0.  1.
         23    2    1    2    0    0  0.00000000000E+00  0.44408920985E-15  0.00000000000E+00  0.91188000000E+02  0.91188000000E+02 0.  0.
    9900012    2    3    3    0    0  0.17940976488E+02 -0.13150152913E+01  0.32127464145E+02  0.54367056844E+02  0.39999937686E+02 0.  0.
        -12    1    3    3    0    0 -0.17940976488E+02  0.13150152913E+01 -0.32127464145E+02  0.36820943156E+02  0.00000000000E+00 0.  1.
         11    1    4    4    0    0  0.20857321124E+02  0.80320264422E+01  0.28921345554E+02  0.36551135716E+02  0.51100000000E-03 0. -1.
        -11    1    4    4    0    0  0.26733876204E+01 -0.66719677096E+01  0.74134339965E+01  0.10325752194E+02  0.51100000000E-03 0.  1.
        -12    1    4    4    0    0 -0.55897322567E+01 -0.26750740239E+01 -0.42073154054E+01  0.74901689338E+01  0.00000000000E+00 0.  1.
</event>
<event>
 8    1  0.1248739E-006  0.9118800E+02  0.7816164E-02  0.1184000E+00
        -11   -1    0    0    0    0  0.00000000000E+00  0.00000000000E+00  0.45593999997E+02  0.45594000000E+02  0.51100000000E-03 0.  1.
         11   -1    0    0    0    0 -0.00000000000E+00 -0.00000000000E+00 -0.45593999997E+02  0.45594000000E+02  0.51100000000E-03 0. -1.
         23    2    1    2    0    0  0.00000000000E+00  0.26645352591E-14  0.35527136788E-14  0.91188000000E+02  0.91188000000E+02 0.  0.
    9900012    2    3    3    0    0 -0.20037021418E+02  0.66726231565E+01 -0.30162455779E+02  0.54367083856E+02  0.39999999266E+02 0.  0.
        -12    1    3    3    0    0  0.20037021418E+02 -0.66726231565E+01  0.30162455779E+02  0.36820916144E+02  0.00000000000E+00 0.  1.
         11    1    4    4    0    0 -0.14270578932E+02 -0.35930522526E+00 -0.20652505096E+02  0.25105865655E+02  0.51100000000E-03 0. -1.
        -11    1    4    4    0    0  0.10004256971E+01  0.16218055256E+02 -0.60507287711E+01  0.17338900968E+02  0.51100000000E-03 0.  1.
        -12    1    4    4    0    0 -0.67668681839E+01 -0.91861268738E+01 -0.34592219115E+01  0.11922317233E+02  0.00000000000E+00 0.  1.
</event>
<event>
 8    1  0.1248739E-006  0.9118800E+02  0.7816164E-02  0.1184000E+00
        -11   -1    0    0    0    0  0.00000000000E+00  0.00000000000E+00  0.45593999997E+02  0.45594000000E+02  0.51100000000E-03 0.  1.
         11   -1    0    0    0    0 -0.00000000000E+00 -0.00000000000E+00 -0.45593999997E+02  0.45594000000E+02  0.51100000000E-03 0. -1.
         23    2    1    2    0    0 -0.35527136788E-14 -0.35527136788E-14  0.00000000000E+00  0.91188000000E+02  0.91188000000E+02 0.  0.
    9900012    2    3    3    0    0 -0.23933053499E+02  0.16568129050E+02  0.22549622713E+02  0.54367089711E+02  0.40000012615E+02 0.  0.
         12    1    3    3    0    0  0.23933053499E+02 -0.16568129050E+02 -0.22549622713E+02  0.36820910289E+02  0.00000000000E+00 0. -1.
         11    1    4    4    0    0 -0.69066779295E+01  0.58479178162E+01  0.17895836280E+02  0.20053959690E+02  0.51100000000E-03 0. -1.
        -11    1    4    4    0    0 -0.16537387395E+02  0.11863866018E+02  0.14116401283E+02  0.24769119569E+02  0.51100000000E-03 0.  1.
         12    1    4    4    0    0 -0.48898817398E+00 -0.11436547835E+01 -0.94626148512E+01  0.95440104527E+01  0.00000000000E+00 0. -1.
</event>
<event>
 8    1  0.1248739E-006  0.9118800E+02  0.7816164E-02  0.1184000E+00
        -11   -1    0    0    0    0  0.00000000000E+00  0.00000000000E+00  0.45593999997E+02  0.45594000000E+02  0.51100000000E-03 0.  1.
         11   -1    0    0    0    0 -0.00000000000E+00 -0.00000000000E+00 -0.45593999997E+02  0.45594000000E+02  0.51100000000E-03 0. -1.
         23    2    1    2    0    0  0.00000000000E+00 -0.22204460493E-15  0.00000000000E+00  0.91188000000E+02  0.91188000000E+02 0.  0.
    9900012    2    3    3    0    0 -0.35729626553E+02  0.14013698517E+01  0.87869387732E+01  0.54367077360E+02  0.39999984456E+02 0.  0.
        -12    1    3    3    0    0  0.35729626553E+02 -0.14013698517E+01 -0.87869387732E+01  0.36820922640E+02  0.00000000000E+00 0.  1.
         11    1    4    4    0    0 -0.27275136880E+02  0.60907313647E+01  0.80705936955E+00  0.27958566585E+02  0.51100000000E-03 0. -1.
        -11    1    4    4    0    0 -0.12820217033E+02 -0.77570724798E+01 -0.19748946727E+01  0.15113912381E+02  0.51100000000E-03 0.  1.
        -12    1    4    4    0    0  0.43657273602E+01  0.30677109667E+01  0.99547740764E+01  0.11294598394E+02  0.00000000000E+00 0.  1.
</event>
<event>
 8    1  0.1248739E-006  0.9118800E+02  0.7816164E-02  0.1184000E+00
        -11   -1    0    0    0    0  0.00000000000E+00  0.00000000000E+00  0.45593999997E+02  0.45594000000E+02  0.51100000000E-03 0.  1.
         11   -1    0    0    0    0 -0.00000000000E+00 -0.00000000000E+00 -0.45593999997E+02  0.45594000000E+02  0.51100000000E-03 0. -1.
         23    2    1    2    0    0  0.35527136788E-14 -0.35527136788E-14  0.00000000000E+00  0.91188000000E+02  0.91188000000E+02 0.  0.
    9900012    2    3    3    0    0 -0.18695188573E+02 -0.28791729296E+02  0.13315555810E+02  0.54367112203E+02  0.40000063889E+02 0.  0.
         12    1    3    3    0    0  0.18695188573E+02  0.28791729296E+02 -0.13315555810E+02  0.36820887797E+02  0.00000000000E+00 0. -1.
         11    1    4    4    0    0 -0.92989856219E+01  0.30905797152E+01  0.55533219456E+01  0.11263312189E+02  0.51100000000E-03 0. -1.
        -11    1    4    4    0    0  0.66583008141E+01 -0.19243090708E+02 -0.19968142016E+01  0.20460126513E+02  0.51100000000E-03 0.  1.
        -12    1    4    4    0    0 -0.16054503765E+02 -0.12639218304E+02  0.97590480664E+01  0.22643673501E+02  0.00000000000E+00 0.  1.
</event>
<event>
 8    1  0.1248739E-006  0.9118800E+02  0.7816164E-02  0.1184000E+00
        -11   -1    0    0    0    0  0.00000000000E+00  0.00000000000E+00  0.45593999997E+02  0.45594000000E+02  0.51100000000E-03 0.  1.
         11   -1    0    0    0    0 -0.00000000000E+00 -0.00000000000E+00 -0.45593999997E+02  0.45594000000E+02  0.51100000000E-03 0. -1.
         23    2    1    2    0    0 -0.44408920985E-15  0.00000000000E+00  0.00000000000E+00  0.91188000000E+02  0.91188000000E+02 0.  0.
    9900012    2    3    3    0    0 -0.36596859847E+00  0.31319606595E+02 -0.19357963683E+02  0.54367048787E+02  0.39999919320E+02 0.  0.
        -12    1    3    3    0    0  0.36596859847E+00 -0.31319606595E+02  0.19357963683E+02  0.36820951213E+02  0.00000000000E+00 0.  1.
         11    1    4    4    0    0  0.89382873500E+01  0.47052250228E+01 -0.10045176262E+02  0.14245620017E+02  0.51100000000E-03 0. -1.
        -11    1    4    4    0    0 -0.65517701453E+01 -0.40819006736E+01 -0.44806969116E+01  0.89254831925E+01  0.51100000000E-03 0.  1.
         12    1    4    4    0    0 -0.27524858032E+01  0.30696282246E+02 -0.48320905089E+01  0.31195945578E+02  0.00000000000E+00 0. -1.
</event>
<event>
 8    1  0.1248739E-006  0.9118800E+02  0.7816164E-02  0.1184000E+00
        -11   -1    0    0    0    0  0.00000000000E+00  0.00000000000E+00  0.45593999997E+02  0.45594000000E+02  0.51100000000E-03 0.  1.
         11   -1    0    0    0    0 -0.00000000000E+00 -0.00000000000E+00 -0.45593999997E+02  0.45594000000E+02  0.51100000000E-03 0. -1.
         23    2    1    2    0    0  0.00000000000E+00  0.00000000000E+00  0.00000000000E+00  0.91188000000E+02  0.91188000000E+02 0.  0.
    9900012    2    3    3    0    0  0.17006067158E+02 -0.29643099824E+02  0.13706206145E+02  0.54367085098E+02  0.40000002097E+02 0.  0.
         12    1    3    3    0    0 -0.17006067158E+02  0.29643099824E+02 -0.13706206145E+02  0.36820914902E+02  0.00000000000E+00 0. -1.
         11    1    4    4    0    0  0.44689432622E+01  0.37765678596E+01 -0.56102652444E+00  0.58778116422E+01  0.51100000000E-03 0. -1.
        -11    1    4    4    0    0 -0.19505570889E+01 -0.78325302222E+01  0.17139762771E+02  0.18945307355E+02  0.51100000000E-03 0.  1.
        -12    1    4    4    0    0  0.14487680985E+02 -0.25587137461E+02 -0.28725301017E+01  0.29543966101E+02  0.00000000000E+00 0.  1.
</event>
<event>
 8    1  0.1248739E-006  0.9118800E+02  0.7816164E-02  0.1184000E+00
        -11   -1    0    0    0    0  0.00000000000E+00  0.00000000000E+00  0.45593999997E+02  0.45594000000E+02  0.51100000000E-03 0.  1.
         11   -1    0    0    0    0 -0.00000000000E+00 -0.00000000000E+00 -0.45593999997E+02  0.45594000000E+02  0.51100000000E-03 0. -1.
         23    2    1    2    0    0  0.35527136788E-14  0.00000000000E+00 -0.35527136788E-14  0.91188000000E+02  0.91188000000E+02 0.  0.
    9900012    2    3    3    0    0 -0.22530335102E+02 -0.22298425153E+02  0.18733494099E+02  0.54367087935E+02  0.40000008566E+02 0.  0.
         12    1    3    3    0    0  0.22530335102E+02  0.22298425153E+02 -0.18733494099E+02  0.36820912065E+02  0.00000000000E+00 0. -1.
         11    1    4    4    0    0 -0.74776354526E+01 -0.13602827241E+02 -0.18300045332E+01  0.15630126607E+02  0.51100000000E-03 0. -1.
        -11    1    4    4    0    0 -0.11106910655E+02 -0.12199942542E+02 -0.10080107266E+01  0.16529311788E+02  0.51100000000E-03 0.  1.
         12    1    4    4    0    0 -0.39457889950E+01  0.35043446294E+01  0.21571509358E+02  0.22207649540E+02  0.00000000000E+00 0. -1.
</event>
<event>
 8    1  0.1248739E-006  0.9118800E+02  0.7816164E-02  0.1184000E+00
        -11   -1    0    0    0    0  0.00000000000E+00  0.00000000000E+00  0.45593999997E+02  0.45594000000E+02  0.51100000000E-03 0. -1.
         11   -1    0    0    0    0 -0.00000000000E+00 -0.00000000000E+00 -0.45593999997E+02  0.45594000000E+02  0.51100000000E-03 0.  1.
         23    2    1    2    0    0  0.00000000000E+00 -0.88817841970E-15 -0.35527136788E-14  0.91188000000E+02  0.91188000000E+02 0.  0.
    9900012    2    3    3    0    0  0.25846362309E+02  0.55106231971E+01  0.25639396503E+02  0.54367081140E+02  0.39999993075E+02 0.  0.
        -12    1    3    3    0    0 -0.25846362309E+02 -0.55106231971E+01 -0.25639396503E+02  0.36820918860E+02  0.00000000000E+00 0.  1.
         11    1    4    4    0    0  0.58048604161E+01  0.72156239076E+01  0.17016297545E+02  0.19373074491E+02  0.51100000000E-03 0. -1.
        -11    1    4    4    0    0  0.23024556782E+02  0.59168430106E+01  0.97597332451E+00  0.23792683128E+02  0.51100000000E-03 0.  1.
        -12    1    4    4    0    0 -0.29830548889E+01 -0.76218437211E+01  0.76471256339E+01  0.11201323522E+02  0.00000000000E+00 0.  1.
</event>
<event>
 8    1  0.1248739E-006  0.9118800E+02  0.7816164E-02  0.1184000E+00
        -11   -1    0    0    0    0  0.00000000000E+00  0.00000000000E+00  0.45593999997E+02  0.45594000000E+02  0.51100000000E-03 0. -1.
         11   -1    0    0    0    0 -0.00000000000E+00 -0.00000000000E+00 -0.45593999997E+02  0.45594000000E+02  0.51100000000E-03 0.  1.
         23    2    1    2    0    0  0.00000000000E+00  0.00000000000E+00  0.00000000000E+00  0.91188000000E+02  0.91188000000E+02 0.  0.
    9900012    2    3    3    0    0  0.10124595573E+02 -0.40309364998E+01 -0.35171336102E+02  0.54367098765E+02  0.40000033255E+02 0.  0.
         12    1    3    3    0    0 -0.10124595573E+02  0.40309364998E+01  0.35171336102E+02  0.36820901235E+02  0.00000000000E+00 0. -1.
         11    1    4    4    0    0  0.10911839629E+02  0.58614384497E+01 -0.61887595909E+01  0.13846495958E+02  0.51100000000E-03 0.  1.
        -11    1    4    4    0    0  0.19618668746E+01  0.39435685061E+01 -0.25650590860E+02  0.26026015176E+02  0.51100000000E-03 0. -1.
         12    1    4    4    0    0 -0.27491109309E+01 -0.13835943456E+02 -0.33319856508E+01  0.14494587631E+02  0.00000000000E+00 0. -1.
</event>
<event>
 8    1  0.1248739E-006  0.9118800E+02  0.7816164E-02  0.1184000E+00
        -11   -1    0    0    0    0  0.00000000000E+00  0.00000000000E+00  0.45593999997E+02  0.45594000000E+02  0.51100000000E-03 0. -1.
         11   -1    0    0    0    0 -0.00000000000E+00 -0.00000000000E+00 -0.45593999997E+02  0.45594000000E+02  0.51100000000E-03 0.  1.
         23    2    1    2    0    0 -0.35527136788E-14 -0.88817841970E-15  0.71054273576E-14  0.91188000000E+02  0.91188000000E+02 0.  0.
    9900012    2    3    3    0    0 -0.21345398500E+02 -0.70522580487E+00  0.29994428238E+02  0.54366958382E+02  0.39999713222E+02 0.  0.
        -12    1    3    3    0    0  0.21345398500E+02  0.70522580487E+00 -0.29994428238E+02  0.36821041618E+02  0.00000000000E+00 0.  1.
         11    1    4    4    0    0 -0.12080753604E+02  0.16234950795E+01 -0.78383825329E+00  0.12214530142E+02  0.51100000000E-03 0. -1.
        -11    1    4    4    0    0 -0.13931308252E+02  0.58002285440E+01  0.70820352832E+01  0.16669709799E+02  0.51100000000E-03 0.  1.
         12    1    4    4    0    0  0.46666633559E+01 -0.81289494283E+01  0.23696231208E+02  0.25482718441E+02  0.00000000000E+00 0. -1.
</event>
<event>
 8    1  0.1248739E-006  0.9118800E+02  0.7816164E-02  0.1184000E+00
        -11   -1    0    0    0    0  0.00000000000E+00  0.00000000000E+00  0.45593999997E+02  0.45594000000E+02  0.51100000000E-03 0. -1.
         11   -1    0    0    0    0 -0.00000000000E+00 -0.00000000000E+00 -0.45593999997E+02  0.45594000000E+02  0.51100000000E-03 0.  1.
         23    2    1    2    0    0 -0.35527136788E-14  0.00000000000E+00  0.00000000000E+00  0.91188000000E+02  0.91188000000E+02 0.  0.
    9900012    2    3    3    0    0 -0.30105410047E+02  0.15677310304E+02 -0.14271175242E+02  0.54367079109E+02  0.39999988445E+02 0.  0.
         12    1    3    3    0    0  0.30105410047E+02 -0.15677310304E+02  0.14271175242E+02  0.36820920891E+02  0.00000000000E+00 0. -1.
         11    1    4    4    0    0  0.17900300816E+01 -0.55007854543E+00  0.65428796308E+01  0.68055909533E+01  0.51100000000E-03 0. -1.
        -11    1    4    4    0    0 -0.34914350845E+02  0.10829457253E+02 -0.17218415149E+02  0.40407460447E+02  0.51100000000E-03 0.  1.
        -12    1    4    4    0    0  0.30189107160E+01  0.53979315962E+01 -0.35956397244E+01  0.71540277086E+01  0.00000000000E+00 0.  1.
</event>
<event>
 8    1  0.1248739E-006  0.9118800E+02  0.7816164E-02  0.1184000E+00
        -11   -1    0    0    0    0  0.00000000000E+00  0.00000000000E+00  0.45593999997E+02  0.45594000000E+02  0.51100000000E-03 0. -1.
         11   -1    0    0    0    0 -0.00000000000E+00 -0.00000000000E+00 -0.45593999997E+02  0.45594000000E+02  0.51100000000E-03 0.  1.
         23    2    1    2    0    0  0.00000000000E+00  0.00000000000E+00 -0.35527136788E-14  0.91188000000E+02  0.91188000000E+02 0.  0.
    9900012    2    3    3    0    0 -0.41483438869E+01 -0.17807521750E+02 -0.31960337668E+02  0.54367085132E+02  0.40000002176E+02 0.  0.
         12    1    3    3    0    0  0.41483438869E+01  0.17807521750E+02  0.31960337668E+02  0.36820914868E+02  0.00000000000E+00 0. -1.
         11    1    4    4    0    0 -0.16094696638E+01 -0.27765900096E+01  0.35382205797E+01  0.47769079760E+01  0.51100000000E-03 0. -1.
        -11    1    4    4    0    0 -0.52237084724E+01 -0.22023000627E+02 -0.13506363358E+02  0.26357570795E+02  0.51100000000E-03 0.  1.
        -12    1    4    4    0    0  0.26848342493E+01  0.69920688867E+01 -0.21992194889E+02  0.23232606361E+02  0.00000000000E+00 0.  1.
</event>
<event>
 8    1  0.1248739E-006  0.9118800E+02  0.7816164E-02  0.1184000E+00
        -11   -1    0    0    0    0  0.00000000000E+00  0.00000000000E+00  0.45593999997E+02  0.45594000000E+02  0.51100000000E-03 0. -1.
         11   -1    0    0    0    0 -0.00000000000E+00 -0.00000000000E+00 -0.45593999997E+02  0.45594000000E+02  0.51100000000E-03 0.  1.
         23    2    1    2    0    0 -0.13322676296E-14 -0.35527136788E-14  0.35527136788E-14  0.91188000000E+02  0.91188000000E+02 0.  0.
    9900012    2    3    3    0    0  0.25396569832E+01  0.29442020219E+02 -0.21965779599E+02  0.54367110745E+02  0.40000060565E+02 0.  0.
         12    1    3    3    0    0 -0.25396569832E+01 -0.29442020219E+02  0.21965779599E+02  0.36820889255E+02  0.00000000000E+00 0. -1.
         11    1    4    4    0    0  0.37665882346E+01  0.75343640321E+01  0.38245634310E+01  0.92510061072E+01  0.51100000000E-03 0. -1.
        -11    1    4    4    0    0 -0.89998987373E+01 -0.20666411435E+01 -0.15186030782E+02  0.17773145869E+02  0.51100000000E-03 0.  1.
        -12    1    4    4    0    0  0.77729674860E+01  0.23974297330E+02 -0.10604312248E+02  0.27342958769E+02  0.00000000000E+00 0.  1.
</event>
<event>
 8    1  0.1248739E-006  0.9118800E+02  0.7816164E-02  0.1184000E+00
        -11   -1    0    0    0    0  0.00000000000E+00  0.00000000000E+00  0.45593999997E+02  0.45594000000E+02  0.51100000000E-03 0. -1.
         11   -1    0    0    0    0 -0.00000000000E+00 -0.00000000000E+00 -0.45593999997E+02  0.45594000000E+02  0.51100000000E-03 0.  1.
         23    2    1    2    0    0  0.35527136788E-14  0.00000000000E+00  0.00000000000E+00  0.91188000000E+02  0.91188000000E+02 0.  0.
    9900012    2    3    3    0    0 -0.16634178962E+02  0.21185299795E+02  0.25105095037E+02  0.54367100581E+02  0.40000037395E+02 0.  0.
        -12    1    3    3    0    0  0.16634178962E+02 -0.21185299795E+02 -0.25105095037E+02  0.36820899419E+02  0.00000000000E+00 0.  1.
         11    1    4    4    0    0 -0.20612011933E+02  0.16095509746E+02  0.25328750063E+01  0.26274244536E+02  0.51100000000E-03 0. -1.
        -11    1    4    4    0    0 -0.54761699743E+01 -0.24991399940E+00  0.10578275973E+02  0.11914311454E+02  0.51100000000E-03 0.  1.
         12    1    4    4    0    0  0.94540029450E+01  0.53397040493E+01  0.11993944058E+02  0.16178544591E+02  0.00000000000E+00 0. -1.
</event>
<event>
 8    1  0.1248739E-006  0.9118800E+02  0.7816164E-02  0.1184000E+00
        -11   -1    0    0    0    0  0.00000000000E+00  0.00000000000E+00  0.45593999997E+02  0.45594000000E+02  0.51100000000E-03 0. -1.
         11   -1    0    0    0    0 -0.00000000000E+00 -0.00000000000E+00 -0.45593999997E+02  0.45594000000E+02  0.51100000000E-03 0.  1.
         23    2    1    2    0    0  0.00000000000E+00 -0.44408920985E-15  0.17763568394E-14  0.91188000000E+02  0.91188000000E+02 0.  0.
    9900012    2    3    3    0    0  0.34558929399E+02 -0.27484064644E+01 -0.12405893841E+02  0.54367088261E+02  0.40000009308E+02 0.  0.
        -12    1    3    3    0    0 -0.34558929399E+02  0.27484064644E+01  0.12405893841E+02  0.36820911739E+02  0.00000000000E+00 0.  1.
         11    1    4    4    0    0  0.10964165494E+02 -0.30329419704E+01 -0.17632662970E+01  0.11511766601E+02  0.51100000000E-03 0. -1.
        -11    1    4    4    0    0  0.13357865415E+02  0.15266101069E+02  0.25169571738E+01  0.20440682082E+02  0.51100000000E-03 0.  1.
        -12    1    4    4    0    0  0.10236898490E+02 -0.14981565563E+02 -0.13159584718E+02  0.22414639577E+02  0.00000000000E+00 0.  1.
</event>
<event>
 8    1  0.1248739E-006  0.9118800E+02  0.7816164E-02  0.1184000E+00
        -11   -1    0    0    0    0  0.00000000000E+00  0.00000000000E+00  0.45593999997E+02  0.45594000000E+02  0.51100000000E-03 0.  1.
         11   -1    0    0    0    0 -0.00000000000E+00 -0.00000000000E+00 -0.45593999997E+02  0.45594000000E+02  0.51100000000E-03 0. -1.
         23    2    1    2    0    0  0.00000000000E+00  0.35527136788E-14 -0.44408920985E-15  0.91188000000E+02  0.91188000000E+02 0.  0.
    9900012    2    3    3    0    0  0.26102414178E+02 -0.25786473839E+02 -0.30826087054E+01  0.54367072046E+02  0.39999972343E+02 0.  0.
        -12    1    3    3    0    0 -0.26102414178E+02  0.25786473839E+02  0.30826087054E+01  0.36820927954E+02  0.00000000000E+00 0.  1.
         11    1    4    4    0    0  0.11318595910E+02 -0.67314679143E+01 -0.99241763377E+00  0.13206368414E+02  0.51100000000E-03 0. -1.
        -11    1    4    4    0    0  0.15652589687E+02  0.35894143850E+01  0.59350896428E+01  0.17120535881E+02  0.51100000000E-03 0.  1.
        -12    1    4    4    0    0 -0.86877141916E+00 -0.22644420310E+02 -0.80252807144E+01  0.24040167751E+02  0.00000000000E+00 0.  1.
</event>
<event>
 8    1  0.1248739E-006  0.9118800E+02  0.7816164E-02  0.1184000E+00
        -11   -1    0    0    0    0  0.00000000000E+00  0.00000000000E+00  0.45593999997E+02  0.45594000000E+02  0.51100000000E-03 0.  1.
         11   -1    0    0    0    0 -0.00000000000E+00 -0.00000000000E+00 -0.45593999997E+02  0.45594000000E+02  0.51100000000E-03 0. -1.
         23    2    1    2    0    0  0.00000000000E+00  0.00000000000E+00  0.71054273576E-14  0.91188000000E+02  0.91188000000E+02 0.  0.
    9900012    2    3    3    0    0 -0.97922100178E+01  0.10618506571E+02  0.33869440228E+02  0.54367095065E+02  0.40000024821E+02 0.  0.
         12    1    3    3    0    0  0.97922100178E+01 -0.10618506571E+02 -0.33869440228E+02  0.36820904935E+02  0.00000000000E+00 0. -1.
         11    1    4    4    0    0  0.11398563346E+02  0.14286787068E+02  0.16029045459E+02  0.24309871033E+02  0.51100000000E-03 0. -1.
        -11    1    4    4    0    0 -0.69616270490E+01  0.38844694665E+01  0.72724655500E+01  0.10790834520E+02  0.51100000000E-03 0.  1.
         12    1    4    4    0    0 -0.14229146314E+02 -0.75527499636E+01  0.10567929219E+02  0.19266389512E+02  0.00000000000E+00 0. -1.
</event>
<event>
 8    1  0.1248739E-006  0.9118800E+02  0.7816164E-02  0.1184000E+00
        -11   -1    0    0    0    0  0.00000000000E+00  0.00000000000E+00  0.45593999997E+02  0.45594000000E+02  0.51100000000E-03 0.  1.
         11   -1    0    0    0    0 -0.00000000000E+00 -0.00000000000E+00 -0.45593999997E+02  0.45594000000E+02  0.51100000000E-03 0. -1.
         23    2    1    2    0    0 -0.17763568394E-14  0.00000000000E+00  0.00000000000E+00  0.91188000000E+02  0.91188000000E+02 0.  0.
    9900012    2    3    3    0    0  0.94347456382E+01  0.33663601205E+02 -0.11555442372E+02  0.54367072258E+02  0.39999972828E+02 0.  0.
         12    1    3    3    0    0 -0.94347456382E+01 -0.33663601205E+02  0.11555442372E+02  0.36820927742E+02  0.00000000000E+00 0. -1.
         11    1    4    4    0    0  0.14321626513E+02  0.20433924059E+02  0.91294533755E+01  0.26570682295E+02  0.51100000000E-03 0. -1.
        -11    1    4    4    0    0  0.17298165108E+01 -0.14087309937E+01 -0.11668975299E+01  0.25176255242E+01  0.51100000000E-03 0.  1.
         12    1    4    4    0    0 -0.66166973855E+01  0.14638408139E+02 -0.19517998218E+02  0.25278764439E+02  0.00000000000E+00 0. -1.
</event>
<event>
 8    1  0.1248739E-006  0.9118800E+02  0.7816164E-02  0.1184000E+00
        -11   -1    0    0    0    0  0.00000000000E+00  0.00000000000E+00  0.45593999997E+02  0.45594000000E+02  0.51100000000E-03 0.  1.
         11   -1    0    0    0    0 -0.00000000000E+00 -0.00000000000E+00 -0.45593999997E+02  0.45594000000E+02  0.51100000000E-03 0. -1.
         23    2    1    2    0    0  0.00000000000E+00 -0.35527136788E-14  0.00000000000E+00  0.91188000000E+02  0.91188000000E+02 0.  0.
    9900012    2    3    3    0    0 -0.24842760703E+02  0.23703630285E+02  0.13294947521E+02  0.54367075546E+02  0.39999980323E+02 0.  0.
         12    1    3    3    0    0  0.24842760703E+02 -0.23703630285E+02 -0.13294947521E+02  0.36820924454E+02  0.00000000000E+00 0. -1.
         11    1    4    4    0    0 -0.83236710650E+01  0.13513737353E+02  0.15756480595E+02  0.22364509345E+02  0.51100000000E-03 0.  1.
        -11    1    4    4    0    0 -0.22332716199E+02  0.64080061988E+01 -0.63038400128E+01  0.24073868726E+02  0.51100000000E-03 0. -1.
        -12    1    4    4    0    0  0.58136265606E+01  0.37818867335E+01  0.38423069388E+01  0.79286974758E+01  0.00000000000E+00 0.  1.
</event>
<event>
 8    1  0.1248739E-006  0.9118800E+02  0.7816164E-02  0.1184000E+00
        -11   -1    0    0    0    0  0.00000000000E+00  0.00000000000E+00  0.45593999997E+02  0.45594000000E+02  0.51100000000E-03 0.  1.
         11   -1    0    0    0    0 -0.00000000000E+00 -0.00000000000E+00 -0.45593999997E+02  0.45594000000E+02  0.51100000000E-03 0. -1.
         23    2    1    2    0    0 -0.17763568394E-14  0.00000000000E+00 -0.44408920985E-15  0.91188000000E+02  0.91188000000E+02 0.  0.
    9900012    2    3    3    0    0 -0.11265646919E+02  0.34952810210E+02  0.26774183224E+01  0.54367050651E+02  0.39999923569E+02 0.  0.
         12    1    3    3    0    0  0.11265646919E+02 -0.34952810210E+02 -0.26774183224E+01  0.36820949349E+02  0.00000000000E+00 0. -1.
         11    1    4    4    0    0 -0.34713426945E+01  0.18956384943E+01  0.85382763065E+00  0.40463177443E+01  0.51100000000E-03 0. -1.
        -11    1    4    4    0    0 -0.21189367314E+02  0.10982391765E+02 -0.29964570571E+01  0.24053710133E+02  0.51100000000E-03 0.  1.
         12    1    4    4    0    0  0.13395063090E+02  0.22074779951E+02  0.48200477488E+01  0.26267022773E+02  0.00000000000E+00 0. -1.
</event>
<event>
 8    1  0.1248739E-006  0.9118800E+02  0.7816164E-02  0.1184000E+00
        -11   -1    0    0    0    0  0.00000000000E+00  0.00000000000E+00  0.45593999997E+02  0.45594000000E+02  0.51100000000E-03 0. -1.
         11   -1    0    0    0    0 -0.00000000000E+00 -0.00000000000E+00 -0.45593999997E+02  0.45594000000E+02  0.51100000000E-03 0.  1.
         23    2    1    2    0    0 -0.71054273576E-14 -0.22204460493E-15 -0.35527136788E-14  0.91188000000E+02  0.91188000000E+02 0.  0.
    9900012    2    3    3    0    0  0.26115747220E+02  0.11968389443E+01 -0.25929053701E+02  0.54367075213E+02  0.39999979563E+02 0.  0.
         12    1    3    3    0    0 -0.26115747220E+02 -0.11968389443E+01  0.25929053701E+02  0.36820924787E+02  0.00000000000E+00 0. -1.
         11    1    4    4    0    0  0.25240195583E+01 -0.31536272559E+01 -0.23754715998E+01  0.46860329899E+01  0.51100000000E-03 0. -1.
        -11    1    4    4    0    0  0.29708354749E+02 -0.47250623937E+01 -0.24358401357E+02  0.38707160493E+02  0.51100000000E-03 0.  1.
         12    1    4    4    0    0 -0.61166270877E+01  0.90755285939E+01  0.80481925505E+00  0.10973881730E+02  0.00000000000E+00 0. -1.
</event>
<event>
 8    1  0.1248739E-006  0.9118800E+02  0.7816164E-02  0.1184000E+00
        -11   -1    0    0    0    0  0.00000000000E+00  0.00000000000E+00  0.45593999997E+02  0.45594000000E+02  0.51100000000E-03 0. -1.
         11   -1    0    0    0    0 -0.00000000000E+00 -0.00000000000E+00 -0.45593999997E+02  0.45594000000E+02  0.51100000000E-03 0.  1.
         23    2    1    2    0    0  0.00000000000E+00  0.17763568394E-14 -0.17763568394E-14  0.91188000000E+02  0.91188000000E+02 0.  0.
    9900012    2    3    3    0    0 -0.34267717250E+02  0.11270904120E+02 -0.73803781562E+01  0.54367086012E+02  0.40000004181E+02 0.  0.
         12    1    3    3    0    0  0.34267717250E+02 -0.11270904120E+02  0.73803781562E+01  0.36820913988E+02  0.00000000000E+00 0. -1.
         11    1    4    4    0    0 -0.56982193754E+01  0.12486155676E+00  0.67990937396E+01  0.88720330477E+01  0.51100000000E-03 0. -1.
        -11    1    4    4    0    0 -0.20082227034E+02  0.15224981338E+02  0.35207729967E+01  0.25445859038E+02  0.51100000000E-03 0.  1.
        -12    1    4    4    0    0 -0.84872708403E+01 -0.40789387755E+01 -0.17700244892E+02  0.20049193927E+02  0.00000000000E+00 0.  1.
</event>
<event>
 8    1  0.1248739E-006  0.9118800E+02  0.7816164E-02  0.1184000E+00
        -11   -1    0    0    0    0  0.00000000000E+00  0.00000000000E+00  0.45593999997E+02  0.45594000000E+02  0.51100000000E-03 0. -1.
         11   -1    0    0    0    0 -0.00000000000E+00 -0.00000000000E+00 -0.45593999997E+02  0.45594000000E+02  0.51100000000E-03 0.  1.
         23    2    1    2    0    0  0.00000000000E+00  0.00000000000E+00  0.17763568394E-14  0.91188000000E+02  0.91188000000E+02 0.  0.
    9900012    2    3    3    0    0  0.20108469513E+02  0.27979547739E+02  0.12983601087E+02  0.54367088346E+02  0.40000009503E+02 0.  0.
        -12    1    3    3    0    0 -0.20108469513E+02 -0.27979547739E+02 -0.12983601087E+02  0.36820911654E+02  0.00000000000E+00 0.  1.
         11    1    4    4    0    0  0.63494054600E+01  0.13658786321E+02 -0.10613166472E+02  0.18425978842E+02  0.51100000000E-03 0. -1.
        -11    1    4    4    0    0  0.12664633334E+02 -0.36061619965E-01  0.12099666941E+02  0.17515598142E+02  0.51100000000E-03 0.  1.
         12    1    4    4    0    0  0.10944307191E+01  0.14356823038E+02  0.11497100618E+02  0.18425511362E+02  0.00000000000E+00 0. -1.
</event>
<event>
 8    1  0.1248739E-006  0.9118800E+02  0.7816164E-02  0.1184000E+00
        -11   -1    0    0    0    0  0.00000000000E+00  0.00000000000E+00  0.45593999997E+02  0.45594000000E+02  0.51100000000E-03 0. -1.
         11   -1    0    0    0    0 -0.00000000000E+00 -0.00000000000E+00 -0.45593999997E+02  0.45594000000E+02  0.51100000000E-03 0.  1.
         23    2    1    2    0    0  0.00000000000E+00 -0.35527136788E-14 -0.35527136788E-14  0.91188000000E+02  0.91188000000E+02 0.  0.
    9900012    2    3    3    0    0  0.10990760399E+02  0.31471975366E+02 -0.15636344839E+02  0.54367118323E+02  0.40000077840E+02 0.  0.
         12    1    3    3    0    0 -0.10990760399E+02 -0.31471975366E+02  0.15636344839E+02  0.36820881677E+02  0.00000000000E+00 0. -1.
         11    1    4    4    0    0 -0.64010971009E+01 -0.29455806960E+01  0.44802666606E+01  0.83500466671E+01  0.51100000000E-03 0. -1.
        -11    1    4    4    0    0 -0.60189035937E+00  0.13901321764E+02 -0.88717489528E+01  0.16502028618E+02  0.51100000000E-03 0.  1.
         12    1    4    4    0    0  0.17993747859E+02  0.20516234298E+02 -0.11244862547E+02  0.29515043037E+02  0.00000000000E+00 0. -1.
</event>
<event>
 8    1  0.1248739E-006  0.9118800E+02  0.7816164E-02  0.1184000E+00
        -11   -1    0    0    0    0  0.00000000000E+00  0.00000000000E+00  0.45593999997E+02  0.45594000000E+02  0.51100000000E-03 0.  1.
         11   -1    0    0    0    0 -0.00000000000E+00 -0.00000000000E+00 -0.45593999997E+02  0.45594000000E+02  0.51100000000E-03 0. -1.
         23    2    1    2    0    0 -0.88817841970E-15 -0.35527136788E-14  0.00000000000E+00  0.91188000000E+02  0.91188000000E+02 0.  0.
    9900012    2    3    3    0    0 -0.70901087146E+01 -0.29745392251E+02 -0.20511636604E+02  0.54367010905E+02  0.39999832960E+02 0.  0.
        -12    1    3    3    0    0  0.70901087146E+01  0.29745392251E+02  0.20511636604E+02  0.36820989095E+02  0.00000000000E+00 0.  1.
         11    1    4    4    0    0  0.10607806868E+02 -0.14495657080E+02  0.56747361732E+01  0.18837522969E+02  0.51100000000E-03 0.  1.
        -11    1    4    4    0    0 -0.15088332148E+02 -0.14371564261E+02 -0.24961958104E+02  0.32516134133E+02  0.51100000000E-03 0. -1.
         12    1    4    4    0    0 -0.26095834345E+01 -0.87817091007E+00 -0.12244146731E+01  0.30133538027E+01  0.00000000000E+00 0. -1.
</event>
<event>
 8    1  0.1248739E-006  0.9118800E+02  0.7816164E-02  0.1184000E+00
        -11   -1    0    0    0    0  0.00000000000E+00  0.00000000000E+00  0.45593999997E+02  0.45594000000E+02  0.51100000000E-03 0. -1.
         11   -1    0    0    0    0 -0.00000000000E+00 -0.00000000000E+00 -0.45593999997E+02  0.45594000000E+02  0.51100000000E-03 0.  1.
         23    2    1    2    0    0  0.00000000000E+00  0.00000000000E+00  0.88817841970E-15  0.91188000000E+02  0.91188000000E+02 0.  0.
    9900012    2    3    3    0    0 -0.27349796806E+02  0.24347761333E+02 -0.38670902283E+01  0.54367092161E+02  0.40000018200E+02 0.  0.
         12    1    3    3    0    0  0.27349796806E+02 -0.24347761333E+02  0.38670902283E+01  0.36820907839E+02  0.00000000000E+00 0. -1.
         11    1    4    4    0    0  0.23828500234E+01  0.85103447535E+00  0.65051088898E+01  0.69798764919E+01  0.51100000000E-03 0. -1.
        -11    1    4    4    0    0  0.43465953428E+01  0.56137989502E+00  0.14924136614E+01  0.46298312343E+01  0.51100000000E-03 0.  1.
        -12    1    4    4    0    0 -0.34079242172E+02  0.22935346962E+02 -0.11864612779E+02  0.42757384435E+02  0.00000000000E+00 0.  1.
</event>
<event>
 8    1  0.1248739E-006  0.9118800E+02  0.7816164E-02  0.1184000E+00
        -11   -1    0    0    0    0  0.00000000000E+00  0.00000000000E+00  0.45593999997E+02  0.45594000000E+02  0.51100000000E-03 0.  1.
         11   -1    0    0    0    0 -0.00000000000E+00 -0.00000000000E+00 -0.45593999997E+02  0.45594000000E+02  0.51100000000E-03 0. -1.
         23    2    1    2    0    0  0.35527136788E-14 -0.88817841970E-15  0.00000000000E+00  0.91188000000E+02  0.91188000000E+02 0.  0.
    9900012    2    3    3    0    0 -0.30095610184E+02  0.18111689745E+01  0.21136909581E+02  0.54366877909E+02  0.39999529767E+02 0.  0.
         12    1    3    3    0    0  0.30095610184E+02 -0.18111689745E+01 -0.21136909581E+02  0.36821122091E+02  0.00000000000E+00 0. -1.
         11    1    4    4    0    0 -0.17790473289E+02 -0.95820850314E+01  0.26396541361E+01  0.20378544296E+02  0.51100000000E-03 0. -1.
        -11    1    4    4    0    0  0.47987600902E+01  0.57948805923E+01  0.13258476147E+02  0.15244537693E+02  0.51100000000E-03 0.  1.
        -12    1    4    4    0    0 -0.17103896985E+02  0.55983734137E+01  0.52387792980E+01  0.18743795920E+02  0.00000000000E+00 0.  1.
</event>
<event>
 8    1  0.1248739E-006  0.9118800E+02  0.7816164E-02  0.1184000E+00
        -11   -1    0    0    0    0  0.00000000000E+00  0.00000000000E+00  0.45593999997E+02  0.45594000000E+02  0.51100000000E-03 0.  1.
         11   -1    0    0    0    0 -0.00000000000E+00 -0.00000000000E+00 -0.45593999997E+02  0.45594000000E+02  0.51100000000E-03 0. -1.
         23    2    1    2    0    0  0.17763568394E-14  0.44408920985E-15 -0.71054273576E-14  0.91188000000E+02  0.91188000000E+02 0.  0.
    9900012    2    3    3    0    0 -0.52624641160E+01  0.13714872695E+01 -0.36417124234E+02  0.54367062432E+02  0.39999950426E+02 0.  0.
        -12    1    3    3    0    0  0.52624641160E+01 -0.13714872695E+01  0.36417124234E+02  0.36820937568E+02  0.00000000000E+00 0.  1.
         11    1    4    4    0    0  0.11817738324E+02  0.10303296263E+02 -0.15068894800E+02  0.21745998338E+02  0.51100000000E-03 0. -1.
        -11    1    4    4    0    0  0.11011983100E+00 -0.41026512001E+00  0.22030675978E+01  0.22436467965E+01  0.51100000000E-03 0.  1.
        -12    1    4    4    0    0 -0.17190322271E+02 -0.85215438732E+01 -0.23551297032E+02  0.30377417297E+02  0.00000000000E+00 0.  1.
</event>
<event>
 8    1  0.1248739E-006  0.9118800E+02  0.7816164E-02  0.1184000E+00
        -11   -1    0    0    0    0  0.00000000000E+00  0.00000000000E+00  0.45593999997E+02  0.45594000000E+02  0.51100000000E-03 0. -1.
         11   -1    0    0    0    0 -0.00000000000E+00 -0.00000000000E+00 -0.45593999997E+02  0.45594000000E+02  0.51100000000E-03 0.  1.
         23    2    1    2    0    0  0.66613381478E-15  0.00000000000E+00  0.00000000000E+00  0.91188000000E+02  0.91188000000E+02 0.  0.
    9900012    2    3    3    0    0  0.11652129271E+01  0.21312943816E+02 -0.30003007744E+02  0.54367085169E+02  0.40000002261E+02 0.  0.
         12    1    3    3    0    0 -0.11652129271E+01 -0.21312943816E+02  0.30003007744E+02  0.36820914831E+02  0.00000000000E+00 0. -1.
         11    1    4    4    0    0 -0.16779855377E+00  0.17464182933E+01 -0.25437759222E+02  0.25498190675E+02  0.51100000000E-03 0. -1.
        -11    1    4    4    0    0  0.90313777799E+01  0.18016988846E+02 -0.56762114807E+01  0.20937933249E+02  0.51100000000E-03 0.  1.
         12    1    4    4    0    0 -0.76983662990E+01  0.15495366770E+01  0.11109629588E+01  0.79309612459E+01  0.00000000000E+00 0. -1.
</event>
<event>
 8    1  0.1248739E-006  0.9118800E+02  0.7816164E-02  0.1184000E+00
        -11   -1    0    0    0    0  0.00000000000E+00  0.00000000000E+00  0.45593999997E+02  0.45594000000E+02  0.51100000000E-03 0.  1.
         11   -1    0    0    0    0 -0.00000000000E+00 -0.00000000000E+00 -0.45593999997E+02  0.45594000000E+02  0.51100000000E-03 0. -1.
         23    2    1    2    0    0  0.00000000000E+00 -0.35527136788E-14  0.00000000000E+00  0.91188000000E+02  0.91188000000E+02 0.  0.
    9900012    2    3    3    0    0 -0.16633125581E+02  0.30723276866E+02 -0.11627536207E+02  0.54367079231E+02  0.39999988724E+02 0.  0.
        -12    1    3    3    0    0  0.16633125581E+02 -0.30723276866E+02  0.11627536207E+02  0.36820920769E+02  0.00000000000E+00 0.  1.
         11    1    4    4    0    0  0.33455258036E+00  0.27035352368E+01 -0.83798724483E+01  0.88115430383E+01  0.51100000000E-03 0. -1.
        -11    1    4    4    0    0 -0.11472333879E+02 -0.17032631296E+01 -0.91315314991E+01  0.14761450393E+02  0.51100000000E-03 0.  1.
         12    1    4    4    0    0 -0.54953442824E+01  0.29723004759E+02  0.58838677401E+01  0.30794085800E+02  0.00000000000E+00 0. -1.
</event>
<event>
 8    1  0.1248739E-006  0.9118800E+02  0.7816164E-02  0.1184000E+00
        -11   -1    0    0    0    0  0.00000000000E+00  0.00000000000E+00  0.45593999997E+02  0.45594000000E+02  0.51100000000E-03 0.  1.
         11   -1    0    0    0    0 -0.00000000000E+00 -0.00000000000E+00 -0.45593999997E+02  0.45594000000E+02  0.51100000000E-03 0. -1.
         23    2    1    2    0    0  0.35527136788E-14  0.00000000000E+00  0.17763568394E-14  0.91188000000E+02  0.91188000000E+02 0.  0.
    9900012    2    3    3    0    0  0.25508398838E+02 -0.25881570814E+02  0.59367848738E+01  0.54367088364E+02  0.40000009543E+02 0.  0.
         12    1    3    3    0    0 -0.25508398838E+02  0.25881570814E+02 -0.59367848738E+01  0.36820911636E+02  0.00000000000E+00 0. -1.
         11    1    4    4    0    0 -0.74118744838E+00 -0.16979860133E+02  0.10507733131E+02  0.19981928455E+02  0.51100000000E-03 0. -1.
        -11    1    4    4    0    0  0.11360868267E+02  0.38801789088E+01  0.44300973970E+01  0.12796518251E+02  0.51100000000E-03 0.  1.
         12    1    4    4    0    0  0.14888718019E+02 -0.12781889589E+02 -0.90010456542E+01  0.21588641657E+02  0.00000000000E+00 0. -1.
</event>
<event>
 8    1  0.1248739E-006  0.9118800E+02  0.7816164E-02  0.1184000E+00
        -11   -1    0    0    0    0  0.00000000000E+00  0.00000000000E+00  0.45593999997E+02  0.45594000000E+02  0.51100000000E-03 0.  1.
         11   -1    0    0    0    0 -0.00000000000E+00 -0.00000000000E+00 -0.45593999997E+02  0.45594000000E+02  0.51100000000E-03 0. -1.
         23    2    1    2    0    0  0.00000000000E+00  0.00000000000E+00  0.71054273576E-14  0.91188000000E+02  0.91188000000E+02 0.  0.
    9900012    2    3    3    0    0  0.18209656284E+02 -0.18267443934E+02 -0.26277160679E+02  0.54367078458E+02  0.39999986960E+02 0.  0.
        -12    1    3    3    0    0 -0.18209656284E+02  0.18267443934E+02  0.26277160679E+02  0.36820921542E+02  0.00000000000E+00 0.  1.
         11    1    4    4    0    0  0.87205452777E+00 -0.85483079648E+01 -0.30197736059E+02  0.31396453805E+02  0.51100000000E-03 0. -1.
        -11    1    4    4    0    0  0.14577888685E+02 -0.23788864552E+01  0.20892836335E+01  0.14917742646E+02  0.51100000000E-03 0.  1.
        -12    1    4    4    0    0  0.27597130708E+01 -0.73402495138E+01  0.18312917460E+01  0.80528820070E+01  0.00000000000E+00 0.  1.
</event>
<event>
 8    1  0.1248739E-006  0.9118800E+02  0.7816164E-02  0.1184000E+00
        -11   -1    0    0    0    0  0.00000000000E+00  0.00000000000E+00  0.45593999997E+02  0.45594000000E+02  0.51100000000E-03 0.  1.
         11   -1    0    0    0    0 -0.00000000000E+00 -0.00000000000E+00 -0.45593999997E+02  0.45594000000E+02  0.51100000000E-03 0. -1.
         23    2    1    2    0    0 -0.35527136788E-14  0.00000000000E+00 -0.17763568394E-14  0.91188000000E+02  0.91188000000E+02 0.  0.
    9900012    2    3    3    0    0 -0.25385528165E+02  0.22835903103E+02 -0.13779349960E+02  0.54367163561E+02  0.40000180969E+02 0.  0.
         12    1    3    3    0    0  0.25385528165E+02 -0.22835903103E+02  0.13779349960E+02  0.36820836439E+02  0.00000000000E+00 0. -1.
         11    1    4    4    0    0  0.99383053288E+01  0.74526618806E+01 -0.36860133244E+01  0.12957576023E+02  0.51100000000E-03 0. -1.
        -11    1    4    4    0    0 -0.13880351364E+02  0.19537853404E+00 -0.36691021186E+01  0.14358434364E+02  0.51100000000E-03 0.  1.
        -12    1    4    4    0    0 -0.21443482130E+02  0.15187862688E+02 -0.64242345169E+01  0.27051153174E+02  0.00000000000E+00 0.  1.
</event>
<event>
 8    1  0.1248739E-006  0.9118800E+02  0.7816164E-02  0.1184000E+00
        -11   -1    0    0    0    0  0.00000000000E+00  0.00000000000E+00  0.45593999997E+02  0.45594000000E+02  0.51100000000E-03 0. -1.
         11   -1    0    0    0    0 -0.00000000000E+00 -0.00000000000E+00 -0.45593999997E+02  0.45594000000E+02  0.51100000000E-03 0.  1.
         23    2    1    2    0    0  0.33306690739E-15 -0.44408920985E-15  0.71054273576E-14  0.91188000000E+02  0.91188000000E+02 0.  0.
    9900012    2    3    3    0    0  0.25048114237E+00  0.30406588983E+01 -0.36694236587E+02  0.54367145229E+02  0.40000139179E+02 0.  0.
         12    1    3    3    0    0 -0.25048114237E+00 -0.30406588983E+01  0.36694236587E+02  0.36820854771E+02  0.00000000000E+00 0. -1.
         11    1    4    4    0    0  0.52299520020E+01  0.11715399462E+02 -0.23761355737E+00  0.12831969567E+02  0.51100000000E-03 0. -1.
        -11    1    4    4    0    0  0.63310381280E+01 -0.46152200659E+01 -0.12965482883E+02  0.15148796873E+02  0.51100000000E-03 0.  1.
         12    1    4    4    0    0 -0.11310508988E+02 -0.40595204980E+01 -0.23491140146E+02  0.26386378789E+02  0.00000000000E+00 0. -1.
</event>
<event>
 8    1  0.1248739E-006  0.9118800E+02  0.7816164E-02  0.1184000E+00
        -11   -1    0    0    0    0  0.00000000000E+00  0.00000000000E+00  0.45593999997E+02  0.45594000000E+02  0.51100000000E-03 0. -1.
         11   -1    0    0    0    0 -0.00000000000E+00 -0.00000000000E+00 -0.45593999997E+02  0.45594000000E+02  0.51100000000E-03 0.  1.
         23    2    1    2    0    0 -0.71054273576E-14  0.00000000000E+00  0.00000000000E+00  0.91188000000E+02  0.91188000000E+02 0.  0.
    9900012    2    3    3    0    0 -0.32373278003E+02 -0.88579827248E+01  0.15142255021E+02  0.54367070168E+02  0.39999968061E+02 0.  0.
        -12    1    3    3    0    0  0.32373278003E+02  0.88579827248E+01 -0.15142255021E+02  0.36820929832E+02  0.00000000000E+00 0.  1.
         11    1    4    4    0    0  0.29046805342E+01 -0.58937786193E+01  0.51149631328E+01  0.83268627664E+01  0.51100000000E-03 0. -1.
        -11    1    4    4    0    0 -0.38742337509E+00  0.11178623714E+01 -0.69319239573E+01  0.70321606326E+01  0.51100000000E-03 0.  1.
         12    1    4    4    0    0 -0.34890535162E+02 -0.40820664768E+01  0.16959215845E+02  0.39008046769E+02  0.00000000000E+00 0. -1.
</event>
<event>
 8    1  0.1248739E-006  0.9118800E+02  0.7816164E-02  0.1184000E+00
        -11   -1    0    0    0    0  0.00000000000E+00  0.00000000000E+00  0.45593999997E+02  0.45594000000E+02  0.51100000000E-03 0.  1.
         11   -1    0    0    0    0 -0.00000000000E+00 -0.00000000000E+00 -0.45593999997E+02  0.45594000000E+02  0.51100000000E-03 0. -1.
         23    2    1    2    0    0 -0.17763568394E-14  0.00000000000E+00 -0.88817841970E-15  0.91188000000E+02  0.91188000000E+02 0.  0.
    9900012    2    3    3    0    0 -0.12018076716E+02  0.34486191543E+02  0.46956064155E+01  0.54367078030E+02  0.39999985985E+02 0.  0.
        -12    1    3    3    0    0  0.12018076716E+02 -0.34486191543E+02 -0.46956064155E+01  0.36820921970E+02  0.00000000000E+00 0.  1.
         11    1    4    4    0    0  0.86499073744E+01  0.11308132717E+02  0.10757426512E+02  0.17844242448E+02  0.51100000000E-03 0. -1.
        -11    1    4    4    0    0 -0.11412669226E+02  0.55461659933E+01  0.51220868036E+01  0.13683740335E+02  0.51100000000E-03 0.  1.
         12    1    4    4    0    0 -0.92553148651E+01  0.17631892833E+02 -0.11183906900E+02  0.22839095246E+02  0.00000000000E+00 0. -1.
</event>
<event>
 8    1  0.1248739E-006  0.9118800E+02  0.7816164E-02  0.1184000E+00
        -11   -1    0    0    0    0  0.00000000000E+00  0.00000000000E+00  0.45593999997E+02  0.45594000000E+02  0.51100000000E-03 0. -1.
         11   -1    0    0    0    0 -0.00000000000E+00 -0.00000000000E+00 -0.45593999997E+02  0.45594000000E+02  0.51100000000E-03 0.  1.
         23    2    1    2    0    0  0.00000000000E+00  0.00000000000E+00  0.00000000000E+00  0.91188000000E+02  0.91188000000E+02 0.  0.
    9900012    2    3    3    0    0 -0.11893151407E+02 -0.30345931448E+02 -0.17130602310E+02  0.54367080113E+02  0.39999990733E+02 0.  0.
         12    1    3    3    0    0  0.11893151407E+02  0.30345931448E+02  0.17130602310E+02  0.36820919887E+02  0.00000000000E+00 0. -1.
         11    1    4    4    0    0 -0.48857128844E+01 -0.49603504897E+01 -0.17951563905E+02  0.19254451804E+02  0.51100000000E-03 0. -1.
        -11    1    4    4    0    0 -0.65120458988E+01 -0.17535969891E+02 -0.10405295739E+02  0.21405306853E+02  0.51100000000E-03 0.  1.
         12    1    4    4    0    0 -0.49539262347E+00 -0.78496110671E+01  0.11226257334E+02  0.13707321455E+02  0.00000000000E+00 0. -1.
</event>
<event>
 8    1  0.1248739E-006  0.9118800E+02  0.7816164E-02  0.1184000E+00
        -11   -1    0    0    0    0  0.00000000000E+00  0.00000000000E+00  0.45593999997E+02  0.45594000000E+02  0.51100000000E-03 0. -1.
         11   -1    0    0    0    0 -0.00000000000E+00 -0.00000000000E+00 -0.45593999997E+02  0.45594000000E+02  0.51100000000E-03 0.  1.
         23    2    1    2    0    0 -0.35527136788E-14 -0.88817841970E-15 -0.71054273576E-14  0.91188000000E+02  0.91188000000E+02 0.  0.
    9900012    2    3    3    0    0  0.16847925407E+02  0.50518408126E+01  0.32348207197E+02  0.54367079385E+02  0.39999989074E+02 0.  0.
        -12    1    3    3    0    0 -0.16847925407E+02 -0.50518408126E+01 -0.32348207197E+02  0.36820920615E+02  0.00000000000E+00 0.  1.
         11    1    4    4    0    0  0.90856869826E+01 -0.54119082091E+01  0.90237348472E+01  0.13902023208E+02  0.51100000000E-03 0. -1.
        -11    1    4    4    0    0  0.16955613858E+02  0.70346705719E+01  0.39934161200E+01  0.18786346210E+02  0.51100000000E-03 0.  1.
         12    1    4    4    0    0 -0.91933754339E+01  0.34290784499E+01  0.19331056229E+02  0.21678709967E+02  0.00000000000E+00 0. -1.
</event>
<event>
 8    1  0.1248739E-006  0.9118800E+02  0.7816164E-02  0.1184000E+00
        -11   -1    0    0    0    0  0.00000000000E+00  0.00000000000E+00  0.45593999997E+02  0.45594000000E+02  0.51100000000E-03 0. -1.
         11   -1    0    0    0    0 -0.00000000000E+00 -0.00000000000E+00 -0.45593999997E+02  0.45594000000E+02  0.51100000000E-03 0.  1.
         23    2    1    2    0    0 -0.11657341759E-14  0.35527136788E-14  0.35527136788E-14  0.91188000000E+02  0.91188000000E+02 0.  0.
    9900012    2    3    3    0    0 -0.30656590637E+00 -0.20554262007E+02 -0.30548463700E+02  0.54367077908E+02  0.39999985706E+02 0.  0.
         12    1    3    3    0    0  0.30656590637E+00  0.20554262007E+02  0.30548463700E+02  0.36820922092E+02  0.00000000000E+00 0. -1.
         11    1    4    4    0    0 -0.12697362614E+02 -0.34731526461E+01 -0.14982634380E+02  0.19944050238E+02  0.51100000000E-03 0. -1.
        -11    1    4    4    0    0  0.15192916803E+02 -0.56810936972E+01 -0.15852176093E+02  0.22680190337E+02  0.51100000000E-03 0.  1.
         12    1    4    4    0    0 -0.28021200950E+01 -0.11400015663E+02  0.28634677263E+00  0.11742837333E+02  0.00000000000E+00 0. -1.
</event>
<event>
 8    1  0.1248739E-006  0.9118800E+02  0.7816164E-02  0.1184000E+00
        -11   -1    0    0    0    0  0.00000000000E+00  0.00000000000E+00  0.45593999997E+02  0.45594000000E+02  0.51100000000E-03 0. -1.
         11   -1    0    0    0    0 -0.00000000000E+00 -0.00000000000E+00 -0.45593999997E+02  0.45594000000E+02  0.51100000000E-03 0.  1.
         23    2    1    2    0    0  0.00000000000E+00  0.71054273576E-14 -0.22204460493E-15  0.91188000000E+02  0.91188000000E+02 0.  0.
    9900012    2    3    3    0    0  0.18572331841E+02  0.31760894262E+02 -0.14470531379E+01  0.54367083701E+02  0.39999998913E+02 0.  0.
         12    1    3    3    0    0 -0.18572331841E+02 -0.31760894262E+02  0.14470531379E+01  0.36820916299E+02  0.00000000000E+00 0. -1.
         11    1    4    4    0    0  0.93500960507E+01  0.19346171760E+02 -0.11162195831E+02  0.24213493634E+02  0.51100000000E-03 0. -1.
        -11    1    4    4    0    0  0.75844408358E+01  0.15680915604E+02 -0.23231227462E+01  0.17573040617E+02  0.51100000000E-03 0.  1.
         12    1    4    4    0    0  0.16377949541E+01 -0.32661931022E+01  0.12038265439E+02  0.12580549450E+02  0.00000000000E+00 0. -1.
</event>
<event>
 8    1  0.1248739E-006  0.9118800E+02  0.7816164E-02  0.1184000E+00
        -11   -1    0    0    0    0  0.00000000000E+00  0.00000000000E+00  0.45593999997E+02  0.45594000000E+02  0.51100000000E-03 0. -1.
         11   -1    0    0    0    0 -0.00000000000E+00 -0.00000000000E+00 -0.45593999997E+02  0.45594000000E+02  0.51100000000E-03 0.  1.
         23    2    1    2    0    0  0.35527136788E-14  0.00000000000E+00  0.35527136788E-14  0.91188000000E+02  0.91188000000E+02 0.  0.
    9900012    2    3    3    0    0  0.31651378756E+02  0.46136736731E+01 -0.18239608226E+02  0.54367094659E+02  0.40000023893E+02 0.  0.
        -12    1    3    3    0    0 -0.31651378756E+02 -0.46136736731E+01  0.18239608226E+02  0.36820905341E+02  0.00000000000E+00 0.  1.
         11    1    4    4    0    0  0.67726030663E+00 -0.63272403886E+01 -0.10492405163E+01  0.64493068139E+01  0.51100000000E-03 0. -1.
        -11    1    4    4    0    0  0.16041437961E+02  0.59755451039E+01 -0.25039994400E+02  0.30332098361E+02  0.51100000000E-03 0.  1.
         12    1    4    4    0    0  0.14932680488E+02  0.49653689578E+01  0.78496266902E+01  0.17585689484E+02  0.00000000000E+00 0. -1.
</event>
<event>
 8    1  0.1248739E-006  0.9118800E+02  0.7816164E-02  0.1184000E+00
        -11   -1    0    0    0    0  0.00000000000E+00  0.00000000000E+00  0.45593999997E+02  0.45594000000E+02  0.51100000000E-03 0. -1.
         11   -1    0    0    0    0 -0.00000000000E+00 -0.00000000000E+00 -0.45593999997E+02  0.45594000000E+02  0.51100000000E-03 0.  1.
         23    2    1    2    0    0  0.17763568394E-14  0.66613381478E-15  0.00000000000E+00  0.91188000000E+02  0.91188000000E+02 0.  0.
    9900012    2    3    3    0    0 -0.89204153959E+01 -0.16403019430E+01 -0.35686336861E+02  0.54367095070E+02  0.40000024830E+02 0.  0.
         12    1    3    3    0    0  0.89204153959E+01  0.16403019430E+01  0.35686336861E+02  0.36820904930E+02  0.00000000000E+00 0. -1.
         11    1    4    4    0    0 -0.21446934148E+02  0.46732580331E+01 -0.10094008191E+02  0.24159870170E+02  0.51100000000E-03 0. -1.
        -11    1    4    4    0    0  0.12172295847E+02 -0.40799190521E+01 -0.24577534688E+02  0.27728428323E+02  0.51100000000E-03 0.  1.
         12    1    4    4    0    0  0.35422290518E+00 -0.22336409240E+01 -0.10147939825E+01  0.24787965771E+01  0.00000000000E+00 0. -1.
</event>
<event>
 8    1  0.1248739E-006  0.9118800E+02  0.7816164E-02  0.1184000E+00
        -11   -1    0    0    0    0  0.00000000000E+00  0.00000000000E+00  0.45593999997E+02  0.45594000000E+02  0.51100000000E-03 0.  1.
         11   -1    0    0    0    0 -0.00000000000E+00 -0.00000000000E+00 -0.45593999997E+02  0.45594000000E+02  0.51100000000E-03 0. -1.
         23    2    1    2    0    0  0.88817841970E-15  0.35527136788E-14  0.00000000000E+00  0.91188000000E+02  0.91188000000E+02 0.  0.
    9900012    2    3    3    0    0  0.75950851916E+01  0.17334410984E+02 -0.31585006836E+02  0.54367085018E+02  0.40000001916E+02 0.  0.
        -12    1    3    3    0    0 -0.75950851916E+01 -0.17334410984E+02  0.31585006836E+02  0.36820914982E+02  0.00000000000E+00 0.  1.
         11    1    4    4    0    0  0.15635986266E+02  0.13198967618E+02 -0.16609282703E+02  0.26354602726E+02  0.51100000000E-03 0. -1.
        -11    1    4    4    0    0 -0.61978425394E+01  0.10219311200E+01  0.48018594994E+01  0.79066712509E+01  0.51100000000E-03 0.  1.
        -12    1    4    4    0    0 -0.18430585351E+01  0.31135122463E+01 -0.19777583633E+02  0.20105811041E+02  0.00000000000E+00 0.  1.
</event>
<event>
 8    1  0.1248739E-006  0.9118800E+02  0.7816164E-02  0.1184000E+00
        -11   -1    0    0    0    0  0.00000000000E+00  0.00000000000E+00  0.45593999997E+02  0.45594000000E+02  0.51100000000E-03 0.  1.
         11   -1    0    0    0    0 -0.00000000000E+00 -0.00000000000E+00 -0.45593999997E+02  0.45594000000E+02  0.51100000000E-03 0. -1.
         23    2    1    2    0    0  0.00000000000E+00 -0.35527136788E-14  0.00000000000E+00  0.91188000000E+02  0.91188000000E+02 0.  0.
    9900012    2    3    3    0    0 -0.54447717765E+01  0.26930082197E+02 -0.24513362036E+02  0.54367084950E+02  0.40000001761E+02 0.  0.
        -12    1    3    3    0    0  0.54447717765E+01 -0.26930082197E+02  0.24513362036E+02  0.36820915050E+02  0.00000000000E+00 0.  1.
         11    1    4    4    0    0 -0.88891914191E+01  0.22572296123E+02 -0.14640436255E+02  0.28334936922E+02  0.51100000000E-03 0. -1.
        -11    1    4    4    0    0  0.26670753122E+01  0.82619724866E+01  0.54165678423E+01  0.10232921750E+02  0.51100000000E-03 0.  1.
         12    1    4    4    0    0  0.77734433037E+00 -0.39041864132E+01 -0.15289493623E+02  0.15799226278E+02  0.00000000000E+00 0. -1.
</event>
<event>
 8    1  0.1248739E-006  0.9118800E+02  0.7816164E-02  0.1184000E+00
        -11   -1    0    0    0    0  0.00000000000E+00  0.00000000000E+00  0.45593999997E+02  0.45594000000E+02  0.51100000000E-03 0.  1.
         11   -1    0    0    0    0 -0.00000000000E+00 -0.00000000000E+00 -0.45593999997E+02  0.45594000000E+02  0.51100000000E-03 0. -1.
         23    2    1    2    0    0 -0.53290705182E-14  0.00000000000E+00  0.00000000000E+00  0.91188000000E+02  0.91188000000E+02 0.  0.
    9900012    2    3    3    0    0 -0.15573707628E+02  0.20670701367E+02  0.26190865193E+02  0.54367086326E+02  0.40000004897E+02 0.  0.
         12    1    3    3    0    0  0.15573707628E+02 -0.20670701367E+02 -0.26190865193E+02  0.36820913674E+02  0.00000000000E+00 0. -1.
         11    1    4    4    0    0  0.52017765357E+01  0.15601348784E+02  0.15199576312E+01  0.16515775322E+02  0.51100000000E-03 0. -1.
        -11    1    4    4    0    0 -0.14947194818E+02  0.11616529739E+02  0.11894678036E+02  0.22357230641E+02  0.51100000000E-03 0.  1.
         12    1    4    4    0    0 -0.58282893457E+01 -0.65471771563E+01  0.12776229525E+02  0.15494080363E+02  0.00000000000E+00 0. -1.
</event>
<event>
 8    1  0.1248739E-006  0.9118800E+02  0.7816164E-02  0.1184000E+00
        -11   -1    0    0    0    0  0.00000000000E+00  0.00000000000E+00  0.45593999997E+02  0.45594000000E+02  0.51100000000E-03 0. -1.
         11   -1    0    0    0    0 -0.00000000000E+00 -0.00000000000E+00 -0.45593999997E+02  0.45594000000E+02  0.51100000000E-03 0.  1.
         23    2    1    2    0    0  0.00000000000E+00  0.35527136788E-14  0.00000000000E+00  0.91188000000E+02  0.91188000000E+02 0.  0.
    9900012    2    3    3    0    0  0.21011694042E+02 -0.29020204122E+02 -0.84919976599E+01  0.54367115192E+02  0.40000070702E+02 0.  0.
         12    1    3    3    0    0 -0.21011694042E+02  0.29020204122E+02  0.84919976599E+01  0.36820884808E+02  0.00000000000E+00 0. -1.
         11    1    4    4    0    0  0.51585059711E+01 -0.12777364384E+02  0.92337323868E+01  0.16587134729E+02  0.51100000000E-03 0. -1.
        -11    1    4    4    0    0  0.10717242849E+01 -0.17884606789E+02 -0.13133470753E+02  0.22214765523E+02  0.51100000000E-03 0.  1.
        -12    1    4    4    0    0  0.14781463786E+02  0.16417670515E+01 -0.45922592937E+01  0.15565214940E+02  0.00000000000E+00 0.  1.
</event>
<event>
 8    1  0.1248739E-006  0.9118800E+02  0.7816164E-02  0.1184000E+00
        -11   -1    0    0    0    0  0.00000000000E+00  0.00000000000E+00  0.45593999997E+02  0.45594000000E+02  0.51100000000E-03 0.  1.
         11   -1    0    0    0    0 -0.00000000000E+00 -0.00000000000E+00 -0.45593999997E+02  0.45594000000E+02  0.51100000000E-03 0. -1.
         23    2    1    2    0    0  0.35527136788E-14  0.00000000000E+00  0.00000000000E+00  0.91188000000E+02  0.91188000000E+02 0.  0.
    9900012    2    3    3    0    0 -0.24788056853E+02  0.21660110613E+02 -0.16497860762E+02  0.54366979318E+02  0.39999760951E+02 0.  0.
        -12    1    3    3    0    0  0.24788056853E+02 -0.21660110613E+02  0.16497860762E+02  0.36821020682E+02  0.00000000000E+00 0.  1.
         11    1    4    4    0    0  0.34703707373E+01 -0.25884717778E+01 -0.34275498705E+01  0.55219342241E+01  0.51100000000E-03 0.  1.
        -11    1    4    4    0    0 -0.44186574690E+01  0.21971635023E+02 -0.21186764789E+01  0.22511465295E+02  0.51100000000E-03 0. -1.
         12    1    4    4    0    0 -0.23839770121E+02  0.22769473674E+01 -0.10951634413E+02  0.26333579800E+02  0.00000000000E+00 0. -1.
</event>
<event>
 8    1  0.1248739E-006  0.9118800E+02  0.7816164E-02  0.1184000E+00
        -11   -1    0    0    0    0  0.00000000000E+00  0.00000000000E+00  0.45593999997E+02  0.45594000000E+02  0.51100000000E-03 0. -1.
         11   -1    0    0    0    0 -0.00000000000E+00 -0.00000000000E+00 -0.45593999997E+02  0.45594000000E+02  0.51100000000E-03 0.  1.
         23    2    1    2    0    0 -0.88817841970E-15 -0.35527136788E-14  0.00000000000E+00  0.91188000000E+02  0.91188000000E+02 0.  0.
    9900012    2    3    3    0    0  0.64336408307E+01  0.22080396595E+02  0.28754904457E+02  0.54367079609E+02  0.39999989584E+02 0.  0.
        -12    1    3    3    0    0 -0.64336408307E+01 -0.22080396595E+02 -0.28754904457E+02  0.36820920391E+02  0.00000000000E+00 0.  1.
         11    1    4    4    0    0 -0.18814700696E+00  0.30005165444E+02  0.26809817904E+02  0.40238186948E+02  0.51100000000E-03 0. -1.
        -11    1    4    4    0    0  0.62896172415E+01 -0.33902586681E+01 -0.26912914671E+01  0.76351940974E+01  0.51100000000E-03 0.  1.
         12    1    4    4    0    0  0.33217059613E+00 -0.45345101806E+01  0.46363780201E+01  0.64936985631E+01  0.00000000000E+00 0. -1.
</event>
<event>
 8    1  0.1248739E-006  0.9118800E+02  0.7816164E-02  0.1184000E+00
        -11   -1    0    0    0    0  0.00000000000E+00  0.00000000000E+00  0.45593999997E+02  0.45594000000E+02  0.51100000000E-03 0. -1.
         11   -1    0    0    0    0 -0.00000000000E+00 -0.00000000000E+00 -0.45593999997E+02  0.45594000000E+02  0.51100000000E-03 0.  1.
         23    2    1    2    0    0  0.00000000000E+00 -0.17763568394E-14  0.00000000000E+00  0.91188000000E+02  0.91188000000E+02 0.  0.
    9900012    2    3    3    0    0 -0.16930368501E+02  0.11150038268E+02 -0.30737933141E+02  0.54367064858E+02  0.39999955956E+02 0.  0.
         12    1    3    3    0    0  0.16930368501E+02 -0.11150038268E+02  0.30737933141E+02  0.36820935142E+02  0.00000000000E+00 0. -1.
         11    1    4    4    0    0 -0.89998675419E+01  0.25978948796E+01 -0.21344819538E+02  0.23309826146E+02  0.51100000000E-03 0. -1.
        -11    1    4    4    0    0 -0.14389124508E+02  0.55374114127E+01  0.39623420809E+01  0.15918856250E+02  0.51100000000E-03 0.  1.
        -12    1    4    4    0    0  0.64586235490E+01  0.30147319753E+01 -0.13355455684E+02  0.15138382462E+02  0.00000000000E+00 0.  1.
</event>
<event>
 8    1  0.1248739E-006  0.9118800E+02  0.7816164E-02  0.1184000E+00
        -11   -1    0    0    0    0  0.00000000000E+00  0.00000000000E+00  0.45593999997E+02  0.45594000000E+02  0.51100000000E-03 0.  1.
         11   -1    0    0    0    0 -0.00000000000E+00 -0.00000000000E+00 -0.45593999997E+02  0.45594000000E+02  0.51100000000E-03 0. -1.
         23    2    1    2    0    0 -0.35527136788E-14 -0.53290705182E-14  0.00000000000E+00  0.91188000000E+02  0.91188000000E+02 0.  0.
    9900012    2    3    3    0    0  0.26141285825E+02  0.14829109944E+02 -0.21272267884E+02  0.54367099587E+02  0.40000035128E+02 0.  0.
        -12    1    3    3    0    0 -0.26141285825E+02 -0.14829109944E+02  0.21272267884E+02  0.36820900413E+02  0.00000000000E+00 0.  1.
         11    1    4    4    0    0  0.84785506821E+00 -0.87738957048E+01 -0.13165016805E+02  0.15843540381E+02  0.51100000000E-03 0. -1.
        -11    1    4    4    0    0  0.63471891222E+01  0.10496243819E+02 -0.93934166370E+01  0.15449732051E+02  0.51100000000E-03 0.  1.
         12    1    4    4    0    0  0.18946241635E+02  0.13106761829E+02  0.12861655580E+01  0.23073827155E+02  0.00000000000E+00 0. -1.
</event>
<event>
 8    1  0.1248739E-006  0.9118800E+02  0.7816164E-02  0.1184000E+00
        -11   -1    0    0    0    0  0.00000000000E+00  0.00000000000E+00  0.45593999997E+02  0.45594000000E+02  0.51100000000E-03 0. -1.
         11   -1    0    0    0    0 -0.00000000000E+00 -0.00000000000E+00 -0.45593999997E+02  0.45594000000E+02  0.51100000000E-03 0.  1.
         23    2    1    2    0    0  0.35527136788E-14  0.00000000000E+00  0.00000000000E+00  0.91188000000E+02  0.91188000000E+02 0.  0.
    9900012    2    3    3    0    0  0.30241092303E+02  0.10764639819E+02 -0.18038244711E+02  0.54367090093E+02  0.40000013486E+02 0.  0.
         12    1    3    3    0    0 -0.30241092303E+02 -0.10764639819E+02  0.18038244711E+02  0.36820909907E+02  0.00000000000E+00 0. -1.
         11    1    4    4    0    0  0.67566223220E+01  0.25091193212E+01 -0.13063000461E+02  0.14919437197E+02  0.51100000000E-03 0. -1.
        -11    1    4    4    0    0  0.26934426923E+02  0.14095389118E+02 -0.88168786411E+01  0.31652499068E+02  0.51100000000E-03 0.  1.
         12    1    4    4    0    0 -0.34499569421E+01 -0.58398686199E+01  0.38416343911E+01  0.77951538275E+01  0.00000000000E+00 0. -1.
</event>
<event>
 8    1  0.1248739E-006  0.9118800E+02  0.7816164E-02  0.1184000E+00
        -11   -1    0    0    0    0  0.00000000000E+00  0.00000000000E+00  0.45593999997E+02  0.45594000000E+02  0.51100000000E-03 0. -1.
         11   -1    0    0    0    0 -0.00000000000E+00 -0.00000000000E+00 -0.45593999997E+02  0.45594000000E+02  0.51100000000E-03 0.  1.
         23    2    1    2    0    0  0.00000000000E+00 -0.35527136788E-14  0.88817841970E-15  0.91188000000E+02  0.91188000000E+02 0.  0.
    9900012    2    3    3    0    0  0.19870426152E+02  0.30587084299E+02 -0.50374169661E+01  0.54367093832E+02  0.40000022009E+02 0.  0.
         12    1    3    3    0    0 -0.19870426152E+02 -0.30587084299E+02  0.50374169661E+01  0.36820906168E+02  0.00000000000E+00 0. -1.
         11    1    4    4    0    0 -0.86498166664E+00  0.94569521795E+01  0.79535976986E+01  0.12387164906E+02  0.51100000000E-03 0. -1.
        -11    1    4    4    0    0  0.22141531723E+02  0.22741791193E+02 -0.18031516473E+02  0.36504411792E+02  0.51100000000E-03 0.  1.
        -12    1    4    4    0    0 -0.14061239039E+01 -0.16116590743E+01  0.50405018079E+01  0.54755171336E+01  0.00000000000E+00 0.  1.
</event>
<event>
 8    1  0.1248739E-006  0.9118800E+02  0.7816164E-02  0.1184000E+00
        -11   -1    0    0    0    0  0.00000000000E+00  0.00000000000E+00  0.45593999997E+02  0.45594000000E+02  0.51100000000E-03 0.  1.
         11   -1    0    0    0    0 -0.00000000000E+00 -0.00000000000E+00 -0.45593999997E+02  0.45594000000E+02  0.51100000000E-03 0. -1.
         23    2    1    2    0    0  0.17763568394E-14 -0.35527136788E-14 -0.35527136788E-14  0.91188000000E+02  0.91188000000E+02 0.  0.
    9900012    2    3    3    0    0 -0.71434958708E+01 -0.26850594275E+02 -0.24161920223E+02  0.54367050324E+02  0.39999922824E+02 0.  0.
        -12    1    3    3    0    0  0.71434958708E+01  0.26850594275E+02  0.24161920223E+02  0.36820949676E+02  0.00000000000E+00 0.  1.
         11    1    4    4    0    0  0.27799077078E+01 -0.72348198557E+01  0.70108303407E+00  0.77821605542E+01  0.51100000000E-03 0.  1.
        -11    1    4    4    0    0  0.84863260351E+01 -0.18893934488E+02 -0.10486556963E+02  0.23215649188E+02  0.51100000000E-03 0. -1.
         12    1    4    4    0    0 -0.18409729614E+02 -0.72183993078E+00 -0.14376446294E+02  0.23369240582E+02  0.00000000000E+00 0. -1.
</event>
<event>
 8    1  0.1248739E-006  0.9118800E+02  0.7816164E-02  0.1184000E+00
        -11   -1    0    0    0    0  0.00000000000E+00  0.00000000000E+00  0.45593999997E+02  0.45594000000E+02  0.51100000000E-03 0. -1.
         11   -1    0    0    0    0 -0.00000000000E+00 -0.00000000000E+00 -0.45593999997E+02  0.45594000000E+02  0.51100000000E-03 0.  1.
         23    2    1    2    0    0  0.88817841970E-15 -0.35527136788E-14  0.00000000000E+00  0.91188000000E+02  0.91188000000E+02 0.  0.
    9900012    2    3    3    0    0  0.79286409416E+01 -0.15569591104E+02  0.32411473109E+02  0.54367094207E+02  0.40000022863E+02 0.  0.
        -12    1    3    3    0    0 -0.79286409416E+01  0.15569591104E+02 -0.32411473109E+02  0.36820905793E+02  0.00000000000E+00 0.  1.
         11    1    4    4    0    0  0.62547410937E+01  0.11123132361E+02  0.76670038043E+01  0.14887202802E+02  0.51100000000E-03 0. -1.
        -11    1    4    4    0    0  0.58618504563E+01 -0.32081707858E+01  0.35357594301E+01  0.75601088333E+01  0.51100000000E-03 0.  1.
         12    1    4    4    0    0 -0.41879506084E+01 -0.23484552680E+02  0.21208709875E+02  0.31919782571E+02  0.00000000000E+00 0. -1.
</event>
<event>
 8    1  0.1248739E-006  0.9118800E+02  0.7816164E-02  0.1184000E+00
        -11   -1    0    0    0    0  0.00000000000E+00  0.00000000000E+00  0.45593999997E+02  0.45594000000E+02  0.51100000000E-03 0. -1.
         11   -1    0    0    0    0 -0.00000000000E+00 -0.00000000000E+00 -0.45593999997E+02  0.45594000000E+02  0.51100000000E-03 0.  1.
         23    2    1    2    0    0  0.17763568394E-14  0.35527136788E-14  0.17763568394E-14  0.91188000000E+02  0.91188000000E+02 0.  0.
    9900012    2    3    3    0    0  0.15861016855E+02  0.31360766123E+02  0.10986778002E+02  0.54367098350E+02  0.40000032308E+02 0.  0.
        -12    1    3    3    0    0 -0.15861016855E+02 -0.31360766123E+02 -0.10986778002E+02  0.36820901650E+02  0.00000000000E+00 0.  1.
         11    1    4    4    0    0  0.98041928511E+01  0.23938478092E+02 -0.97239205003E+01  0.27635621234E+02  0.51100000000E-03 0. -1.
        -11    1    4    4    0    0  0.81043394650E+01 -0.44098451139E+00  0.66539243982E+01  0.10495212988E+02  0.51100000000E-03 0.  1.
         12    1    4    4    0    0 -0.20475154613E+01  0.78632725417E+01  0.14056774104E+02  0.16236264128E+02  0.00000000000E+00 0. -1.
</event>
<event>
 8    1  0.1248739E-006  0.9118800E+02  0.7816164E-02  0.1184000E+00
        -11   -1    0    0    0    0  0.00000000000E+00  0.00000000000E+00  0.45593999997E+02  0.45594000000E+02  0.51100000000E-03 0.  1.
         11   -1    0    0    0    0 -0.00000000000E+00 -0.00000000000E+00 -0.45593999997E+02  0.45594000000E+02  0.51100000000E-03 0. -1.
         23    2    1    2    0    0 -0.35527136788E-14 -0.35527136788E-14  0.00000000000E+00  0.91188000000E+02  0.91188000000E+02 0.  0.
    9900012    2    3    3    0    0  0.24520537739E+02 -0.19763379707E+02 -0.19077016484E+02  0.54367075156E+02  0.39999979433E+02 0.  0.
         12    1    3    3    0    0 -0.24520537739E+02  0.19763379707E+02  0.19077016484E+02  0.36820924844E+02  0.00000000000E+00 0. -1.
         11    1    4    4    0    0  0.19577567916E+01 -0.86568871677E+01 -0.17863136736E+02  0.19946582700E+02  0.51100000000E-03 0. -1.
        -11    1    4    4    0    0 -0.56086625216E-01 -0.94609728151E+01  0.52743390562E+01  0.10831980662E+02  0.51100000000E-03 0.  1.
         12    1    4    4    0    0  0.22618867572E+02 -0.16455197241E+01 -0.64882188035E+01  0.23588511794E+02  0.00000000000E+00 0. -1.
</event>
<event>
 8    1  0.1248739E-006  0.9118800E+02  0.7816164E-02  0.1184000E+00
        -11   -1    0    0    0    0  0.00000000000E+00  0.00000000000E+00  0.45593999997E+02  0.45594000000E+02  0.51100000000E-03 0. -1.
         11   -1    0    0    0    0 -0.00000000000E+00 -0.00000000000E+00 -0.45593999997E+02  0.45594000000E+02  0.51100000000E-03 0.  1.
         23    2    1    2    0    0  0.00000000000E+00 -0.11102230246E-15 -0.88817841970E-15  0.91188000000E+02  0.91188000000E+02 0.  0.
    9900012    2    3    3    0    0  0.36374386034E+02  0.83965096541E+00  0.56542188704E+01  0.54367202017E+02  0.40000268636E+02 0.  0.
         12    1    3    3    0    0 -0.36374386034E+02 -0.83965096541E+00 -0.56542188704E+01  0.36820797983E+02  0.00000000000E+00 0. -1.
         11    1    4    4    0    0  0.24173368760E+02  0.11216663514E+00  0.86149563567E+01  0.25662848864E+02  0.51100000000E-03 0. -1.
        -11    1    4    4    0    0  0.16845688750E+02  0.14323731147E+01 -0.10441406036E+02  0.19870880264E+02  0.51100000000E-03 0.  1.
         12    1    4    4    0    0 -0.46446714753E+01 -0.70488878441E+00  0.74806685501E+01  0.88334728883E+01  0.00000000000E+00 0. -1.
</event>
<event>
 8    1  0.1248739E-006  0.9118800E+02  0.7816164E-02  0.1184000E+00
        -11   -1    0    0    0    0  0.00000000000E+00  0.00000000000E+00  0.45593999997E+02  0.45594000000E+02  0.51100000000E-03 0. -1.
         11   -1    0    0    0    0 -0.00000000000E+00 -0.00000000000E+00 -0.45593999997E+02  0.45594000000E+02  0.51100000000E-03 0.  1.
         23    2    1    2    0    0  0.00000000000E+00  0.00000000000E+00  0.35527136788E-14  0.91188000000E+02  0.91188000000E+02 0.  0.
    9900012    2    3    3    0    0  0.43099869862E+01  0.27679223966E+02 -0.23896930549E+02  0.54367099457E+02  0.40000034831E+02 0.  0.
         12    1    3    3    0    0 -0.43099869862E+01 -0.27679223966E+02  0.23896930549E+02  0.36820900543E+02  0.00000000000E+00 0. -1.
         11    1    4    4    0    0  0.24231334058E+01  0.15869288734E+01  0.10501151418E+02  0.10893305289E+02  0.51100000000E-03 0. -1.
        -11    1    4    4    0    0  0.18023146786E+01  0.24032934850E+02 -0.29070465352E+02  0.37761385723E+02  0.51100000000E-03 0.  1.
         12    1    4    4    0    0  0.84538901864E-01  0.20593602426E+01 -0.53276166151E+01  0.57124084441E+01  0.00000000000E+00 0. -1.
</event>
<event>
 8    1  0.1248739E-006  0.9118800E+02  0.7816164E-02  0.1184000E+00
        -11   -1    0    0    0    0  0.00000000000E+00  0.00000000000E+00  0.45593999997E+02  0.45594000000E+02  0.51100000000E-03 0. -1.
         11   -1    0    0    0    0 -0.00000000000E+00 -0.00000000000E+00 -0.45593999997E+02  0.45594000000E+02  0.51100000000E-03 0.  1.
         23    2    1    2    0    0  0.35527136788E-14 -0.17763568394E-14  0.35527136788E-14  0.91188000000E+02  0.91188000000E+02 0.  0.
    9900012    2    3    3    0    0  0.29684144332E+02  0.43925979709E+01  0.21338630206E+02  0.54367075504E+02  0.39999980228E+02 0.  0.
        -12    1    3    3    0    0 -0.29684144332E+02 -0.43925979709E+01 -0.21338630206E+02  0.36820924496E+02  0.00000000000E+00 0.  1.
         11    1    4    4    0    0  0.70769606711E+01  0.32325538750E+01  0.11366217229E+02  0.13774021608E+02  0.51100000000E-03 0. -1.
        -11    1    4    4    0    0  0.11642393463E+02 -0.34648199990E+01 -0.11059721322E+02  0.16427651663E+02  0.51100000000E-03 0.  1.
        -12    1    4    4    0    0  0.10964790197E+02  0.46248640948E+01  0.21032134299E+02  0.24165402234E+02  0.00000000000E+00 0.  1.
</event>
<event>
 8    1  0.1248739E-006  0.9118800E+02  0.7816164E-02  0.1184000E+00
        -11   -1    0    0    0    0  0.00000000000E+00  0.00000000000E+00  0.45593999997E+02  0.45594000000E+02  0.51100000000E-03 0.  1.
         11   -1    0    0    0    0 -0.00000000000E+00 -0.00000000000E+00 -0.45593999997E+02  0.45594000000E+02  0.51100000000E-03 0. -1.
         23    2    1    2    0    0  0.00000000000E+00  0.35527136788E-14 -0.17763568394E-14  0.91188000000E+02  0.91188000000E+02 0.  0.
    9900012    2    3    3    0    0  0.29299918963E+02 -0.21932338994E+02 -0.40333293734E+01  0.54367075366E+02  0.39999979913E+02 0.  0.
        -12    1    3    3    0    0 -0.29299918963E+02  0.21932338994E+02  0.40333293734E+01  0.36820924634E+02  0.00000000000E+00 0.  1.
         11    1    4    4    0    0  0.50342323209E+01 -0.25221359592E+01  0.37257272241E+01  0.67517189268E+01  0.51100000000E-03 0. -1.
        -11    1    4    4    0    0  0.77287026301E+01  0.62413645302E+01  0.84644820982E+01  0.13051242584E+02  0.51100000000E-03 0.  1.
         12    1    4    4    0    0  0.16536984012E+02 -0.25651567565E+02 -0.16223538696E+02  0.34564113855E+02  0.00000000000E+00 0. -1.
</event>
<event>
 8    1  0.1248739E-006  0.9118800E+02  0.7816164E-02  0.1184000E+00
        -11   -1    0    0    0    0  0.00000000000E+00  0.00000000000E+00  0.45593999997E+02  0.45594000000E+02  0.51100000000E-03 0. -1.
         11   -1    0    0    0    0 -0.00000000000E+00 -0.00000000000E+00 -0.45593999997E+02  0.45594000000E+02  0.51100000000E-03 0.  1.
         23    2    1    2    0    0 -0.66613381478E-15  0.00000000000E+00  0.00000000000E+00  0.91188000000E+02  0.91188000000E+02 0.  0.
    9900012    2    3    3    0    0  0.10447548688E+01 -0.18453205962E+02  0.31846003725E+02  0.54367078281E+02  0.39999986557E+02 0.  0.
        -12    1    3    3    0    0 -0.10447548688E+01  0.18453205962E+02 -0.31846003725E+02  0.36820921719E+02  0.00000000000E+00 0.  1.
         11    1    4    4    0    0 -0.51657292156E+01  0.26871494942E+01  0.14693121470E+02  0.15804852088E+02  0.51100000000E-03 0. -1.
        -11    1    4    4    0    0  0.19486468507E+01 -0.24734531169E+02  0.20390807020E+02  0.32115094082E+02  0.51100000000E-03 0.  1.
         12    1    4    4    0    0  0.42618372338E+01  0.35941757129E+01 -0.32379247661E+01  0.64471321108E+01  0.00000000000E+00 0. -1.
</event>
<event>
 8    1  0.1248739E-006  0.9118800E+02  0.7816164E-02  0.1184000E+00
        -11   -1    0    0    0    0  0.00000000000E+00  0.00000000000E+00  0.45593999997E+02  0.45594000000E+02  0.51100000000E-03 0. -1.
         11   -1    0    0    0    0 -0.00000000000E+00 -0.00000000000E+00 -0.45593999997E+02  0.45594000000E+02  0.51100000000E-03 0.  1.
         23    2    1    2    0    0  0.35527136788E-14  0.00000000000E+00  0.00000000000E+00  0.91188000000E+02  0.91188000000E+02 0.  0.
    9900012    2    3    3    0    0 -0.17639787011E+02  0.65816092754E+01  0.31643325541E+02  0.54367085865E+02  0.40000003846E+02 0.  0.
        -12    1    3    3    0    0  0.17639787011E+02 -0.65816092754E+01 -0.31643325541E+02  0.36820914135E+02  0.00000000000E+00 0.  1.
         11    1    4    4    0    0 -0.10835411731E+02  0.19495910631E+02  0.19514078447E+02  0.29636058048E+02  0.51100000000E-03 0. -1.
        -11    1    4    4    0    0 -0.35085261886E+01 -0.71641620535E+01  0.15397552378E+02  0.17341268508E+02  0.51100000000E-03 0.  1.
        -12    1    4    4    0    0 -0.32958490905E+01 -0.57501393023E+01 -0.32683052837E+01  0.73897593094E+01  0.00000000000E+00 0.  1.
</event>
<event>
 8    1  0.1248739E-006  0.9118800E+02  0.7816164E-02  0.1184000E+00
        -11   -1    0    0    0    0  0.00000000000E+00  0.00000000000E+00  0.45593999997E+02  0.45594000000E+02  0.51100000000E-03 0. -1.
         11   -1    0    0    0    0 -0.00000000000E+00 -0.00000000000E+00 -0.45593999997E+02  0.45594000000E+02  0.51100000000E-03 0.  1.
         23    2    1    2    0    0  0.71054273576E-14  0.17763568394E-14  0.35527136788E-14  0.91188000000E+02  0.91188000000E+02 0.  0.
    9900012    2    3    3    0    0 -0.22308140822E+02 -0.11657300410E+02 -0.26874414662E+02  0.54367082532E+02  0.39999996247E+02 0.  0.
         12    1    3    3    0    0  0.22308140822E+02  0.11657300410E+02  0.26874414662E+02  0.36820917468E+02  0.00000000000E+00 0. -1.
         11    1    4    4    0    0 -0.10431683489E+01 -0.12017708275E+02 -0.59141385163E+01  0.13434677035E+02  0.51100000000E-03 0. -1.
        -11    1    4    4    0    0  0.38011906902E+01 -0.29042955434E+00 -0.14564215163E+02  0.15054891683E+02  0.51100000000E-03 0.  1.
         12    1    4    4    0    0 -0.25066163164E+02  0.65083741908E+00 -0.63960609820E+01  0.25877513814E+02  0.00000000000E+00 0. -1.
</event>
<event>
 8    1  0.1248739E-006  0.9118800E+02  0.7816164E-02  0.1184000E+00
        -11   -1    0    0    0    0  0.00000000000E+00  0.00000000000E+00  0.45593999997E+02  0.45594000000E+02  0.51100000000E-03 0. -1.
         11   -1    0    0    0    0 -0.00000000000E+00 -0.00000000000E+00 -0.45593999997E+02  0.45594000000E+02  0.51100000000E-03 0.  1.
         23    2    1    2    0    0 -0.17763568394E-14  0.00000000000E+00  0.35527136788E-14  0.91188000000E+02  0.91188000000E+02 0.  0.
    9900012    2    3    3    0    0  0.98397549365E+01  0.17944449920E+02 -0.30609708957E+02  0.54367104538E+02  0.40000046416E+02 0.  0.
         12    1    3    3    0    0 -0.98397549365E+01 -0.17944449920E+02  0.30609708957E+02  0.36820895462E+02  0.00000000000E+00 0. -1.
         11    1    4    4    0    0 -0.50045571202E+01  0.90693292038E+01 -0.27806628418E+01  0.10725223088E+02  0.51100000000E-03 0. -1.
        -11    1    4    4    0    0 -0.11774828538E+00  0.36737090783E+01 -0.27555058052E+02  0.27799122784E+02  0.51100000000E-03 0.  1.
        -12    1    4    4    0    0  0.14962060342E+02  0.52014116382E+01 -0.27398806306E+00  0.15842758667E+02  0.00000000000E+00 0.  1.
</event>
<event>
 8    1  0.1248739E-006  0.9118800E+02  0.7816164E-02  0.1184000E+00
        -11   -1    0    0    0    0  0.00000000000E+00  0.00000000000E+00  0.45593999997E+02  0.45594000000E+02  0.51100000000E-03 0.  1.
         11   -1    0    0    0    0 -0.00000000000E+00 -0.00000000000E+00 -0.45593999997E+02  0.45594000000E+02  0.51100000000E-03 0. -1.
         23    2    1    2    0    0 -0.18873791419E-14  0.00000000000E+00  0.00000000000E+00  0.91188000000E+02  0.91188000000E+02 0.  0.
    9900012    2    3    3    0    0  0.51318707444E+00  0.12949984960E+02  0.34464670079E+02  0.54367096222E+02  0.40000027456E+02 0.  0.
         12    1    3    3    0    0 -0.51318707444E+00 -0.12949984960E+02 -0.34464670079E+02  0.36820903778E+02  0.00000000000E+00 0. -1.
         11    1    4    4    0    0  0.17838019241E+02  0.14060244231E+01  0.64073854196E+01  0.19005957574E+02  0.51100000000E-03 0. -1.
        -11    1    4    4    0    0 -0.13946275470E+02  0.67634626171E+01  0.18293517578E+02  0.23976985042E+02  0.51100000000E-03 0.  1.
         12    1    4    4    0    0 -0.33785566970E+01  0.47804979199E+01  0.97637670806E+01  0.11384153606E+02  0.00000000000E+00 0. -1.
</event>
<event>
 8    1  0.1248739E-006  0.9118800E+02  0.7816164E-02  0.1184000E+00
        -11   -1    0    0    0    0  0.00000000000E+00  0.00000000000E+00  0.45593999997E+02  0.45594000000E+02  0.51100000000E-03 0.  1.
         11   -1    0    0    0    0 -0.00000000000E+00 -0.00000000000E+00 -0.45593999997E+02  0.45594000000E+02  0.51100000000E-03 0. -1.
         23    2    1    2    0    0  0.35527136788E-14  0.35527136788E-14  0.00000000000E+00  0.91188000000E+02  0.91188000000E+02 0.  0.
    9900012    2    3    3    0    0 -0.20193473351E+02 -0.30063741550E+02 -0.66464311396E+01  0.54367082455E+02  0.39999996073E+02 0.  0.
        -12    1    3    3    0    0  0.20193473351E+02  0.30063741550E+02  0.66464311396E+01  0.36820917545E+02  0.00000000000E+00 0.  1.
         11    1    4    4    0    0 -0.68830016925E+01 -0.28071947239E+02  0.59703821329E+01  0.29513647642E+02  0.51100000000E-03 0.  1.
        -11    1    4    4    0    0 -0.65348770967E+01 -0.90198762647E+01 -0.40080253801E+01  0.11837527369E+02  0.51100000000E-03 0. -1.
         12    1    4    4    0    0 -0.67755945620E+01  0.70280819535E+01 -0.86087878924E+01  0.13015907444E+02  0.00000000000E+00 0. -1.
</event>
<event>
 8    1  0.1248739E-006  0.9118800E+02  0.7816164E-02  0.1184000E+00
        -11   -1    0    0    0    0  0.00000000000E+00  0.00000000000E+00  0.45593999997E+02  0.45594000000E+02  0.51100000000E-03 0. -1.
         11   -1    0    0    0    0 -0.00000000000E+00 -0.00000000000E+00 -0.45593999997E+02  0.45594000000E+02  0.51100000000E-03 0.  1.
         23    2    1    2    0    0 -0.17763568394E-14  0.14210854715E-13  0.00000000000E+00  0.91188000000E+02  0.91188000000E+02 0.  0.
    9900012    2    3    3    0    0  0.15663214105E+02 -0.33166876749E+02 -0.32251640808E+01  0.54367086476E+02  0.40000005238E+02 0.  0.
         12    1    3    3    0    0 -0.15663214105E+02  0.33166876749E+02  0.32251640808E+01  0.36820913524E+02  0.00000000000E+00 0. -1.
         11    1    4    4    0    0 -0.43038527073E+00  0.30424201372E+00  0.28131260722E+01  0.28620749891E+01  0.51100000000E-03 0. -1.
        -11    1    4    4    0    0 -0.10779989525E+02 -0.11185444846E+02  0.20477126397E+01  0.15668933527E+02  0.51100000000E-03 0.  1.
         12    1    4    4    0    0  0.26873588901E+02 -0.22285673917E+02 -0.80860027927E+01  0.35836077959E+02  0.00000000000E+00 0. -1.
</event>
<event>
 8    1  0.1248739E-006  0.9118800E+02  0.7816164E-02  0.1184000E+00
        -11   -1    0    0    0    0  0.00000000000E+00  0.00000000000E+00  0.45593999997E+02  0.45594000000E+02  0.51100000000E-03 0. -1.
         11   -1    0    0    0    0 -0.00000000000E+00 -0.00000000000E+00 -0.45593999997E+02  0.45594000000E+02  0.51100000000E-03 0.  1.
         23    2    1    2    0    0  0.00000000000E+00  0.00000000000E+00  0.00000000000E+00  0.91188000000E+02  0.91188000000E+02 0.  0.
    9900012    2    3    3    0    0  0.20823260430E+02 -0.58987058483E+00  0.30361517049E+02  0.54367111366E+02  0.40000061982E+02 0.  0.
        -12    1    3    3    0    0 -0.20823260430E+02  0.58987058483E+00 -0.30361517049E+02  0.36820888634E+02  0.00000000000E+00 0.  1.
         11    1    4    4    0    0  0.16547120505E+02 -0.90136574381E+01  0.43331987814E+01  0.19334679448E+02  0.51100000000E-03 0. -1.
        -11    1    4    4    0    0  0.10173314838E+02  0.53193042585E+01  0.42241745567E+01  0.12232537903E+02  0.51100000000E-03 0.  1.
        -12    1    4    4    0    0 -0.58971749136E+01  0.31044825948E+01  0.21804143711E+02  0.22799894016E+02  0.00000000000E+00 0.  1.
</event>
<event>
 8    1  0.1248739E-006  0.9118800E+02  0.7816164E-02  0.1184000E+00
        -11   -1    0    0    0    0  0.00000000000E+00  0.00000000000E+00  0.45593999997E+02  0.45594000000E+02  0.51100000000E-03 0.  1.
         11   -1    0    0    0    0 -0.00000000000E+00 -0.00000000000E+00 -0.45593999997E+02  0.45594000000E+02  0.51100000000E-03 0. -1.
         23    2    1    2    0    0 -0.17763568394E-14  0.00000000000E+00  0.35527136788E-14  0.91188000000E+02  0.91188000000E+02 0.  0.
    9900012    2    3    3    0    0  0.63395561881E+01 -0.21878027450E+02 -0.28929948114E+02  0.54367082634E+02  0.39999996481E+02 0.  0.
        -12    1    3    3    0    0 -0.63395561881E+01  0.21878027450E+02  0.28929948114E+02  0.36820917366E+02  0.00000000000E+00 0.  1.
         11    1    4    4    0    0 -0.28864029010E+00 -0.16439566013E+01 -0.27434825901E+01  0.32113242607E+01  0.51100000000E-03 0. -1.
        -11    1    4    4    0    0 -0.55131991441E+01 -0.27366840412E+02 -0.24178935860E+02  0.36931832591E+02  0.51100000000E-03 0.  1.
        -12    1    4    4    0    0  0.12141395622E+02  0.71327695638E+01 -0.20075296638E+01  0.14223925782E+02  0.00000000000E+00 0.  1.
</event>
<event>
 8    1  0.1248739E-006  0.9118800E+02  0.7816164E-02  0.1184000E+00
        -11   -1    0    0    0    0  0.00000000000E+00  0.00000000000E+00  0.45593999997E+02  0.45594000000E+02  0.51100000000E-03 0. -1.
         11   -1    0    0    0    0 -0.00000000000E+00 -0.00000000000E+00 -0.45593999997E+02  0.45594000000E+02  0.51100000000E-03 0.  1.
         23    2    1    2    0    0  0.35527136788E-14  0.00000000000E+00  0.35527136788E-14  0.91188000000E+02  0.91188000000E+02 0.  0.
    9900012    2    3    3    0    0  0.20481494969E+02  0.19974255123E+02  0.23180109199E+02  0.54367082489E+02  0.39999996151E+02 0.  0.
        -12    1    3    3    0    0 -0.20481494969E+02 -0.19974255123E+02 -0.23180109199E+02  0.36820917511E+02  0.00000000000E+00 0.  1.
         11    1    4    4    0    0  0.22582034856E+02  0.14716349769E+02  0.47126116187E+01  0.27362893803E+02  0.51100000000E-03 0. -1.
        -11    1    4    4    0    0 -0.10138092896E+02  0.29660900627E+00  0.11010096888E+02  0.14969673951E+02  0.51100000000E-03 0.  1.
        -12    1    4    4    0    0  0.80375530086E+01  0.49612963473E+01  0.74574006926E+01  0.12034514735E+02  0.00000000000E+00 0.  1.
</event>
<event>
 8    1  0.1248739E-006  0.9118800E+02  0.7816164E-02  0.1184000E+00
        -11   -1    0    0    0    0  0.00000000000E+00  0.00000000000E+00  0.45593999997E+02  0.45594000000E+02  0.51100000000E-03 0. -1.
         11   -1    0    0    0    0 -0.00000000000E+00 -0.00000000000E+00 -0.45593999997E+02  0.45594000000E+02  0.51100000000E-03 0.  1.
         23    2    1    2    0    0 -0.35527136788E-14  0.00000000000E+00  0.00000000000E+00  0.91188000000E+02  0.91188000000E+02 0.  0.
    9900012    2    3    3    0    0  0.24275045628E+02  0.87441834409E+01 -0.26268647834E+02  0.54367076013E+02  0.39999981386E+02 0.  0.
         12    1    3    3    0    0 -0.24275045628E+02 -0.87441834409E+01  0.26268647834E+02  0.36820923987E+02  0.00000000000E+00 0. -1.
         11    1    4    4    0    0  0.94174862473E+01 -0.60090325955E+01  0.37072045314E+01  0.11770339233E+02  0.51100000000E-03 0. -1.
        -11    1    4    4    0    0  0.18210722275E+02  0.17236785988E+02 -0.21032069218E+02  0.32727437003E+02  0.51100000000E-03 0.  1.
        -12    1    4    4    0    0 -0.33531628940E+01 -0.24835699516E+01 -0.89437831471E+01  0.98692997766E+01  0.00000000000E+00 0.  1.
</event>
<event>
 8    1  0.1248739E-006  0.9118800E+02  0.7816164E-02  0.1184000E+00
        -11   -1    0    0    0    0  0.00000000000E+00  0.00000000000E+00  0.45593999997E+02  0.45594000000E+02  0.51100000000E-03 0.  1.
         11   -1    0    0    0    0 -0.00000000000E+00 -0.00000000000E+00 -0.45593999997E+02  0.45594000000E+02  0.51100000000E-03 0. -1.
         23    2    1    2    0    0  0.00000000000E+00  0.00000000000E+00  0.00000000000E+00  0.91188000000E+02  0.91188000000E+02 0.  0.
    9900012    2    3    3    0    0 -0.94446932707E+01  0.55539731617E+01 -0.35152988774E+02  0.54367062089E+02  0.39999949645E+02 0.  0.
        -12    1    3    3    0    0  0.94446932707E+01 -0.55539731617E+01  0.35152988774E+02  0.36820937911E+02  0.00000000000E+00 0.  1.
         11    1    4    4    0    0 -0.85342385142E+01 -0.54227088978E+01 -0.93869767339E+01  0.13796895711E+02  0.51100000000E-03 0. -1.
        -11    1    4    4    0    0 -0.12490965430E+01 -0.28969249178E+01 -0.26486520498E+02  0.26673735856E+02  0.51100000000E-03 0.  1.
        -12    1    4    4    0    0  0.33864178656E+00  0.13873606977E+02  0.72050845741E+00  0.13896430522E+02  0.00000000000E+00 0.  1.
</event>
<event>
 8    1  0.1248739E-006  0.9118800E+02  0.7816164E-02  0.1184000E+00
        -11   -1    0    0    0    0  0.00000000000E+00  0.00000000000E+00  0.45593999997E+02  0.45594000000E+02  0.51100000000E-03 0. -1.
         11   -1    0    0    0    0 -0.00000000000E+00 -0.00000000000E+00 -0.45593999997E+02  0.45594000000E+02  0.51100000000E-03 0.  1.
         23    2    1    2    0    0  0.35527136788E-14  0.00000000000E+00  0.00000000000E+00  0.91188000000E+02  0.91188000000E+02 0.  0.
    9900012    2    3    3    0    0  0.31715725401E+02 -0.17549789634E+02  0.64729194276E+01  0.54367067912E+02  0.39999962918E+02 0.  0.
        -12    1    3    3    0    0 -0.31715725401E+02  0.17549789634E+02 -0.64729194276E+01  0.36820932088E+02  0.00000000000E+00 0.  1.
         11    1    4    4    0    0  0.36500905229E+02 -0.99040528119E+01  0.94714494121E+01  0.38988648334E+02  0.51100000000E-03 0. -1.
        -11    1    4    4    0    0 -0.51559776010E+01 -0.58551261989E+01 -0.73124649776E+01  0.10692930007E+02  0.51100000000E-03 0.  1.
        -12    1    4    4    0    0  0.37079777320E+00 -0.17906106236E+01  0.43139349932E+01  0.46854895709E+01  0.00000000000E+00 0.  1.
</event>
<event>
 8    1  0.1248739E-006  0.9118800E+02  0.7816164E-02  0.1184000E+00
        -11   -1    0    0    0    0  0.00000000000E+00  0.00000000000E+00  0.45593999997E+02  0.45594000000E+02  0.51100000000E-03 0. -1.
         11   -1    0    0    0    0 -0.00000000000E+00 -0.00000000000E+00 -0.45593999997E+02  0.45594000000E+02  0.51100000000E-03 0.  1.
         23    2    1    2    0    0  0.00000000000E+00  0.00000000000E+00  0.35527136788E-14  0.91188000000E+02  0.91188000000E+02 0.  0.
    9900012    2    3    3    0    0  0.21052164480E+02  0.48066896704E+01  0.29824203444E+02  0.54367068372E+02  0.39999963968E+02 0.  0.
        -12    1    3    3    0    0 -0.21052164480E+02 -0.48066896704E+01 -0.29824203444E+02  0.36820931628E+02  0.00000000000E+00 0.  1.
         11    1    4    4    0    0  0.35932638849E-01 -0.19048967103E+01  0.21626179351E+02  0.21709941415E+02  0.51100000000E-03 0. -1.
        -11    1    4    4    0    0 -0.25447813042E+01  0.62005730926E+01  0.59870414623E+01  0.89870843045E+01  0.51100000000E-03 0.  1.
        -12    1    4    4    0    0  0.23561013145E+02  0.51101328806E+00  0.22109826301E+01  0.23670042653E+02  0.00000000000E+00 0.  1.
</event>
<event>
 8    1  0.1248739E-006  0.9118800E+02  0.7816164E-02  0.1184000E+00
        -11   -1    0    0    0    0  0.00000000000E+00  0.00000000000E+00  0.45593999997E+02  0.45594000000E+02  0.51100000000E-03 0.  1.
         11   -1    0    0    0    0 -0.00000000000E+00 -0.00000000000E+00 -0.45593999997E+02  0.45594000000E+02  0.51100000000E-03 0. -1.
         23    2    1    2    0    0  0.00000000000E+00 -0.35527136788E-14  0.00000000000E+00  0.91188000000E+02  0.91188000000E+02 0.  0.
    9900012    2    3    3    0    0  0.81807144740E+01  0.31867282046E+02 -0.16532739423E+02  0.54367092527E+02  0.40000019034E+02 0.  0.
        -12    1    3    3    0    0 -0.81807144740E+01 -0.31867282046E+02  0.16532739423E+02  0.36820907473E+02  0.00000000000E+00 0.  1.
         11    1    4    4    0    0  0.91021891494E+01 -0.27759510218E+00 -0.13210999103E+02  0.16045479236E+02  0.51100000000E-03 0. -1.
        -11    1    4    4    0    0  0.33647006487E+01  0.42917680967E+01  0.64939798327E+01  0.84801095618E+01  0.51100000000E-03 0.  1.
         12    1    4    4    0    0 -0.42861753242E+01  0.27853109051E+02 -0.98157201528E+01  0.29841503730E+02  0.00000000000E+00 0. -1.
</event>
<event>
 8    1  0.1248739E-006  0.9118800E+02  0.7816164E-02  0.1184000E+00
        -11   -1    0    0    0    0  0.00000000000E+00  0.00000000000E+00  0.45593999997E+02  0.45594000000E+02  0.51100000000E-03 0.  1.
         11   -1    0    0    0    0 -0.00000000000E+00 -0.00000000000E+00 -0.45593999997E+02  0.45594000000E+02  0.51100000000E-03 0. -1.
         23    2    1    2    0    0  0.00000000000E+00 -0.17763568394E-14  0.00000000000E+00  0.91188000000E+02  0.91188000000E+02 0.  0.
    9900012    2    3    3    0    0  0.25228334180E+02  0.15773580912E+02 -0.21691106349E+02  0.54367098396E+02  0.40000032414E+02 0.  0.
        -12    1    3    3    0    0 -0.25228334180E+02 -0.15773580912E+02  0.21691106349E+02  0.36820901604E+02  0.00000000000E+00 0.  1.
         11    1    4    4    0    0  0.92606251011E+01  0.44061540907E+01 -0.14847409834E+02  0.18044914801E+02  0.51100000000E-03 0. -1.
        -11    1    4    4    0    0  0.78929742823E+01 -0.17093456318E+01  0.10436493678E+02  0.13196261064E+02  0.51100000000E-03 0.  1.
        -12    1    4    4    0    0  0.80747347969E+01  0.13076772453E+02 -0.17280190193E+02  0.23125922531E+02  0.00000000000E+00 0.  1.
</event>
<event>
 8    1  0.1248739E-006  0.9118800E+02  0.7816164E-02  0.1184000E+00
        -11   -1    0    0    0    0  0.00000000000E+00  0.00000000000E+00  0.45593999997E+02  0.45594000000E+02  0.51100000000E-03 0.  1.
         11   -1    0    0    0    0 -0.00000000000E+00 -0.00000000000E+00 -0.45593999997E+02  0.45594000000E+02  0.51100000000E-03 0. -1.
         23    2    1    2    0    0  0.00000000000E+00 -0.17763568394E-14  0.88817841970E-15  0.91188000000E+02  0.91188000000E+02 0.  0.
    9900012    2    3    3    0    0 -0.32804355839E+02 -0.15876862844E+02 -0.52518565956E+01  0.54367047629E+02  0.39999916680E+02 0.  0.
        -12    1    3    3    0    0  0.32804355839E+02  0.15876862844E+02  0.52518565956E+01  0.36820952371E+02  0.00000000000E+00 0.  1.
         11    1    4    4    0    0 -0.26823068549E+02 -0.10518161278E+02 -0.62517769624E+01  0.29482086739E+02  0.51100000000E-03 0. -1.
        -11    1    4    4    0    0 -0.13197181904E+02  0.32886611807E+01  0.68309398136E+00  0.13617911742E+02  0.51100000000E-03 0.  1.
        -12    1    4    4    0    0  0.72158946133E+01 -0.86473627466E+01  0.31682638540E+00  0.11267049148E+02  0.00000000000E+00 0.  1.
</event>
<event>
 8    1  0.1248739E-006  0.9118800E+02  0.7816164E-02  0.1184000E+00
        -11   -1    0    0    0    0  0.00000000000E+00  0.00000000000E+00  0.45593999997E+02  0.45594000000E+02  0.51100000000E-03 0. -1.
         11   -1    0    0    0    0 -0.00000000000E+00 -0.00000000000E+00 -0.45593999997E+02  0.45594000000E+02  0.51100000000E-03 0.  1.
         23    2    1    2    0    0 -0.17763568394E-14  0.00000000000E+00  0.00000000000E+00  0.91188000000E+02  0.91188000000E+02 0.  0.
    9900012    2    3    3    0    0 -0.94957956183E+01  0.15458839678E+02  0.32041132751E+02  0.54367081399E+02  0.39999993666E+02 0.  0.
        -12    1    3    3    0    0  0.94957956183E+01 -0.15458839678E+02 -0.32041132751E+02  0.36820918601E+02  0.00000000000E+00 0.  1.
         11    1    4    4    0    0 -0.14496385137E+02  0.17184945297E+02  0.10881987656E+02  0.24977693699E+02  0.51100000000E-03 0. -1.
        -11    1    4    4    0    0  0.80305024955E+00  0.31277987487E+01 -0.29907596176E+01  0.44014381817E+01  0.51100000000E-03 0.  1.
        -12    1    4    4    0    0  0.41975392689E+01 -0.48539043677E+01  0.24149904712E+02  0.24987949519E+02  0.00000000000E+00 0.  1.
</event>
<event>
 8    1  0.1248739E-006  0.9118800E+02  0.7816164E-02  0.1184000E+00
        -11   -1    0    0    0    0  0.00000000000E+00  0.00000000000E+00  0.45593999997E+02  0.45594000000E+02  0.51100000000E-03 0. -1.
         11   -1    0    0    0    0 -0.00000000000E+00 -0.00000000000E+00 -0.45593999997E+02  0.45594000000E+02  0.51100000000E-03 0.  1.
         23    2    1    2    0    0 -0.35527136788E-14  0.00000000000E+00 -0.17763568394E-14  0.91188000000E+02  0.91188000000E+02 0.  0.
    9900012    2    3    3    0    0 -0.30078476076E+02 -0.16553112132E+02 -0.13306430853E+02  0.54367063750E+02  0.39999953431E+02 0.  0.
        -12    1    3    3    0    0  0.30078476076E+02  0.16553112132E+02  0.13306430853E+02  0.36820936250E+02  0.00000000000E+00 0.  1.
         11    1    4    4    0    0 -0.12316149803E+02 -0.37048983967E+01 -0.50752797182E+01  0.13826506521E+02  0.51100000000E-03 0. -1.
        -11    1    4    4    0    0 -0.94256464929E+01 -0.65033342374E+01  0.12720426823E+02  0.17115648595E+02  0.51100000000E-03 0.  1.
        -12    1    4    4    0    0 -0.83366797798E+01 -0.63448794977E+01 -0.20951577957E+02  0.23424908634E+02  0.00000000000E+00 0.  1.
</event>
<event>
 8    1  0.1248739E-006  0.9118800E+02  0.7816164E-02  0.1184000E+00
        -11   -1    0    0    0    0  0.00000000000E+00  0.00000000000E+00  0.45593999997E+02  0.45594000000E+02  0.51100000000E-03 0.  1.
         11   -1    0    0    0    0 -0.00000000000E+00 -0.00000000000E+00 -0.45593999997E+02  0.45594000000E+02  0.51100000000E-03 0. -1.
         23    2    1    2    0    0  0.88817841970E-15  0.00000000000E+00  0.71054273576E-14  0.91188000000E+02  0.91188000000E+02 0.  0.
    9900012    2    3    3    0    0  0.43932168105E+01  0.96399401873E+01  0.35264049046E+02  0.54367055472E+02  0.39999934560E+02 0.  0.
         12    1    3    3    0    0 -0.43932168105E+01 -0.96399401873E+01 -0.35264049046E+02  0.36820944528E+02  0.00000000000E+00 0. -1.
         11    1    4    4    0    0  0.34393824515E+01 -0.28751159219E+00 -0.78278172703E+01  0.85549247829E+01  0.51100000000E-03 0. -1.
        -11    1    4    4    0    0 -0.14628481727E+01  0.94963129785E+01  0.16398098547E+02  0.19005723380E+02  0.51100000000E-03 0.  1.
         12    1    4    4    0    0  0.24166825317E+01  0.43113880097E+00  0.26693767770E+02  0.26806407310E+02  0.00000000000E+00 0. -1.
</event>
<event>
 8    1  0.1248739E-006  0.9118800E+02  0.7816164E-02  0.1184000E+00
        -11   -1    0    0    0    0  0.00000000000E+00  0.00000000000E+00  0.45593999997E+02  0.45594000000E+02  0.51100000000E-03 0.  1.
         11   -1    0    0    0    0 -0.00000000000E+00 -0.00000000000E+00 -0.45593999997E+02  0.45594000000E+02  0.51100000000E-03 0. -1.
         23    2    1    2    0    0  0.00000000000E+00  0.00000000000E+00  0.00000000000E+00  0.91188000000E+02  0.91188000000E+02 0.  0.
    9900012    2    3    3    0    0 -0.26612878157E+02 -0.24373869142E+02  0.73108940864E+01  0.54367082669E+02  0.39999996560E+02 0.  0.
        -12    1    3    3    0    0  0.26612878157E+02  0.24373869142E+02 -0.73108940864E+01  0.36820917331E+02  0.00000000000E+00 0.  1.
         11    1    4    4    0    0  0.30973807374E+01  0.73898276524E+00  0.16337355222E+01  0.35789600413E+01  0.51100000000E-03 0. -1.
        -11    1    4    4    0    0 -0.15364342014E+02  0.21176344214E+01  0.11697867666E+02  0.19426463632E+02  0.51100000000E-03 0.  1.
         12    1    4    4    0    0 -0.14345916880E+02 -0.27230486329E+02 -0.60207091017E+01  0.31361658995E+02  0.00000000000E+00 0. -1.
</event>
<event>
 8    1  0.1248739E-006  0.9118800E+02  0.7816164E-02  0.1184000E+00
        -11   -1    0    0    0    0  0.00000000000E+00  0.00000000000E+00  0.45593999997E+02  0.45594000000E+02  0.51100000000E-03 0.  1.
         11   -1    0    0    0    0 -0.00000000000E+00 -0.00000000000E+00 -0.45593999997E+02  0.45594000000E+02  0.51100000000E-03 0. -1.
         23    2    1    2    0    0  0.00000000000E+00  0.71054273576E-14 -0.35527136788E-14  0.91188000000E+02  0.91188000000E+02 0.  0.
    9900012    2    3    3    0    0  0.89396481560E+01  0.27094586839E+02  0.23275410858E+02  0.54367099743E+02  0.40000035485E+02 0.  0.
         12    1    3    3    0    0 -0.89396481560E+01 -0.27094586839E+02 -0.23275410858E+02  0.36820900257E+02  0.00000000000E+00 0. -1.
         11    1    4    4    0    0  0.91882148194E+01  0.18332336700E+02 -0.20500593704E+01  0.20608265432E+02  0.51100000000E-03 0. -1.
        -11    1    4    4    0    0  0.49442942270E+01 -0.53061559703E+01  0.70025612714E+01  0.10081527722E+02  0.51100000000E-03 0.  1.
        -12    1    4    4    0    0 -0.51928608904E+01  0.14068406109E+02  0.18322908957E+02  0.23677306589E+02  0.00000000000E+00 0.  1.
</event>
<event>
 8    1  0.1248739E-006  0.9118800E+02  0.7816164E-02  0.1184000E+00
        -11   -1    0    0    0    0  0.00000000000E+00  0.00000000000E+00  0.45593999997E+02  0.45594000000E+02  0.51100000000E-03 0. -1.
         11   -1    0    0    0    0 -0.00000000000E+00 -0.00000000000E+00 -0.45593999997E+02  0.45594000000E+02  0.51100000000E-03 0.  1.
         23    2    1    2    0    0  0.00000000000E+00  0.00000000000E+00  0.26645352591E-14  0.91188000000E+02  0.91188000000E+02 0.  0.
    9900012    2    3    3    0    0 -0.35039199351E+02 -0.83892649162E+01  0.75936686956E+01  0.54366958987E+02  0.39999714602E+02 0.  0.
         12    1    3    3    0    0  0.35039199351E+02  0.83892649162E+01 -0.75936686956E+01  0.36821041013E+02  0.00000000000E+00 0. -1.
         11    1    4    4    0    0 -0.84691908236E+01 -0.94715137195E+01 -0.50903516601E+01  0.13687528836E+02  0.51100000000E-03 0.  1.
        -11    1    4    4    0    0 -0.50526662669E+01 -0.36017502245E+00 -0.88539525966E+01  0.10200570538E+02  0.51100000000E-03 0. -1.
        -12    1    4    4    0    0 -0.21517342261E+02  0.14424238258E+01  0.21537972952E+02  0.30478859614E+02  0.00000000000E+00 0.  1.
</event>
<event>
 8    1  0.1248739E-006  0.9118800E+02  0.7816164E-02  0.1184000E+00
        -11   -1    0    0    0    0  0.00000000000E+00  0.00000000000E+00  0.45593999997E+02  0.45594000000E+02  0.51100000000E-03 0. -1.
         11   -1    0    0    0    0 -0.00000000000E+00 -0.00000000000E+00 -0.45593999997E+02  0.45594000000E+02  0.51100000000E-03 0.  1.
         23    2    1    2    0    0 -0.35527136788E-14  0.17763568394E-14 -0.71054273576E-14  0.91188000000E+02  0.91188000000E+02 0.  0.
    9900012    2    3    3    0    0  0.28594845433E+02 -0.91735262006E+01  0.21306589329E+02  0.54366952797E+02  0.39999700490E+02 0.  0.
        -12    1    3    3    0    0 -0.28594845433E+02  0.91735262006E+01 -0.21306589329E+02  0.36821047203E+02  0.00000000000E+00 0.  1.
         11    1    4    4    0    0  0.39003505390E+01  0.67527904980E+01  0.77005030670E+01  0.10959500973E+02  0.51100000000E-03 0. -1.
        -11    1    4    4    0    0  0.32833147527E+01  0.55260914371E+01 -0.47325665008E+01  0.79821693970E+01  0.51100000000E-03 0.  1.
        -12    1    4    4    0    0  0.21411180142E+02 -0.21452408136E+02  0.18338652762E+02  0.35425282427E+02  0.00000000000E+00 0.  1.
</event>
<event>
 8    1  0.1248739E-006  0.9118800E+02  0.7816164E-02  0.1184000E+00
        -11   -1    0    0    0    0  0.00000000000E+00  0.00000000000E+00  0.45593999997E+02  0.45594000000E+02  0.51100000000E-03 0.  1.
         11   -1    0    0    0    0 -0.00000000000E+00 -0.00000000000E+00 -0.45593999997E+02  0.45594000000E+02  0.51100000000E-03 0. -1.
         23    2    1    2    0    0  0.00000000000E+00  0.00000000000E+00  0.00000000000E+00  0.91188000000E+02  0.91188000000E+02 0.  0.
    9900012    2    3    3    0    0  0.22857372342E+01 -0.33484583433E+02 -0.15143912179E+02  0.54367082053E+02  0.39999995156E+02 0.  0.
        -12    1    3    3    0    0 -0.22857372342E+01  0.33484583433E+02  0.15143912179E+02  0.36820917947E+02  0.00000000000E+00 0.  1.
         11    1    4    4    0    0 -0.17230829358E+02 -0.17783948058E+02 -0.73681062977E+01  0.25835233299E+02  0.51100000000E-03 0. -1.
        -11    1    4    4    0    0  0.17073819997E+02 -0.17183025181E+02 -0.83408429569E+01  0.25619159728E+02  0.51100000000E-03 0.  1.
         12    1    4    4    0    0  0.24427465954E+01  0.14823898066E+01  0.56503707561E+00  0.29126890265E+01  0.00000000000E+00 0. -1.
</event>
<event>
 8    1  0.1248739E-006  0.9118800E+02  0.7816164E-02  0.1184000E+00
        -11   -1    0    0    0    0  0.00000000000E+00  0.00000000000E+00  0.45593999997E+02  0.45594000000E+02  0.51100000000E-03 0.  1.
         11   -1    0    0    0    0 -0.00000000000E+00 -0.00000000000E+00 -0.45593999997E+02  0.45594000000E+02  0.51100000000E-03 0. -1.
         23    2    1    2    0    0  0.35527136788E-14  0.35527136788E-14 -0.17763568394E-14  0.91188000000E+02  0.91188000000E+02 0.  0.
    9900012    2    3    3    0    0 -0.22386238232E+02 -0.26925932742E+02  0.11385528780E+02  0.54367084995E+02  0.40000001864E+02 0.  0.
         12    1    3    3    0    0  0.22386238232E+02  0.26925932742E+02 -0.11385528780E+02  0.36820915005E+02  0.00000000000E+00 0. -1.
         11    1    4    4    0    0 -0.11800024728E+02 -0.41590788643E+01  0.48689223225E+01  0.13425532594E+02  0.51100000000E-03 0. -1.
        -11    1    4    4    0    0 -0.14084849905E+02 -0.29046868253E+02  0.17761441880E+01  0.32330453764E+02  0.51100000000E-03 0.  1.
         12    1    4    4    0    0  0.34986364013E+01  0.62800143754E+01  0.47404622694E+01  0.86110986379E+01  0.00000000000E+00 0. -1.
</event>
<event>
 8    1  0.1248739E-006  0.9118800E+02  0.7816164E-02  0.1184000E+00
        -11   -1    0    0    0    0  0.00000000000E+00  0.00000000000E+00  0.45593999997E+02  0.45594000000E+02  0.51100000000E-03 0.  1.
         11   -1    0    0    0    0 -0.00000000000E+00 -0.00000000000E+00 -0.45593999997E+02  0.45594000000E+02  0.51100000000E-03 0. -1.
         23    2    1    2    0    0  0.00000000000E+00  0.00000000000E+00  0.00000000000E+00  0.91188000000E+02  0.91188000000E+02 0.  0.
    9900012    2    3    3    0    0  0.19181651729E+02 -0.83915637744E+01 -0.30289057760E+02  0.54367066747E+02  0.39999960262E+02 0.  0.
        -12    1    3    3    0    0 -0.19181651729E+02  0.83915637744E+01  0.30289057760E+02  0.36820933253E+02  0.00000000000E+00 0.  1.
         11    1    4    4    0    0  0.17232458436E+02 -0.16474571958E+02 -0.16189271106E+02  0.28817731419E+02  0.51100000000E-03 0. -1.
        -11    1    4    4    0    0 -0.20745022738E+00 -0.93549804400E+00  0.45882460312E+01  0.46872373623E+01  0.51100000000E-03 0.  1.
        -12    1    4    4    0    0  0.21566435211E+01  0.90185062276E+01 -0.18688032686E+02  0.20862097965E+02  0.00000000000E+00 0.  1.
</event>
<event>
 8    1  0.1248739E-006  0.9118800E+02  0.7816164E-02  0.1184000E+00
        -11   -1    0    0    0    0  0.00000000000E+00  0.00000000000E+00  0.45593999997E+02  0.45594000000E+02  0.51100000000E-03 0. -1.
         11   -1    0    0    0    0 -0.00000000000E+00 -0.00000000000E+00 -0.45593999997E+02  0.45594000000E+02  0.51100000000E-03 0.  1.
         23    2    1    2    0    0 -0.44408920985E-15  0.00000000000E+00  0.00000000000E+00  0.91188000000E+02  0.91188000000E+02 0.  0.
    9900012    2    3    3    0    0 -0.15835052561E+01  0.36497275826E+02 -0.46066494687E+01  0.54367084056E+02  0.39999999723E+02 0.  0.
         12    1    3    3    0    0  0.15835052561E+01 -0.36497275826E+02  0.46066494687E+01  0.36820915944E+02  0.00000000000E+00 0. -1.
         11    1    4    4    0    0 -0.60349822000E+01  0.52860468666E+01  0.20263173968E+01  0.82746156457E+01  0.51100000000E-03 0. -1.
        -11    1    4    4    0    0  0.12750799509E+02  0.17859238950E+02  0.91870090203E+01  0.23789418635E+02  0.51100000000E-03 0.  1.
        -12    1    4    4    0    0 -0.82993225655E+01  0.13351990010E+02 -0.15819975886E+02  0.22303049776E+02  0.00000000000E+00 0.  1.
</event>
<event>
 8    1  0.1248739E-006  0.9118800E+02  0.7816164E-02  0.1184000E+00
        -11   -1    0    0    0    0  0.00000000000E+00  0.00000000000E+00  0.45593999997E+02  0.45594000000E+02  0.51100000000E-03 0.  1.
         11   -1    0    0    0    0 -0.00000000000E+00 -0.00000000000E+00 -0.45593999997E+02  0.45594000000E+02  0.51100000000E-03 0. -1.
         23    2    1    2    0    0  0.00000000000E+00 -0.35527136788E-14  0.00000000000E+00  0.91188000000E+02  0.91188000000E+02 0.  0.
    9900012    2    3    3    0    0  0.23319581025E+02  0.10693105387E+02  0.26412785045E+02  0.54367074213E+02  0.39999977283E+02 0.  0.
         12    1    3    3    0    0 -0.23319581025E+02 -0.10693105387E+02 -0.26412785045E+02  0.36820925787E+02  0.00000000000E+00 0. -1.
         11    1    4    4    0    0  0.19564278902E+02  0.56158044384E+00 -0.57243411475E+01  0.20392264793E+02  0.51100000000E-03 0. -1.
        -11    1    4    4    0    0  0.30934801126E+01  0.52312868282E+01  0.17631644063E+02  0.18649687764E+02  0.51100000000E-03 0.  1.
         12    1    4    4    0    0  0.66182201041E+00  0.49002381146E+01  0.14505482129E+02  0.15325121656E+02  0.00000000000E+00 0. -1.
</event>
<event>
 8    1  0.1248739E-006  0.9118800E+02  0.7816164E-02  0.1184000E+00
        -11   -1    0    0    0    0  0.00000000000E+00  0.00000000000E+00  0.45593999997E+02  0.45594000000E+02  0.51100000000E-03 0. -1.
         11   -1    0    0    0    0 -0.00000000000E+00 -0.00000000000E+00 -0.45593999997E+02  0.45594000000E+02  0.51100000000E-03 0.  1.
         23    2    1    2    0    0 -0.22204460493E-15  0.00000000000E+00  0.00000000000E+00  0.91188000000E+02  0.91188000000E+02 0.  0.
    9900012    2    3    3    0    0  0.10146401074E+01 -0.94576835328E+01 -0.35571098546E+02  0.54367077631E+02  0.39999985074E+02 0.  0.
         12    1    3    3    0    0 -0.10146401074E+01  0.94576835328E+01  0.35571098546E+02  0.36820922369E+02  0.00000000000E+00 0. -1.
         11    1    4    4    0    0 -0.52193748238E+01 -0.55274355896E+01  0.28940371163E+01  0.81344863907E+01  0.51100000000E-03 0. -1.
        -11    1    4    4    0    0 -0.71038566433E+01 -0.58346209583E+01 -0.27064866347E+02  0.28583466752E+02  0.51100000000E-03 0.  1.
        -12    1    4    4    0    0  0.13337871574E+02  0.19043730151E+01 -0.11400269316E+02  0.17649124488E+02  0.00000000000E+00 0.  1.
</event>
<event>
 8    1  0.1248739E-006  0.9118800E+02  0.7816164E-02  0.1184000E+00
        -11   -1    0    0    0    0  0.00000000000E+00  0.00000000000E+00  0.45593999997E+02  0.45594000000E+02  0.51100000000E-03 0. -1.
         11   -1    0    0    0    0 -0.00000000000E+00 -0.00000000000E+00 -0.45593999997E+02  0.45594000000E+02  0.51100000000E-03 0.  1.
         23    2    1    2    0    0  0.00000000000E+00  0.44408920985E-15  0.71054273576E-14  0.91188000000E+02  0.91188000000E+02 0.  0.
    9900012    2    3    3    0    0  0.74454360195E+01 -0.28495463276E+01 -0.35947614305E+02  0.54367008622E+02  0.39999827756E+02 0.  0.
         12    1    3    3    0    0 -0.74454360195E+01  0.28495463276E+01  0.35947614305E+02  0.36820991378E+02  0.00000000000E+00 0. -1.
         11    1    4    4    0    0  0.12271400321E+02 -0.64691172324E+01 -0.67727172095E+00  0.13888680314E+02  0.51100000000E-03 0. -1.
        -11    1    4    4    0    0  0.38295315544E+01 -0.54110384125E+01 -0.74325976672E+01  0.99593251263E+01  0.51100000000E-03 0.  1.
        -12    1    4    4    0    0 -0.86554958564E+01  0.90306093173E+01 -0.27837744917E+02  0.30519003182E+02  0.00000000000E+00 0.  1.
</event>
<event>
 8    1  0.1248739E-006  0.9118800E+02  0.7816164E-02  0.1184000E+00
        -11   -1    0    0    0    0  0.00000000000E+00  0.00000000000E+00  0.45593999997E+02  0.45594000000E+02  0.51100000000E-03 0.  1.
         11   -1    0    0    0    0 -0.00000000000E+00 -0.00000000000E+00 -0.45593999997E+02  0.45594000000E+02  0.51100000000E-03 0. -1.
         23    2    1    2    0    0  0.35527136788E-14  0.00000000000E+00 -0.35527136788E-14  0.91188000000E+02  0.91188000000E+02 0.  0.
    9900012    2    3    3    0    0 -0.28014960549E+02  0.16828687990E+02  0.16962806353E+02  0.54367088097E+02  0.40000008935E+02 0.  0.
         12    1    3    3    0    0  0.28014960549E+02 -0.16828687990E+02 -0.16962806353E+02  0.36820911903E+02  0.00000000000E+00 0. -1.
         11    1    4    4    0    0 -0.15590400765E+02  0.28750583585E+02  0.11043576302E+02  0.34519809245E+02  0.51100000000E-03 0. -1.
        -11    1    4    4    0    0 -0.68802746899E+01 -0.23202870546E+01  0.47987128170E+01  0.87034221307E+01  0.51100000000E-03 0.  1.
         12    1    4    4    0    0 -0.55442850933E+01 -0.96016085404E+01  0.11205172344E+01  0.11143856722E+02  0.00000000000E+00 0. -1.
</event>
<event>
 8    1  0.1248739E-006  0.9118800E+02  0.7816164E-02  0.1184000E+00
        -11   -1    0    0    0    0  0.00000000000E+00  0.00000000000E+00  0.45593999997E+02  0.45594000000E+02  0.51100000000E-03 0. -1.
         11   -1    0    0    0    0 -0.00000000000E+00 -0.00000000000E+00 -0.45593999997E+02  0.45594000000E+02  0.51100000000E-03 0.  1.
         23    2    1    2    0    0  0.17763568394E-14  0.00000000000E+00  0.00000000000E+00  0.91188000000E+02  0.91188000000E+02 0.  0.
    9900012    2    3    3    0    0 -0.12296134238E+02  0.34623902099E+02 -0.24025938365E+01  0.54367055269E+02  0.39999934096E+02 0.  0.
         12    1    3    3    0    0  0.12296134238E+02 -0.34623902099E+02  0.24025938365E+01  0.36820944731E+02  0.00000000000E+00 0. -1.
         11    1    4    4    0    0 -0.71428573814E+01 -0.18221972222E+01 -0.35702165920E+01  0.81906813552E+01  0.51100000000E-03 0. -1.
        -11    1    4    4    0    0 -0.16441025242E+02  0.18308004731E+02 -0.14698566994E+01  0.24650574582E+02  0.51100000000E-03 0.  1.
         12    1    4    4    0    0  0.11287748386E+02  0.18138094590E+02  0.26374794549E+01  0.21525799331E+02  0.00000000000E+00 0. -1.
</event>
<event>
 8    1  0.1248739E-006  0.9118800E+02  0.7816164E-02  0.1184000E+00
        -11   -1    0    0    0    0  0.00000000000E+00  0.00000000000E+00  0.45593999997E+02  0.45594000000E+02  0.51100000000E-03 0. -1.
         11   -1    0    0    0    0 -0.00000000000E+00 -0.00000000000E+00 -0.45593999997E+02  0.45594000000E+02  0.51100000000E-03 0.  1.
         23    2    1    2    0    0  0.00000000000E+00  0.35527136788E-14  0.00000000000E+00  0.91188000000E+02  0.91188000000E+02 0.  0.
    9900012    2    3    3    0    0 -0.53966108182E+01  0.17699919331E+02 -0.31833459494E+02  0.54367086160E+02  0.40000004519E+02 0.  0.
         12    1    3    3    0    0  0.53966108182E+01 -0.17699919331E+02  0.31833459494E+02  0.36820913840E+02  0.00000000000E+00 0. -1.
         11    1    4    4    0    0 -0.64949068107E+00  0.11461051342E+02  0.51488315983E+01  0.12581256022E+02  0.51100000000E-03 0. -1.
        -11    1    4    4    0    0 -0.11081510936E+02  0.51130694609E+01 -0.29457910635E+02  0.31885919512E+02  0.51100000000E-03 0.  1.
         12    1    4    4    0    0  0.63343907988E+01  0.11257985282E+01 -0.75243804581E+01  0.98999106256E+01  0.00000000000E+00 0. -1.
</event>
<event>
 8    1  0.1248739E-006  0.9118800E+02  0.7816164E-02  0.1184000E+00
        -11   -1    0    0    0    0  0.00000000000E+00  0.00000000000E+00  0.45593999997E+02  0.45594000000E+02  0.51100000000E-03 0. -1.
         11   -1    0    0    0    0 -0.00000000000E+00 -0.00000000000E+00 -0.45593999997E+02  0.45594000000E+02  0.51100000000E-03 0.  1.
         23    2    1    2    0    0 -0.35527136788E-14  0.00000000000E+00 -0.35527136788E-14  0.91188000000E+02  0.91188000000E+02 0.  0.
    9900012    2    3    3    0    0  0.16174937670E+02  0.24749944342E+02  0.21945202280E+02  0.54367078547E+02  0.39999987163E+02 0.  0.
        -12    1    3    3    0    0 -0.16174937670E+02 -0.24749944342E+02 -0.21945202280E+02  0.36820921453E+02  0.00000000000E+00 0.  1.
         11    1    4    4    0    0  0.48229454596E+01 -0.24151268482E+01  0.10746019907E+02  0.12023750858E+02  0.51100000000E-03 0.  1.
        -11    1    4    4    0    0 -0.68311047238E+01 -0.68119728612E+00  0.50502202371E+01  0.85224847430E+01  0.51100000000E-03 0. -1.
         12    1    4    4    0    0  0.18183096935E+02  0.27846268477E+02  0.61489621360E+01  0.33820842946E+02  0.00000000000E+00 0. -1.
</event>
<event>
 8    1  0.1248739E-006  0.9118800E+02  0.7816164E-02  0.1184000E+00
        -11   -1    0    0    0    0  0.00000000000E+00  0.00000000000E+00  0.45593999997E+02  0.45594000000E+02  0.51100000000E-03 0.  1.
         11   -1    0    0    0    0 -0.00000000000E+00 -0.00000000000E+00 -0.45593999997E+02  0.45594000000E+02  0.51100000000E-03 0. -1.
         23    2    1    2    0    0  0.88817841970E-15  0.00000000000E+00  0.35527136788E-14  0.91188000000E+02  0.91188000000E+02 0.  0.
    9900012    2    3    3    0    0 -0.42811250340E+01  0.18951562600E+02 -0.31277726090E+02  0.54367001835E+02  0.39999812282E+02 0.  0.
        -12    1    3    3    0    0  0.42811250340E+01 -0.18951562600E+02  0.31277726090E+02  0.36820998165E+02  0.00000000000E+00 0.  1.
         11    1    4    4    0    0 -0.35836456863E+01  0.21289563373E+02 -0.56740640241E+01  0.22322254094E+02  0.51100000000E-03 0.  1.
        -11    1    4    4    0    0  0.91313058475E+00  0.43551541398E+01  0.10033467457E+01  0.45615655207E+01  0.51100000000E-03 0. -1.
        -12    1    4    4    0    0 -0.16106099325E+01 -0.66931549127E+01 -0.26607008811E+02  0.27483182220E+02  0.00000000000E+00 0.  1.
</event>
<event>
 8    1  0.1248739E-006  0.9118800E+02  0.7816164E-02  0.1184000E+00
        -11   -1    0    0    0    0  0.00000000000E+00  0.00000000000E+00  0.45593999997E+02  0.45594000000E+02  0.51100000000E-03 0. -1.
         11   -1    0    0    0    0 -0.00000000000E+00 -0.00000000000E+00 -0.45593999997E+02  0.45594000000E+02  0.51100000000E-03 0.  1.
         23    2    1    2    0    0 -0.35527136788E-14  0.22204460493E-15 -0.35527136788E-14  0.91188000000E+02  0.91188000000E+02 0.  0.
    9900012    2    3    3    0    0 -0.28304889446E+02 -0.83272533250E+00 -0.23535464244E+02  0.54367105453E+02  0.40000048502E+02 0.  0.
         12    1    3    3    0    0  0.28304889446E+02  0.83272533250E+00  0.23535464244E+02  0.36820894547E+02  0.00000000000E+00 0. -1.
         11    1    4    4    0    0 -0.15426533666E+02 -0.42262082439E+01  0.40405939676E+01  0.16497429404E+02  0.51100000000E-03 0. -1.
        -11    1    4    4    0    0  0.19614581118E+01  0.48502257748E+01 -0.20877449327E+02  0.21523008588E+02  0.51100000000E-03 0.  1.
        -12    1    4    4    0    0 -0.14839813892E+02 -0.14567428634E+01 -0.66986088848E+01  0.16346667462E+02  0.00000000000E+00 0.  1.
</event>
<event>
 8    1  0.1248739E-006  0.9118800E+02  0.7816164E-02  0.1184000E+00
        -11   -1    0    0    0    0  0.00000000000E+00  0.00000000000E+00  0.45593999997E+02  0.45594000000E+02  0.51100000000E-03 0.  1.
         11   -1    0    0    0    0 -0.00000000000E+00 -0.00000000000E+00 -0.45593999997E+02  0.45594000000E+02  0.51100000000E-03 0. -1.
         23    2    1    2    0    0 -0.17763568394E-14  0.00000000000E+00  0.00000000000E+00  0.91188000000E+02  0.91188000000E+02 0.  0.
    9900012    2    3    3    0    0 -0.13487787019E+02  0.12259347604E+02  0.31993208284E+02  0.54367117628E+02  0.40000076256E+02 0.  0.
         12    1    3    3    0    0  0.13487787019E+02 -0.12259347604E+02 -0.31993208284E+02  0.36820882372E+02  0.00000000000E+00 0. -1.
         11    1    4    4    0    0 -0.88188605115E+00  0.26818985997E+01 -0.80100484016E+01  0.84930076394E+01  0.51100000000E-03 0. -1.
        -11    1    4    4    0    0 -0.67596681190E+01 -0.23151235882E+01  0.58314646999E+01  0.92227377234E+01  0.51100000000E-03 0.  1.
        -12    1    4    4    0    0 -0.58462328489E+01  0.11892572592E+02  0.34171791986E+02  0.36651372265E+02  0.00000000000E+00 0.  1.
</event>
<event>
 8    1  0.1248739E-006  0.9118800E+02  0.7816164E-02  0.1184000E+00
        -11   -1    0    0    0    0  0.00000000000E+00  0.00000000000E+00  0.45593999997E+02  0.45594000000E+02  0.51100000000E-03 0.  1.
         11   -1    0    0    0    0 -0.00000000000E+00 -0.00000000000E+00 -0.45593999997E+02  0.45594000000E+02  0.51100000000E-03 0. -1.
         23    2    1    2    0    0  0.35527136788E-14  0.00000000000E+00 -0.17000290065E-14  0.91188000000E+02  0.91188000000E+02 0.  0.
    9900012    2    3    3    0    0 -0.25493194377E+02  0.26568270743E+02 -0.61065437620E-01  0.54367086122E+02  0.40000004433E+02 0.  0.
         12    1    3    3    0    0  0.25493194377E+02 -0.26568270743E+02  0.61065437620E-01  0.36820913878E+02  0.00000000000E+00 0. -1.
         11    1    4    4    0    0 -0.28621097350E+01  0.54029990915E+01  0.12386956159E+01  0.62384644270E+01  0.51100000000E-03 0.  1.
        -11    1    4    4    0    0 -0.77325744347E+01 -0.69632692664E+01 -0.10713608503E+02  0.14935234638E+02  0.51100000000E-03 0. -1.
         12    1    4    4    0    0 -0.14898510207E+02  0.28128540918E+02  0.94138474495E+01  0.33193387058E+02  0.00000000000E+00 0. -1.
</event>
<event>
 8    1  0.1248739E-006  0.9118800E+02  0.7816164E-02  0.1184000E+00
        -11   -1    0    0    0    0  0.00000000000E+00  0.00000000000E+00  0.45593999997E+02  0.45594000000E+02  0.51100000000E-03 0.  1.
         11   -1    0    0    0    0 -0.00000000000E+00 -0.00000000000E+00 -0.45593999997E+02  0.45594000000E+02  0.51100000000E-03 0. -1.
         23    2    1    2    0    0  0.00000000000E+00  0.00000000000E+00  0.00000000000E+00  0.91188000000E+02  0.91188000000E+02 0.  0.
    9900012    2    3    3    0    0  0.33194051111E+02 -0.15822362194E+02 -0.18941426873E+01  0.54367082696E+02  0.39999996623E+02 0.  0.
        -12    1    3    3    0    0 -0.33194051111E+02  0.15822362194E+02  0.18941426873E+01  0.36820917304E+02  0.00000000000E+00 0.  1.
         11    1    4    4    0    0  0.14247013187E+02 -0.68400130607E+01  0.43513796155E+01  0.16392000129E+02  0.51100000000E-03 0. -1.
        -11    1    4    4    0    0 -0.24841805850E+01  0.19439441265E+01  0.89718420208E+01  0.95102061730E+01  0.51100000000E-03 0.  1.
         12    1    4    4    0    0  0.21431218509E+02 -0.10926293260E+02 -0.15217364324E+02  0.28464876394E+02  0.00000000000E+00 0. -1.
</event>
<event>
 8    1  0.1248739E-006  0.9118800E+02  0.7816164E-02  0.1184000E+00
        -11   -1    0    0    0    0  0.00000000000E+00  0.00000000000E+00  0.45593999997E+02  0.45594000000E+02  0.51100000000E-03 0.  1.
         11   -1    0    0    0    0 -0.00000000000E+00 -0.00000000000E+00 -0.45593999997E+02  0.45594000000E+02  0.51100000000E-03 0. -1.
         23    2    1    2    0    0 -0.35527136788E-14  0.00000000000E+00  0.35527136788E-14  0.91188000000E+02  0.91188000000E+02 0.  0.
    9900012    2    3    3    0    0  0.14765877175E+02 -0.26222937827E+02 -0.21215714479E+02  0.54367080159E+02  0.39999990839E+02 0.  0.
        -12    1    3    3    0    0 -0.14765877175E+02  0.26222937827E+02  0.21215714479E+02  0.36820919841E+02  0.00000000000E+00 0.  1.
         11    1    4    4    0    0 -0.17514967551E+01 -0.25878063529E+02  0.15460573641E+01  0.25983306304E+02  0.51100000000E-03 0. -1.
        -11    1    4    4    0    0  0.34668876954E+01  0.12199749735E+01 -0.65752170696E+01  0.75326707748E+01  0.51100000000E-03 0.  1.
         12    1    4    4    0    0  0.13050486235E+02 -0.15648492723E+01 -0.16186554774E+02  0.20851103080E+02  0.00000000000E+00 0. -1.
</event>
<event>
 8    1  0.1248739E-006  0.9118800E+02  0.7816164E-02  0.1184000E+00
        -11   -1    0    0    0    0  0.00000000000E+00  0.00000000000E+00  0.45593999997E+02  0.45594000000E+02  0.51100000000E-03 0.  1.
         11   -1    0    0    0    0 -0.00000000000E+00 -0.00000000000E+00 -0.45593999997E+02  0.45594000000E+02  0.51100000000E-03 0. -1.
         23    2    1    2    0    0  0.00000000000E+00 -0.26645352591E-14  0.17763568394E-14  0.91188000000E+02  0.91188000000E+02 0.  0.
    9900012    2    3    3    0    0 -0.34888652119E+02 -0.68688766874E+01  0.95593314238E+01  0.54367077539E+02  0.39999984866E+02 0.  0.
         12    1    3    3    0    0  0.34888652119E+02  0.68688766874E+01 -0.95593314238E+01  0.36820922461E+02  0.00000000000E+00 0. -1.
         11    1    4    4    0    0  0.15863821136E+01  0.27885980736E+01  0.43615491924E+01  0.54144250891E+01  0.51100000000E-03 0. -1.
        -11    1    4    4    0    0 -0.27019700975E+02  0.81832610042E+01  0.54827333801E+01  0.28759178831E+02  0.51100000000E-03 0.  1.
        -12    1    4    4    0    0 -0.94553332577E+01 -0.17840735765E+02 -0.28495114868E+00  0.20193473619E+02  0.00000000000E+00 0.  1.
</event>
<event>
 8    1  0.1248739E-006  0.9118800E+02  0.7816164E-02  0.1184000E+00
        -11   -1    0    0    0    0  0.00000000000E+00  0.00000000000E+00  0.45593999997E+02  0.45594000000E+02  0.51100000000E-03 0. -1.
         11   -1    0    0    0    0 -0.00000000000E+00 -0.00000000000E+00 -0.45593999997E+02  0.45594000000E+02  0.51100000000E-03 0.  1.
         23    2    1    2    0    0  0.00000000000E+00 -0.17763568394E-14 -0.71054273576E-14  0.91188000000E+02  0.91188000000E+02 0.  0.
    9900012    2    3    3    0    0  0.11179807253E+02  0.11582112038E+02  0.33115683380E+02  0.54367056296E+02  0.39999936438E+02 0.  0.
        -12    1    3    3    0    0 -0.11179807253E+02 -0.11582112038E+02 -0.33115683380E+02  0.36820943704E+02  0.00000000000E+00 0.  1.
         11    1    4    4    0    0 -0.10634103835E+02 -0.13096522781E+01  0.45882422582E+01  0.11655527476E+02  0.51100000000E-03 0. -1.
        -11    1    4    4    0    0  0.11005215555E+01  0.24769055577E+01 -0.26952136741E+01  0.38223534434E+01  0.51100000000E-03 0.  1.
        -12    1    4    4    0    0  0.20713389533E+02  0.10414858759E+02  0.31222654796E+02  0.38889175376E+02  0.00000000000E+00 0.  1.
</event>
<event>
 8    1  0.1248739E-006  0.9118800E+02  0.7816164E-02  0.1184000E+00
        -11   -1    0    0    0    0  0.00000000000E+00  0.00000000000E+00  0.45593999997E+02  0.45594000000E+02  0.51100000000E-03 0. -1.
         11   -1    0    0    0    0 -0.00000000000E+00 -0.00000000000E+00 -0.45593999997E+02  0.45594000000E+02  0.51100000000E-03 0.  1.
         23    2    1    2    0    0  0.71054273576E-14 -0.88817841970E-15 -0.44408920985E-15  0.91188000000E+02  0.91188000000E+02 0.  0.
    9900012    2    3    3    0    0 -0.36595782663E+02  0.20750528397E+01  0.34959392953E+01  0.54367099080E+02  0.40000033973E+02 0.  0.
         12    1    3    3    0    0  0.36595782663E+02 -0.20750528397E+01 -0.34959392953E+01  0.36820900920E+02  0.00000000000E+00 0. -1.
         11    1    4    4    0    0 -0.25339547023E+02 -0.21894892142E+01 -0.33782526221E+01  0.25657340030E+02  0.51100000000E-03 0. -1.
        -11    1    4    4    0    0 -0.12495004316E+02  0.72365864807E+01 -0.58538301675E+01  0.15580778050E+02  0.51100000000E-03 0.  1.
         12    1    4    4    0    0  0.12387686765E+01 -0.29720444268E+01  0.12728022085E+02  0.13128981000E+02  0.00000000000E+00 0. -1.
</event>
<event>
 8    1  0.1248739E-006  0.9118800E+02  0.7816164E-02  0.1184000E+00
        -11   -1    0    0    0    0  0.00000000000E+00  0.00000000000E+00  0.45593999997E+02  0.45594000000E+02  0.51100000000E-03 0. -1.
         11   -1    0    0    0    0 -0.00000000000E+00 -0.00000000000E+00 -0.45593999997E+02  0.45594000000E+02  0.51100000000E-03 0.  1.
         23    2    1    2    0    0  0.00000000000E+00  0.35527136788E-14  0.00000000000E+00  0.91188000000E+02  0.91188000000E+02 0.  0.
    9900012    2    3    3    0    0  0.27373905781E+02  0.22580646953E+02  0.98266989660E+01  0.54367077319E+02  0.39999984363E+02 0.  0.
        -12    1    3    3    0    0 -0.27373905781E+02 -0.22580646953E+02 -0.98266989660E+01  0.36820922681E+02  0.00000000000E+00 0.  1.
         11    1    4    4    0    0  0.26944749071E+02  0.23717159281E+02  0.16377788924E+02  0.39455736176E+02  0.51100000000E-03 0. -1.
        -11    1    4    4    0    0  0.64656005650E+01 -0.28488979551E+01 -0.27934562418E+01  0.75976054294E+01  0.51100000000E-03 0.  1.
         12    1    4    4    0    0 -0.60364438544E+01  0.17123856270E+01 -0.37576337163E+01  0.73137357137E+01  0.00000000000E+00 0. -1.
</event>
<event>
 8    1  0.1248739E-006  0.9118800E+02  0.7816164E-02  0.1184000E+00
        -11   -1    0    0    0    0  0.00000000000E+00  0.00000000000E+00  0.45593999997E+02  0.45594000000E+02  0.51100000000E-03 0.  1.
         11   -1    0    0    0    0 -0.00000000000E+00 -0.00000000000E+00 -0.45593999997E+02  0.45594000000E+02  0.51100000000E-03 0. -1.
         23    2    1    2    0    0  0.00000000000E+00 -0.88817841970E-15  0.35527136788E-14  0.91188000000E+02  0.91188000000E+02 0.  0.
    9900012    2    3    3    0    0  0.27247224223E+02  0.51520102707E+01 -0.24224490783E+02  0.54367076718E+02  0.39999982993E+02 0.  0.
        -12    1    3    3    0    0 -0.27247224223E+02 -0.51520102707E+01  0.24224490783E+02  0.36820923282E+02  0.00000000000E+00 0.  1.
         11    1    4    4    0    0  0.50472017603E+01 -0.61092716314E+01 -0.25639778828E+02  0.26836462212E+02  0.51100000000E-03 0. -1.
        -11    1    4    4    0    0  0.14274344889E+02  0.11392906916E+02  0.48426475290E+01  0.18894615248E+02  0.51100000000E-03 0.  1.
         12    1    4    4    0    0  0.79256775737E+01 -0.13162501391E+00 -0.34273594843E+01  0.86359992578E+01  0.00000000000E+00 0. -1.
</event>
<event>
 8    1  0.1248739E-006  0.9118800E+02  0.7816164E-02  0.1184000E+00
        -11   -1    0    0    0    0  0.00000000000E+00  0.00000000000E+00  0.45593999997E+02  0.45594000000E+02  0.51100000000E-03 0. -1.
         11   -1    0    0    0    0 -0.00000000000E+00 -0.00000000000E+00 -0.45593999997E+02  0.45594000000E+02  0.51100000000E-03 0.  1.
         23    2    1    2    0    0  0.00000000000E+00  0.77715611724E-15  0.35527136788E-14  0.91188000000E+02  0.91188000000E+02 0.  0.
    9900012    2    3    3    0    0  0.26732581622E+02  0.88978759012E+00 -0.25305361523E+02  0.54367028205E+02  0.39999872398E+02 0.  0.
         12    1    3    3    0    0 -0.26732581622E+02 -0.88978759012E+00  0.25305361523E+02  0.36820971795E+02  0.00000000000E+00 0. -1.
         11    1    4    4    0    0  0.10322550486E+01 -0.10344911595E+02  0.44933583097E+01  0.11325767769E+02  0.51100000000E-03 0. -1.
        -11    1    4    4    0    0  0.19280806611E+02  0.49170602601E+01 -0.12388687772E+02  0.23439423418E+02  0.51100000000E-03 0.  1.
         12    1    4    4    0    0  0.64195199626E+01  0.63176389255E+01 -0.17410032060E+02  0.19601837018E+02  0.00000000000E+00 0. -1.
</event>
<event>
 8    1  0.1248739E-006  0.9118800E+02  0.7816164E-02  0.1184000E+00
        -11   -1    0    0    0    0  0.00000000000E+00  0.00000000000E+00  0.45593999997E+02  0.45594000000E+02  0.51100000000E-03 0. -1.
         11   -1    0    0    0    0 -0.00000000000E+00 -0.00000000000E+00 -0.45593999997E+02  0.45594000000E+02  0.51100000000E-03 0.  1.
         23    2    1    2    0    0  0.00000000000E+00  0.00000000000E+00  0.35527136788E-14  0.91188000000E+02  0.91188000000E+02 0.  0.
    9900012    2    3    3    0    0 -0.16403450533E+02  0.11874582229E+02 -0.30752244765E+02  0.54367089492E+02  0.40000012116E+02 0.  0.
         12    1    3    3    0    0  0.16403450533E+02 -0.11874582229E+02  0.30752244765E+02  0.36820910508E+02  0.00000000000E+00 0. -1.
         11    1    4    4    0    0 -0.20650251775E+02 -0.73748239252E+01 -0.16072116171E+02  0.27187016106E+02  0.51100000000E-03 0. -1.
        -11    1    4    4    0    0  0.22290851863E+00  0.13798004707E+02 -0.37161938204E+01  0.14291421163E+02  0.51100000000E-03 0.  1.
         12    1    4    4    0    0  0.40238927236E+01  0.54514014478E+01 -0.10963934774E+02  0.12888652223E+02  0.00000000000E+00 0. -1.
</event>
<event>
 8    1  0.1248739E-006  0.9118800E+02  0.7816164E-02  0.1184000E+00
        -11   -1    0    0    0    0  0.00000000000E+00  0.00000000000E+00  0.45593999997E+02  0.45594000000E+02  0.51100000000E-03 0. -1.
         11   -1    0    0    0    0 -0.00000000000E+00 -0.00000000000E+00 -0.45593999997E+02  0.45594000000E+02  0.51100000000E-03 0.  1.
         23    2    1    2    0    0  0.00000000000E+00  0.00000000000E+00  0.00000000000E+00  0.91188000000E+02  0.91188000000E+02 0.  0.
    9900012    2    3    3    0    0  0.23506436898E+02 -0.19055377297E+02  0.20979042561E+02  0.54367079230E+02  0.39999988721E+02 0.  0.
        -12    1    3    3    0    0 -0.23506436898E+02  0.19055377297E+02 -0.20979042561E+02  0.36820920770E+02  0.00000000000E+00 0.  1.
         11    1    4    4    0    0  0.13995532199E+02 -0.18602462452E+01  0.21212744423E+02  0.25481678984E+02  0.51100000000E-03 0. -1.
        -11    1    4    4    0    0  0.73724455518E+01  0.30575342828E+01 -0.25740109339E+01  0.83861195945E+01  0.51100000000E-03 0.  1.
         12    1    4    4    0    0  0.21384591476E+01 -0.20252665335E+02  0.23403090718E+01  0.20499280652E+02  0.00000000000E+00 0. -1.
</event>
<event>
 8    1  0.1248739E-006  0.9118800E+02  0.7816164E-02  0.1184000E+00
        -11   -1    0    0    0    0  0.00000000000E+00  0.00000000000E+00  0.45593999997E+02  0.45594000000E+02  0.51100000000E-03 0. -1.
         11   -1    0    0    0    0 -0.00000000000E+00 -0.00000000000E+00 -0.45593999997E+02  0.45594000000E+02  0.51100000000E-03 0.  1.
         23    2    1    2    0    0  0.00000000000E+00 -0.35527136788E-14  0.00000000000E+00  0.91188000000E+02  0.91188000000E+02 0.  0.
    9900012    2    3    3    0    0 -0.26700679514E+02  0.21547734716E+02 -0.13362208653E+02  0.54367085047E+02  0.40000001982E+02 0.  0.
         12    1    3    3    0    0  0.26700679514E+02 -0.21547734716E+02  0.13362208653E+02  0.36820914953E+02  0.00000000000E+00 0. -1.
         11    1    4    4    0    0 -0.86061402106E+01  0.88896990370E+01 -0.33597354670E+01  0.12821085015E+02  0.51100000000E-03 0. -1.
        -11    1    4    4    0    0 -0.27903107154E+02  0.62113071612E+01 -0.70072553095E+01  0.29432386121E+02  0.51100000000E-03 0.  1.
         12    1    4    4    0    0  0.98085678514E+01  0.64467285175E+01 -0.29952178767E+01  0.12113613912E+02  0.00000000000E+00 0. -1.
</event>
<event>
 8    1  0.1248739E-006  0.9118800E+02  0.7816164E-02  0.1184000E+00
        -11   -1    0    0    0    0  0.00000000000E+00  0.00000000000E+00  0.45593999997E+02  0.45594000000E+02  0.51100000000E-03 0.  1.
         11   -1    0    0    0    0 -0.00000000000E+00 -0.00000000000E+00 -0.45593999997E+02  0.45594000000E+02  0.51100000000E-03 0. -1.
         23    2    1    2    0    0  0.00000000000E+00  0.17763568394E-14  0.00000000000E+00  0.91188000000E+02  0.91188000000E+02 0.  0.
    9900012    2    3    3    0    0 -0.35054885522E+02  0.99488743887E+01  0.52871072812E+01  0.54367100989E+02  0.40000038326E+02 0.  0.
         12    1    3    3    0    0  0.35054885522E+02 -0.99488743887E+01 -0.52871072812E+01  0.36820899011E+02  0.00000000000E+00 0. -1.
         11    1    4    4    0    0  0.50986999900E+01  0.38744307566E+01 -0.26024083762E+01  0.69123429381E+01  0.51100000000E-03 0. -1.
        -11    1    4    4    0    0 -0.34126722753E+02  0.10273090652E+02  0.13604906866E+02  0.38147910670E+02  0.51100000000E-03 0.  1.
        -12    1    4    4    0    0 -0.60268627585E+01 -0.41986470196E+01 -0.57153912088E+01  0.93068473811E+01  0.00000000000E+00 0.  1.
</event>
<event>
 8    1  0.1248739E-006  0.9118800E+02  0.7816164E-02  0.1184000E+00
        -11   -1    0    0    0    0  0.00000000000E+00  0.00000000000E+00  0.45593999997E+02  0.45594000000E+02  0.51100000000E-03 0. -1.
         11   -1    0    0    0    0 -0.00000000000E+00 -0.00000000000E+00 -0.45593999997E+02  0.45594000000E+02  0.51100000000E-03 0.  1.
         23    2    1    2    0    0  0.00000000000E+00  0.00000000000E+00  0.17763568394E-14  0.91188000000E+02  0.91188000000E+02 0.  0.
    9900012    2    3    3    0    0 -0.34403730661E+02 -0.96455901796E+01  0.88952700286E+01  0.54367083089E+02  0.39999997518E+02 0.  0.
        -12    1    3    3    0    0  0.34403730661E+02  0.96455901796E+01 -0.88952700286E+01  0.36820916911E+02  0.00000000000E+00 0.  1.
         11    1    4    4    0    0  0.25666781627E+00  0.24671579026E+01  0.56354991747E+01  0.61572394540E+01  0.51100000000E-03 0. -1.
        -11    1    4    4    0    0  0.35271094573E+01 -0.84745702850E+00  0.73393923289E+01  0.81869020122E+01  0.51100000000E-03 0.  1.
         12    1    4    4    0    0 -0.38187507934E+02 -0.11265291054E+02 -0.40796214749E+01  0.40022941623E+02  0.00000000000E+00 0. -1.
</event>
<event>
 8    1  0.1248739E-006  0.9118800E+02  0.7816164E-02  0.1184000E+00
        -11   -1    0    0    0    0  0.00000000000E+00  0.00000000000E+00  0.45593999997E+02  0.45594000000E+02  0.51100000000E-03 0.  1.
         11   -1    0    0    0    0 -0.00000000000E+00 -0.00000000000E+00 -0.45593999997E+02  0.45594000000E+02  0.51100000000E-03 0. -1.
         23    2    1    2    0    0  0.17763568394E-14 -0.35527136788E-14  0.00000000000E+00  0.91188000000E+02  0.91188000000E+02 0.  0.
    9900012    2    3    3    0    0 -0.12933827949E+02  0.25821518427E+02  0.22841426287E+02  0.54367279283E+02  0.40000444778E+02 0.  0.
         12    1    3    3    0    0  0.12933827949E+02 -0.25821518427E+02 -0.22841426287E+02  0.36820720717E+02  0.00000000000E+00 0. -1.
         11    1    4    4    0    0 -0.88661306090E+01  0.69134676317E+01 -0.37249044112E+01  0.11843952879E+02  0.51100000000E-03 0. -1.
        -11    1    4    4    0    0 -0.76389903948E+01  0.76237442489E+01 -0.25531882567E+01  0.11090284990E+02  0.51100000000E-03 0.  1.
        -12    1    4    4    0    0  0.35712930544E+01  0.11284306547E+02  0.29119518955E+02  0.31433041413E+02  0.00000000000E+00 0.  1.
</event>
<event>
 8    1  0.1248739E-006  0.9118800E+02  0.7816164E-02  0.1184000E+00
        -11   -1    0    0    0    0  0.00000000000E+00  0.00000000000E+00  0.45593999997E+02  0.45594000000E+02  0.51100000000E-03 0.  1.
         11   -1    0    0    0    0 -0.00000000000E+00 -0.00000000000E+00 -0.45593999997E+02  0.45594000000E+02  0.51100000000E-03 0. -1.
         23    2    1    2    0    0  0.00000000000E+00  0.00000000000E+00  0.53290705182E-14  0.91188000000E+02  0.91188000000E+02 0.  0.
    9900012    2    3    3    0    0  0.92993294511E+01 -0.32345252641E+02  0.14936117391E+02  0.54367075251E+02  0.39999979650E+02 0.  0.
         12    1    3    3    0    0 -0.92993294511E+01  0.32345252641E+02 -0.14936117391E+02  0.36820924749E+02  0.00000000000E+00 0. -1.
         11    1    4    4    0    0  0.12349849010E+01 -0.10438867904E+02 -0.12536274940E+02  0.16360114317E+02  0.51100000000E-03 0. -1.
        -11    1    4    4    0    0  0.81459167254E+01 -0.23149997926E+02  0.27362644788E+02  0.36755852504E+02  0.51100000000E-03 0.  1.
         12    1    4    4    0    0 -0.81572175313E-01  0.12436131881E+01  0.10974754335E+00  0.12511084304E+01  0.00000000000E+00 0. -1.
</event>
<event>
 8    1  0.1248739E-006  0.9118800E+02  0.7816164E-02  0.1184000E+00
        -11   -1    0    0    0    0  0.00000000000E+00  0.00000000000E+00  0.45593999997E+02  0.45594000000E+02  0.51100000000E-03 0. -1.
         11   -1    0    0    0    0 -0.00000000000E+00 -0.00000000000E+00 -0.45593999997E+02  0.45594000000E+02  0.51100000000E-03 0.  1.
         23    2    1    2    0    0  0.00000000000E+00  0.71054273576E-14  0.00000000000E+00  0.91188000000E+02  0.91188000000E+02 0.  0.
    9900012    2    3    3    0    0 -0.16132325066E+02 -0.30093234011E+02  0.13781333539E+02  0.54367084757E+02  0.40000001320E+02 0.  0.
        -12    1    3    3    0    0  0.16132325066E+02  0.30093234011E+02 -0.13781333539E+02  0.36820915243E+02  0.00000000000E+00 0.  1.
         11    1    4    4    0    0 -0.98686098214E+01 -0.83032527020E+01  0.15650443120E+02  0.20279788839E+02  0.51100000000E-03 0. -1.
        -11    1    4    4    0    0 -0.52242201433E+01  0.45674113168E+01 -0.32722620167E+01  0.76721197338E+01  0.51100000000E-03 0.  1.
        -12    1    4    4    0    0 -0.10394951012E+01 -0.26357392625E+02  0.14031524355E+01  0.26415176184E+02  0.00000000000E+00 0.  1.
</event>
<event>
 8    1  0.1248739E-006  0.9118800E+02  0.7816164E-02  0.1184000E+00
        -11   -1    0    0    0    0  0.00000000000E+00  0.00000000000E+00  0.45593999997E+02  0.45594000000E+02  0.51100000000E-03 0.  1.
         11   -1    0    0    0    0 -0.00000000000E+00 -0.00000000000E+00 -0.45593999997E+02  0.45594000000E+02  0.51100000000E-03 0. -1.
         23    2    1    2    0    0  0.17763568394E-14 -0.17763568394E-14  0.00000000000E+00  0.91188000000E+02  0.91188000000E+02 0.  0.
    9900012    2    3    3    0    0 -0.96207678460E+01  0.14502804155E+02 -0.32448208270E+02  0.54367126542E+02  0.40000096577E+02 0.  0.
        -12    1    3    3    0    0  0.96207678460E+01 -0.14502804155E+02  0.32448208270E+02  0.36820873458E+02  0.00000000000E+00 0.  1.
         11    1    4    4    0    0 -0.10814593477E+02  0.59781615345E+01 -0.35670765937E+02  0.37750462119E+02  0.51100000000E-03 0. -1.
        -11    1    4    4    0    0  0.67529401783E+01  0.74503721702E+01 -0.92163086841E-01  0.10055781463E+02  0.51100000000E-03 0.  1.
         12    1    4    4    0    0 -0.55591145468E+01  0.10742704502E+01  0.33147207539E+01  0.65608829605E+01  0.00000000000E+00 0. -1.
</event>
<event>
 8    1  0.1248739E-006  0.9118800E+02  0.7816164E-02  0.1184000E+00
        -11   -1    0    0    0    0  0.00000000000E+00  0.00000000000E+00  0.45593999997E+02  0.45594000000E+02  0.51100000000E-03 0. -1.
         11   -1    0    0    0    0 -0.00000000000E+00 -0.00000000000E+00 -0.45593999997E+02  0.45594000000E+02  0.51100000000E-03 0.  1.
         23    2    1    2    0    0  0.00000000000E+00  0.00000000000E+00 -0.35527136788E-14  0.91188000000E+02  0.91188000000E+02 0.  0.
    9900012    2    3    3    0    0  0.17527073035E+02 -0.19651770890E+02  0.25736914595E+02  0.54367093423E+02  0.40000021076E+02 0.  0.
        -12    1    3    3    0    0 -0.17527073035E+02  0.19651770890E+02 -0.25736914595E+02  0.36820906577E+02  0.00000000000E+00 0.  1.
         11    1    4    4    0    0 -0.25209720225E+01  0.48284823138E+01 -0.12828386192E+01  0.55960000515E+01  0.51100000000E-03 0.  1.
        -11    1    4    4    0    0  0.19032475472E+02 -0.37885570518E+01  0.16815075122E+02  0.25677520105E+02  0.51100000000E-03 0. -1.
        -12    1    4    4    0    0  0.10155695864E+01 -0.20691696152E+02  0.10204678092E+02  0.23093573266E+02  0.00000000000E+00 0.  1.
</event>
<event>
 8    1  0.1248739E-006  0.9118800E+02  0.7816164E-02  0.1184000E+00
        -11   -1    0    0    0    0  0.00000000000E+00  0.00000000000E+00  0.45593999997E+02  0.45594000000E+02  0.51100000000E-03 0.  1.
         11   -1    0    0    0    0 -0.00000000000E+00 -0.00000000000E+00 -0.45593999997E+02  0.45594000000E+02  0.51100000000E-03 0. -1.
         23    2    1    2    0    0  0.00000000000E+00  0.00000000000E+00  0.00000000000E+00  0.91188000000E+02  0.91188000000E+02 0.  0.
    9900012    2    3    3    0    0 -0.30375482050E+02  0.30467619829E+01 -0.20587025870E+02  0.54367105082E+02  0.40000047656E+02 0.  0.
        -12    1    3    3    0    0  0.30375482050E+02 -0.30467619829E+01  0.20587025870E+02  0.36820894918E+02  0.00000000000E+00 0.  1.
         11    1    4    4    0    0  0.59542589941E+01  0.51097333657E+01 -0.57116271487E+01  0.97049090766E+01  0.51100000000E-03 0. -1.
        -11    1    4    4    0    0 -0.20444097909E+02 -0.10496717168E+02 -0.13431921416E+02  0.26618766384E+02  0.51100000000E-03 0.  1.
        -12    1    4    4    0    0 -0.15885643135E+02  0.84337457847E+01 -0.14434773058E+01  0.18043429622E+02  0.00000000000E+00 0.  1.
</event>
<event>
 8    1  0.1248739E-006  0.9118800E+02  0.7816164E-02  0.1184000E+00
        -11   -1    0    0    0    0  0.00000000000E+00  0.00000000000E+00  0.45593999997E+02  0.45594000000E+02  0.51100000000E-03 0. -1.
         11   -1    0    0    0    0 -0.00000000000E+00 -0.00000000000E+00 -0.45593999997E+02  0.45594000000E+02  0.51100000000E-03 0.  1.
         23    2    1    2    0    0 -0.71054273576E-14  0.00000000000E+00  0.00000000000E+00  0.91188000000E+02  0.91188000000E+02 0.  0.
    9900012    2    3    3    0    0 -0.29611934808E+02  0.20115118737E+02 -0.86195446681E+01  0.54367065259E+02  0.39999956872E+02 0.  0.
         12    1    3    3    0    0  0.29611934808E+02 -0.20115118737E+02  0.86195446681E+01  0.36820934741E+02  0.00000000000E+00 0. -1.
         11    1    4    4    0    0 -0.17675686444E+01  0.65448160767E+00 -0.23851623406E+01  0.30400073585E+01  0.51100000000E-03 0. -1.
        -11    1    4    4    0    0 -0.37242502015E+02  0.14006461754E+02 -0.26194401427E+01  0.39875385818E+02  0.51100000000E-03 0.  1.
         12    1    4    4    0    0  0.93981358509E+01  0.54541753755E+01 -0.36149421848E+01  0.11451672083E+02  0.00000000000E+00 0. -1.
</event>
<event>
 8    1  0.1248739E-006  0.9118800E+02  0.7816164E-02  0.1184000E+00
        -11   -1    0    0    0    0  0.00000000000E+00  0.00000000000E+00  0.45593999997E+02  0.45594000000E+02  0.51100000000E-03 0.  1.
         11   -1    0    0    0    0 -0.00000000000E+00 -0.00000000000E+00 -0.45593999997E+02  0.45594000000E+02  0.51100000000E-03 0. -1.
         23    2    1    2    0    0  0.00000000000E+00  0.00000000000E+00 -0.88817841970E-15  0.91188000000E+02  0.91188000000E+02 0.  0.
    9900012    2    3    3    0    0  0.33774634654E+02  0.13522671223E+02  0.56736762984E+01  0.54367093089E+02  0.40000020315E+02 0.  0.
        -12    1    3    3    0    0 -0.33774634654E+02 -0.13522671223E+02 -0.56736762984E+01  0.36820906911E+02  0.00000000000E+00 0.  1.
         11    1    4    4    0    0  0.21289784359E+02 -0.12840823715E+01  0.33835543644E+01  0.21595189881E+02  0.51100000000E-03 0. -1.
        -11    1    4    4    0    0  0.20666577975E+00 -0.36607137012E+01  0.89045770926E+01  0.96299028555E+01  0.51100000000E-03 0.  1.
        -12    1    4    4    0    0  0.12278184515E+02  0.18467467295E+02 -0.66144551587E+01  0.23142000353E+02  0.00000000000E+00 0.  1.
</event>
<event>
 8    1  0.1248739E-006  0.9118800E+02  0.7816164E-02  0.1184000E+00
        -11   -1    0    0    0    0  0.00000000000E+00  0.00000000000E+00  0.45593999997E+02  0.45594000000E+02  0.51100000000E-03 0. -1.
         11   -1    0    0    0    0 -0.00000000000E+00 -0.00000000000E+00 -0.45593999997E+02  0.45594000000E+02  0.51100000000E-03 0.  1.
         23    2    1    2    0    0  0.00000000000E+00  0.15543122345E-14  0.35527136788E-14  0.91188000000E+02  0.91188000000E+02 0.  0.
    9900012    2    3    3    0    0  0.24363202991E+02 -0.12594076303E+01  0.27579482249E+02  0.54367087346E+02  0.40000007223E+02 0.  0.
        -12    1    3    3    0    0 -0.24363202991E+02  0.12594076303E+01 -0.27579482249E+02  0.36820912654E+02  0.00000000000E+00 0.  1.
         11    1    4    4    0    0  0.16953810610E+02 -0.12227020625E+02  0.13590616618E+02  0.24932641013E+02  0.51100000000E-03 0. -1.
        -11    1    4    4    0    0 -0.72306194045E+01  0.10092110002E-02  0.17931815548E+01  0.74496549142E+01  0.51100000000E-03 0.  1.
         12    1    4    4    0    0  0.14640011786E+02  0.10966603784E+02  0.12195684076E+02  0.21984791419E+02  0.00000000000E+00 0. -1.
</event>
<event>
 8    1  0.1248739E-006  0.9118800E+02  0.7816164E-02  0.1184000E+00
        -11   -1    0    0    0    0  0.00000000000E+00  0.00000000000E+00  0.45593999997E+02  0.45594000000E+02  0.51100000000E-03 0. -1.
         11   -1    0    0    0    0 -0.00000000000E+00 -0.00000000000E+00 -0.45593999997E+02  0.45594000000E+02  0.51100000000E-03 0.  1.
         23    2    1    2    0    0  0.00000000000E+00  0.00000000000E+00  0.00000000000E+00  0.91188000000E+02  0.91188000000E+02 0.  0.
    9900012    2    3    3    0    0 -0.98897258792E+01  0.18439075232E+02  0.30298089702E+02  0.54367076424E+02  0.39999982325E+02 0.  0.
        -12    1    3    3    0    0  0.98897258792E+01 -0.18439075232E+02 -0.30298089702E+02  0.36820923576E+02  0.00000000000E+00 0.  1.
         11    1    4    4    0    0 -0.51489677381E+01  0.22838984814E+02  0.95471918839E+01  0.25283986419E+02  0.51100000000E-03 0. -1.
        -11    1    4    4    0    0 -0.22790669379E+01 -0.66551998396E+01 -0.97527183132E+00  0.71019001977E+01  0.51100000000E-03 0.  1.
         12    1    4    4    0    0 -0.24616912032E+01  0.22552902573E+01  0.21726169650E+02  0.21981189808E+02  0.00000000000E+00 0. -1.
</event>
<event>
 8    1  0.1248739E-006  0.9118800E+02  0.7816164E-02  0.1184000E+00
        -11   -1    0    0    0    0  0.00000000000E+00  0.00000000000E+00  0.45593999997E+02  0.45594000000E+02  0.51100000000E-03 0. -1.
         11   -1    0    0    0    0 -0.00000000000E+00 -0.00000000000E+00 -0.45593999997E+02  0.45594000000E+02  0.51100000000E-03 0.  1.
         23    2    1    2    0    0  0.00000000000E+00  0.00000000000E+00  0.00000000000E+00  0.91188000000E+02  0.91188000000E+02 0.  0.
    9900012    2    3    3    0    0  0.31090325002E+02 -0.10654806646E+02 -0.16602527280E+02  0.54367121066E+02  0.40000084095E+02 0.  0.
         12    1    3    3    0    0 -0.31090325002E+02  0.10654806646E+02  0.16602527280E+02  0.36820878934E+02  0.00000000000E+00 0. -1.
         11    1    4    4    0    0  0.10807575340E+02 -0.16533181168E+02 -0.19999230306E+02  0.28109055078E+02  0.51100000000E-03 0. -1.
        -11    1    4    4    0    0  0.73204726844E+01  0.82154669418E+01 -0.32921135972E+01  0.11485696740E+02  0.51100000000E-03 0.  1.
         12    1    4    4    0    0  0.12962276977E+02 -0.23370924196E+01  0.66888166233E+01  0.14772369249E+02  0.00000000000E+00 0. -1.
</event>
<event>
 8    1  0.1248739E-006  0.9118800E+02  0.7816164E-02  0.1184000E+00
        -11   -1    0    0    0    0  0.00000000000E+00  0.00000000000E+00  0.45593999997E+02  0.45594000000E+02  0.51100000000E-03 0. -1.
         11   -1    0    0    0    0 -0.00000000000E+00 -0.00000000000E+00 -0.45593999997E+02  0.45594000000E+02  0.51100000000E-03 0.  1.
         23    2    1    2    0    0  0.17763568394E-14 -0.22204460493E-14  0.00000000000E+00  0.91188000000E+02  0.91188000000E+02 0.  0.
    9900012    2    3    3    0    0  0.86942938814E+01  0.23514464747E+01  0.35702382796E+02  0.54367079535E+02  0.39999989415E+02 0.  0.
        -12    1    3    3    0    0 -0.86942938814E+01 -0.23514464747E+01 -0.35702382796E+02  0.36820920465E+02  0.00000000000E+00 0.  1.
         11    1    4    4    0    0 -0.28541730029E+01 -0.10357359221E+02  0.88104047160E+01  0.13894042791E+02  0.51100000000E-03 0. -1.
        -11    1    4    4    0    0 -0.71278241521E+01  0.12411949183E+01  0.24364858669E+01  0.76343241750E+01  0.51100000000E-03 0.  1.
         12    1    4    4    0    0  0.18676291036E+02  0.11467610777E+02  0.24455492213E+02  0.32838712569E+02  0.00000000000E+00 0. -1.
</event>
<event>
 8    1  0.1248739E-006  0.9118800E+02  0.7816164E-02  0.1184000E+00
        -11   -1    0    0    0    0  0.00000000000E+00  0.00000000000E+00  0.45593999997E+02  0.45594000000E+02  0.51100000000E-03 0. -1.
         11   -1    0    0    0    0 -0.00000000000E+00 -0.00000000000E+00 -0.45593999997E+02  0.45594000000E+02  0.51100000000E-03 0.  1.
         23    2    1    2    0    0  0.00000000000E+00  0.00000000000E+00  0.00000000000E+00  0.91188000000E+02  0.91188000000E+02 0.  0.
    9900012    2    3    3    0    0  0.17350599790E+02  0.27742750967E+02  0.16884202237E+02  0.54367084348E+02  0.40000000388E+02 0.  0.
        -12    1    3    3    0    0 -0.17350599790E+02 -0.27742750967E+02 -0.16884202237E+02  0.36820915652E+02  0.00000000000E+00 0.  1.
         11    1    4    4    0    0  0.10189584091E+02  0.13680897421E+02  0.17377675389E+02  0.24351143307E+02  0.51100000000E-03 0. -1.
        -11    1    4    4    0    0 -0.88971619778E+01  0.30654252562E+01  0.36916007801E+01  0.10108622055E+02  0.51100000000E-03 0.  1.
        -12    1    4    4    0    0  0.16058177677E+02  0.10996428290E+02 -0.41850739314E+01  0.19907318987E+02  0.00000000000E+00 0.  1.
</event>
<event>
 8    1  0.1248739E-006  0.9118800E+02  0.7816164E-02  0.1184000E+00
        -11   -1    0    0    0    0  0.00000000000E+00  0.00000000000E+00  0.45593999997E+02  0.45594000000E+02  0.51100000000E-03 0. -1.
         11   -1    0    0    0    0 -0.00000000000E+00 -0.00000000000E+00 -0.45593999997E+02  0.45594000000E+02  0.51100000000E-03 0.  1.
         23    2    1    2    0    0  0.17763568394E-14  0.35527136788E-14 -0.35527136788E-14  0.91188000000E+02  0.91188000000E+02 0.  0.
    9900012    2    3    3    0    0  0.13318588806E+02  0.15832539414E+02 -0.30458578719E+02  0.54367093851E+02  0.40000022051E+02 0.  0.
         12    1    3    3    0    0 -0.13318588806E+02 -0.15832539414E+02  0.30458578719E+02  0.36820906149E+02  0.00000000000E+00 0. -1.
         11    1    4    4    0    0  0.20633723472E+02  0.65535290101E+01 -0.10278648362E+01  0.21673850447E+02  0.51100000000E-03 0. -1.
        -11    1    4    4    0    0 -0.13812060453E+01  0.50577557193E+00 -0.13394302566E+02  0.13474823953E+02  0.51100000000E-03 0.  1.
         12    1    4    4    0    0 -0.59339286201E+01  0.87732348319E+01 -0.16036411317E+02  0.19218419451E+02  0.00000000000E+00 0. -1.
</event>
<event>
 8    1  0.1248739E-006  0.9118800E+02  0.7816164E-02  0.1184000E+00
        -11   -1    0    0    0    0  0.00000000000E+00  0.00000000000E+00  0.45593999997E+02  0.45594000000E+02  0.51100000000E-03 0. -1.
         11   -1    0    0    0    0 -0.00000000000E+00 -0.00000000000E+00 -0.45593999997E+02  0.45594000000E+02  0.51100000000E-03 0.  1.
         23    2    1    2    0    0 -0.88817841970E-15 -0.35527136788E-14  0.35527136788E-14  0.91188000000E+02  0.91188000000E+02 0.  0.
    9900012    2    3    3    0    0  0.74290077380E+01  0.24622280022E+02 -0.26350182859E+02  0.54367096071E+02  0.40000027112E+02 0.  0.
         12    1    3    3    0    0 -0.74290077380E+01 -0.24622280022E+02  0.26350182859E+02  0.36820903929E+02  0.00000000000E+00 0. -1.
         11    1    4    4    0    0 -0.32213287632E+01 -0.30530276648E+01 -0.15890691586E+00  0.44410796651E+01  0.51100000000E-03 0. -1.
        -11    1    4    4    0    0  0.56217100307E+01  0.33924276719E+02 -0.22518969871E+02  0.41104308520E+02  0.51100000000E-03 0.  1.
        -12    1    4    4    0    0  0.50286264705E+01 -0.62489690315E+01 -0.36723060721E+01  0.88217078859E+01  0.00000000000E+00 0.  1.
</event>
<event>
 8    1  0.1248739E-006  0.9118800E+02  0.7816164E-02  0.1184000E+00
        -11   -1    0    0    0    0  0.00000000000E+00  0.00000000000E+00  0.45593999997E+02  0.45594000000E+02  0.51100000000E-03 0.  1.
         11   -1    0    0    0    0 -0.00000000000E+00 -0.00000000000E+00 -0.45593999997E+02  0.45594000000E+02  0.51100000000E-03 0. -1.
         23    2    1    2    0    0  0.71054273576E-14  0.00000000000E+00  0.00000000000E+00  0.91188000000E+02  0.91188000000E+02 0.  0.
    9900012    2    3    3    0    0  0.31586993793E+02 -0.16034080785E+02 -0.10047444414E+02  0.54367067600E+02  0.39999962209E+02 0.  0.
        -12    1    3    3    0    0 -0.31586993793E+02  0.16034080785E+02  0.10047444414E+02  0.36820932400E+02  0.00000000000E+00 0.  1.
         11    1    4    4    0    0 -0.34064471622E+01  0.72357854036E+01 -0.22410491625E+00  0.80006684689E+01  0.51100000000E-03 0. -1.
        -11    1    4    4    0    0 -0.11769558284E+01  0.93211428813E+00 -0.13700991494E+01  0.20325437285E+01  0.51100000000E-03 0.  1.
         12    1    4    4    0    0  0.36170396784E+02 -0.24201980477E+02 -0.84532403486E+01  0.44333855403E+02  0.00000000000E+00 0. -1.
</event>
<event>
 8    1  0.1248739E-006  0.9118800E+02  0.7816164E-02  0.1184000E+00
        -11   -1    0    0    0    0  0.00000000000E+00  0.00000000000E+00  0.45593999997E+02  0.45594000000E+02  0.51100000000E-03 0.  1.
         11   -1    0    0    0    0 -0.00000000000E+00 -0.00000000000E+00 -0.45593999997E+02  0.45594000000E+02  0.51100000000E-03 0. -1.
         23    2    1    2    0    0  0.17763568394E-14  0.00000000000E+00  0.00000000000E+00  0.91188000000E+02  0.91188000000E+02 0.  0.
    9900012    2    3    3    0    0  0.10068673464E+02  0.60763442774E+01  0.34892397432E+02  0.54367088228E+02  0.40000009234E+02 0.  0.
         12    1    3    3    0    0 -0.10068673464E+02 -0.60763442774E+01 -0.34892397432E+02  0.36820911772E+02  0.00000000000E+00 0. -1.
         11    1    4    4    0    0 -0.65352940935E+01  0.11914058065E+02  0.10243833750E+02  0.17017372847E+02  0.51100000000E-03 0. -1.
        -11    1    4    4    0    0  0.60434615133E+01  0.80001023167E+01  0.12946058056E+02  0.16374537661E+02  0.51100000000E-03 0.  1.
        -12    1    4    4    0    0  0.10560506044E+02 -0.13837816105E+02  0.11702505627E+02  0.20975177720E+02  0.00000000000E+00 0.  1.
</event>
<event>
 8    1  0.1248739E-006  0.9118800E+02  0.7816164E-02  0.1184000E+00
        -11   -1    0    0    0    0  0.00000000000E+00  0.00000000000E+00  0.45593999997E+02  0.45594000000E+02  0.51100000000E-03 0. -1.
         11   -1    0    0    0    0 -0.00000000000E+00 -0.00000000000E+00 -0.45593999997E+02  0.45594000000E+02  0.51100000000E-03 0.  1.
         23    2    1    2    0    0  0.00000000000E+00  0.00000000000E+00 -0.35527136788E-14  0.91188000000E+02  0.91188000000E+02 0.  0.
    9900012    2    3    3    0    0  0.13405475810E+02  0.24854792710E+02 -0.23628639738E+02  0.54367080427E+02  0.39999991449E+02 0.  0.
         12    1    3    3    0    0 -0.13405475810E+02 -0.24854792710E+02  0.23628639738E+02  0.36820919573E+02  0.00000000000E+00 0. -1.
         11    1    4    4    0    0  0.18038601507E+02  0.35604065370E+01  0.12235129438E+01  0.18427279323E+02  0.51100000000E-03 0. -1.
        -11    1    4    4    0    0 -0.18953369360E+01  0.52558630272E+01 -0.16959275201E+02  0.17855906974E+02  0.51100000000E-03 0.  1.
         12    1    4    4    0    0 -0.27377887612E+01  0.16038523145E+02 -0.78928774810E+01  0.18083894130E+02  0.00000000000E+00 0. -1.
</event>
<event>
 8    1  0.1248739E-006  0.9118800E+02  0.7816164E-02  0.1184000E+00
        -11   -1    0    0    0    0  0.00000000000E+00  0.00000000000E+00  0.45593999997E+02  0.45594000000E+02  0.51100000000E-03 0.  1.
         11   -1    0    0    0    0 -0.00000000000E+00 -0.00000000000E+00 -0.45593999997E+02  0.45594000000E+02  0.51100000000E-03 0. -1.
         23    2    1    2    0    0  0.00000000000E+00  0.88817841970E-15  0.00000000000E+00  0.91188000000E+02  0.91188000000E+02 0.  0.
    9900012    2    3    3    0    0  0.31199048134E+02  0.73927055677E+01  0.18103810575E+02  0.54367073105E+02  0.39999974758E+02 0.  0.
        -12    1    3    3    0    0 -0.31199048134E+02 -0.73927055677E+01 -0.18103810575E+02  0.36820926895E+02  0.00000000000E+00 0.  1.
         11    1    4    4    0    0 -0.30924782960E+01  0.95244785376E+01 -0.32917134240E+01  0.10541085853E+02  0.51100000000E-03 0. -1.
        -11    1    4    4    0    0  0.20743127133E+02  0.29591549201E+01  0.42348384640E+01  0.21376804677E+02  0.51100000000E-03 0.  1.
         12    1    4    4    0    0  0.13548399296E+02 -0.50909278900E+01  0.17160685535E+02  0.22449182576E+02  0.00000000000E+00 0. -1.
</event>
<event>
 8    1  0.1248739E-006  0.9118800E+02  0.7816164E-02  0.1184000E+00
        -11   -1    0    0    0    0  0.00000000000E+00  0.00000000000E+00  0.45593999997E+02  0.45594000000E+02  0.51100000000E-03 0. -1.
         11   -1    0    0    0    0 -0.00000000000E+00 -0.00000000000E+00 -0.45593999997E+02  0.45594000000E+02  0.51100000000E-03 0.  1.
         23    2    1    2    0    0 -0.11102230246E-14  0.00000000000E+00  0.00000000000E+00  0.91188000000E+02  0.91188000000E+02 0.  0.
    9900012    2    3    3    0    0 -0.31298494231E+00  0.32137003109E+02  0.17969513237E+02  0.54366968858E+02  0.39999737104E+02 0.  0.
        -12    1    3    3    0    0  0.31298494231E+00 -0.32137003109E+02 -0.17969513237E+02  0.36821031142E+02  0.00000000000E+00 0.  1.
         11    1    4    4    0    0 -0.55971465187E+01  0.57701080561E+01  0.77105382680E+01  0.11138877716E+02  0.51100000000E-03 0. -1.
        -11    1    4    4    0    0  0.71896406837E+01  0.38969472123E+00 -0.84921394622E+01  0.11133697860E+02  0.51100000000E-03 0.  1.
        -12    1    4    4    0    0 -0.19054791073E+01  0.25977200332E+02  0.18751114431E+02  0.32094393282E+02  0.00000000000E+00 0.  1.
</event>
<event>
 8    1  0.1248739E-006  0.9118800E+02  0.7816164E-02  0.1184000E+00
        -11   -1    0    0    0    0  0.00000000000E+00  0.00000000000E+00  0.45593999997E+02  0.45594000000E+02  0.51100000000E-03 0.  1.
         11   -1    0    0    0    0 -0.00000000000E+00 -0.00000000000E+00 -0.45593999997E+02  0.45594000000E+02  0.51100000000E-03 0. -1.
         23    2    1    2    0    0  0.35527136788E-14 -0.17763568394E-14  0.00000000000E+00  0.91188000000E+02  0.91188000000E+02 0.  0.
    9900012    2    3    3    0    0 -0.26988818336E+02  0.43068194102E+01  0.24674593247E+02  0.54367074420E+02  0.39999977756E+02 0.  0.
         12    1    3    3    0    0  0.26988818336E+02 -0.43068194102E+01 -0.24674593247E+02  0.36820925580E+02  0.00000000000E+00 0. -1.
         11    1    4    4    0    0 -0.30927815637E+01 -0.53537238062E+01 -0.28567717496E+01  0.68109324974E+01  0.51100000000E-03 0. -1.
        -11    1    4    4    0    0 -0.97981775139E+01 -0.10359013791E+02  0.11073756267E+02  0.18053850765E+02  0.51100000000E-03 0.  1.
         12    1    4    4    0    0 -0.14097859259E+02  0.20019557008E+02  0.16457608730E+02  0.29502291158E+02  0.00000000000E+00 0. -1.
</event>
<event>
 8    1  0.1248739E-006  0.9118800E+02  0.7816164E-02  0.1184000E+00
        -11   -1    0    0    0    0  0.00000000000E+00  0.00000000000E+00  0.45593999997E+02  0.45594000000E+02  0.51100000000E-03 0.  1.
         11   -1    0    0    0    0 -0.00000000000E+00 -0.00000000000E+00 -0.45593999997E+02  0.45594000000E+02  0.51100000000E-03 0. -1.
         23    2    1    2    0    0 -0.35527136788E-14  0.88817841970E-15  0.00000000000E+00  0.91188000000E+02  0.91188000000E+02 0.  0.
    9900012    2    3    3    0    0  0.31649095379E+02 -0.54093817933E+01  0.18023642644E+02  0.54367104521E+02  0.40000046377E+02 0.  0.
         12    1    3    3    0    0 -0.31649095379E+02  0.54093817933E+01 -0.18023642644E+02  0.36820895479E+02  0.00000000000E+00 0. -1.
         11    1    4    4    0    0  0.38624422367E+01  0.86815282100E+01  0.96366162868E+01  0.13533357522E+02  0.51100000000E-03 0. -1.
        -11    1    4    4    0    0 -0.24946291534E+01 -0.30785446911E+01 -0.46195286533E+01  0.60861036195E+01  0.51100000000E-03 0.  1.
         12    1    4    4    0    0  0.30281282295E+02 -0.11012365312E+02  0.13006555011E+02  0.34747643380E+02  0.00000000000E+00 0. -1.
</event>
<event>
 8    1  0.1248739E-006  0.9118800E+02  0.7816164E-02  0.1184000E+00
        -11   -1    0    0    0    0  0.00000000000E+00  0.00000000000E+00  0.45593999997E+02  0.45594000000E+02  0.51100000000E-03 0.  1.
         11   -1    0    0    0    0 -0.00000000000E+00 -0.00000000000E+00 -0.45593999997E+02  0.45594000000E+02  0.51100000000E-03 0. -1.
         23    2    1    2    0    0  0.00000000000E+00  0.00000000000E+00  0.35527136788E-14  0.91188000000E+02  0.91188000000E+02 0.  0.
    9900012    2    3    3    0    0  0.11116046407E+02 -0.25974484197E+02  0.23612272072E+02  0.54367085978E+02  0.40000004105E+02 0.  0.
         12    1    3    3    0    0 -0.11116046407E+02  0.25974484197E+02 -0.23612272072E+02  0.36820914022E+02  0.00000000000E+00 0. -1.
         11    1    4    4    0    0  0.23384836000E+01 -0.16718333626E+02  0.29468273782E+01  0.17136364160E+02  0.51100000000E-03 0.  1.
        -11    1    4    4    0    0  0.98361954666E+00 -0.16295125106E+02  0.21150101033E+02  0.26717510805E+02  0.51100000000E-03 0. -1.
         12    1    4    4    0    0  0.77939432601E+01  0.70389745353E+01 -0.48465633905E+00  0.10513211014E+02  0.00000000000E+00 0. -1.
</event>
<event>
 8    1  0.1248739E-006  0.9118800E+02  0.7816164E-02  0.1184000E+00
        -11   -1    0    0    0    0  0.00000000000E+00  0.00000000000E+00  0.45593999997E+02  0.45594000000E+02  0.51100000000E-03 0. -1.
         11   -1    0    0    0    0 -0.00000000000E+00 -0.00000000000E+00 -0.45593999997E+02  0.45594000000E+02  0.51100000000E-03 0.  1.
         23    2    1    2    0    0 -0.44408920985E-15  0.35527136788E-14  0.00000000000E+00  0.91188000000E+02  0.91188000000E+02 0.  0.
    9900012    2    3    3    0    0 -0.78260148907E+00 -0.31344346300E+02  0.19305418470E+02  0.54367086209E+02  0.40000004631E+02 0.  0.
        -12    1    3    3    0    0  0.78260148907E+00  0.31344346300E+02 -0.19305418470E+02  0.36820913791E+02  0.00000000000E+00 0.  1.
         11    1    4    4    0    0  0.75141225649E+01 -0.34628847695E+01  0.14769096822E+02  0.16928668880E+02  0.51100000000E-03 0. -1.
        -11    1    4    4    0    0  0.34844974058E+00 -0.43886393114E+01  0.10775031710E+02  0.11639711373E+02  0.51100000000E-03 0.  1.
        -12    1    4    4    0    0 -0.86451737945E+01 -0.23492822219E+02 -0.62387100621E+01  0.25798705956E+02  0.00000000000E+00 0.  1.
</event>
<event>
 8    1  0.1248739E-006  0.9118800E+02  0.7816164E-02  0.1184000E+00
        -11   -1    0    0    0    0  0.00000000000E+00  0.00000000000E+00  0.45593999997E+02  0.45594000000E+02  0.51100000000E-03 0.  1.
         11   -1    0    0    0    0 -0.00000000000E+00 -0.00000000000E+00 -0.45593999997E+02  0.45594000000E+02  0.51100000000E-03 0. -1.
         23    2    1    2    0    0  0.00000000000E+00  0.00000000000E+00  0.35527136788E-14  0.91188000000E+02  0.91188000000E+02 0.  0.
    9900012    2    3    3    0    0  0.21395932494E+02  0.13166544981E+02 -0.26919076322E+02  0.54367075188E+02  0.39999979505E+02 0.  0.
        -12    1    3    3    0    0 -0.21395932494E+02 -0.13166544981E+02  0.26919076322E+02  0.36820924812E+02  0.00000000000E+00 0.  1.
         11    1    4    4    0    0  0.10027346859E+02  0.18851047930E+02  0.17410589322E+01  0.21422907822E+02  0.51100000000E-03 0. -1.
        -11    1    4    4    0    0  0.12068677615E+02 -0.32262966069E+01 -0.17539620840E+02  0.21533700765E+02  0.51100000000E-03 0.  1.
         12    1    4    4    0    0 -0.70009197948E+00 -0.24582063422E+01 -0.11120514414E+02  0.11410466601E+02  0.00000000000E+00 0. -1.
</event>
<event>
 8    1  0.1248739E-006  0.9118800E+02  0.7816164E-02  0.1184000E+00
        -11   -1    0    0    0    0  0.00000000000E+00  0.00000000000E+00  0.45593999997E+02  0.45594000000E+02  0.51100000000E-03 0.  1.
         11   -1    0    0    0    0 -0.00000000000E+00 -0.00000000000E+00 -0.45593999997E+02  0.45594000000E+02  0.51100000000E-03 0. -1.
         23    2    1    2    0    0 -0.17763568394E-14  0.66613381478E-15  0.71054273576E-14  0.91188000000E+02  0.91188000000E+02 0.  0.
    9900012    2    3    3    0    0  0.11625001501E+02  0.68898579068E+00 -0.34930863726E+02  0.54367073858E+02  0.39999976475E+02 0.  0.
        -12    1    3    3    0    0 -0.11625001501E+02 -0.68898579068E+00  0.34930863726E+02  0.36820926142E+02  0.00000000000E+00 0.  1.
         11    1    4    4    0    0  0.34156318250E+01  0.12746046195E+02 -0.13866489561E+01  0.13268422286E+02  0.51100000000E-03 0. -1.
        -11    1    4    4    0    0  0.96636014486E+01  0.25554456858E+00 -0.74357524965E+01  0.12195938317E+02  0.51100000000E-03 0.  1.
         12    1    4    4    0    0 -0.14542317726E+01 -0.12312604973E+02 -0.26108462273E+02  0.28902713255E+02  0.00000000000E+00 0. -1.
</event>
<event>
 8    1  0.1248739E-006  0.9118800E+02  0.7816164E-02  0.1184000E+00
        -11   -1    0    0    0    0  0.00000000000E+00  0.00000000000E+00  0.45593999997E+02  0.45594000000E+02  0.51100000000E-03 0.  1.
         11   -1    0    0    0    0 -0.00000000000E+00 -0.00000000000E+00 -0.45593999997E+02  0.45594000000E+02  0.51100000000E-03 0. -1.
         23    2    1    2    0    0  0.00000000000E+00  0.00000000000E+00 -0.88817841970E-15  0.91188000000E+02  0.91188000000E+02 0.  0.
    9900012    2    3    3    0    0 -0.14118298821E+02  0.33063432034E+02  0.79537873642E+01  0.54367087017E+02  0.40000006472E+02 0.  0.
         12    1    3    3    0    0  0.14118298821E+02 -0.33063432034E+02 -0.79537873642E+01  0.36820912983E+02  0.00000000000E+00 0. -1.
         11    1    4    4    0    0 -0.67188252863E+01  0.19330753431E+02 -0.35745047363E+01  0.20774930223E+02  0.51100000000E-03 0.  1.
        -11    1    4    4    0    0 -0.35131802500E+01  0.93357916348E+01 -0.82607150394E+01  0.12951403559E+02  0.51100000000E-03 0. -1.
        -12    1    4    4    0    0 -0.38862932850E+01  0.43968869686E+01  0.19789007140E+02  0.20640753235E+02  0.00000000000E+00 0.  1.
</event>
<event>
 8    1  0.1248739E-006  0.9118800E+02  0.7816164E-02  0.1184000E+00
        -11   -1    0    0    0    0  0.00000000000E+00  0.00000000000E+00  0.45593999997E+02  0.45594000000E+02  0.51100000000E-03 0.  1.
         11   -1    0    0    0    0 -0.00000000000E+00 -0.00000000000E+00 -0.45593999997E+02  0.45594000000E+02  0.51100000000E-03 0. -1.
         23    2    1    2    0    0  0.88817841970E-15  0.71054273576E-14  0.00000000000E+00  0.91188000000E+02  0.91188000000E+02 0.  0.
    9900012    2    3    3    0    0 -0.44803095467E+01 -0.35718158551E+02  0.77406877193E+01  0.54367105521E+02  0.40000048655E+02 0.  0.
        -12    1    3    3    0    0  0.44803095467E+01  0.35718158551E+02 -0.77406877193E+01  0.36820894479E+02  0.00000000000E+00 0.  1.
         11    1    4    4    0    0 -0.15865498300E+01 -0.16838665163E+02  0.17131829363E+02  0.24073997641E+02  0.51100000000E-03 0. -1.
        -11    1    4    4    0    0  0.63540401599E+01 -0.24718297801E+01  0.33074042151E+01  0.75777761723E+01  0.51100000000E-03 0.  1.
         12    1    4    4    0    0 -0.92477998766E+01 -0.16407663608E+02 -0.12698545859E+02  0.22715331707E+02  0.00000000000E+00 0. -1.
</event>
<event>
 8    1  0.1248739E-006  0.9118800E+02  0.7816164E-02  0.1184000E+00
        -11   -1    0    0    0    0  0.00000000000E+00  0.00000000000E+00  0.45593999997E+02  0.45594000000E+02  0.51100000000E-03 0. -1.
         11   -1    0    0    0    0 -0.00000000000E+00 -0.00000000000E+00 -0.45593999997E+02  0.45594000000E+02  0.51100000000E-03 0.  1.
         23    2    1    2    0    0  0.00000000000E+00  0.00000000000E+00  0.00000000000E+00  0.91188000000E+02  0.91188000000E+02 0.  0.
    9900012    2    3    3    0    0  0.30606854859E+02 -0.81812833025E+01  0.18763507027E+02  0.54367052745E+02  0.39999928343E+02 0.  0.
        -12    1    3    3    0    0 -0.30606854859E+02  0.81812833025E+01 -0.18763507027E+02  0.36820947255E+02  0.00000000000E+00 0.  1.
         11    1    4    4    0    0 -0.68954345826E-01  0.12651571274E+01  0.13547640962E+02  0.13606761303E+02  0.51100000000E-03 0. -1.
        -11    1    4    4    0    0  0.24374136244E+01 -0.95763858025E+01 -0.45522687168E+01  0.10879857579E+02  0.51100000000E-03 0.  1.
         12    1    4    4    0    0  0.28238395580E+02  0.12994537258E+00  0.97681347816E+01  0.29880433863E+02  0.00000000000E+00 0. -1.
</event>
<event>
 8    1  0.1248739E-006  0.9118800E+02  0.7816164E-02  0.1184000E+00
        -11   -1    0    0    0    0  0.00000000000E+00  0.00000000000E+00  0.45593999997E+02  0.45594000000E+02  0.51100000000E-03 0.  1.
         11   -1    0    0    0    0 -0.00000000000E+00 -0.00000000000E+00 -0.45593999997E+02  0.45594000000E+02  0.51100000000E-03 0. -1.
         23    2    1    2    0    0  0.00000000000E+00 -0.17763568394E-14 -0.44408920985E-15  0.91188000000E+02  0.91188000000E+02 0.  0.
    9900012    2    3    3    0    0 -0.35341367931E+02  0.99928675642E+01 -0.26286093106E+01  0.54367091859E+02  0.40000017512E+02 0.  0.
        -12    1    3    3    0    0  0.35341367931E+02 -0.99928675642E+01  0.26286093106E+01  0.36820908141E+02  0.00000000000E+00 0.  1.
         11    1    4    4    0    0 -0.14830881184E+02  0.11546240720E+01 -0.41879768495E+01  0.15454039724E+02  0.51100000000E-03 0. -1.
        -11    1    4    4    0    0 -0.11093728065E+02 -0.10437640439E+01  0.15704293219E+02  0.19255780211E+02  0.51100000000E-03 0.  1.
        -12    1    4    4    0    0 -0.94167586818E+01  0.98820075361E+01 -0.14144925680E+02  0.19657271924E+02  0.00000000000E+00 0.  1.
</event>
<event>
 8    1  0.1248739E-006  0.9118800E+02  0.7816164E-02  0.1184000E+00
        -11   -1    0    0    0    0  0.00000000000E+00  0.00000000000E+00  0.45593999997E+02  0.45594000000E+02  0.51100000000E-03 0. -1.
         11   -1    0    0    0    0 -0.00000000000E+00 -0.00000000000E+00 -0.45593999997E+02  0.45594000000E+02  0.51100000000E-03 0.  1.
         23    2    1    2    0    0  0.00000000000E+00  0.00000000000E+00  0.00000000000E+00  0.91188000000E+02  0.91188000000E+02 0.  0.
    9900012    2    3    3    0    0 -0.18223594645E+02  0.26777133459E+02 -0.17511853690E+02  0.54367091569E+02  0.40000016849E+02 0.  0.
        -12    1    3    3    0    0  0.18223594645E+02 -0.26777133459E+02  0.17511853690E+02  0.36820908431E+02  0.00000000000E+00 0.  1.
         11    1    4    4    0    0  0.43290573496E+01  0.69034831395E+01 -0.12800585157E+02  0.15174116041E+02  0.51100000000E-03 0. -1.
        -11    1    4    4    0    0 -0.20492086557E+02  0.13208871628E+02 -0.13581647160E+02  0.27908082001E+02  0.51100000000E-03 0.  1.
         12    1    4    4    0    0 -0.20605654378E+01  0.66647786909E+01  0.88703786274E+01  0.11284893527E+02  0.00000000000E+00 0. -1.
</event>
<event>
 8    1  0.1248739E-006  0.9118800E+02  0.7816164E-02  0.1184000E+00
        -11   -1    0    0    0    0  0.00000000000E+00  0.00000000000E+00  0.45593999997E+02  0.45594000000E+02  0.51100000000E-03 0. -1.
         11   -1    0    0    0    0 -0.00000000000E+00 -0.00000000000E+00 -0.45593999997E+02  0.45594000000E+02  0.51100000000E-03 0.  1.
         23    2    1    2    0    0  0.00000000000E+00 -0.35527136788E-14 -0.35527136788E-14  0.91188000000E+02  0.91188000000E+02 0.  0.
    9900012    2    3    3    0    0  0.19661224320E+02  0.19073979078E+02  0.24604913837E+02  0.54367052095E+02  0.39999926861E+02 0.  0.
        -12    1    3    3    0    0 -0.19661224320E+02 -0.19073979078E+02 -0.24604913837E+02  0.36820947905E+02  0.00000000000E+00 0.  1.
         11    1    4    4    0    0 -0.38134313586E+01  0.79742347992E+01  0.13371592824E+02  0.16029041589E+02  0.51100000000E-03 0. -1.
        -11    1    4    4    0    0  0.20628346809E+01 -0.77388381759E+01  0.38054567307E+01  0.88671531183E+01  0.51100000000E-03 0.  1.
         12    1    4    4    0    0  0.21411820998E+02  0.18838582455E+02  0.74278642833E+01  0.29470857388E+02  0.00000000000E+00 0. -1.
</event>
<event>
 8    1  0.1248739E-006  0.9118800E+02  0.7816164E-02  0.1184000E+00
        -11   -1    0    0    0    0  0.00000000000E+00  0.00000000000E+00  0.45593999997E+02  0.45594000000E+02  0.51100000000E-03 0. -1.
         11   -1    0    0    0    0 -0.00000000000E+00 -0.00000000000E+00 -0.45593999997E+02  0.45594000000E+02  0.51100000000E-03 0.  1.
         23    2    1    2    0    0 -0.35527136788E-14  0.00000000000E+00  0.00000000000E+00  0.91188000000E+02  0.91188000000E+02 0.  0.
    9900012    2    3    3    0    0  0.19470514806E+02  0.29282054677E+02 -0.10919707758E+02  0.54367086235E+02  0.40000004691E+02 0.  0.
        -12    1    3    3    0    0 -0.19470514806E+02 -0.29282054677E+02  0.10919707758E+02  0.36820913765E+02  0.00000000000E+00 0.  1.
         11    1    4    4    0    0  0.98202648695E+01  0.37499509775E+01 -0.29516707618E+00  0.10516028637E+02  0.51100000000E-03 0. -1.
        -11    1    4    4    0    0 -0.11180557938E+02  0.14574015662E+02 -0.84331980395E+01  0.20212017162E+02  0.51100000000E-03 0.  1.
        -12    1    4    4    0    0  0.20830807875E+02  0.10958088038E+02 -0.21913426426E+01  0.23639040436E+02  0.00000000000E+00 0.  1.
</event>
<event>
 8    1  0.1248739E-006  0.9118800E+02  0.7816164E-02  0.1184000E+00
        -11   -1    0    0    0    0  0.00000000000E+00  0.00000000000E+00  0.45593999997E+02  0.45594000000E+02  0.51100000000E-03 0. -1.
         11   -1    0    0    0    0 -0.00000000000E+00 -0.00000000000E+00 -0.45593999997E+02  0.45594000000E+02  0.51100000000E-03 0.  1.
         23    2    1    2    0    0 -0.53290705182E-14 -0.88817841970E-15 -0.71054273576E-14  0.91188000000E+02  0.91188000000E+02 0.  0.
    9900012    2    3    3    0    0  0.14307110495E+02  0.48611419369E+01  0.33577612545E+02  0.54367079644E+02  0.39999989664E+02 0.  0.
        -12    1    3    3    0    0 -0.14307110495E+02 -0.48611419369E+01 -0.33577612545E+02  0.36820920356E+02  0.00000000000E+00 0.  1.
         11    1    4    4    0    0 -0.45205318265E+01  0.41520901950E+01  0.34382544238E+02  0.34926127892E+02  0.51100000000E-03 0. -1.
        -11    1    4    4    0    0  0.24478922939E+01 -0.13562184143E+01 -0.87261253902E+00  0.29313747584E+01  0.51100000000E-03 0.  1.
        -12    1    4    4    0    0  0.16379750028E+02  0.20652701561E+01  0.67680845768E-01  0.16509576993E+02  0.00000000000E+00 0.  1.
</event>
<event>
 8    1  0.1248739E-006  0.9118800E+02  0.7816164E-02  0.1184000E+00
        -11   -1    0    0    0    0  0.00000000000E+00  0.00000000000E+00  0.45593999997E+02  0.45594000000E+02  0.51100000000E-03 0. -1.
         11   -1    0    0    0    0 -0.00000000000E+00 -0.00000000000E+00 -0.45593999997E+02  0.45594000000E+02  0.51100000000E-03 0.  1.
         23    2    1    2    0    0  0.17763568394E-14 -0.35527136788E-14  0.00000000000E+00  0.91188000000E+02  0.91188000000E+02 0.  0.
    9900012    2    3    3    0    0  0.15627956842E+02  0.20663336677E+02 -0.26164368935E+02  0.54367072263E+02  0.39999972837E+02 0.  0.
        -12    1    3    3    0    0 -0.15627956842E+02 -0.20663336677E+02  0.26164368935E+02  0.36820927737E+02  0.00000000000E+00 0.  1.
         11    1    4    4    0    0  0.69173531511E+01  0.35669500592E+01 -0.59318174074E+01  0.97856714311E+01  0.51100000000E-03 0. -1.
        -11    1    4    4    0    0 -0.28520429783E+01  0.25105761200E+02 -0.15940938677E+02  0.29875523774E+02  0.51100000000E-03 0.  1.
        -12    1    4    4    0    0  0.11562646669E+02 -0.80093745823E+01 -0.42916128507E+01  0.14705877058E+02  0.00000000000E+00 0.  1.
</event>
<event>
 8    1  0.1248739E-006  0.9118800E+02  0.7816164E-02  0.1184000E+00
        -11   -1    0    0    0    0  0.00000000000E+00  0.00000000000E+00  0.45593999997E+02  0.45594000000E+02  0.51100000000E-03 0.  1.
         11   -1    0    0    0    0 -0.00000000000E+00 -0.00000000000E+00 -0.45593999997E+02  0.45594000000E+02  0.51100000000E-03 0. -1.
         23    2    1    2    0    0 -0.17763568394E-14  0.00000000000E+00  0.00000000000E+00  0.91188000000E+02  0.91188000000E+02 0.  0.
    9900012    2    3    3    0    0 -0.29450777224E+01  0.45861414868E+01  0.36415344911E+02  0.54367034213E+02  0.39999886095E+02 0.  0.
         12    1    3    3    0    0  0.29450777224E+01 -0.45861414868E+01 -0.36415344911E+02  0.36820965787E+02  0.00000000000E+00 0. -1.
         11    1    4    4    0    0  0.14951094279E+02  0.61126611122E+00  0.13257801635E+02  0.19991952652E+02  0.51100000000E-03 0. -1.
        -11    1    4    4    0    0 -0.20707736433E+02  0.27076313774E+00  0.18098352041E+02  0.27503345391E+02  0.51100000000E-03 0.  1.
        -12    1    4    4    0    0  0.28115644316E+01  0.37041122378E+01  0.50591912353E+01  0.68717361692E+01  0.00000000000E+00 0.  1.
</event>
<event>
 8    1  0.1248739E-006  0.9118800E+02  0.7816164E-02  0.1184000E+00
        -11   -1    0    0    0    0  0.00000000000E+00  0.00000000000E+00  0.45593999997E+02  0.45594000000E+02  0.51100000000E-03 0.  1.
         11   -1    0    0    0    0 -0.00000000000E+00 -0.00000000000E+00 -0.45593999997E+02  0.45594000000E+02  0.51100000000E-03 0. -1.
         23    2    1    2    0    0  0.00000000000E+00  0.00000000000E+00  0.17763568394E-14  0.91188000000E+02  0.91188000000E+02 0.  0.
    9900012    2    3    3    0    0 -0.91456750955E+01  0.32875693597E+02  0.13831722753E+02  0.54367202117E+02  0.40000268864E+02 0.  0.
         12    1    3    3    0    0  0.91456750955E+01 -0.32875693597E+02 -0.13831722753E+02  0.36820797883E+02  0.00000000000E+00 0. -1.
         11    1    4    4    0    0 -0.64144131263E+01  0.61556640276E+01 -0.35322995077E+01  0.95662968514E+01  0.51100000000E-03 0. -1.
        -11    1    4    4    0    0 -0.16869160231E+02  0.11632166826E+02  0.68567230389E+01  0.21607649643E+02  0.51100000000E-03 0.  1.
         12    1    4    4    0    0  0.14137898262E+02  0.15087862743E+02  0.10507299222E+02  0.23193255622E+02  0.00000000000E+00 0. -1.
</event>
<event>
 8    1  0.1248739E-006  0.9118800E+02  0.7816164E-02  0.1184000E+00
        -11   -1    0    0    0    0  0.00000000000E+00  0.00000000000E+00  0.45593999997E+02  0.45594000000E+02  0.51100000000E-03 0.  1.
         11   -1    0    0    0    0 -0.00000000000E+00 -0.00000000000E+00 -0.45593999997E+02  0.45594000000E+02  0.51100000000E-03 0. -1.
         23    2    1    2    0    0  0.00000000000E+00 -0.35527136788E-14 -0.17763568394E-14  0.91188000000E+02  0.91188000000E+02 0.  0.
    9900012    2    3    3    0    0 -0.29596694955E+02  0.20329661657E+02  0.81560118602E+01  0.54367081696E+02  0.39999994341E+02 0.  0.
         12    1    3    3    0    0  0.29596694955E+02 -0.20329661657E+02 -0.81560118602E+01  0.36820918304E+02  0.00000000000E+00 0. -1.
         11    1    4    4    0    0 -0.18670105280E+02  0.13143332382E+02 -0.17644744054E+01  0.22900510638E+02  0.51100000000E-03 0. -1.
        -11    1    4    4    0    0 -0.18088047315E+02  0.99780648797E+01  0.25447981085E+01  0.20813823101E+02  0.51100000000E-03 0.  1.
         12    1    4    4    0    0  0.71614576409E+01 -0.27917356051E+01  0.73756881572E+01  0.10652747956E+02  0.00000000000E+00 0. -1.
</event>
<event>
 8    1  0.1248739E-006  0.9118800E+02  0.7816164E-02  0.1184000E+00
        -11   -1    0    0    0    0  0.00000000000E+00  0.00000000000E+00  0.45593999997E+02  0.45594000000E+02  0.51100000000E-03 0.  1.
         11   -1    0    0    0    0 -0.00000000000E+00 -0.00000000000E+00 -0.45593999997E+02  0.45594000000E+02  0.51100000000E-03 0. -1.
         23    2    1    2    0    0  0.00000000000E+00  0.00000000000E+00  0.88817841970E-15  0.91188000000E+02  0.91188000000E+02 0.  0.
    9900012    2    3    3    0    0 -0.24160250150E+02 -0.27245155154E+02  0.54557105196E+01  0.54367069213E+02  0.39999965886E+02 0.  0.
        -12    1    3    3    0    0  0.24160250150E+02  0.27245155154E+02 -0.54557105196E+01  0.36820930787E+02  0.00000000000E+00 0.  1.
         11    1    4    4    0    0  0.18675911165E+01 -0.24762791685E+02  0.42665136321E+01  0.25196961870E+02  0.51100000000E-03 0. -1.
        -11    1    4    4    0    0 -0.38969678340E+01  0.43266711796E+01 -0.10151518889E+01  0.59107508334E+01  0.51100000000E-03 0.  1.
        -12    1    4    4    0    0 -0.22130873433E+02 -0.68090346488E+01  0.22043487764E+01  0.23259356510E+02  0.00000000000E+00 0.  1.
</event>
<event>
 8    1  0.1248739E-006  0.9118800E+02  0.7816164E-02  0.1184000E+00
        -11   -1    0    0    0    0  0.00000000000E+00  0.00000000000E+00  0.45593999997E+02  0.45594000000E+02  0.51100000000E-03 0. -1.
         11   -1    0    0    0    0 -0.00000000000E+00 -0.00000000000E+00 -0.45593999997E+02  0.45594000000E+02  0.51100000000E-03 0.  1.
         23    2    1    2    0    0  0.00000000000E+00  0.00000000000E+00  0.00000000000E+00  0.91188000000E+02  0.91188000000E+02 0.  0.
    9900012    2    3    3    0    0 -0.10770513164E+02 -0.33269200867E+02  0.11529927722E+02  0.54367042471E+02  0.39999904920E+02 0.  0.
        -12    1    3    3    0    0  0.10770513164E+02  0.33269200867E+02 -0.11529927722E+02  0.36820957529E+02  0.00000000000E+00 0.  1.
         11    1    4    4    0    0 -0.63871292567E+01 -0.23170185176E+02  0.14462486488E+02  0.28050248072E+02  0.51100000000E-03 0. -1.
        -11    1    4    4    0    0 -0.12589340256E+02 -0.55265154073E+01 -0.77255426717E+01  0.15770791688E+02  0.51100000000E-03 0.  1.
        -12    1    4    4    0    0  0.82059563495E+01 -0.45725002833E+01  0.47929839056E+01  0.10546002710E+02  0.00000000000E+00 0.  1.
</event>
<event>
 8    1  0.1248739E-006  0.9118800E+02  0.7816164E-02  0.1184000E+00
        -11   -1    0    0    0    0  0.00000000000E+00  0.00000000000E+00  0.45593999997E+02  0.45594000000E+02  0.51100000000E-03 0. -1.
         11   -1    0    0    0    0 -0.00000000000E+00 -0.00000000000E+00 -0.45593999997E+02  0.45594000000E+02  0.51100000000E-03 0.  1.
         23    2    1    2    0    0  0.17763568394E-14 -0.88817841970E-15  0.71054273576E-14  0.91188000000E+02  0.91188000000E+02 0.  0.
    9900012    2    3    3    0    0 -0.14678034872E+02  0.51393546732E+01 -0.33375473334E+02  0.54367083466E+02  0.39999998376E+02 0.  0.
         12    1    3    3    0    0  0.14678034872E+02 -0.51393546732E+01  0.33375473334E+02  0.36820916534E+02  0.00000000000E+00 0. -1.
         11    1    4    4    0    0  0.85946872064E+01  0.14416153222E+01 -0.94282460650E+00  0.87656044522E+01  0.51100000000E-03 0. -1.
        -11    1    4    4    0    0 -0.44370484085E+01  0.79037081339E+01 -0.21703357629E+02  0.23520028348E+02  0.51100000000E-03 0.  1.
        -12    1    4    4    0    0 -0.18835673670E+02 -0.42059687829E+01 -0.10729291098E+02  0.22081450665E+02  0.00000000000E+00 0.  1.
</event>
<event>
 8    1  0.1248739E-006  0.9118800E+02  0.7816164E-02  0.1184000E+00
        -11   -1    0    0    0    0  0.00000000000E+00  0.00000000000E+00  0.45593999997E+02  0.45594000000E+02  0.51100000000E-03 0. -1.
         11   -1    0    0    0    0 -0.00000000000E+00 -0.00000000000E+00 -0.45593999997E+02  0.45594000000E+02  0.51100000000E-03 0.  1.
         23    2    1    2    0    0  0.17763568394E-14 -0.10547118734E-14  0.00000000000E+00  0.91188000000E+02  0.91188000000E+02 0.  0.
    9900012    2    3    3    0    0 -0.15054463088E+02  0.37612395437E+00  0.33600620127E+02  0.54367082018E+02  0.39999995076E+02 0.  0.
        -12    1    3    3    0    0  0.15054463088E+02 -0.37612395437E+00 -0.33600620127E+02  0.36820917982E+02  0.00000000000E+00 0.  1.
         11    1    4    4    0    0 -0.46369460975E+01  0.44349595920E+01  0.66471480889E+01  0.92387614793E+01  0.51100000000E-03 0. -1.
        -11    1    4    4    0    0 -0.20855121633E+02 -0.46834548410E+01  0.68108744046E+01  0.22433431703E+02  0.51100000000E-03 0.  1.
         12    1    4    4    0    0  0.10437604642E+02  0.62461920332E+00  0.20142597634E+02  0.22694888836E+02  0.00000000000E+00 0. -1.
</event>
<event>
 8    1  0.1248739E-006  0.9118800E+02  0.7816164E-02  0.1184000E+00
        -11   -1    0    0    0    0  0.00000000000E+00  0.00000000000E+00  0.45593999997E+02  0.45594000000E+02  0.51100000000E-03 0.  1.
         11   -1    0    0    0    0 -0.00000000000E+00 -0.00000000000E+00 -0.45593999997E+02  0.45594000000E+02  0.51100000000E-03 0. -1.
         23    2    1    2    0    0  0.00000000000E+00  0.00000000000E+00  0.00000000000E+00  0.91188000000E+02  0.91188000000E+02 0.  0.
    9900012    2    3    3    0    0  0.13605397811E+02 -0.17998415582E+02 -0.29098635018E+02  0.54367076967E+02  0.39999983562E+02 0.  0.
        -12    1    3    3    0    0 -0.13605397811E+02  0.17998415582E+02  0.29098635018E+02  0.36820923033E+02  0.00000000000E+00 0.  1.
         11    1    4    4    0    0 -0.17983771823E+01 -0.66530031176E+01 -0.24657765194E+02  0.25602773201E+02  0.51100000000E-03 0. -1.
        -11    1    4    4    0    0 -0.26519169615E+01 -0.98871769903E+01 -0.64896505622E+00  0.10257196903E+02  0.51100000000E-03 0.  1.
         12    1    4    4    0    0  0.18055691954E+02 -0.14582354739E+01 -0.37919047680E+01  0.18507106863E+02  0.00000000000E+00 0. -1.
</event>
<event>
 8    1  0.1248739E-006  0.9118800E+02  0.7816164E-02  0.1184000E+00
        -11   -1    0    0    0    0  0.00000000000E+00  0.00000000000E+00  0.45593999997E+02  0.45594000000E+02  0.51100000000E-03 0. -1.
         11   -1    0    0    0    0 -0.00000000000E+00 -0.00000000000E+00 -0.45593999997E+02  0.45594000000E+02  0.51100000000E-03 0.  1.
         23    2    1    2    0    0 -0.17763568394E-14  0.71054273576E-14  0.88817841970E-15  0.91188000000E+02  0.91188000000E+02 0.  0.
    9900012    2    3    3    0    0  0.15580795651E+02 -0.32430608139E+02 -0.78279175476E+01  0.54367057175E+02  0.39999938441E+02 0.  0.
        -12    1    3    3    0    0 -0.15580795651E+02  0.32430608139E+02  0.78279175476E+01  0.36820942825E+02  0.00000000000E+00 0.  1.
         11    1    4    4    0    0  0.63357761721E+01 -0.53751931110E+00  0.72233824338E+01  0.96233175547E+01  0.51100000000E-03 0. -1.
        -11    1    4    4    0    0  0.17203922347E+02 -0.18624648937E+02 -0.38565784003E+01  0.25646163248E+02  0.51100000000E-03 0.  1.
        -12    1    4    4    0    0 -0.79589028673E+01 -0.13268439891E+02 -0.11194721581E+02  0.19097576372E+02  0.00000000000E+00 0.  1.
</event>
<event>
 8    1  0.1248739E-006  0.9118800E+02  0.7816164E-02  0.1184000E+00
        -11   -1    0    0    0    0  0.00000000000E+00  0.00000000000E+00  0.45593999997E+02  0.45594000000E+02  0.51100000000E-03 0.  1.
         11   -1    0    0    0    0 -0.00000000000E+00 -0.00000000000E+00 -0.45593999997E+02  0.45594000000E+02  0.51100000000E-03 0. -1.
         23    2    1    2    0    0 -0.33306690739E-15 -0.71054273576E-14 -0.17763568394E-14  0.91188000000E+02  0.91188000000E+02 0.  0.
    9900012    2    3    3    0    0 -0.70847765335E+00  0.35726845381E+02  0.88809179535E+01  0.54367080333E+02  0.39999991235E+02 0.  0.
         12    1    3    3    0    0  0.70847765335E+00 -0.35726845381E+02 -0.88809179535E+01  0.36820919667E+02  0.00000000000E+00 0. -1.
         11    1    4    4    0    0  0.10410538219E+02  0.22528969437E+02 -0.31081375428E+01  0.25011882958E+02  0.51100000000E-03 0. -1.
        -11    1    4    4    0    0 -0.14191849793E+02  0.35254909935E+01  0.14032109537E+01  0.14690360395E+02  0.51100000000E-03 0.  1.
         12    1    4    4    0    0  0.30728339213E+01  0.96723849506E+01  0.10585844542E+02  0.14664836979E+02  0.00000000000E+00 0. -1.
</event>
<event>
 8    1  0.1248739E-006  0.9118800E+02  0.7816164E-02  0.1184000E+00
        -11   -1    0    0    0    0  0.00000000000E+00  0.00000000000E+00  0.45593999997E+02  0.45594000000E+02  0.51100000000E-03 0.  1.
         11   -1    0    0    0    0 -0.00000000000E+00 -0.00000000000E+00 -0.45593999997E+02  0.45594000000E+02  0.51100000000E-03 0. -1.
         23    2    1    2    0    0  0.00000000000E+00 -0.26645352591E-14  0.00000000000E+00  0.91188000000E+02  0.91188000000E+02 0.  0.
    9900012    2    3    3    0    0  0.87083525053E+01  0.68753880995E+01  0.35109387278E+02  0.54367143955E+02  0.40000136273E+02 0.  0.
         12    1    3    3    0    0 -0.87083525053E+01 -0.68753880995E+01 -0.35109387278E+02  0.36820856045E+02  0.00000000000E+00 0. -1.
         11    1    4    4    0    0 -0.64540242410E+01 -0.52712714192E+01  0.59034745302E+00  0.83539955503E+01  0.51100000000E-03 0. -1.
        -11    1    4    4    0    0  0.14255770496E+01 -0.21941629824E+01  0.22810274129E+02  0.22959861219E+02  0.51100000000E-03 0.  1.
        -12    1    4    4    0    0  0.13736799697E+02  0.14340822501E+02  0.11708765696E+02  0.23053287185E+02  0.00000000000E+00 0.  1.
</event>
<event>
 8    1  0.1248739E-006  0.9118800E+02  0.7816164E-02  0.1184000E+00
        -11   -1    0    0    0    0  0.00000000000E+00  0.00000000000E+00  0.45593999997E+02  0.45594000000E+02  0.51100000000E-03 0. -1.
         11   -1    0    0    0    0 -0.00000000000E+00 -0.00000000000E+00 -0.45593999997E+02  0.45594000000E+02  0.51100000000E-03 0.  1.
         23    2    1    2    0    0  0.00000000000E+00  0.00000000000E+00  0.00000000000E+00  0.91188000000E+02  0.91188000000E+02 0.  0.
    9900012    2    3    3    0    0  0.33699033182E+02 -0.44466300238E+01 -0.14155668402E+02  0.54367077906E+02  0.39999985701E+02 0.  0.
         12    1    3    3    0    0 -0.33699033182E+02  0.44466300238E+01  0.14155668402E+02  0.36820922094E+02  0.00000000000E+00 0. -1.
         11    1    4    4    0    0  0.20859742420E+02  0.13589291371E+02 -0.15477593676E+02  0.29314733498E+02  0.51100000000E-03 0. -1.
        -11    1    4    4    0    0  0.11134632889E+02 -0.77631659337E+01 -0.27884895077E+01  0.13857217213E+02  0.51100000000E-03 0.  1.
         12    1    4    4    0    0  0.17046578729E+01 -0.10272755461E+02  0.41104147814E+01  0.11195127195E+02  0.00000000000E+00 0. -1.
</event>
<event>
 8    1  0.1248739E-006  0.9118800E+02  0.7816164E-02  0.1184000E+00
        -11   -1    0    0    0    0  0.00000000000E+00  0.00000000000E+00  0.45593999997E+02  0.45594000000E+02  0.51100000000E-03 0. -1.
         11   -1    0    0    0    0 -0.00000000000E+00 -0.00000000000E+00 -0.45593999997E+02  0.45594000000E+02  0.51100000000E-03 0.  1.
         23    2    1    2    0    0  0.00000000000E+00  0.00000000000E+00 -0.17763568394E-14  0.91188000000E+02  0.91188000000E+02 0.  0.
    9900012    2    3    3    0    0 -0.27934830363E+02  0.20547189105E+02 -0.12378997088E+02  0.54367064428E+02  0.39999954977E+02 0.  0.
         12    1    3    3    0    0  0.27934830363E+02 -0.20547189105E+02  0.12378997088E+02  0.36820935572E+02  0.00000000000E+00 0. -1.
         11    1    4    4    0    0 -0.12764938866E+01  0.66293547152E+01  0.51683404158E+01  0.85023245938E+01  0.51100000000E-03 0. -1.
        -11    1    4    4    0    0 -0.30128619767E+02  0.89767478907E+01 -0.48560254547E+01  0.31810324036E+02  0.51100000000E-03 0.  1.
         12    1    4    4    0    0  0.34702832913E+01  0.49410864988E+01 -0.12691312049E+02  0.14054415799E+02  0.00000000000E+00 0. -1.
</event>
<event>
 8    1  0.1248739E-006  0.9118800E+02  0.7816164E-02  0.1184000E+00
        -11   -1    0    0    0    0  0.00000000000E+00  0.00000000000E+00  0.45593999997E+02  0.45594000000E+02  0.51100000000E-03 0.  1.
         11   -1    0    0    0    0 -0.00000000000E+00 -0.00000000000E+00 -0.45593999997E+02  0.45594000000E+02  0.51100000000E-03 0. -1.
         23    2    1    2    0    0 -0.10658141036E-13 -0.88817841970E-15  0.00000000000E+00  0.91188000000E+02  0.91188000000E+02 0.  0.
    9900012    2    3    3    0    0 -0.27197590581E+02  0.42543667006E+01  0.24453453434E+02  0.54367082653E+02  0.39999996524E+02 0.  0.
         12    1    3    3    0    0  0.27197590581E+02 -0.42543667006E+01 -0.24453453434E+02  0.36820917347E+02  0.00000000000E+00 0. -1.
         11    1    4    4    0    0 -0.44011885662E+01 -0.71585814689E+01  0.62134538364E+01  0.10450969251E+02  0.51100000000E-03 0. -1.
        -11    1    4    4    0    0  0.57953176440E+01 -0.14231367215E+01 -0.23535415429E+01  0.64148408225E+01  0.51100000000E-03 0.  1.
        -12    1    4    4    0    0 -0.28591719659E+02  0.12836084891E+02  0.20593541140E+02  0.37501272580E+02  0.00000000000E+00 0.  1.
</event>
<event>
 8    1  0.1248739E-006  0.9118800E+02  0.7816164E-02  0.1184000E+00
        -11   -1    0    0    0    0  0.00000000000E+00  0.00000000000E+00  0.45593999997E+02  0.45594000000E+02  0.51100000000E-03 0. -1.
         11   -1    0    0    0    0 -0.00000000000E+00 -0.00000000000E+00 -0.45593999997E+02  0.45594000000E+02  0.51100000000E-03 0.  1.
         23    2    1    2    0    0 -0.26645352591E-14  0.35527136788E-14  0.00000000000E+00  0.91188000000E+02  0.91188000000E+02 0.  0.
    9900012    2    3    3    0    0  0.63498209853E+01 -0.23681956524E+02 -0.27470441912E+02  0.54367075647E+02  0.39999980552E+02 0.  0.
         12    1    3    3    0    0 -0.63498209853E+01  0.23681956524E+02  0.27470441912E+02  0.36820924353E+02  0.00000000000E+00 0. -1.
         11    1    4    4    0    0 -0.71348715289E+01 -0.69458011620E+01  0.14368089166E+01  0.10060564877E+02  0.51100000000E-03 0. -1.
        -11    1    4    4    0    0  0.10539518755E+01 -0.20473026757E+02 -0.19320594006E+02  0.28169859640E+02  0.51100000000E-03 0.  1.
         12    1    4    4    0    0  0.12430740639E+02  0.37368713941E+01 -0.95866568228E+01  0.16136651130E+02  0.00000000000E+00 0. -1.
</event>
<event>
 8    1  0.1248739E-006  0.9118800E+02  0.7816164E-02  0.1184000E+00
        -11   -1    0    0    0    0  0.00000000000E+00  0.00000000000E+00  0.45593999997E+02  0.45594000000E+02  0.51100000000E-03 0.  1.
         11   -1    0    0    0    0 -0.00000000000E+00 -0.00000000000E+00 -0.45593999997E+02  0.45594000000E+02  0.51100000000E-03 0. -1.
         23    2    1    2    0    0  0.00000000000E+00 -0.17763568394E-14  0.00000000000E+00  0.91188000000E+02  0.91188000000E+02 0.  0.
    9900012    2    3    3    0    0  0.33917946247E+02 -0.11435216171E+02  0.86363895669E+01  0.54367102792E+02  0.40000042434E+02 0.  0.
         12    1    3    3    0    0 -0.33917946247E+02  0.11435216171E+02 -0.86363895669E+01  0.36820897208E+02  0.00000000000E+00 0. -1.
         11    1    4    4    0    0  0.61717102954E+01  0.63996516901E+01  0.11203052040E+02  0.14302234965E+02  0.51100000000E-03 0. -1.
        -11    1    4    4    0    0  0.36987413556E+01  0.49565520121E+01  0.22571570740E+01  0.65835289763E+01  0.51100000000E-03 0.  1.
         12    1    4    4    0    0  0.24047494596E+02 -0.22791419873E+02 -0.48238195473E+01  0.33481338850E+02  0.00000000000E+00 0. -1.
</event>
<event>
 8    1  0.1248739E-006  0.9118800E+02  0.7816164E-02  0.1184000E+00
        -11   -1    0    0    0    0  0.00000000000E+00  0.00000000000E+00  0.45593999997E+02  0.45594000000E+02  0.51100000000E-03 0. -1.
         11   -1    0    0    0    0 -0.00000000000E+00 -0.00000000000E+00 -0.45593999997E+02  0.45594000000E+02  0.51100000000E-03 0.  1.
         23    2    1    2    0    0  0.16653345369E-14  0.00000000000E+00  0.00000000000E+00  0.91188000000E+02  0.91188000000E+02 0.  0.
    9900012    2    3    3    0    0 -0.78540835927E+00 -0.30829262607E+02 -0.20117656122E+02  0.54367076777E+02  0.39999983128E+02 0.  0.
         12    1    3    3    0    0  0.78540835927E+00  0.30829262607E+02  0.20117656122E+02  0.36820923223E+02  0.00000000000E+00 0. -1.
         11    1    4    4    0    0  0.50178703971E+01 -0.18858600473E+01 -0.98307578464E+01  0.11197289473E+02  0.51100000000E-03 0. -1.
        -11    1    4    4    0    0  0.40254577436E+01 -0.17353629120E+02 -0.18677557242E+02  0.25810925951E+02  0.51100000000E-03 0.  1.
         12    1    4    4    0    0 -0.98287365000E+01 -0.11589773440E+02  0.83906589663E+01  0.17358861353E+02  0.00000000000E+00 0. -1.
</event>
<event>
 8    1  0.1248739E-006  0.9118800E+02  0.7816164E-02  0.1184000E+00
        -11   -1    0    0    0    0  0.00000000000E+00  0.00000000000E+00  0.45593999997E+02  0.45594000000E+02  0.51100000000E-03 0.  1.
         11   -1    0    0    0    0 -0.00000000000E+00 -0.00000000000E+00 -0.45593999997E+02  0.45594000000E+02  0.51100000000E-03 0. -1.
         23    2    1    2    0    0 -0.17763568394E-14  0.00000000000E+00  0.35527136788E-14  0.91188000000E+02  0.91188000000E+02 0.  0.
    9900012    2    3    3    0    0  0.12101477996E+02 -0.29151408693E+02  0.18961271530E+02  0.54367079092E+02  0.39999988406E+02 0.  0.
         12    1    3    3    0    0 -0.12101477996E+02  0.29151408693E+02 -0.18961271530E+02  0.36820920908E+02  0.00000000000E+00 0. -1.
         11    1    4    4    0    0 -0.51521716875E+01  0.13367082149E+01  0.76929350472E+01  0.93548336090E+01  0.51100000000E-03 0. -1.
        -11    1    4    4    0    0  0.19552346768E+02 -0.95569530560E+01  0.15424552530E+01  0.21817625542E+02  0.51100000000E-03 0.  1.
        -12    1    4    4    0    0 -0.22986970841E+01 -0.20931163852E+02  0.97258812301E+01  0.23194619941E+02  0.00000000000E+00 0.  1.
</event>
<event>
 8    1  0.1248739E-006  0.9118800E+02  0.7816164E-02  0.1184000E+00
        -11   -1    0    0    0    0  0.00000000000E+00  0.00000000000E+00  0.45593999997E+02  0.45594000000E+02  0.51100000000E-03 0. -1.
         11   -1    0    0    0    0 -0.00000000000E+00 -0.00000000000E+00 -0.45593999997E+02  0.45594000000E+02  0.51100000000E-03 0.  1.
         23    2    1    2    0    0 -0.22204460493E-15  0.00000000000E+00  0.11102230246E-14  0.91188000000E+02  0.91188000000E+02 0.  0.
    9900012    2    3    3    0    0  0.17173426230E+01 -0.36759350681E+02 -0.12580520243E+01  0.54367057276E+02  0.39999938672E+02 0.  0.
         12    1    3    3    0    0 -0.17173426230E+01  0.36759350681E+02  0.12580520243E+01  0.36820942724E+02  0.00000000000E+00 0. -1.
         11    1    4    4    0    0  0.92125846467E+01 -0.58413002196E+01  0.10139610818E+02  0.14893092759E+02  0.51100000000E-03 0. -1.
        -11    1    4    4    0    0 -0.12268320047E+02 -0.27830066938E+02 -0.13678561671E+02  0.33348573466E+02  0.51100000000E-03 0.  1.
        -12    1    4    4    0    0  0.47730780234E+01 -0.30879835240E+01  0.22808988294E+01  0.61253910513E+01  0.00000000000E+00 0.  1.
</event>
<event>
 8    1  0.1248739E-006  0.9118800E+02  0.7816164E-02  0.1184000E+00
        -11   -1    0    0    0    0  0.00000000000E+00  0.00000000000E+00  0.45593999997E+02  0.45594000000E+02  0.51100000000E-03 0.  1.
         11   -1    0    0    0    0 -0.00000000000E+00 -0.00000000000E+00 -0.45593999997E+02  0.45594000000E+02  0.51100000000E-03 0. -1.
         23    2    1    2    0    0  0.88817841970E-15  0.00000000000E+00  0.35527136788E-14  0.91188000000E+02  0.91188000000E+02 0.  0.
    9900012    2    3    3    0    0  0.29324417759E+01  0.18702831643E+02  0.31581416925E+02  0.54367068165E+02  0.39999963495E+02 0.  0.
         12    1    3    3    0    0 -0.29324417759E+01 -0.18702831643E+02 -0.31581416925E+02  0.36820931835E+02  0.00000000000E+00 0. -1.
         11    1    4    4    0    0  0.74316978537E+00 -0.27317631618E+01 -0.96362657243E+00  0.29905530817E+01  0.51100000000E-03 0.  1.
        -11    1    4    4    0    0  0.14221782838E+02  0.66150281919E+01  0.26509348944E+01  0.15907393286E+02  0.51100000000E-03 0. -1.
        -12    1    4    4    0    0 -0.12032510848E+02  0.14819566613E+02  0.29894108603E+02  0.35469121797E+02  0.00000000000E+00 0.  1.
</event>
<event>
 8    1  0.1248739E-006  0.9118800E+02  0.7816164E-02  0.1184000E+00
        -11   -1    0    0    0    0  0.00000000000E+00  0.00000000000E+00  0.45593999997E+02  0.45594000000E+02  0.51100000000E-03 0. -1.
         11   -1    0    0    0    0 -0.00000000000E+00 -0.00000000000E+00 -0.45593999997E+02  0.45594000000E+02  0.51100000000E-03 0.  1.
         23    2    1    2    0    0  0.17763568394E-14  0.00000000000E+00  0.00000000000E+00  0.91188000000E+02  0.91188000000E+02 0.  0.
    9900012    2    3    3    0    0 -0.81898966563E+01 -0.29892114588E+02  0.19878802071E+02  0.54367086193E+02  0.40000004595E+02 0.  0.
        -12    1    3    3    0    0  0.81898966563E+01  0.29892114588E+02 -0.19878802071E+02  0.36820913807E+02  0.00000000000E+00 0.  1.
         11    1    4    4    0    0  0.98042438076E+01 -0.25021274282E+01  0.12172727240E+02  0.15829059575E+02  0.51100000000E-03 0. -1.
        -11    1    4    4    0    0 -0.93264205085E+01 -0.26374450839E+02  0.18656579330E+01  0.28037019391E+02  0.51100000000E-03 0.  1.
         12    1    4    4    0    0 -0.86677199554E+01 -0.10155363211E+01  0.58404168972E+01  0.10501007227E+02  0.00000000000E+00 0. -1.
</event>
<event>
 8    1  0.1248739E-006  0.9118800E+02  0.7816164E-02  0.1184000E+00
        -11   -1    0    0    0    0  0.00000000000E+00  0.00000000000E+00  0.45593999997E+02  0.45594000000E+02  0.51100000000E-03 0.  1.
         11   -1    0    0    0    0 -0.00000000000E+00 -0.00000000000E+00 -0.45593999997E+02  0.45594000000E+02  0.51100000000E-03 0. -1.
         23    2    1    2    0    0  0.35527136788E-14  0.35527136788E-14  0.00000000000E+00  0.91188000000E+02  0.91188000000E+02 0.  0.
    9900012    2    3    3    0    0 -0.88279834449E+01 -0.16392525289E+02 -0.31766847467E+02  0.54367071507E+02  0.39999971115E+02 0.  0.
        -12    1    3    3    0    0  0.88279834449E+01  0.16392525289E+02  0.31766847467E+02  0.36820928493E+02  0.00000000000E+00 0.  1.
         11    1    4    4    0    0  0.59883163297E+01 -0.26945600003E+01 -0.46935345227E+01  0.80715458642E+01  0.51100000000E-03 0. -1.
        -11    1    4    4    0    0  0.83654767595E+01 -0.11516359919E+02 -0.92958460180E+01  0.17000602950E+02  0.51100000000E-03 0.  1.
         12    1    4    4    0    0 -0.23181776534E+02 -0.21816053697E+01 -0.17777466927E+02  0.29294922693E+02  0.00000000000E+00 0. -1.
</event>
<event>
 8    1  0.1248739E-006  0.9118800E+02  0.7816164E-02  0.1184000E+00
        -11   -1    0    0    0    0  0.00000000000E+00  0.00000000000E+00  0.45593999997E+02  0.45594000000E+02  0.51100000000E-03 0. -1.
         11   -1    0    0    0    0 -0.00000000000E+00 -0.00000000000E+00 -0.45593999997E+02  0.45594000000E+02  0.51100000000E-03 0.  1.
         23    2    1    2    0    0  0.35527136788E-14 -0.35527136788E-14 -0.88817841970E-15  0.91188000000E+02  0.91188000000E+02 0.  0.
    9900012    2    3    3    0    0 -0.16680995403E+02  0.31901157363E+02  0.77356693308E+01  0.54367081642E+02  0.39999994219E+02 0.  0.
        -12    1    3    3    0    0  0.16680995403E+02 -0.31901157363E+02 -0.77356693308E+01  0.36820918358E+02  0.00000000000E+00 0.  1.
         11    1    4    4    0    0  0.61074155570E+01 -0.34368193985E+01 -0.27736607401E+00  0.70135001650E+01  0.51100000000E-03 0. -1.
        -11    1    4    4    0    0 -0.40826886117E+01  0.80089603342E+01 -0.66030422019E+01  0.11154010871E+02  0.51100000000E-03 0.  1.
         12    1    4    4    0    0 -0.18705722348E+02  0.27329016427E+02  0.14616077607E+02  0.36199570606E+02  0.00000000000E+00 0. -1.
</event>
<event>
 8    1  0.1248739E-006  0.9118800E+02  0.7816164E-02  0.1184000E+00
        -11   -1    0    0    0    0  0.00000000000E+00  0.00000000000E+00  0.45593999997E+02  0.45594000000E+02  0.51100000000E-03 0.  1.
         11   -1    0    0    0    0 -0.00000000000E+00 -0.00000000000E+00 -0.45593999997E+02  0.45594000000E+02  0.51100000000E-03 0. -1.
         23    2    1    2    0    0  0.00000000000E+00  0.00000000000E+00  0.00000000000E+00  0.91188000000E+02  0.91188000000E+02 0.  0.
    9900012    2    3    3    0    0  0.17238373301E+02  0.22668922945E+02 -0.23339649747E+02  0.54367070736E+02  0.39999969357E+02 0.  0.
         12    1    3    3    0    0 -0.17238373301E+02 -0.22668922945E+02  0.23339649747E+02  0.36820929264E+02  0.00000000000E+00 0. -1.
         11    1    4    4    0    0 -0.95796839161E+00 -0.39119025891E+01 -0.17186312193E+02  0.17651912428E+02  0.51100000000E-03 0. -1.
        -11    1    4    4    0    0  0.66324077119E+01  0.21595397838E+02 -0.80458107915E+01  0.23980932246E+02  0.51100000000E-03 0.  1.
        -12    1    4    4    0    0  0.11563933981E+02  0.49854276964E+01  0.18924732381E+01  0.12734226062E+02  0.00000000000E+00 0.  1.
</event>
<event>
 8    1  0.1248739E-006  0.9118800E+02  0.7816164E-02  0.1184000E+00
        -11   -1    0    0    0    0  0.00000000000E+00  0.00000000000E+00  0.45593999997E+02  0.45594000000E+02  0.51100000000E-03 0.  1.
         11   -1    0    0    0    0 -0.00000000000E+00 -0.00000000000E+00 -0.45593999997E+02  0.45594000000E+02  0.51100000000E-03 0. -1.
         23    2    1    2    0    0  0.35527136788E-14  0.00000000000E+00  0.17763568394E-14  0.91188000000E+02  0.91188000000E+02 0.  0.
    9900012    2    3    3    0    0  0.22232664765E+02 -0.29004479715E+02  0.44976207265E+01  0.54367084500E+02  0.40000000734E+02 0.  0.
         12    1    3    3    0    0 -0.22232664765E+02  0.29004479715E+02 -0.44976207265E+01  0.36820915500E+02  0.00000000000E+00 0. -1.
         11    1    4    4    0    0  0.13879325313E+01  0.52274977667E+01 -0.62190867852E+01  0.82419736905E+01  0.51100000000E-03 0. -1.
        -11    1    4    4    0    0 -0.15307858081E+01 -0.14380351049E+00  0.46535567616E+01  0.49009769877E+01  0.51100000000E-03 0.  1.
         12    1    4    4    0    0  0.22375518042E+02 -0.34088173971E+02  0.60631507501E+01  0.41224133822E+02  0.00000000000E+00 0. -1.
</event>
<event>
 8    1  0.1248739E-006  0.9118800E+02  0.7816164E-02  0.1184000E+00
        -11   -1    0    0    0    0  0.00000000000E+00  0.00000000000E+00  0.45593999997E+02  0.45594000000E+02  0.51100000000E-03 0. -1.
         11   -1    0    0    0    0 -0.00000000000E+00 -0.00000000000E+00 -0.45593999997E+02  0.45594000000E+02  0.51100000000E-03 0.  1.
         23    2    1    2    0    0  0.00000000000E+00  0.00000000000E+00  0.00000000000E+00  0.91188000000E+02  0.91188000000E+02 0.  0.
    9900012    2    3    3    0    0 -0.35550902287E+01  0.13378871154E+02  0.34119602295E+02  0.54367080394E+02  0.39999991373E+02 0.  0.
        -12    1    3    3    0    0  0.35550902287E+01 -0.13378871154E+02 -0.34119602295E+02  0.36820919606E+02  0.00000000000E+00 0.  1.
         11    1    4    4    0    0 -0.54916404928E+01  0.17939133742E+02  0.37611411672E+02  0.42030809212E+02  0.51100000000E-03 0. -1.
        -11    1    4    4    0    0  0.32802230706E+01  0.28129352289E+01 -0.96956709351E+00  0.44286034598E+01  0.51100000000E-03 0.  1.
         12    1    4    4    0    0 -0.13436728065E+01 -0.73731978176E+01 -0.25222422836E+01  0.79076677222E+01  0.00000000000E+00 0. -1.
</event>
<event>
 8    1  0.1248739E-006  0.9118800E+02  0.7816164E-02  0.1184000E+00
        -11   -1    0    0    0    0  0.00000000000E+00  0.00000000000E+00  0.45593999997E+02  0.45594000000E+02  0.51100000000E-03 0.  1.
         11   -1    0    0    0    0 -0.00000000000E+00 -0.00000000000E+00 -0.45593999997E+02  0.45594000000E+02  0.51100000000E-03 0. -1.
         23    2    1    2    0    0 -0.17763568394E-14  0.00000000000E+00  0.00000000000E+00  0.91188000000E+02  0.91188000000E+02 0.  0.
    9900012    2    3    3    0    0  0.97846559419E+01  0.13099408863E+02  0.32991731449E+02  0.54366968666E+02  0.39999736668E+02 0.  0.
         12    1    3    3    0    0 -0.97846559419E+01 -0.13099408863E+02 -0.32991731449E+02  0.36821031334E+02  0.00000000000E+00 0. -1.
         11    1    4    4    0    0  0.16659261327E+01  0.11648154552E+02  0.82500216654E+01  0.14370722740E+02  0.51100000000E-03 0. -1.
        -11    1    4    4    0    0 -0.69017380866E+01  0.11384389279E+02  0.89187102384E+01  0.16024409520E+02  0.51100000000E-03 0.  1.
        -12    1    4    4    0    0  0.15020467896E+02 -0.99331349677E+01  0.15822999545E+02  0.23971836407E+02  0.00000000000E+00 0.  1.
</event>
<event>
 8    1  0.1248739E-006  0.9118800E+02  0.7816164E-02  0.1184000E+00
        -11   -1    0    0    0    0  0.00000000000E+00  0.00000000000E+00  0.45593999997E+02  0.45594000000E+02  0.51100000000E-03 0.  1.
         11   -1    0    0    0    0 -0.00000000000E+00 -0.00000000000E+00 -0.45593999997E+02  0.45594000000E+02  0.51100000000E-03 0. -1.
         23    2    1    2    0    0  0.35527136788E-14  0.00000000000E+00 -0.17763568394E-14  0.91188000000E+02  0.91188000000E+02 0.  0.
    9900012    2    3    3    0    0 -0.19775487727E+02  0.28628390481E+02  0.12046939932E+02  0.54367035617E+02  0.39999889295E+02 0.  0.
         12    1    3    3    0    0  0.19775487727E+02 -0.28628390481E+02 -0.12046939932E+02  0.36820964383E+02  0.00000000000E+00 0. -1.
         11    1    4    4    0    0 -0.38545364305E+01 -0.41578486673E+01 -0.33490235110E+00  0.56795524895E+01  0.51100000000E-03 0.  1.
        -11    1    4    4    0    0 -0.18235892749E+02  0.10203434911E+02  0.15160893797E+02  0.25816865985E+02  0.51100000000E-03 0. -1.
         12    1    4    4    0    0  0.23149414522E+01  0.22582804237E+02 -0.27790515132E+01  0.22870617142E+02  0.00000000000E+00 0. -1.
</event>
<event>
 8    1  0.1248739E-006  0.9118800E+02  0.7816164E-02  0.1184000E+00
        -11   -1    0    0    0    0  0.00000000000E+00  0.00000000000E+00  0.45593999997E+02  0.45594000000E+02  0.51100000000E-03 0.  1.
         11   -1    0    0    0    0 -0.00000000000E+00 -0.00000000000E+00 -0.45593999997E+02  0.45594000000E+02  0.51100000000E-03 0. -1.
         23    2    1    2    0    0  0.35527136788E-14 -0.48849813084E-14  0.00000000000E+00  0.91188000000E+02  0.91188000000E+02 0.  0.
    9900012    2    3    3    0    0  0.15089390072E+02 -0.32319062366E+01  0.33431221825E+02  0.54367061618E+02  0.39999948570E+02 0.  0.
         12    1    3    3    0    0 -0.15089390072E+02  0.32319062366E+01 -0.33431221825E+02  0.36820938382E+02  0.00000000000E+00 0. -1.
         11    1    4    4    0    0 -0.96709387362E+00 -0.17378490743E+02  0.11828717216E+02  0.21044376026E+02  0.51100000000E-03 0. -1.
        -11    1    4    4    0    0  0.10965922302E+02  0.16411528751E+02  0.17784399852E+02  0.26568300778E+02  0.51100000000E-03 0.  1.
         12    1    4    4    0    0  0.50905616434E+01 -0.22649442444E+01  0.38181047571E+01  0.67543848138E+01  0.00000000000E+00 0. -1.
</event>
<event>
 8    1  0.1248739E-006  0.9118800E+02  0.7816164E-02  0.1184000E+00
        -11   -1    0    0    0    0  0.00000000000E+00  0.00000000000E+00  0.45593999997E+02  0.45594000000E+02  0.51100000000E-03 0.  1.
         11   -1    0    0    0    0 -0.00000000000E+00 -0.00000000000E+00 -0.45593999997E+02  0.45594000000E+02  0.51100000000E-03 0. -1.
         23    2    1    2    0    0 -0.88817841970E-15  0.00000000000E+00  0.00000000000E+00  0.91188000000E+02  0.91188000000E+02 0.  0.
    9900012    2    3    3    0    0 -0.49468211855E+01 -0.13707249205E+02 -0.33814446604E+02  0.54367129292E+02  0.40000102846E+02 0.  0.
        -12    1    3    3    0    0  0.49468211855E+01  0.13707249205E+02  0.33814446604E+02  0.36820870708E+02  0.00000000000E+00 0.  1.
         11    1    4    4    0    0 -0.13918572031E+02  0.80870371290E+01 -0.22812221145E+02  0.27919961510E+02  0.51100000000E-03 0. -1.
        -11    1    4    4    0    0  0.59216547055E+01 -0.11984950600E+02 -0.37878533975E+01  0.13894346655E+02  0.51100000000E-03 0.  1.
         12    1    4    4    0    0  0.30500961401E+01 -0.98093357335E+01 -0.72143720615E+01  0.12552821127E+02  0.00000000000E+00 0. -1.
</event>
<event>
 8    1  0.1248739E-006  0.9118800E+02  0.7816164E-02  0.1184000E+00
        -11   -1    0    0    0    0  0.00000000000E+00  0.00000000000E+00  0.45593999997E+02  0.45594000000E+02  0.51100000000E-03 0.  1.
         11   -1    0    0    0    0 -0.00000000000E+00 -0.00000000000E+00 -0.45593999997E+02  0.45594000000E+02  0.51100000000E-03 0. -1.
         23    2    1    2    0    0  0.00000000000E+00 -0.11102230246E-14  0.71054273576E-14  0.91188000000E+02  0.91188000000E+02 0.  0.
    9900012    2    3    3    0    0 -0.17028210591E+02  0.12159445463E+01  0.32624237941E+02  0.54367090474E+02  0.40000014355E+02 0.  0.
         12    1    3    3    0    0  0.17028210591E+02 -0.12159445463E+01 -0.32624237941E+02  0.36820909526E+02  0.00000000000E+00 0. -1.
         11    1    4    4    0    0 -0.39126445601E+01  0.13983837972E+02 -0.73345419653E+00  0.14539410827E+02  0.51100000000E-03 0. -1.
        -11    1    4    4    0    0 -0.13334021404E+02 -0.11535863636E+02  0.21058998806E+02  0.27465500316E+02  0.51100000000E-03 0.  1.
         12    1    4    4    0    0  0.21845537367E+00 -0.12320297897E+01  0.12298693332E+02  0.12362179331E+02  0.00000000000E+00 0. -1.
</event>
<event>
 8    1  0.1248739E-006  0.9118800E+02  0.7816164E-02  0.1184000E+00
        -11   -1    0    0    0    0  0.00000000000E+00  0.00000000000E+00  0.45593999997E+02  0.45594000000E+02  0.51100000000E-03 0.  1.
         11   -1    0    0    0    0 -0.00000000000E+00 -0.00000000000E+00 -0.45593999997E+02  0.45594000000E+02  0.51100000000E-03 0. -1.
         23    2    1    2    0    0 -0.71054273576E-14 -0.35527136788E-14  0.00000000000E+00  0.91188000000E+02  0.91188000000E+02 0.  0.
    9900012    2    3    3    0    0 -0.32091550892E+02 -0.17890736698E+02 -0.24154182434E+01  0.54367077367E+02  0.39999984474E+02 0.  0.
        -12    1    3    3    0    0  0.32091550892E+02  0.17890736698E+02  0.24154182434E+01  0.36820922633E+02  0.00000000000E+00 0.  1.
         11    1    4    4    0    0  0.43115535637E+01 -0.21924003055E+01 -0.46396172074E+01  0.67023996691E+01  0.51100000000E-03 0. -1.
        -11    1    4    4    0    0 -0.12847471857E+02 -0.17208208896E+02  0.87281379631E+01  0.23181034901E+02  0.51100000000E-03 0.  1.
         12    1    4    4    0    0 -0.23555632599E+02  0.15098725031E+01 -0.65039389991E+01  0.24483642797E+02  0.00000000000E+00 0. -1.
</event>
<event>
 8    1  0.1248739E-006  0.9118800E+02  0.7816164E-02  0.1184000E+00
        -11   -1    0    0    0    0  0.00000000000E+00  0.00000000000E+00  0.45593999997E+02  0.45594000000E+02  0.51100000000E-03 0.  1.
         11   -1    0    0    0    0 -0.00000000000E+00 -0.00000000000E+00 -0.45593999997E+02  0.45594000000E+02  0.51100000000E-03 0. -1.
         23    2    1    2    0    0 -0.22204460493E-15  0.00000000000E+00  0.35527136788E-14  0.91188000000E+02  0.91188000000E+02 0.  0.
    9900012    2    3    3    0    0 -0.17630560320E+01 -0.23584552368E+02  0.28221274772E+02  0.54367084385E+02  0.40000000471E+02 0.  0.
         12    1    3    3    0    0  0.17630560320E+01  0.23584552368E+02 -0.28221274772E+02  0.36820915615E+02  0.00000000000E+00 0. -1.
         11    1    4    4    0    0 -0.34531141231E+01 -0.53937419582E+01  0.72185955005E+01  0.96501072906E+01  0.51100000000E-03 0. -1.
        -11    1    4    4    0    0 -0.12969916590E+01  0.71254171229E+01  0.17558471564E+02  0.18993516801E+02  0.51100000000E-03 0.  1.
         12    1    4    4    0    0  0.29870497501E+01 -0.25316227533E+02  0.34442077077E+01  0.25723460293E+02  0.00000000000E+00 0. -1.
</event>
<event>
 8    1  0.1248739E-006  0.9118800E+02  0.7816164E-02  0.1184000E+00
        -11   -1    0    0    0    0  0.00000000000E+00  0.00000000000E+00  0.45593999997E+02  0.45594000000E+02  0.51100000000E-03 0.  1.
         11   -1    0    0    0    0 -0.00000000000E+00 -0.00000000000E+00 -0.45593999997E+02  0.45594000000E+02  0.51100000000E-03 0. -1.
         23    2    1    2    0    0 -0.17763568394E-14  0.17763568394E-14  0.00000000000E+00  0.91188000000E+02  0.91188000000E+02 0.  0.
    9900012    2    3    3    0    0 -0.85059673837E+01  0.13389595587E+02 -0.33228621416E+02  0.54367163069E+02  0.40000179848E+02 0.  0.
        -12    1    3    3    0    0  0.85059673837E+01 -0.13389595587E+02  0.33228621416E+02  0.36820836931E+02  0.00000000000E+00 0.  1.
         11    1    4    4    0    0  0.42931487733E+01  0.13898655449E+02 -0.22045796722E+02  0.26412514138E+02  0.51100000000E-03 0. -1.
        -11    1    4    4    0    0 -0.59769207207E+00  0.87566639482E+01  0.34099587927E+00  0.87836597023E+01  0.51100000000E-03 0.  1.
        -12    1    4    4    0    0 -0.12201424085E+02 -0.92657238102E+01 -0.11523820573E+02  0.19170989229E+02  0.00000000000E+00 0.  1.
</event>
<event>
 8    1  0.1248739E-006  0.9118800E+02  0.7816164E-02  0.1184000E+00
        -11   -1    0    0    0    0  0.00000000000E+00  0.00000000000E+00  0.45593999997E+02  0.45594000000E+02  0.51100000000E-03 0. -1.
         11   -1    0    0    0    0 -0.00000000000E+00 -0.00000000000E+00 -0.45593999997E+02  0.45594000000E+02  0.51100000000E-03 0.  1.
         23    2    1    2    0    0  0.00000000000E+00 -0.35527136788E-14 -0.35527136788E-14  0.91188000000E+02  0.91188000000E+02 0.  0.
    9900012    2    3    3    0    0  0.10241620572E+02 -0.22811227836E+02 -0.27028321446E+02  0.54367176170E+02  0.40000209714E+02 0.  0.
        -12    1    3    3    0    0 -0.10241620572E+02  0.22811227836E+02  0.27028321446E+02  0.36820823830E+02  0.00000000000E+00 0.  1.
         11    1    4    4    0    0  0.19398608475E+02 -0.10905633215E+02 -0.23688154375E+02  0.32501807712E+02  0.51100000000E-03 0. -1.
        -11    1    4    4    0    0  0.22991119632E+01 -0.21512643195E+01  0.40274241602E+01  0.51121423708E+01  0.51100000000E-03 0.  1.
        -12    1    4    4    0    0 -0.11456099866E+02 -0.97543303015E+01 -0.73675912313E+01  0.16753226087E+02  0.00000000000E+00 0.  1.
</event>
<event>
 8    1  0.1248739E-006  0.9118800E+02  0.7816164E-02  0.1184000E+00
        -11   -1    0    0    0    0  0.00000000000E+00  0.00000000000E+00  0.45593999997E+02  0.45594000000E+02  0.51100000000E-03 0.  1.
         11   -1    0    0    0    0 -0.00000000000E+00 -0.00000000000E+00 -0.45593999997E+02  0.45594000000E+02  0.51100000000E-03 0. -1.
         23    2    1    2    0    0 -0.88817841970E-15 -0.35527136788E-14  0.00000000000E+00  0.91188000000E+02  0.91188000000E+02 0.  0.
    9900012    2    3    3    0    0  0.47677329864E+01  0.25106670360E+02 -0.26508543202E+02  0.54367095108E+02  0.40000024918E+02 0.  0.
        -12    1    3    3    0    0 -0.47677329864E+01 -0.25106670360E+02  0.26508543202E+02  0.36820904892E+02  0.00000000000E+00 0.  1.
         11    1    4    4    0    0  0.25137413378E+01  0.20464332374E+02 -0.28324065951E+02  0.35033705304E+02  0.51100000000E-03 0. -1.
        -11    1    4    4    0    0 -0.20996605313E+01  0.10420405745E+02 -0.24858202179E+01  0.10916626432E+02  0.51100000000E-03 0.  1.
        -12    1    4    4    0    0  0.43536521798E+01 -0.57780677597E+01  0.43013429674E+01  0.84167633721E+01  0.00000000000E+00 0.  1.
</event>
<event>
 8    1  0.1248739E-006  0.9118800E+02  0.7816164E-02  0.1184000E+00
        -11   -1    0    0    0    0  0.00000000000E+00  0.00000000000E+00  0.45593999997E+02  0.45594000000E+02  0.51100000000E-03 0. -1.
         11   -1    0    0    0    0 -0.00000000000E+00 -0.00000000000E+00 -0.45593999997E+02  0.45594000000E+02  0.51100000000E-03 0.  1.
         23    2    1    2    0    0  0.00000000000E+00  0.00000000000E+00  0.00000000000E+00  0.91188000000E+02  0.91188000000E+02 0.  0.
    9900012    2    3    3    0    0 -0.29040828172E+02  0.20318985977E+02 -0.99773926706E+01  0.54367092127E+02  0.40000018123E+02 0.  0.
         12    1    3    3    0    0  0.29040828172E+02 -0.20318985977E+02  0.99773926706E+01  0.36820907873E+02  0.00000000000E+00 0. -1.
         11    1    4    4    0    0 -0.28566809282E+02  0.16104295502E+02 -0.11316232656E+01  0.32812977580E+02  0.51100000000E-03 0.  1.
        -11    1    4    4    0    0  0.79360980797E+01  0.70933775910E+01 -0.36209835466E+01  0.11243183734E+02  0.51100000000E-03 0. -1.
         12    1    4    4    0    0 -0.84101169704E+01 -0.28786871167E+01 -0.52247858585E+01  0.10310930813E+02  0.00000000000E+00 0. -1.
</event>
<event>
 8    1  0.1248739E-006  0.9118800E+02  0.7816164E-02  0.1184000E+00
        -11   -1    0    0    0    0  0.00000000000E+00  0.00000000000E+00  0.45593999997E+02  0.45594000000E+02  0.51100000000E-03 0. -1.
         11   -1    0    0    0    0 -0.00000000000E+00 -0.00000000000E+00 -0.45593999997E+02  0.45594000000E+02  0.51100000000E-03 0.  1.
         23    2    1    2    0    0  0.00000000000E+00  0.00000000000E+00 -0.88817841970E-15  0.91188000000E+02  0.91188000000E+02 0.  0.
    9900012    2    3    3    0    0 -0.22820948315E+02 -0.28828746532E+02 -0.19714285771E+01  0.54367097794E+02  0.40000031041E+02 0.  0.
         12    1    3    3    0    0  0.22820948315E+02  0.28828746532E+02  0.19714285771E+01  0.36820902206E+02  0.00000000000E+00 0. -1.
         11    1    4    4    0    0 -0.83139539307E+01 -0.27142031181E+02 -0.13310147573E+02  0.31352379738E+02  0.51100000000E-03 0.  1.
        -11    1    4    4    0    0 -0.20955990054E+01 -0.49458979305E+01  0.82025375432E+01  0.98048490013E+01  0.51100000000E-03 0. -1.
         12    1    4    4    0    0 -0.12411395379E+02  0.32591825789E+01  0.31361814530E+01  0.13209869054E+02  0.00000000000E+00 0. -1.
</event>
<event>
 8    1  0.1248739E-006  0.9118800E+02  0.7816164E-02  0.1184000E+00
        -11   -1    0    0    0    0  0.00000000000E+00  0.00000000000E+00  0.45593999997E+02  0.45594000000E+02  0.51100000000E-03 0.  1.
         11   -1    0    0    0    0 -0.00000000000E+00 -0.00000000000E+00 -0.45593999997E+02  0.45594000000E+02  0.51100000000E-03 0. -1.
         23    2    1    2    0    0  0.11102230246E-15  0.00000000000E+00  0.00000000000E+00  0.91188000000E+02  0.91188000000E+02 0.  0.
    9900012    2    3    3    0    0  0.86834532892E+00  0.25837863179E+02 -0.26218888741E+02  0.54367091211E+02  0.40000016033E+02 0.  0.
        -12    1    3    3    0    0 -0.86834532892E+00 -0.25837863179E+02  0.26218888741E+02  0.36820908789E+02  0.00000000000E+00 0.  1.
         11    1    4    4    0    0 -0.20554021437E+01  0.23084645194E+02 -0.10246581802E+02  0.25340046578E+02  0.51100000000E-03 0. -1.
        -11    1    4    4    0    0 -0.91868701115E+01 -0.21530794615E+01 -0.12206876719E+02  0.15428615398E+02  0.51100000000E-03 0.  1.
        -12    1    4    4    0    0  0.12110617584E+02  0.49062974464E+01 -0.37654302202E+01  0.13598429234E+02  0.00000000000E+00 0.  1.
</event>
<event>
 8    1  0.1248739E-006  0.9118800E+02  0.7816164E-02  0.1184000E+00
        -11   -1    0    0    0    0  0.00000000000E+00  0.00000000000E+00  0.45593999997E+02  0.45594000000E+02  0.51100000000E-03 0. -1.
         11   -1    0    0    0    0 -0.00000000000E+00 -0.00000000000E+00 -0.45593999997E+02  0.45594000000E+02  0.51100000000E-03 0.  1.
         23    2    1    2    0    0 -0.88817841970E-15  0.00000000000E+00 -0.35527136788E-14  0.91188000000E+02  0.91188000000E+02 0.  0.
    9900012    2    3    3    0    0 -0.57434203136E+01 -0.24062964517E+02 -0.27272075850E+02  0.54367092088E+02  0.40000018034E+02 0.  0.
         12    1    3    3    0    0  0.57434203136E+01  0.24062964517E+02  0.27272075850E+02  0.36820907912E+02  0.00000000000E+00 0. -1.
         11    1    4    4    0    0  0.57345516518E+01 -0.17652846805E+02 -0.81864598254E+01  0.20286108737E+02  0.51100000000E-03 0. -1.
        -11    1    4    4    0    0 -0.12464710261E+02 -0.11737528201E+02 -0.33595806624E+01  0.17447789334E+02  0.51100000000E-03 0.  1.
         12    1    4    4    0    0  0.98673829604E+00  0.53274104883E+01 -0.15726035363E+02  0.16633194017E+02  0.00000000000E+00 0. -1.
</event>
<event>
 8    1  0.1248739E-006  0.9118800E+02  0.7816164E-02  0.1184000E+00
        -11   -1    0    0    0    0  0.00000000000E+00  0.00000000000E+00  0.45593999997E+02  0.45594000000E+02  0.51100000000E-03 0.  1.
         11   -1    0    0    0    0 -0.00000000000E+00 -0.00000000000E+00 -0.45593999997E+02  0.45594000000E+02  0.51100000000E-03 0. -1.
         23    2    1    2    0    0 -0.35527136788E-14 -0.71054273576E-14  0.00000000000E+00  0.91188000000E+02  0.91188000000E+02 0.  0.
    9900012    2    3    3    0    0  0.17234323829E+02  0.26645085893E+02  0.18676135973E+02  0.54367074225E+02  0.39999977310E+02 0.  0.
         12    1    3    3    0    0 -0.17234323829E+02 -0.26645085893E+02 -0.18676135973E+02  0.36820925775E+02  0.00000000000E+00 0. -1.
         11    1    4    4    0    0  0.61134425591E+01  0.37159788110E+01  0.45419502551E+01  0.84741955859E+01  0.51100000000E-03 0. -1.
        -11    1    4    4    0    0  0.20382791079E+02  0.24401192222E+02  0.17042823661E+02  0.36074009933E+02  0.51100000000E-03 0.  1.
         12    1    4    4    0    0 -0.92619098091E+01 -0.14720851404E+01 -0.29086379433E+01  0.98188687056E+01  0.00000000000E+00 0. -1.
</event>
<event>
 8    1  0.1248739E-006  0.9118800E+02  0.7816164E-02  0.1184000E+00
        -11   -1    0    0    0    0  0.00000000000E+00  0.00000000000E+00  0.45593999997E+02  0.45594000000E+02  0.51100000000E-03 0.  1.
         11   -1    0    0    0    0 -0.00000000000E+00 -0.00000000000E+00 -0.45593999997E+02  0.45594000000E+02  0.51100000000E-03 0. -1.
         23    2    1    2    0    0  0.88817841970E-15  0.17763568394E-14  0.00000000000E+00  0.91188000000E+02  0.91188000000E+02 0.  0.
    9900012    2    3    3    0    0 -0.53961260490E+01 -0.13541625735E+02 -0.33812591004E+02  0.54367012584E+02  0.39999836787E+02 0.  0.
        -12    1    3    3    0    0  0.53961260490E+01  0.13541625735E+02  0.33812591004E+02  0.36820987416E+02  0.00000000000E+00 0.  1.
         11    1    4    4    0    0  0.10664348357E+02 -0.97732621698E+01 -0.49255703929E+01  0.15280910420E+02  0.51100000000E-03 0. -1.
        -11    1    4    4    0    0 -0.11064312362E+02 -0.11453639158E+02 -0.12251946840E+02  0.20092661836E+02  0.51100000000E-03 0.  1.
        -12    1    4    4    0    0 -0.49961620441E+01  0.76852755933E+01 -0.16635073771E+02  0.18993440328E+02  0.00000000000E+00 0.  1.
</event>
<event>
 8    1  0.1248739E-006  0.9118800E+02  0.7816164E-02  0.1184000E+00
        -11   -1    0    0    0    0  0.00000000000E+00  0.00000000000E+00  0.45593999997E+02  0.45594000000E+02  0.51100000000E-03 0. -1.
         11   -1    0    0    0    0 -0.00000000000E+00 -0.00000000000E+00 -0.45593999997E+02  0.45594000000E+02  0.51100000000E-03 0.  1.
         23    2    1    2    0    0  0.00000000000E+00 -0.17763568394E-14  0.35527136788E-14  0.91188000000E+02  0.91188000000E+02 0.  0.
    9900012    2    3    3    0    0 -0.15571372456E+02  0.14650600374E+02  0.29977868407E+02  0.54367077609E+02  0.39999985026E+02 0.  0.
        -12    1    3    3    0    0  0.15571372456E+02 -0.14650600374E+02 -0.29977868407E+02  0.36820922391E+02  0.00000000000E+00 0.  1.
         11    1    4    4    0    0  0.71027007087E+01  0.66297473450E+01 -0.30874572993E+00  0.97209686453E+01  0.51100000000E-03 0. -1.
        -11    1    4    4    0    0 -0.10189972457E+02  0.78871327637E+01  0.11375229785E+01  0.12935855623E+02  0.51100000000E-03 0.  1.
         12    1    4    4    0    0 -0.12484100707E+02  0.13372026509E+00  0.29149091158E+02  0.31710253341E+02  0.00000000000E+00 0. -1.
</event>
<event>
 8    1  0.1248739E-006  0.9118800E+02  0.7816164E-02  0.1184000E+00
        -11   -1    0    0    0    0  0.00000000000E+00  0.00000000000E+00  0.45593999997E+02  0.45594000000E+02  0.51100000000E-03 0.  1.
         11   -1    0    0    0    0 -0.00000000000E+00 -0.00000000000E+00 -0.45593999997E+02  0.45594000000E+02  0.51100000000E-03 0. -1.
         23    2    1    2    0    0  0.35527136788E-14  0.00000000000E+00  0.00000000000E+00  0.91188000000E+02  0.91188000000E+02 0.  0.
    9900012    2    3    3    0    0  0.23964423092E+02 -0.13512921028E+02 -0.24472155770E+02  0.54367095383E+02  0.40000025544E+02 0.  0.
        -12    1    3    3    0    0 -0.23964423092E+02  0.13512921028E+02  0.24472155770E+02  0.36820904617E+02  0.00000000000E+00 0.  1.
         11    1    4    4    0    0  0.23351430579E+02 -0.85688057956E+01 -0.17831488475E+02  0.30605158460E+02  0.51100000000E-03 0. -1.
        -11    1    4    4    0    0  0.41250601657E+01  0.86766723652E+00  0.72011414849E+01  0.83441840074E+01  0.51100000000E-03 0.  1.
        -12    1    4    4    0    0 -0.35120676534E+01 -0.58117824690E+01 -0.13841808779E+02  0.15417752915E+02  0.00000000000E+00 0.  1.
</event>
<event>
 8    1  0.1248739E-006  0.9118800E+02  0.7816164E-02  0.1184000E+00
        -11   -1    0    0    0    0  0.00000000000E+00  0.00000000000E+00  0.45593999997E+02  0.45594000000E+02  0.51100000000E-03 0.  1.
         11   -1    0    0    0    0 -0.00000000000E+00 -0.00000000000E+00 -0.45593999997E+02  0.45594000000E+02  0.51100000000E-03 0. -1.
         23    2    1    2    0    0  0.00000000000E+00 -0.88817841970E-15  0.00000000000E+00  0.91188000000E+02  0.91188000000E+02 0.  0.
    9900012    2    3    3    0    0 -0.35849140803E+02  0.53064998635E+01  0.65159916620E+01  0.54367109402E+02  0.40000057504E+02 0.  0.
         12    1    3    3    0    0  0.35849140803E+02 -0.53064998635E+01 -0.65159916620E+01  0.36820890598E+02  0.00000000000E+00 0. -1.
         11    1    4    4    0    0 -0.10931107590E+02  0.89676390223E+01  0.90270577119E+01  0.16774845274E+02  0.51100000000E-03 0. -1.
        -11    1    4    4    0    0 -0.12331703571E+02  0.96543760129E+01  0.67595562010E+01  0.17057827806E+02  0.51100000000E-03 0.  1.
        -12    1    4    4    0    0 -0.12586329642E+02 -0.13315515172E+02 -0.92706222510E+01  0.20534436322E+02  0.00000000000E+00 0.  1.
</event>
<event>
 8    1  0.1248739E-006  0.9118800E+02  0.7816164E-02  0.1184000E+00
        -11   -1    0    0    0    0  0.00000000000E+00  0.00000000000E+00  0.45593999997E+02  0.45594000000E+02  0.51100000000E-03 0.  1.
         11   -1    0    0    0    0 -0.00000000000E+00 -0.00000000000E+00 -0.45593999997E+02  0.45594000000E+02  0.51100000000E-03 0. -1.
         23    2    1    2    0    0 -0.17763568394E-14  0.00000000000E+00  0.00000000000E+00  0.91188000000E+02  0.91188000000E+02 0.  0.
    9900012    2    3    3    0    0  0.14815024033E+02  0.87447942806E+01 -0.32554931480E+02  0.54367083013E+02  0.39999997345E+02 0.  0.
        -12    1    3    3    0    0 -0.14815024033E+02 -0.87447942806E+01  0.32554931480E+02  0.36820916987E+02  0.00000000000E+00 0.  1.
         11    1    4    4    0    0  0.56422152571E+01  0.40715267883E+01 -0.24532699217E+02  0.25500299107E+02  0.51100000000E-03 0. -1.
        -11    1    4    4    0    0 -0.76143501654E+01  0.74305904223E+01 -0.20362947184E+01  0.10832289643E+02  0.51100000000E-03 0.  1.
         12    1    4    4    0    0  0.16787158941E+02 -0.27573229300E+01 -0.59859375444E+01  0.18034494263E+02  0.00000000000E+00 0. -1.
</event>
<event>
 8    1  0.1248739E-006  0.9118800E+02  0.7816164E-02  0.1184000E+00
        -11   -1    0    0    0    0  0.00000000000E+00  0.00000000000E+00  0.45593999997E+02  0.45594000000E+02  0.51100000000E-03 0. -1.
         11   -1    0    0    0    0 -0.00000000000E+00 -0.00000000000E+00 -0.45593999997E+02  0.45594000000E+02  0.51100000000E-03 0.  1.
         23    2    1    2    0    0  0.00000000000E+00 -0.35527136788E-14 -0.17763568394E-14  0.91188000000E+02  0.91188000000E+02 0.  0.
    9900012    2    3    3    0    0 -0.24572740367E+02  0.22871112826E+02 -0.15128510263E+02  0.54367092980E+02  0.40000020066E+02 0.  0.
         12    1    3    3    0    0  0.24572740367E+02 -0.22871112826E+02  0.15128510263E+02  0.36820907020E+02  0.00000000000E+00 0. -1.
         11    1    4    4    0    0  0.29416067744E+01  0.13787615854E+02 -0.18967136332E+01  0.14224940218E+02  0.51100000000E-03 0. -1.
        -11    1    4    4    0    0 -0.22104007311E+02  0.87546327964E+01  0.21128729758E+01  0.23868283706E+02  0.51100000000E-03 0.  1.
         12    1    4    4    0    0 -0.54103398300E+01  0.32886417550E+00 -0.15344669606E+02  0.16273869055E+02  0.00000000000E+00 0. -1.
</event>
<event>
 8    1  0.1248739E-006  0.9118800E+02  0.7816164E-02  0.1184000E+00
        -11   -1    0    0    0    0  0.00000000000E+00  0.00000000000E+00  0.45593999997E+02  0.45594000000E+02  0.51100000000E-03 0.  1.
         11   -1    0    0    0    0 -0.00000000000E+00 -0.00000000000E+00 -0.45593999997E+02  0.45594000000E+02  0.51100000000E-03 0. -1.
         23    2    1    2    0    0  0.00000000000E+00  0.00000000000E+00  0.35527136788E-14  0.91188000000E+02  0.91188000000E+02 0.  0.
    9900012    2    3    3    0    0 -0.96096741843E+01  0.22261433408E+02 -0.27710345224E+02  0.54367075409E+02  0.39999980010E+02 0.  0.
        -12    1    3    3    0    0  0.96096741843E+01 -0.22261433408E+02  0.27710345224E+02  0.36820924591E+02  0.00000000000E+00 0.  1.
         11    1    4    4    0    0  0.48953131667E+01  0.65969885908E+01  0.26939358848E+00  0.82193018337E+01  0.51100000000E-03 0. -1.
        -11    1    4    4    0    0 -0.17846078887E+02  0.29396985313E+01 -0.35949748611E+01  0.18440395972E+02  0.51100000000E-03 0.  1.
         12    1    4    4    0    0  0.33410915362E+01  0.12724746285E+02 -0.24384763951E+02  0.27707377603E+02  0.00000000000E+00 0. -1.
</event>
<event>
 8    1  0.1248739E-006  0.9118800E+02  0.7816164E-02  0.1184000E+00
        -11   -1    0    0    0    0  0.00000000000E+00  0.00000000000E+00  0.45593999997E+02  0.45594000000E+02  0.51100000000E-03 0.  1.
         11   -1    0    0    0    0 -0.00000000000E+00 -0.00000000000E+00 -0.45593999997E+02  0.45594000000E+02  0.51100000000E-03 0. -1.
         23    2    1    2    0    0 -0.17763568394E-14  0.00000000000E+00  0.00000000000E+00  0.91188000000E+02  0.91188000000E+02 0.  0.
    9900012    2    3    3    0    0 -0.14889413403E+02  0.17835493645E+02  0.28565372854E+02  0.54367082149E+02  0.39999995375E+02 0.  0.
         12    1    3    3    0    0  0.14889413403E+02 -0.17835493645E+02 -0.28565372854E+02  0.36820917851E+02  0.00000000000E+00 0. -1.
         11    1    4    4    0    0 -0.43550171873E+00  0.14921170998E+02 -0.12948716303E+01  0.14983580964E+02  0.51100000000E-03 0. -1.
        -11    1    4    4    0    0 -0.14890189952E+01  0.99729447181E+00  0.25512406126E+02  0.25575274005E+02  0.51100000000E-03 0.  1.
         12    1    4    4    0    0 -0.12964892689E+02  0.19170281753E+01  0.43478383591E+01  0.13808227180E+02  0.00000000000E+00 0. -1.
</event>
<event>
 8    1  0.1248739E-006  0.9118800E+02  0.7816164E-02  0.1184000E+00
        -11   -1    0    0    0    0  0.00000000000E+00  0.00000000000E+00  0.45593999997E+02  0.45594000000E+02  0.51100000000E-03 0.  1.
         11   -1    0    0    0    0 -0.00000000000E+00 -0.00000000000E+00 -0.45593999997E+02  0.45594000000E+02  0.51100000000E-03 0. -1.
         23    2    1    2    0    0  0.17763568394E-14  0.00000000000E+00  0.00000000000E+00  0.91188000000E+02  0.91188000000E+02 0.  0.
    9900012    2    3    3    0    0 -0.14446446453E+02  0.17989642930E+02 -0.28695913976E+02  0.54367047449E+02  0.39999916268E+02 0.  0.
        -12    1    3    3    0    0  0.14446446453E+02 -0.17989642930E+02  0.28695913976E+02  0.36820952551E+02  0.00000000000E+00 0.  1.
         11    1    4    4    0    0 -0.69172460888E+01  0.48587948108E+01  0.14405967211E+01  0.85750509993E+01  0.51100000000E-03 0. -1.
        -11    1    4    4    0    0 -0.13533321311E+02  0.81743266917E+01 -0.12332404955E+01  0.15858476753E+02  0.51100000000E-03 0.  1.
         12    1    4    4    0    0  0.60041209469E+01  0.49565214276E+01 -0.28903270202E+02  0.29933519696E+02  0.00000000000E+00 0. -1.
</event>
<event>
 8    1  0.1248739E-006  0.9118800E+02  0.7816164E-02  0.1184000E+00
        -11   -1    0    0    0    0  0.00000000000E+00  0.00000000000E+00  0.45593999997E+02  0.45594000000E+02  0.51100000000E-03 0. -1.
         11   -1    0    0    0    0 -0.00000000000E+00 -0.00000000000E+00 -0.45593999997E+02  0.45594000000E+02  0.51100000000E-03 0.  1.
         23    2    1    2    0    0  0.00000000000E+00 -0.17763568394E-14  0.00000000000E+00  0.91188000000E+02  0.91188000000E+02 0.  0.
    9900012    2    3    3    0    0  0.25076619795E+02 -0.13849290280E+02 -0.23133093131E+02  0.54367086114E+02  0.40000004414E+02 0.  0.
         12    1    3    3    0    0 -0.25076619795E+02  0.13849290280E+02  0.23133093131E+02  0.36820913886E+02  0.00000000000E+00 0. -1.
         11    1    4    4    0    0  0.21044990103E+02  0.34816115445E+01 -0.13007518206E+02  0.24984170139E+02  0.51100000000E-03 0. -1.
        -11    1    4    4    0    0  0.69212257252E+01 -0.75113959349E+01  0.47992956188E+01  0.11285285691E+02  0.51100000000E-03 0.  1.
        -12    1    4    4    0    0 -0.28895960337E+01 -0.98195058896E+01 -0.14924870544E+02  0.18097630284E+02  0.00000000000E+00 0.  1.
</event>
<event>
 8    1  0.1248739E-006  0.9118800E+02  0.7816164E-02  0.1184000E+00
        -11   -1    0    0    0    0  0.00000000000E+00  0.00000000000E+00  0.45593999997E+02  0.45594000000E+02  0.51100000000E-03 0.  1.
         11   -1    0    0    0    0 -0.00000000000E+00 -0.00000000000E+00 -0.45593999997E+02  0.45594000000E+02  0.51100000000E-03 0. -1.
         23    2    1    2    0    0  0.35527136788E-14  0.88817841970E-15  0.00000000000E+00  0.91188000000E+02  0.91188000000E+02 0.  0.
    9900012    2    3    3    0    0  0.29888148532E+02 -0.60728846426E+01  0.20630019616E+02  0.54367094798E+02  0.40000024211E+02 0.  0.
         12    1    3    3    0    0 -0.29888148532E+02  0.60728846426E+01 -0.20630019616E+02  0.36820905202E+02  0.00000000000E+00 0. -1.
         11    1    4    4    0    0  0.60751608182E+01 -0.18543744027E+02  0.11396942974E+02  0.22597971832E+02  0.51100000000E-03 0. -1.
        -11    1    4    4    0    0 -0.19366325947E+00  0.52631138318E+01  0.24089263932E+01  0.57914419011E+01  0.51100000000E-03 0.  1.
        -12    1    4    4    0    0  0.24006650973E+02  0.72077455525E+01  0.68241502492E+01  0.25977681065E+02  0.00000000000E+00 0.  1.
</event>
<event>
 8    1  0.1248739E-006  0.9118800E+02  0.7816164E-02  0.1184000E+00
        -11   -1    0    0    0    0  0.00000000000E+00  0.00000000000E+00  0.45593999997E+02  0.45594000000E+02  0.51100000000E-03 0. -1.
         11   -1    0    0    0    0 -0.00000000000E+00 -0.00000000000E+00 -0.45593999997E+02  0.45594000000E+02  0.51100000000E-03 0.  1.
         23    2    1    2    0    0 -0.35527136788E-14  0.17763568394E-14  0.00000000000E+00  0.91188000000E+02  0.91188000000E+02 0.  0.
    9900012    2    3    3    0    0 -0.29429581192E+02  0.10633338676E+02  0.19406462428E+02  0.54367096637E+02  0.40000028403E+02 0.  0.
        -12    1    3    3    0    0  0.29429581192E+02 -0.10633338676E+02 -0.19406462428E+02  0.36820903363E+02  0.00000000000E+00 0.  1.
         11    1    4    4    0    0  0.58616472447E+01  0.31066316830E+01  0.83738863591E+01  0.10683259889E+02  0.51100000000E-03 0. -1.
        -11    1    4    4    0    0 -0.34881894207E+02  0.12365584149E+02  0.77200246186E+01  0.37805462504E+02  0.51100000000E-03 0.  1.
        -12    1    4    4    0    0 -0.40933422970E+00 -0.48388771562E+01  0.33125514499E+01  0.58783742440E+01  0.00000000000E+00 0.  1.
</event>
<event>
 8    1  0.1248739E-006  0.9118800E+02  0.7816164E-02  0.1184000E+00
        -11   -1    0    0    0    0  0.00000000000E+00  0.00000000000E+00  0.45593999997E+02  0.45594000000E+02  0.51100000000E-03 0.  1.
         11   -1    0    0    0    0 -0.00000000000E+00 -0.00000000000E+00 -0.45593999997E+02  0.45594000000E+02  0.51100000000E-03 0. -1.
         23    2    1    2    0    0 -0.88817841970E-15 -0.35527136788E-14  0.35527136788E-14  0.91188000000E+02  0.91188000000E+02 0.  0.
    9900012    2    3    3    0    0 -0.71254998553E+01 -0.19993090812E+02  0.30087860566E+02  0.54367139311E+02  0.40000125688E+02 0.  0.
         12    1    3    3    0    0  0.71254998553E+01  0.19993090812E+02 -0.30087860566E+02  0.36820860689E+02  0.00000000000E+00 0. -1.
         11    1    4    4    0    0  0.37100666314E+01  0.19845655608E+01  0.50413818110E+01  0.65664774194E+01  0.51100000000E-03 0. -1.
        -11    1    4    4    0    0  0.64087560341E+01  0.53477845971E+01  0.61632224056E+01  0.10375753692E+02  0.51100000000E-03 0.  1.
        -12    1    4    4    0    0 -0.17244322521E+02 -0.27325440970E+02  0.18883256349E+02  0.37424908200E+02  0.00000000000E+00 0.  1.
</event>
<event>
 8    1  0.1248739E-006  0.9118800E+02  0.7816164E-02  0.1184000E+00
        -11   -1    0    0    0    0  0.00000000000E+00  0.00000000000E+00  0.45593999997E+02  0.45594000000E+02  0.51100000000E-03 0. -1.
         11   -1    0    0    0    0 -0.00000000000E+00 -0.00000000000E+00 -0.45593999997E+02  0.45594000000E+02  0.51100000000E-03 0.  1.
         23    2    1    2    0    0 -0.35527136788E-14 -0.88817841970E-15  0.00000000000E+00  0.91188000000E+02  0.91188000000E+02 0.  0.
    9900012    2    3    3    0    0 -0.19638440433E+02 -0.42662722866E+01  0.30853044376E+02  0.54367085167E+02  0.40000002255E+02 0.  0.
        -12    1    3    3    0    0  0.19638440433E+02  0.42662722866E+01 -0.30853044376E+02  0.36820914833E+02  0.00000000000E+00 0.  1.
         11    1    4    4    0    0  0.70016589377E+01 -0.11383771665E+02  0.18016573103E+02  0.22432351456E+02  0.51100000000E-03 0. -1.
        -11    1    4    4    0    0 -0.11944175313E+02 -0.17581793728E+01  0.52462279663E+01  0.13163488396E+02  0.51100000000E-03 0.  1.
         12    1    4    4    0    0 -0.14695924058E+02  0.88756787513E+01  0.75902433066E+01  0.18771245315E+02  0.00000000000E+00 0. -1.
</event>
<event>
 8    1  0.1248739E-006  0.9118800E+02  0.7816164E-02  0.1184000E+00
        -11   -1    0    0    0    0  0.00000000000E+00  0.00000000000E+00  0.45593999997E+02  0.45594000000E+02  0.51100000000E-03 0.  1.
         11   -1    0    0    0    0 -0.00000000000E+00 -0.00000000000E+00 -0.45593999997E+02  0.45594000000E+02  0.51100000000E-03 0. -1.
         23    2    1    2    0    0  0.00000000000E+00 -0.35527136788E-14 -0.22204460493E-15  0.91188000000E+02  0.91188000000E+02 0.  0.
    9900012    2    3    3    0    0 -0.22647875173E+02  0.28971470419E+02 -0.18729263127E+01  0.54367079302E+02  0.39999988885E+02 0.  0.
        -12    1    3    3    0    0  0.22647875173E+02 -0.28971470419E+02  0.18729263127E+01  0.36820920698E+02  0.00000000000E+00 0.  1.
         11    1    4    4    0    0 -0.14959011855E+02  0.98692201192E+01 -0.18905123897E+02  0.26049515374E+02  0.51100000000E-03 0. -1.
        -11    1    4    4    0    0 -0.51669267285E+00 -0.29969852320E+00  0.36104414142E+01  0.36595188194E+01  0.51100000000E-03 0.  1.
         12    1    4    4    0    0 -0.71721706452E+01  0.19401948823E+02  0.13421756170E+02  0.24658045108E+02  0.00000000000E+00 0. -1.
</event>
<event>
 8    1  0.1248739E-006  0.9118800E+02  0.7816164E-02  0.1184000E+00
        -11   -1    0    0    0    0  0.00000000000E+00  0.00000000000E+00  0.45593999997E+02  0.45594000000E+02  0.51100000000E-03 0. -1.
         11   -1    0    0    0    0 -0.00000000000E+00 -0.00000000000E+00 -0.45593999997E+02  0.45594000000E+02  0.51100000000E-03 0.  1.
         23    2    1    2    0    0  0.35527136788E-14 -0.35527136788E-14  0.00000000000E+00  0.91188000000E+02  0.91188000000E+02 0.  0.
    9900012    2    3    3    0    0  0.29648418412E+02 -0.82281430182E+01  0.20224956527E+02  0.54367083140E+02  0.39999997634E+02 0.  0.
        -12    1    3    3    0    0 -0.29648418412E+02  0.82281430182E+01 -0.20224956527E+02  0.36820916860E+02  0.00000000000E+00 0.  1.
         11    1    4    4    0    0  0.95636657106E+01  0.90632484488E+01 -0.45385518302E+01  0.13935732031E+02  0.51100000000E-03 0. -1.
        -11    1    4    4    0    0  0.42859635999E+01  0.29798451699E+01  0.77935784870E+00  0.52779124788E+01  0.51100000000E-03 0.  1.
         12    1    4    4    0    0  0.15798789102E+02 -0.20271236637E+02  0.23984150509E+02  0.35153438630E+02  0.00000000000E+00 0. -1.
</event>
<event>
 8    1  0.1248739E-006  0.9118800E+02  0.7816164E-02  0.1184000E+00
        -11   -1    0    0    0    0  0.00000000000E+00  0.00000000000E+00  0.45593999997E+02  0.45594000000E+02  0.51100000000E-03 0. -1.
         11   -1    0    0    0    0 -0.00000000000E+00 -0.00000000000E+00 -0.45593999997E+02  0.45594000000E+02  0.51100000000E-03 0.  1.
         23    2    1    2    0    0  0.17763568394E-14  0.38857805862E-15  0.00000000000E+00  0.91188000000E+02  0.91188000000E+02 0.  0.
    9900012    2    3    3    0    0 -0.80697704633E+01 -0.35269230770E+00  0.35924008769E+02  0.54367082124E+02  0.39999995319E+02 0.  0.
        -12    1    3    3    0    0  0.80697704633E+01  0.35269230770E+00 -0.35924008769E+02  0.36820917876E+02  0.00000000000E+00 0.  1.
         11    1    4    4    0    0 -0.25904455938E+01  0.23498865802E+01  0.21378069418E+01  0.40990967414E+01  0.51100000000E-03 0. -1.
        -11    1    4    4    0    0 -0.60113081313E+01  0.11505958276E+02  0.33630064135E+02  0.36048635415E+02  0.51100000000E-03 0.  1.
        -12    1    4    4    0    0  0.53198326178E+00 -0.14208537164E+02  0.15613769234E+00  0.14219349968E+02  0.00000000000E+00 0.  1.
</event>
<event>
 8    1  0.1248739E-006  0.9118800E+02  0.7816164E-02  0.1184000E+00
        -11   -1    0    0    0    0  0.00000000000E+00  0.00000000000E+00  0.45593999997E+02  0.45594000000E+02  0.51100000000E-03 0. -1.
         11   -1    0    0    0    0 -0.00000000000E+00 -0.00000000000E+00 -0.45593999997E+02  0.45594000000E+02  0.51100000000E-03 0.  1.
         23    2    1    2    0    0  0.00000000000E+00  0.00000000000E+00  0.00000000000E+00  0.91188000000E+02  0.91188000000E+02 0.  0.
    9900012    2    3    3    0    0  0.19074171858E+02 -0.31318293811E+02 -0.33346480265E+01  0.54367089681E+02  0.40000012545E+02 0.  0.
        -12    1    3    3    0    0 -0.19074171858E+02  0.31318293811E+02  0.33346480265E+01  0.36820910319E+02  0.00000000000E+00 0.  1.
         11    1    4    4    0    0  0.12492054210E+02 -0.35428320482E+01  0.10459124692E+02  0.16673223051E+02  0.51100000000E-03 0.  1.
        -11    1    4    4    0    0  0.51823313028E+01 -0.12771698729E+02  0.40239136110E+01  0.14358437490E+02  0.51100000000E-03 0. -1.
        -12    1    4    4    0    0  0.13997863451E+01 -0.15003763033E+02 -0.17817686330E+02  0.23335429139E+02  0.00000000000E+00 0.  1.
</event>
<event>
 8    1  0.1248739E-006  0.9118800E+02  0.7816164E-02  0.1184000E+00
        -11   -1    0    0    0    0  0.00000000000E+00  0.00000000000E+00  0.45593999997E+02  0.45594000000E+02  0.51100000000E-03 0. -1.
         11   -1    0    0    0    0 -0.00000000000E+00 -0.00000000000E+00 -0.45593999997E+02  0.45594000000E+02  0.51100000000E-03 0.  1.
         23    2    1    2    0    0 -0.35527136788E-14  0.00000000000E+00 -0.35527136788E-14  0.91188000000E+02  0.91188000000E+02 0.  0.
    9900012    2    3    3    0    0 -0.15901721655E+02 -0.92124401106E+01 -0.31906861470E+02  0.54367060126E+02  0.39999945169E+02 0.  0.
         12    1    3    3    0    0  0.15901721655E+02  0.92124401106E+01  0.31906861470E+02  0.36820939874E+02  0.00000000000E+00 0. -1.
         11    1    4    4    0    0 -0.27878883084E+00 -0.22310832953E+00  0.78092683429E+01  0.78174275085E+01  0.51100000000E-03 0. -1.
        -11    1    4    4    0    0  0.30907382170E+00 -0.63528294327E+01 -0.20420653548E+02  0.21388245838E+02  0.51100000000E-03 0.  1.
        -12    1    4    4    0    0 -0.15932006646E+02 -0.26365023484E+01 -0.19295476264E+02  0.25161386779E+02  0.00000000000E+00 0.  1.
</event>
<event>
 8    1  0.1248739E-006  0.9118800E+02  0.7816164E-02  0.1184000E+00
        -11   -1    0    0    0    0  0.00000000000E+00  0.00000000000E+00  0.45593999997E+02  0.45594000000E+02  0.51100000000E-03 0. -1.
         11   -1    0    0    0    0 -0.00000000000E+00 -0.00000000000E+00 -0.45593999997E+02  0.45594000000E+02  0.51100000000E-03 0.  1.
         23    2    1    2    0    0  0.35527136788E-14  0.00000000000E+00  0.00000000000E+00  0.91188000000E+02  0.91188000000E+02 0.  0.
    9900012    2    3    3    0    0  0.23158964097E+02  0.33084598990E+01 -0.28434093111E+02  0.54367066063E+02  0.39999958704E+02 0.  0.
         12    1    3    3    0    0 -0.23158964097E+02 -0.33084598990E+01  0.28434093111E+02  0.36820933937E+02  0.00000000000E+00 0. -1.
         11    1    4    4    0    0  0.54064719132E+01 -0.48981869455E+01 -0.44357173205E+01  0.85380186408E+01  0.51100000000E-03 0. -1.
        -11    1    4    4    0    0  0.33112731184E+01 -0.11310729058E+02 -0.13552038225E+00  0.11786241451E+02  0.51100000000E-03 0.  1.
         12    1    4    4    0    0  0.14441219065E+02  0.19517375903E+02 -0.23862855408E+02  0.34042805972E+02  0.00000000000E+00 0. -1.
</event>
<event>
 8    1  0.1248739E-006  0.9118800E+02  0.7816164E-02  0.1184000E+00
        -11   -1    0    0    0    0  0.00000000000E+00  0.00000000000E+00  0.45593999997E+02  0.45594000000E+02  0.51100000000E-03 0.  1.
         11   -1    0    0    0    0 -0.00000000000E+00 -0.00000000000E+00 -0.45593999997E+02  0.45594000000E+02  0.51100000000E-03 0. -1.
         23    2    1    2    0    0  0.00000000000E+00  0.00000000000E+00  0.00000000000E+00  0.91188000000E+02  0.91188000000E+02 0.  0.
    9900012    2    3    3    0    0 -0.10715826507E+02 -0.28819697587E+02  0.20257754970E+02  0.54367074656E+02  0.39999978294E+02 0.  0.
        -12    1    3    3    0    0  0.10715826507E+02  0.28819697587E+02 -0.20257754970E+02  0.36820925344E+02  0.00000000000E+00 0.  1.
         11    1    4    4    0    0 -0.21325708669E+02 -0.19621794537E+02  0.74354852866E+00  0.28988851922E+02  0.51100000000E-03 0. -1.
        -11    1    4    4    0    0  0.36950610935E+01 -0.83663607063E+01  0.12549726176E+02  0.15528847198E+02  0.51100000000E-03 0.  1.
         12    1    4    4    0    0  0.69148210684E+01 -0.83154234345E+00  0.69644802659E+01  0.98493755361E+01  0.00000000000E+00 0. -1.
</event>
<event>
 8    1  0.1248739E-006  0.9118800E+02  0.7816164E-02  0.1184000E+00
        -11   -1    0    0    0    0  0.00000000000E+00  0.00000000000E+00  0.45593999997E+02  0.45594000000E+02  0.51100000000E-03 0.  1.
         11   -1    0    0    0    0 -0.00000000000E+00 -0.00000000000E+00 -0.45593999997E+02  0.45594000000E+02  0.51100000000E-03 0. -1.
         23    2    1    2    0    0  0.17763568394E-14  0.00000000000E+00  0.88817841970E-15  0.91188000000E+02  0.91188000000E+02 0.  0.
    9900012    2    3    3    0    0 -0.14398001960E+02 -0.33418643076E+02  0.56276401340E+01  0.54367102415E+02  0.40000041575E+02 0.  0.
        -12    1    3    3    0    0  0.14398001960E+02  0.33418643076E+02 -0.56276401340E+01  0.36820897585E+02  0.00000000000E+00 0.  1.
         11    1    4    4    0    0 -0.22810469268E+02 -0.89536040381E+01  0.14195146536E+01  0.24545866365E+02  0.51100000000E-03 0. -1.
        -11    1    4    4    0    0  0.63319423609E+01 -0.23193921791E+02 -0.10075894780E+01  0.24063805578E+02  0.51100000000E-03 0.  1.
        -12    1    4    4    0    0  0.20805249467E+01 -0.12711172473E+01  0.52157149584E+01  0.57574304718E+01  0.00000000000E+00 0.  1.
</event>
<event>
 8    1  0.1248739E-006  0.9118800E+02  0.7816164E-02  0.1184000E+00
        -11   -1    0    0    0    0  0.00000000000E+00  0.00000000000E+00  0.45593999997E+02  0.45594000000E+02  0.51100000000E-03 0.  1.
         11   -1    0    0    0    0 -0.00000000000E+00 -0.00000000000E+00 -0.45593999997E+02  0.45594000000E+02  0.51100000000E-03 0. -1.
         23    2    1    2    0    0 -0.35527136788E-14  0.35527136788E-14 -0.17763568394E-14  0.91188000000E+02  0.91188000000E+02 0.  0.
    9900012    2    3    3    0    0 -0.29859756218E+02  0.18280250278E+02 -0.11402060918E+02  0.54367087670E+02  0.40000007961E+02 0.  0.
         12    1    3    3    0    0  0.29859756218E+02 -0.18280250278E+02  0.11402060918E+02  0.36820912330E+02  0.00000000000E+00 0. -1.
         11    1    4    4    0    0 -0.24921518624E+02  0.10916645816E+02  0.24394942735E+01  0.27316778341E+02  0.51100000000E-03 0.  1.
        -11    1    4    4    0    0  0.79328827075E+01  0.57545312595E+01 -0.86740766513E+01  0.13087584349E+02  0.51100000000E-03 0. -1.
        -12    1    4    4    0    0 -0.12871120302E+02  0.16090732022E+01 -0.51674785406E+01  0.13962724980E+02  0.00000000000E+00 0.  1.
</event>
<event>
 8    1  0.1248739E-006  0.9118800E+02  0.7816164E-02  0.1184000E+00
        -11   -1    0    0    0    0  0.00000000000E+00  0.00000000000E+00  0.45593999997E+02  0.45594000000E+02  0.51100000000E-03 0.  1.
         11   -1    0    0    0    0 -0.00000000000E+00 -0.00000000000E+00 -0.45593999997E+02  0.45594000000E+02  0.51100000000E-03 0. -1.
         23    2    1    2    0    0  0.00000000000E+00  0.00000000000E+00  0.00000000000E+00  0.91188000000E+02  0.91188000000E+02 0.  0.
    9900012    2    3    3    0    0  0.87119658692E+01 -0.27822346480E+02 -0.22489990048E+02  0.54367068924E+02  0.39999965225E+02 0.  0.
        -12    1    3    3    0    0 -0.87119658692E+01  0.27822346480E+02  0.22489990048E+02  0.36820931076E+02  0.00000000000E+00 0.  1.
         11    1    4    4    0    0  0.14384942936E+01 -0.33603424045E+02 -0.18875341913E+02  0.38568612964E+02  0.51100000000E-03 0. -1.
        -11    1    4    4    0    0  0.12543117615E+01  0.29022250561E+01  0.43695164272E+01  0.53934110116E+01  0.51100000000E-03 0.  1.
         12    1    4    4    0    0  0.60191598142E+01  0.28788525079E+01 -0.79841645616E+01  0.10405044948E+02  0.00000000000E+00 0. -1.
</event>
<event>
 8    1  0.1248739E-006  0.9118800E+02  0.7816164E-02  0.1184000E+00
        -11   -1    0    0    0    0  0.00000000000E+00  0.00000000000E+00  0.45593999997E+02  0.45594000000E+02  0.51100000000E-03 0.  1.
         11   -1    0    0    0    0 -0.00000000000E+00 -0.00000000000E+00 -0.45593999997E+02  0.45594000000E+02  0.51100000000E-03 0. -1.
         23    2    1    2    0    0  0.33306690739E-15  0.00000000000E+00  0.00000000000E+00  0.91188000000E+02  0.91188000000E+02 0.  0.
    9900012    2    3    3    0    0 -0.57022842268E+00  0.96326769829E+01  0.35533956072E+02  0.54367140960E+02  0.40000129447E+02 0.  0.
         12    1    3    3    0    0  0.57022842268E+00 -0.96326769829E+01 -0.35533956072E+02  0.36820859040E+02  0.00000000000E+00 0. -1.
         11    1    4    4    0    0 -0.73274987476E+01  0.13363995688E+02  0.81476037168E-01  0.15241235424E+02  0.51100000000E-03 0. -1.
        -11    1    4    4    0    0  0.61640616546E+00  0.53269848561E+01  0.86773222638E+01  0.10200619890E+02  0.51100000000E-03 0.  1.
        -12    1    4    4    0    0  0.61408641594E+01 -0.90583035614E+01  0.26775157771E+02  0.28925285646E+02  0.00000000000E+00 0.  1.
</event>
<event>
 8    1  0.1248739E-006  0.9118800E+02  0.7816164E-02  0.1184000E+00
        -11   -1    0    0    0    0  0.00000000000E+00  0.00000000000E+00  0.45593999997E+02  0.45594000000E+02  0.51100000000E-03 0. -1.
         11   -1    0    0    0    0 -0.00000000000E+00 -0.00000000000E+00 -0.45593999997E+02  0.45594000000E+02  0.51100000000E-03 0.  1.
         23    2    1    2    0    0 -0.35527136788E-14  0.35527136788E-14  0.35527136788E-14  0.91188000000E+02  0.91188000000E+02 0.  0.
    9900012    2    3    3    0    0 -0.16386837672E+02  0.19424755068E+02 -0.26644525481E+02  0.54367078007E+02  0.39999985931E+02 0.  0.
         12    1    3    3    0    0  0.16386837672E+02 -0.19424755068E+02  0.26644525481E+02  0.36820921993E+02  0.00000000000E+00 0. -1.
         11    1    4    4    0    0 -0.24762504678E+01 -0.20923061248E+01 -0.40319174599E+01  0.51735790284E+01  0.51100000000E-03 0. -1.
        -11    1    4    4    0    0  0.11729552072E+02  0.62042029996E+01 -0.10679032009E+02  0.17032799288E+02  0.51100000000E-03 0.  1.
         12    1    4    4    0    0 -0.25640139276E+02  0.15312858193E+02 -0.11933576013E+02  0.32160699690E+02  0.00000000000E+00 0. -1.
</event>
<event>
 8    1  0.1248739E-006  0.9118800E+02  0.7816164E-02  0.1184000E+00
        -11   -1    0    0    0    0  0.00000000000E+00  0.00000000000E+00  0.45593999997E+02  0.45594000000E+02  0.51100000000E-03 0.  1.
         11   -1    0    0    0    0 -0.00000000000E+00 -0.00000000000E+00 -0.45593999997E+02  0.45594000000E+02  0.51100000000E-03 0. -1.
         23    2    1    2    0    0  0.35527136788E-14  0.00000000000E+00  0.17763568394E-14  0.91188000000E+02  0.91188000000E+02 0.  0.
    9900012    2    3    3    0    0  0.21523240863E+02  0.28457906864E+02 -0.90927359758E+01  0.54367079210E+02  0.39999988676E+02 0.  0.
        -12    1    3    3    0    0 -0.21523240863E+02 -0.28457906864E+02  0.90927359758E+01  0.36820920790E+02  0.00000000000E+00 0.  1.
         11    1    4    4    0    0  0.13146376620E+02  0.70406337429E+01 -0.13126119675E+02  0.19866875943E+02  0.51100000000E-03 0. -1.
        -11    1    4    4    0    0  0.89778170823E+01  0.24911706870E+02  0.93734771060E+01  0.28090147953E+02  0.51100000000E-03 0.  1.
        -12    1    4    4    0    0 -0.60095283963E+00 -0.34944337490E+01 -0.53400934064E+01  0.64100553142E+01  0.00000000000E+00 0.  1.
</event>
<event>
 8    1  0.1248739E-006  0.9118800E+02  0.7816164E-02  0.1184000E+00
        -11   -1    0    0    0    0  0.00000000000E+00  0.00000000000E+00  0.45593999997E+02  0.45594000000E+02  0.51100000000E-03 0.  1.
         11   -1    0    0    0    0 -0.00000000000E+00 -0.00000000000E+00 -0.45593999997E+02  0.45594000000E+02  0.51100000000E-03 0. -1.
         23    2    1    2    0    0  0.35527136788E-14  0.00000000000E+00  0.00000000000E+00  0.91188000000E+02  0.91188000000E+02 0.  0.
    9900012    2    3    3    0    0 -0.20285543194E+02 -0.28216831549E+02  0.12169082379E+02  0.54367090026E+02  0.40000013332E+02 0.  0.
         12    1    3    3    0    0  0.20285543194E+02  0.28216831549E+02 -0.12169082379E+02  0.36820909974E+02  0.00000000000E+00 0. -1.
         11    1    4    4    0    0 -0.11003887485E+01 -0.18096312040E+01 -0.65960315221E+01  0.69277162610E+01  0.51100000000E-03 0. -1.
        -11    1    4    4    0    0 -0.44763452966E+01 -0.27362691404E+02  0.70437291307E+01  0.28607143661E+02  0.51100000000E-03 0.  1.
         12    1    4    4    0    0 -0.14708809149E+02  0.95549105912E+00  0.11721384771E+02  0.18832230104E+02  0.00000000000E+00 0. -1.
</event>
<event>
 8    1  0.1248739E-006  0.9118800E+02  0.7816164E-02  0.1184000E+00
        -11   -1    0    0    0    0  0.00000000000E+00  0.00000000000E+00  0.45593999997E+02  0.45594000000E+02  0.51100000000E-03 0. -1.
         11   -1    0    0    0    0 -0.00000000000E+00 -0.00000000000E+00 -0.45593999997E+02  0.45594000000E+02  0.51100000000E-03 0.  1.
         23    2    1    2    0    0  0.00000000000E+00  0.00000000000E+00  0.00000000000E+00  0.91188000000E+02  0.91188000000E+02 0.  0.
    9900012    2    3    3    0    0 -0.25008162427E+02 -0.19472405236E+02 -0.18740265373E+02  0.54367077960E+02  0.39999985825E+02 0.  0.
         12    1    3    3    0    0  0.25008162427E+02  0.19472405236E+02  0.18740265373E+02  0.36820922040E+02  0.00000000000E+00 0. -1.
         11    1    4    4    0    0 -0.17528042740E+02  0.60843199064E+01 -0.76069338140E+01  0.20052847013E+02  0.51100000000E-03 0. -1.
        -11    1    4    4    0    0 -0.16247425422E+00  0.11657431740E+00 -0.73487752295E+01  0.73514954322E+01  0.51100000000E-03 0.  1.
        -12    1    4    4    0    0 -0.73176454327E+01 -0.25673299459E+02 -0.37845563300E+01  0.26962735515E+02  0.00000000000E+00 0.  1.
</event>
<event>
 8    1  0.1248739E-006  0.9118800E+02  0.7816164E-02  0.1184000E+00
        -11   -1    0    0    0    0  0.00000000000E+00  0.00000000000E+00  0.45593999997E+02  0.45594000000E+02  0.51100000000E-03 0.  1.
         11   -1    0    0    0    0 -0.00000000000E+00 -0.00000000000E+00 -0.45593999997E+02  0.45594000000E+02  0.51100000000E-03 0. -1.
         23    2    1    2    0    0  0.00000000000E+00  0.13322676296E-14  0.00000000000E+00  0.91188000000E+02  0.91188000000E+02 0.  0.
    9900012    2    3    3    0    0  0.31957085381E+02  0.39315127850E+01  0.17862504402E+02  0.54367066248E+02  0.39999959125E+02 0.  0.
         12    1    3    3    0    0 -0.31957085381E+02 -0.39315127850E+01 -0.17862504402E+02  0.36820933752E+02  0.00000000000E+00 0. -1.
         11    1    4    4    0    0  0.62243366645E+01  0.46515026156E+01 -0.64571721145E+01  0.10103163637E+02  0.51100000000E-03 0. -1.
        -11    1    4    4    0    0  0.38421127663E+01 -0.11694357243E+02  0.60740676175E+01  0.13726402279E+02  0.51100000000E-03 0.  1.
        -12    1    4    4    0    0  0.21890635951E+02  0.10974367413E+02  0.18245608899E+02  0.30537500332E+02  0.00000000000E+00 0.  1.
</event>
<event>
 8    1  0.1248739E-006  0.9118800E+02  0.7816164E-02  0.1184000E+00
        -11   -1    0    0    0    0  0.00000000000E+00  0.00000000000E+00  0.45593999997E+02  0.45594000000E+02  0.51100000000E-03 0. -1.
         11   -1    0    0    0    0 -0.00000000000E+00 -0.00000000000E+00 -0.45593999997E+02  0.45594000000E+02  0.51100000000E-03 0.  1.
         23    2    1    2    0    0  0.17763568394E-14 -0.53290705182E-14  0.00000000000E+00  0.91188000000E+02  0.91188000000E+02 0.  0.
    9900012    2    3    3    0    0 -0.61649350024E+01 -0.14499139370E+02  0.33279854484E+02  0.54367079580E+02  0.39999989519E+02 0.  0.
         12    1    3    3    0    0  0.61649350024E+01  0.14499139370E+02 -0.33279854484E+02  0.36820920420E+02  0.00000000000E+00 0. -1.
         11    1    4    4    0    0  0.77681928438E+01 -0.17781641499E+02  0.94388956974E+01  0.21578330489E+02  0.51100000000E-03 0. -1.
        -11    1    4    4    0    0 -0.68205763117E+00  0.79076202885E+01  0.53381077271E+01  0.95650956925E+01  0.51100000000E-03 0.  1.
        -12    1    4    4    0    0 -0.13251070215E+02 -0.46251181597E+01  0.18502851060E+02  0.23223653398E+02  0.00000000000E+00 0.  1.
</event>
<event>
 8    1  0.1248739E-006  0.9118800E+02  0.7816164E-02  0.1184000E+00
        -11   -1    0    0    0    0  0.00000000000E+00  0.00000000000E+00  0.45593999997E+02  0.45594000000E+02  0.51100000000E-03 0.  1.
         11   -1    0    0    0    0 -0.00000000000E+00 -0.00000000000E+00 -0.45593999997E+02  0.45594000000E+02  0.51100000000E-03 0. -1.
         23    2    1    2    0    0  0.44408920985E-15 -0.35527136788E-14 -0.71054273576E-14  0.91188000000E+02  0.91188000000E+02 0.  0.
    9900012    2    3    3    0    0 -0.22076233560E+01 -0.17684422101E+02  0.32220622688E+02  0.54367069643E+02  0.39999966866E+02 0.  0.
         12    1    3    3    0    0  0.22076233560E+01  0.17684422101E+02 -0.32220622688E+02  0.36820930357E+02  0.00000000000E+00 0. -1.
         11    1    4    4    0    0 -0.86736385201E+01  0.42607875726E+01  0.16218326552E+02  0.18879100411E+02  0.51100000000E-03 0. -1.
        -11    1    4    4    0    0 -0.68336172907E+01 -0.10916860313E+01  0.40441166838E+01  0.80152968554E+01  0.51100000000E-03 0.  1.
         12    1    4    4    0    0  0.13299632455E+02 -0.20853523642E+02  0.11958179452E+02  0.27472672377E+02  0.00000000000E+00 0. -1.
</event>
<event>
 8    1  0.1248739E-006  0.9118800E+02  0.7816164E-02  0.1184000E+00
        -11   -1    0    0    0    0  0.00000000000E+00  0.00000000000E+00  0.45593999997E+02  0.45594000000E+02  0.51100000000E-03 0.  1.
         11   -1    0    0    0    0 -0.00000000000E+00 -0.00000000000E+00 -0.45593999997E+02  0.45594000000E+02  0.51100000000E-03 0. -1.
         23    2    1    2    0    0  0.00000000000E+00 -0.17763568394E-14  0.13322676296E-14  0.91188000000E+02  0.91188000000E+02 0.  0.
    9900012    2    3    3    0    0 -0.34074959754E+02  0.13787772503E+02 -0.21387053202E+01  0.54367087284E+02  0.40000007081E+02 0.  0.
        -12    1    3    3    0    0  0.34074959754E+02 -0.13787772503E+02  0.21387053202E+01  0.36820912716E+02  0.00000000000E+00 0.  1.
         11    1    4    4    0    0 -0.15351944298E+02  0.13726470468E+02  0.95292611604E+01  0.22691518322E+02  0.51100000000E-03 0. -1.
        -11    1    4    4    0    0 -0.54561364842E+01 -0.10464674706E+02 -0.14346488408E+01  0.11888526385E+02  0.51100000000E-03 0.  1.
        -12    1    4    4    0    0 -0.13266878972E+02  0.10525976742E+02 -0.10233317640E+02  0.19787042577E+02  0.00000000000E+00 0.  1.
</event>
<event>
 8    1  0.1248739E-006  0.9118800E+02  0.7816164E-02  0.1184000E+00
        -11   -1    0    0    0    0  0.00000000000E+00  0.00000000000E+00  0.45593999997E+02  0.45594000000E+02  0.51100000000E-03 0. -1.
         11   -1    0    0    0    0 -0.00000000000E+00 -0.00000000000E+00 -0.45593999997E+02  0.45594000000E+02  0.51100000000E-03 0.  1.
         23    2    1    2    0    0  0.17763568394E-14  0.00000000000E+00  0.00000000000E+00  0.91188000000E+02  0.91188000000E+02 0.  0.
    9900012    2    3    3    0    0 -0.63355756523E+01 -0.61054425921E+01 -0.35754214103E+02  0.54367085098E+02  0.40000002099E+02 0.  0.
         12    1    3    3    0    0  0.63355756523E+01  0.61054425921E+01  0.35754214103E+02  0.36820914902E+02  0.00000000000E+00 0. -1.
         11    1    4    4    0    0 -0.14865889710E+02  0.58915844354E+01 -0.79248327182E+01  0.17846804137E+02  0.51100000000E-03 0. -1.
        -11    1    4    4    0    0 -0.48841340368E+01 -0.12664204981E+01 -0.18479621109E+01  0.53734114296E+01  0.51100000000E-03 0.  1.
        -12    1    4    4    0    0  0.13414448094E+02 -0.10730606529E+02 -0.25981419274E+02  0.31146869532E+02  0.00000000000E+00 0.  1.
</event>
<event>
 8    1  0.1248739E-006  0.9118800E+02  0.7816164E-02  0.1184000E+00
        -11   -1    0    0    0    0  0.00000000000E+00  0.00000000000E+00  0.45593999997E+02  0.45594000000E+02  0.51100000000E-03 0.  1.
         11   -1    0    0    0    0 -0.00000000000E+00 -0.00000000000E+00 -0.45593999997E+02  0.45594000000E+02  0.51100000000E-03 0. -1.
         23    2    1    2    0    0  0.00000000000E+00  0.00000000000E+00  0.00000000000E+00  0.91188000000E+02  0.91188000000E+02 0.  0.
    9900012    2    3    3    0    0 -0.20738347114E+02  0.30019467901E+02  0.49529670591E+01  0.54367090495E+02  0.40000014402E+02 0.  0.
         12    1    3    3    0    0  0.20738347114E+02 -0.30019467901E+02 -0.49529670591E+01  0.36820909505E+02  0.00000000000E+00 0. -1.
         11    1    4    4    0    0 -0.30762427883E+01  0.80345649283E+01  0.30062503544E+01  0.91134540507E+01  0.51100000000E-03 0. -1.
        -11    1    4    4    0    0 -0.26181819617E+02  0.83686097785E+01  0.70932217059E+01  0.28387234851E+02  0.51100000000E-03 0.  1.
        -12    1    4    4    0    0  0.85197152907E+01  0.13616293194E+02 -0.51465050012E+01  0.16866401593E+02  0.00000000000E+00 0.  1.
</event>
<event>
 8    1  0.1248739E-006  0.9118800E+02  0.7816164E-02  0.1184000E+00
        -11   -1    0    0    0    0  0.00000000000E+00  0.00000000000E+00  0.45593999997E+02  0.45594000000E+02  0.51100000000E-03 0. -1.
         11   -1    0    0    0    0 -0.00000000000E+00 -0.00000000000E+00 -0.45593999997E+02  0.45594000000E+02  0.51100000000E-03 0.  1.
         23    2    1    2    0    0  0.00000000000E+00  0.00000000000E+00  0.35527136788E-14  0.91188000000E+02  0.91188000000E+02 0.  0.
    9900012    2    3    3    0    0  0.21445874186E+02 -0.11895576571E+02  0.27465431068E+02  0.54367079788E+02  0.39999989992E+02 0.  0.
        -12    1    3    3    0    0 -0.21445874186E+02  0.11895576571E+02 -0.27465431068E+02  0.36820920212E+02  0.00000000000E+00 0.  1.
         11    1    4    4    0    0  0.41987037984E+01 -0.16323333006E+01 -0.60295384770E+01  0.75265503452E+01  0.51100000000E-03 0.  1.
        -11    1    4    4    0    0  0.22387991788E+02 -0.90059732367E+01  0.33810393725E+02  0.41538806607E+02  0.51100000000E-03 0. -1.
        -12    1    4    4    0    0 -0.51408214009E+01 -0.12572700332E+01 -0.31542417941E+00  0.53017228356E+01  0.00000000000E+00 0.  1.
</event>
<event>
 8    1  0.1248739E-006  0.9118800E+02  0.7816164E-02  0.1184000E+00
        -11   -1    0    0    0    0  0.00000000000E+00  0.00000000000E+00  0.45593999997E+02  0.45594000000E+02  0.51100000000E-03 0.  1.
         11   -1    0    0    0    0 -0.00000000000E+00 -0.00000000000E+00 -0.45593999997E+02  0.45594000000E+02  0.51100000000E-03 0. -1.
         23    2    1    2    0    0  0.00000000000E+00  0.88817841970E-15  0.71054273576E-14  0.91188000000E+02  0.91188000000E+02 0.  0.
    9900012    2    3    3    0    0 -0.15159993864E+02 -0.39516669763E+01 -0.33321759779E+02  0.54367071704E+02  0.39999971563E+02 0.  0.
        -12    1    3    3    0    0  0.15159993864E+02  0.39516669763E+01  0.33321759779E+02  0.36820928296E+02  0.00000000000E+00 0.  1.
         11    1    4    4    0    0 -0.31190999419E+01  0.18155875109E+01 -0.74849167681E+01  0.83095801184E+01  0.51100000000E-03 0. -1.
        -11    1    4    4    0    0 -0.60875324245E+01 -0.20918951369E+02 -0.13481944630E+02  0.25620761282E+02  0.51100000000E-03 0.  1.
        -12    1    4    4    0    0 -0.59533614979E+01  0.15151696882E+02 -0.12354898381E+02  0.20436730304E+02  0.00000000000E+00 0.  1.
</event>
<event>
 8    1  0.1248739E-006  0.9118800E+02  0.7816164E-02  0.1184000E+00
        -11   -1    0    0    0    0  0.00000000000E+00  0.00000000000E+00  0.45593999997E+02  0.45594000000E+02  0.51100000000E-03 0. -1.
         11   -1    0    0    0    0 -0.00000000000E+00 -0.00000000000E+00 -0.45593999997E+02  0.45594000000E+02  0.51100000000E-03 0.  1.
         23    2    1    2    0    0  0.00000000000E+00  0.11102230246E-14  0.00000000000E+00  0.91188000000E+02  0.91188000000E+02 0.  0.
    9900012    2    3    3    0    0  0.24352000139E+02  0.86636100187E+00  0.27604527679E+02  0.54367076050E+02  0.39999981471E+02 0.  0.
        -12    1    3    3    0    0 -0.24352000139E+02 -0.86636100187E+00 -0.27604527679E+02  0.36820923950E+02  0.00000000000E+00 0.  1.
         11    1    4    4    0    0  0.84774183560E+01 -0.38964357667E+01  0.75143776690E+00  0.93602079381E+01  0.51100000000E-03 0. -1.
        -11    1    4    4    0    0  0.20602106344E+02 -0.43719397703E+01  0.62330199235E+01  0.21963860790E+02  0.51100000000E-03 0.  1.
        -12    1    4    4    0    0 -0.47275245607E+01  0.91347365388E+01  0.20620069989E+02  0.23043007322E+02  0.00000000000E+00 0.  1.
</event>
<event>
 8    1  0.1248739E-006  0.9118800E+02  0.7816164E-02  0.1184000E+00
        -11   -1    0    0    0    0  0.00000000000E+00  0.00000000000E+00  0.45593999997E+02  0.45594000000E+02  0.51100000000E-03 0.  1.
         11   -1    0    0    0    0 -0.00000000000E+00 -0.00000000000E+00 -0.45593999997E+02  0.45594000000E+02  0.51100000000E-03 0. -1.
         23    2    1    2    0    0 -0.35527136788E-14  0.00000000000E+00  0.00000000000E+00  0.91188000000E+02  0.91188000000E+02 0.  0.
    9900012    2    3    3    0    0  0.25398992493E+02 -0.16148902863E+02 -0.21210464819E+02  0.54367086090E+02  0.40000004359E+02 0.  0.
        -12    1    3    3    0    0 -0.25398992493E+02  0.16148902863E+02  0.21210464819E+02  0.36820913910E+02  0.00000000000E+00 0.  1.
         11    1    4    4    0    0  0.21510454308E+02 -0.18340241206E+02  0.31414069521E+01  0.28441739221E+02  0.51100000000E-03 0. -1.
        -11    1    4    4    0    0  0.59039129167E+01  0.33011842234E-01 -0.15078682150E+02  0.16193329897E+02  0.51100000000E-03 0.  1.
        -12    1    4    4    0    0 -0.20153747316E+01  0.21583265005E+01 -0.92731896213E+01  0.97320169721E+01  0.00000000000E+00 0.  1.
</event>
<event>
 8    1  0.1248739E-006  0.9118800E+02  0.7816164E-02  0.1184000E+00
        -11   -1    0    0    0    0  0.00000000000E+00  0.00000000000E+00  0.45593999997E+02  0.45594000000E+02  0.51100000000E-03 0.  1.
         11   -1    0    0    0    0 -0.00000000000E+00 -0.00000000000E+00 -0.45593999997E+02  0.45594000000E+02  0.51100000000E-03 0. -1.
         23    2    1    2    0    0  0.35527136788E-14 -0.35527136788E-14  0.00000000000E+00  0.91188000000E+02  0.91188000000E+02 0.  0.
    9900012    2    3    3    0    0  0.26042400889E+02  0.19166617554E+02  0.17612927615E+02  0.54367067208E+02  0.39999961314E+02 0.  0.
         12    1    3    3    0    0 -0.26042400889E+02 -0.19166617554E+02 -0.17612927615E+02  0.36820932792E+02  0.00000000000E+00 0. -1.
         11    1    4    4    0    0 -0.70359112695E+01 -0.23841112108E+01 -0.14251942164E+01  0.75643382045E+01  0.51100000000E-03 0. -1.
        -11    1    4    4    0    0  0.23198169736E+02  0.88329265822E+01  0.47496349744E+01  0.25273201296E+02  0.51100000000E-03 0.  1.
         12    1    4    4    0    0  0.98801424226E+01  0.12717802182E+02  0.14288486857E+02  0.21529527708E+02  0.00000000000E+00 0. -1.
</event>
<event>
 8    1  0.1248739E-006  0.9118800E+02  0.7816164E-02  0.1184000E+00
        -11   -1    0    0    0    0  0.00000000000E+00  0.00000000000E+00  0.45593999997E+02  0.45594000000E+02  0.51100000000E-03 0.  1.
         11   -1    0    0    0    0 -0.00000000000E+00 -0.00000000000E+00 -0.45593999997E+02  0.45594000000E+02  0.51100000000E-03 0. -1.
         23    2    1    2    0    0  0.00000000000E+00 -0.22204460493E-15  0.35527136788E-14  0.91188000000E+02  0.91188000000E+02 0.  0.
    9900012    2    3    3    0    0  0.26058844202E+02 -0.10445536748E+01 -0.25992805775E+02  0.54367076525E+02  0.39999982553E+02 0.  0.
        -12    1    3    3    0    0 -0.26058844202E+02  0.10445536748E+01  0.25992805775E+02  0.36820923475E+02  0.00000000000E+00 0.  1.
         11    1    4    4    0    0  0.23726599781E+02 -0.11350284708E+02 -0.51304358194E+01  0.26797422863E+02  0.51100000000E-03 0. -1.
        -11    1    4    4    0    0 -0.60333021405E+01  0.38820023640E+01 -0.60437879959E+01  0.93807276196E+01  0.51100000000E-03 0.  1.
         12    1    4    4    0    0  0.83655465612E+01  0.64237286687E+01 -0.14818581960E+02  0.18188926042E+02  0.00000000000E+00 0. -1.
</event>
<event>
 8    1  0.1248739E-006  0.9118800E+02  0.7816164E-02  0.1184000E+00
        -11   -1    0    0    0    0  0.00000000000E+00  0.00000000000E+00  0.45593999997E+02  0.45594000000E+02  0.51100000000E-03 0.  1.
         11   -1    0    0    0    0 -0.00000000000E+00 -0.00000000000E+00 -0.45593999997E+02  0.45594000000E+02  0.51100000000E-03 0. -1.
         23    2    1    2    0    0  0.00000000000E+00  0.00000000000E+00  0.00000000000E+00  0.91188000000E+02  0.91188000000E+02 0.  0.
    9900012    2    3    3    0    0 -0.23848856890E+02 -0.24091516300E+02  0.14373975917E+02  0.54367077738E+02  0.39999985319E+02 0.  0.
         12    1    3    3    0    0  0.23848856890E+02  0.24091516300E+02 -0.14373975917E+02  0.36820922262E+02  0.00000000000E+00 0. -1.
         11    1    4    4    0    0 -0.13051419074E+02 -0.98524059416E+01 -0.35491830595E+01  0.16733384097E+02  0.51100000000E-03 0. -1.
        -11    1    4    4    0    0 -0.13919513362E+02 -0.17277321662E+02  0.33686216230E+01  0.22441174389E+02  0.51100000000E-03 0.  1.
         12    1    4    4    0    0  0.31220755467E+01  0.30382113041E+01  0.14554537354E+02  0.15192519252E+02  0.00000000000E+00 0. -1.
</event>
<event>
 8    1  0.1248739E-006  0.9118800E+02  0.7816164E-02  0.1184000E+00
        -11   -1    0    0    0    0  0.00000000000E+00  0.00000000000E+00  0.45593999997E+02  0.45594000000E+02  0.51100000000E-03 0.  1.
         11   -1    0    0    0    0 -0.00000000000E+00 -0.00000000000E+00 -0.45593999997E+02  0.45594000000E+02  0.51100000000E-03 0. -1.
         23    2    1    2    0    0  0.88817841970E-15  0.00000000000E+00  0.71054273576E-14  0.91188000000E+02  0.91188000000E+02 0.  0.
    9900012    2    3    3    0    0  0.67163313316E+01 -0.73181630660E+01  0.35455821088E+02  0.54367083849E+02  0.39999999250E+02 0.  0.
         12    1    3    3    0    0 -0.67163313316E+01  0.73181630660E+01 -0.35455821088E+02  0.36820916151E+02  0.00000000000E+00 0. -1.
         11    1    4    4    0    0 -0.34232656571E+01 -0.36268170110E+01  0.72925181934E+01  0.88347819018E+01  0.51100000000E-03 0. -1.
        -11    1    4    4    0    0 -0.65860283749E+01 -0.87565824595E+01  0.25630030632E+02  0.27873858301E+02  0.51100000000E-03 0.  1.
         12    1    4    4    0    0  0.16725625364E+02  0.50652364045E+01  0.25332722617E+01  0.17658443646E+02  0.00000000000E+00 0. -1.
</event>
<event>
 8    1  0.1248739E-006  0.9118800E+02  0.7816164E-02  0.1184000E+00
        -11   -1    0    0    0    0  0.00000000000E+00  0.00000000000E+00  0.45593999997E+02  0.45594000000E+02  0.51100000000E-03 0.  1.
         11   -1    0    0    0    0 -0.00000000000E+00 -0.00000000000E+00 -0.45593999997E+02  0.45594000000E+02  0.51100000000E-03 0. -1.
         23    2    1    2    0    0  0.35527136788E-14  0.35527136788E-14  0.00000000000E+00  0.91188000000E+02  0.91188000000E+02 0.  0.
    9900012    2    3    3    0    0 -0.18871581498E+02 -0.18640394081E+02 -0.25537790723E+02  0.54367086992E+02  0.40000006416E+02 0.  0.
        -12    1    3    3    0    0  0.18871581498E+02  0.18640394081E+02  0.25537790723E+02  0.36820913008E+02  0.00000000000E+00 0.  1.
         11    1    4    4    0    0 -0.25521227071E+02 -0.22315856631E+02 -0.14617506089E+02  0.36918856604E+02  0.51100000000E-03 0. -1.
        -11    1    4    4    0    0  0.14742556265E+01  0.20632934632E+01 -0.11700092314E+02  0.11971748828E+02  0.51100000000E-03 0.  1.
        -12    1    4    4    0    0  0.51753899468E+01  0.16121690867E+01  0.77980768078E+00  0.54764815607E+01  0.00000000000E+00 0.  1.
</event>
<event>
 8    1  0.1248739E-006  0.9118800E+02  0.7816164E-02  0.1184000E+00
        -11   -1    0    0    0    0  0.00000000000E+00  0.00000000000E+00  0.45593999997E+02  0.45594000000E+02  0.51100000000E-03 0. -1.
         11   -1    0    0    0    0 -0.00000000000E+00 -0.00000000000E+00 -0.45593999997E+02  0.45594000000E+02  0.51100000000E-03 0.  1.
         23    2    1    2    0    0  0.17763568394E-14  0.00000000000E+00  0.00000000000E+00  0.91188000000E+02  0.91188000000E+02 0.  0.
    9900012    2    3    3    0    0 -0.13918797662E+02  0.18751245430E+02  0.28468190232E+02  0.54367082186E+02  0.39999995461E+02 0.  0.
        -12    1    3    3    0    0  0.13918797662E+02 -0.18751245430E+02 -0.28468190232E+02  0.36820917814E+02  0.00000000000E+00 0.  1.
         11    1    4    4    0    0  0.53032683941E+01  0.15612172441E+02  0.73899906011E+01  0.18068661969E+02  0.51100000000E-03 0. -1.
        -11    1    4    4    0    0 -0.18554446013E+02  0.36272521399E+01  0.41573571429E+01  0.19357376982E+02  0.51100000000E-03 0.  1.
         12    1    4    4    0    0 -0.66762004321E+00 -0.48817915141E+00  0.16920842488E+02  0.16941043236E+02  0.00000000000E+00 0. -1.
</event>
<event>
 8    1  0.1248739E-006  0.9118800E+02  0.7816164E-02  0.1184000E+00
        -11   -1    0    0    0    0  0.00000000000E+00  0.00000000000E+00  0.45593999997E+02  0.45594000000E+02  0.51100000000E-03 0.  1.
         11   -1    0    0    0    0 -0.00000000000E+00 -0.00000000000E+00 -0.45593999997E+02  0.45594000000E+02  0.51100000000E-03 0. -1.
         23    2    1    2    0    0 -0.88817841970E-15 -0.35527136788E-14  0.00000000000E+00  0.91188000000E+02  0.91188000000E+02 0.  0.
    9900012    2    3    3    0    0 -0.48481879275E+01 -0.23459710623E+02  0.27963082538E+02  0.54366852086E+02  0.39999470897E+02 0.  0.
        -12    1    3    3    0    0  0.48481879275E+01  0.23459710623E+02 -0.27963082538E+02  0.36821147914E+02  0.00000000000E+00 0.  1.
         11    1    4    4    0    0 -0.26945982521E+01  0.34273114173E+01 -0.14496518515E+00  0.43621483764E+01  0.51100000000E-03 0. -1.
        -11    1    4    4    0    0 -0.40069861287E+01 -0.38071711363E+01  0.26194858945E+02  0.26771647788E+02  0.51100000000E-03 0.  1.
         12    1    4    4    0    0  0.18533964533E+01 -0.23079850904E+02  0.19131887782E+01  0.23233055921E+02  0.00000000000E+00 0. -1.
</event>
<event>
 8    1  0.1248739E-006  0.9118800E+02  0.7816164E-02  0.1184000E+00
        -11   -1    0    0    0    0  0.00000000000E+00  0.00000000000E+00  0.45593999997E+02  0.45594000000E+02  0.51100000000E-03 0. -1.
         11   -1    0    0    0    0 -0.00000000000E+00 -0.00000000000E+00 -0.45593999997E+02  0.45594000000E+02  0.51100000000E-03 0.  1.
         23    2    1    2    0    0 -0.35527136788E-14 -0.17763568394E-14  0.35527136788E-14  0.91188000000E+02  0.91188000000E+02 0.  0.
    9900012    2    3    3    0    0 -0.31509572538E+02 -0.35205228228E+01  0.18722502149E+02  0.54367091142E+02  0.40000015876E+02 0.  0.
        -12    1    3    3    0    0  0.31509572538E+02  0.35205228228E+01 -0.18722502149E+02  0.36820908858E+02  0.00000000000E+00 0.  1.
         11    1    4    4    0    0 -0.55207908903E+01  0.11233279095E+02  0.87795553514E+01  0.15288763315E+02  0.51100000000E-03 0. -1.
        -11    1    4    4    0    0 -0.22716853367E+02 -0.63275012001E-01  0.66725502117E+01  0.23676620477E+02  0.51100000000E-03 0.  1.
        -12    1    4    4    0    0 -0.32719282801E+01 -0.14690526906E+02  0.32703965855E+01  0.15401707349E+02  0.00000000000E+00 0.  1.
</event>
<event>
 8    1  0.1248739E-006  0.9118800E+02  0.7816164E-02  0.1184000E+00
        -11   -1    0    0    0    0  0.00000000000E+00  0.00000000000E+00  0.45593999997E+02  0.45594000000E+02  0.51100000000E-03 0.  1.
         11   -1    0    0    0    0 -0.00000000000E+00 -0.00000000000E+00 -0.45593999997E+02  0.45594000000E+02  0.51100000000E-03 0. -1.
         23    2    1    2    0    0  0.00000000000E+00 -0.17763568394E-14  0.13322676296E-14  0.91188000000E+02  0.91188000000E+02 0.  0.
    9900012    2    3    3    0    0 -0.34526165918E+02 -0.12229551057E+02 -0.37630942835E+01  0.54367096554E+02  0.40000028213E+02 0.  0.
        -12    1    3    3    0    0  0.34526165918E+02  0.12229551057E+02  0.37630942835E+01  0.36820903446E+02  0.00000000000E+00 0.  1.
         11    1    4    4    0    0 -0.77941875080E+01 -0.76006996927E+01 -0.93407340339E+01  0.14344661282E+02  0.51100000000E-03 0. -1.
        -11    1    4    4    0    0 -0.19472887980E+02  0.61568944000E+01 -0.73333704712E+01  0.21699747410E+02  0.51100000000E-03 0.  1.
        -12    1    4    4    0    0 -0.72590904299E+01 -0.10785745764E+02  0.12911010222E+02  0.18322687862E+02  0.00000000000E+00 0.  1.
</event>
<event>
 8    1  0.1248739E-006  0.9118800E+02  0.7816164E-02  0.1184000E+00
        -11   -1    0    0    0    0  0.00000000000E+00  0.00000000000E+00  0.45593999997E+02  0.45594000000E+02  0.51100000000E-03 0.  1.
         11   -1    0    0    0    0 -0.00000000000E+00 -0.00000000000E+00 -0.45593999997E+02  0.45594000000E+02  0.51100000000E-03 0. -1.
         23    2    1    2    0    0  0.00000000000E+00  0.00000000000E+00  0.00000000000E+00  0.91188000000E+02  0.91188000000E+02 0.  0.
    9900012    2    3    3    0    0  0.17487246178E+02 -0.81460274782E+01  0.31362691925E+02  0.54367082204E+02  0.39999995501E+02 0.  0.
         12    1    3    3    0    0 -0.17487246178E+02  0.81460274782E+01 -0.31362691925E+02  0.36820917796E+02  0.00000000000E+00 0. -1.
         11    1    4    4    0    0 -0.36398980937E+00  0.35700022932E+01  0.84174494761E+01  0.91504568683E+01  0.51100000000E-03 0. -1.
        -11    1    4    4    0    0  0.23285273647E+02 -0.14148180917E+02  0.69060562400E+01  0.28108159048E+02  0.51100000000E-03 0.  1.
        -12    1    4    4    0    0 -0.54340376594E+01  0.24321511452E+01  0.16039186209E+02  0.17108466288E+02  0.00000000000E+00 0.  1.
</event>
<event>
 8    1  0.1248739E-006  0.9118800E+02  0.7816164E-02  0.1184000E+00
        -11   -1    0    0    0    0  0.00000000000E+00  0.00000000000E+00  0.45593999997E+02  0.45594000000E+02  0.51100000000E-03 0.  1.
         11   -1    0    0    0    0 -0.00000000000E+00 -0.00000000000E+00 -0.45593999997E+02  0.45594000000E+02  0.51100000000E-03 0. -1.
         23    2    1    2    0    0  0.17763568394E-14  0.00000000000E+00 -0.35527136788E-14  0.91188000000E+02  0.91188000000E+02 0.  0.
    9900012    2    3    3    0    0  0.71785892456E+01 -0.29765933807E+02 -0.20450803560E+02  0.54367104774E+02  0.40000046954E+02 0.  0.
        -12    1    3    3    0    0 -0.71785892456E+01  0.29765933807E+02  0.20450803560E+02  0.36820895226E+02  0.00000000000E+00 0.  1.
         11    1    4    4    0    0 -0.37226145912E-01  0.24255910108E+01  0.77377492967E+00  0.25462924892E+01  0.51100000000E-03 0. -1.
        -11    1    4    4    0    0  0.10213394598E+02 -0.15619619252E+02  0.61767256521E+01  0.19658023167E+02  0.51100000000E-03 0.  1.
         12    1    4    4    0    0 -0.29975792066E+01 -0.16571905566E+02 -0.27401304142E+02  0.32162789118E+02  0.00000000000E+00 0. -1.
</event>
<event>
 8    1  0.1248739E-006  0.9118800E+02  0.7816164E-02  0.1184000E+00
        -11   -1    0    0    0    0  0.00000000000E+00  0.00000000000E+00  0.45593999997E+02  0.45594000000E+02  0.51100000000E-03 0.  1.
         11   -1    0    0    0    0 -0.00000000000E+00 -0.00000000000E+00 -0.45593999997E+02  0.45594000000E+02  0.51100000000E-03 0. -1.
         23    2    1    2    0    0 -0.17763568394E-14 -0.35527136788E-14  0.35527136788E-14  0.91188000000E+02  0.91188000000E+02 0.  0.
    9900012    2    3    3    0    0 -0.15481324009E+02 -0.30289945495E+02  0.14093530392E+02  0.54367084882E+02  0.40000001606E+02 0.  0.
         12    1    3    3    0    0  0.15481324009E+02  0.30289945495E+02 -0.14093530392E+02  0.36820915118E+02  0.00000000000E+00 0. -1.
         11    1    4    4    0    0  0.79324117004E+00 -0.99993584572E+01  0.10762691470E+01  0.10088347568E+02  0.51100000000E-03 0. -1.
        -11    1    4    4    0    0  0.37616074708E+01 -0.76631384984E+00 -0.82748486347E+01  0.91219541695E+01  0.51100000000E-03 0.  1.
        -12    1    4    4    0    0 -0.20036172650E+02 -0.19524273188E+02  0.21292109880E+02  0.35156783145E+02  0.00000000000E+00 0.  1.
</event>
<event>
 8    1  0.1248739E-006  0.9118800E+02  0.7816164E-02  0.1184000E+00
        -11   -1    0    0    0    0  0.00000000000E+00  0.00000000000E+00  0.45593999997E+02  0.45594000000E+02  0.51100000000E-03 0. -1.
         11   -1    0    0    0    0 -0.00000000000E+00 -0.00000000000E+00 -0.45593999997E+02  0.45594000000E+02  0.51100000000E-03 0.  1.
         23    2    1    2    0    0  0.00000000000E+00 -0.15543122345E-14  0.00000000000E+00  0.91188000000E+02  0.91188000000E+02 0.  0.
    9900012    2    3    3    0    0 -0.34526924013E+02  0.16302538851E+01  0.12689084970E+02  0.54367094432E+02  0.40000023376E+02 0.  0.
         12    1    3    3    0    0  0.34526924013E+02 -0.16302538851E+01 -0.12689084970E+02  0.36820905568E+02  0.00000000000E+00 0. -1.
         11    1    4    4    0    0 -0.21857101307E+02  0.11255835181E+02  0.38132068167E+01  0.24879052427E+02  0.51100000000E-03 0. -1.
        -11    1    4    4    0    0 -0.94028900547E+01 -0.57866262954E+01  0.16795965520E+02  0.20099846847E+02  0.51100000000E-03 0.  1.
        -12    1    4    4    0    0 -0.32669326509E+01 -0.38389550005E+01 -0.79200873662E+01  0.93881951583E+01  0.00000000000E+00 0.  1.
</event>
<event>
 8    1  0.1248739E-006  0.9118800E+02  0.7816164E-02  0.1184000E+00
        -11   -1    0    0    0    0  0.00000000000E+00  0.00000000000E+00  0.45593999997E+02  0.45594000000E+02  0.51100000000E-03 0.  1.
         11   -1    0    0    0    0 -0.00000000000E+00 -0.00000000000E+00 -0.45593999997E+02  0.45594000000E+02  0.51100000000E-03 0. -1.
         23    2    1    2    0    0  0.00000000000E+00  0.00000000000E+00 -0.35527136788E-14  0.91188000000E+02  0.91188000000E+02 0.  0.
    9900012    2    3    3    0    0 -0.19081879774E+02  0.91071609167E+01 -0.30145004282E+02  0.54367084764E+02  0.40000001337E+02 0.  0.
        -12    1    3    3    0    0  0.19081879774E+02 -0.91071609167E+01  0.30145004282E+02  0.36820915236E+02  0.00000000000E+00 0.  1.
         11    1    4    4    0    0  0.26991652440E+00  0.40452431841E+00 -0.14385538261E+02  0.14393755805E+02  0.51100000000E-03 0. -1.
        -11    1    4    4    0    0  0.36650642368E+01  0.11711951524E+01 -0.15273535996E+02  0.15750723667E+02  0.51100000000E-03 0.  1.
         12    1    4    4    0    0 -0.23016860535E+02  0.75314414459E+01 -0.48593002449E+00  0.24222605292E+02  0.00000000000E+00 0. -1.
</event>
<event>
 8    1  0.1248739E-006  0.9118800E+02  0.7816164E-02  0.1184000E+00
        -11   -1    0    0    0    0  0.00000000000E+00  0.00000000000E+00  0.45593999997E+02  0.45594000000E+02  0.51100000000E-03 0.  1.
         11   -1    0    0    0    0 -0.00000000000E+00 -0.00000000000E+00 -0.45593999997E+02  0.45594000000E+02  0.51100000000E-03 0. -1.
         23    2    1    2    0    0 -0.71054273576E-14  0.00000000000E+00  0.00000000000E+00  0.91188000000E+02  0.91188000000E+02 0.  0.
    9900012    2    3    3    0    0 -0.26948289193E+02 -0.13295744915E+02  0.21278966599E+02  0.54367061082E+02  0.39999947348E+02 0.  0.
         12    1    3    3    0    0  0.26948289193E+02  0.13295744915E+02 -0.21278966599E+02  0.36820938918E+02  0.00000000000E+00 0. -1.
         11    1    4    4    0    0 -0.29193106023E+01  0.71101011751E+00  0.16869144621E+00  0.30093798107E+01  0.51100000000E-03 0. -1.
        -11    1    4    4    0    0  0.99010574011E+01 -0.19534072724E+01  0.10682439029E+01  0.10148294582E+02  0.51100000000E-03 0.  1.
        -12    1    4    4    0    0 -0.33930035992E+02 -0.12053347760E+02  0.20042031249E+02  0.41209386689E+02  0.00000000000E+00 0.  1.
</event>
<event>
 8    1  0.1248739E-006  0.9118800E+02  0.7816164E-02  0.1184000E+00
        -11   -1    0    0    0    0  0.00000000000E+00  0.00000000000E+00  0.45593999997E+02  0.45594000000E+02  0.51100000000E-03 0. -1.
         11   -1    0    0    0    0 -0.00000000000E+00 -0.00000000000E+00 -0.45593999997E+02  0.45594000000E+02  0.51100000000E-03 0.  1.
         23    2    1    2    0    0  0.00000000000E+00  0.17763568394E-14  0.00000000000E+00  0.91188000000E+02  0.91188000000E+02 0.  0.
    9900012    2    3    3    0    0  0.32718262158E+02  0.14101914567E+02 -0.92968543422E+01  0.54367079672E+02  0.39999989729E+02 0.  0.
         12    1    3    3    0    0 -0.32718262158E+02 -0.14101914567E+02  0.92968543422E+01  0.36820920328E+02  0.00000000000E+00 0. -1.
         11    1    4    4    0    0 -0.16245356481E+01 -0.40557153731E+01  0.73658599277E+00  0.44306322851E+01  0.51100000000E-03 0. -1.
        -11    1    4    4    0    0  0.25383404595E+02  0.20785724433E+02  0.40312370324E+01  0.33054718897E+02  0.51100000000E-03 0.  1.
        -12    1    4    4    0    0  0.89593932109E+01 -0.26280944934E+01 -0.14064677367E+02  0.16881728490E+02  0.00000000000E+00 0.  1.
</event>
<event>
 8    1  0.1248739E-006  0.9118800E+02  0.7816164E-02  0.1184000E+00
        -11   -1    0    0    0    0  0.00000000000E+00  0.00000000000E+00  0.45593999997E+02  0.45594000000E+02  0.51100000000E-03 0.  1.
         11   -1    0    0    0    0 -0.00000000000E+00 -0.00000000000E+00 -0.45593999997E+02  0.45594000000E+02  0.51100000000E-03 0. -1.
         23    2    1    2    0    0  0.35527136788E-14 -0.35527136788E-14  0.00000000000E+00  0.91188000000E+02  0.91188000000E+02 0.  0.
    9900012    2    3    3    0    0  0.20378197278E+02 -0.28235176262E+02  0.11970209420E+02  0.54367054651E+02  0.39999932688E+02 0.  0.
        -12    1    3    3    0    0 -0.20378197278E+02  0.28235176262E+02 -0.11970209420E+02  0.36820945349E+02  0.00000000000E+00 0.  1.
         11    1    4    4    0    0 -0.10213085709E+02 -0.14556214575E+02  0.95409798419E+01  0.20179712561E+02  0.51100000000E-03 0. -1.
        -11    1    4    4    0    0  0.12042153145E+02 -0.34436506979E+01  0.34042819785E+01  0.12979264946E+02  0.51100000000E-03 0.  1.
         12    1    4    4    0    0  0.18549129842E+02 -0.10235310989E+02 -0.97505239991E+00  0.21208077144E+02  0.00000000000E+00 0. -1.
</event>
<event>
 8    1  0.1248739E-006  0.9118800E+02  0.7816164E-02  0.1184000E+00
        -11   -1    0    0    0    0  0.00000000000E+00  0.00000000000E+00  0.45593999997E+02  0.45594000000E+02  0.51100000000E-03 0.  1.
         11   -1    0    0    0    0 -0.00000000000E+00 -0.00000000000E+00 -0.45593999997E+02  0.45594000000E+02  0.51100000000E-03 0. -1.
         23    2    1    2    0    0  0.00000000000E+00  0.00000000000E+00  0.00000000000E+00  0.91188000000E+02  0.91188000000E+02 0.  0.
    9900012    2    3    3    0    0 -0.24130407628E+02  0.16593368535E+02  0.22319557136E+02  0.54367094492E+02  0.40000023514E+02 0.  0.
         12    1    3    3    0    0  0.24130407628E+02 -0.16593368535E+02 -0.22319557136E+02  0.36820905508E+02  0.00000000000E+00 0. -1.
         11    1    4    4    0    0 -0.41641181557E+01 -0.21853623367E+01  0.50491144022E+01  0.68999452944E+01  0.51100000000E-03 0. -1.
        -11    1    4    4    0    0 -0.25554169136E+02  0.20137850586E+02  0.22609594979E+02  0.39619974405E+02  0.51100000000E-03 0.  1.
        -12    1    4    4    0    0  0.55878796634E+01 -0.13591197142E+01 -0.53391522454E+01  0.78471747929E+01  0.00000000000E+00 0.  1.
</event>
<event>
 8    1  0.1248739E-006  0.9118800E+02  0.7816164E-02  0.1184000E+00
        -11   -1    0    0    0    0  0.00000000000E+00  0.00000000000E+00  0.45593999997E+02  0.45594000000E+02  0.51100000000E-03 0. -1.
         11   -1    0    0    0    0 -0.00000000000E+00 -0.00000000000E+00 -0.45593999997E+02  0.45594000000E+02  0.51100000000E-03 0.  1.
         23    2    1    2    0    0  0.35527136788E-14  0.35527136788E-14  0.00000000000E+00  0.91188000000E+02  0.91188000000E+02 0.  0.
    9900012    2    3    3    0    0 -0.31657391539E+02 -0.16406653811E+02 -0.91875507858E+01  0.54367084507E+02  0.40000000750E+02 0.  0.
         12    1    3    3    0    0  0.31657391539E+02  0.16406653811E+02  0.91875507858E+01  0.36820915493E+02  0.00000000000E+00 0. -1.
         11    1    4    4    0    0 -0.95623612970E+01  0.17620828145E+01  0.65358809324E+01  0.11715862292E+02  0.51100000000E-03 0.  1.
        -11    1    4    4    0    0 -0.11108421091E+01  0.25723925041E+01  0.55903890227E+01  0.62532889804E+01  0.51100000000E-03 0. -1.
        -12    1    4    4    0    0 -0.20984188133E+02 -0.20741129130E+02 -0.21313820741E+02  0.36397933234E+02  0.00000000000E+00 0.  1.
</event>
<event>
 8    1  0.1248739E-006  0.9118800E+02  0.7816164E-02  0.1184000E+00
        -11   -1    0    0    0    0  0.00000000000E+00  0.00000000000E+00  0.45593999997E+02  0.45594000000E+02  0.51100000000E-03 0.  1.
         11   -1    0    0    0    0 -0.00000000000E+00 -0.00000000000E+00 -0.45593999997E+02  0.45594000000E+02  0.51100000000E-03 0. -1.
         23    2    1    2    0    0 -0.26645352591E-14  0.00000000000E+00  0.00000000000E+00  0.91188000000E+02  0.91188000000E+02 0.  0.
    9900012    2    3    3    0    0  0.34221956798E+01 -0.12107189831E+02 -0.34604688939E+02  0.54367082501E+02  0.39999996177E+02 0.  0.
        -12    1    3    3    0    0 -0.34221956798E+01  0.12107189831E+02  0.34604688939E+02  0.36820917499E+02  0.00000000000E+00 0.  1.
         11    1    4    4    0    0 -0.16636094651E+00 -0.21338540655E+01 -0.24725396187E+02  0.24817861028E+02  0.51100000000E-03 0. -1.
        -11    1    4    4    0    0  0.14553311963E+02 -0.72753325517E+01 -0.78933798012E+01  0.18084103455E+02  0.51100000000E-03 0.  1.
        -12    1    4    4    0    0 -0.10964755336E+02 -0.26980032137E+01 -0.19859129514E+01  0.11465118018E+02  0.00000000000E+00 0.  1.
</event>
<event>
 8    1  0.1248739E-006  0.9118800E+02  0.7816164E-02  0.1184000E+00
        -11   -1    0    0    0    0  0.00000000000E+00  0.00000000000E+00  0.45593999997E+02  0.45594000000E+02  0.51100000000E-03 0.  1.
         11   -1    0    0    0    0 -0.00000000000E+00 -0.00000000000E+00 -0.45593999997E+02  0.45594000000E+02  0.51100000000E-03 0. -1.
         23    2    1    2    0    0 -0.35527136788E-14 -0.88817841970E-15  0.00000000000E+00  0.91188000000E+02  0.91188000000E+02 0.  0.
    9900012    2    3    3    0    0  0.28733468149E+02 -0.26289672142E+01 -0.22874779165E+02  0.54367093135E+02  0.40000020421E+02 0.  0.
         12    1    3    3    0    0 -0.28733468149E+02  0.26289672142E+01  0.22874779165E+02  0.36820906865E+02  0.00000000000E+00 0. -1.
         11    1    4    4    0    0  0.18369517983E+00 -0.33861038142E+01 -0.13240547716E+02  0.13667902071E+02  0.51100000000E-03 0. -1.
        -11    1    4    4    0    0  0.15082343695E+02 -0.99564432031E+01 -0.14097830148E+02  0.22920660281E+02  0.51100000000E-03 0.  1.
        -12    1    4    4    0    0  0.13467429275E+02  0.10713579803E+02  0.44635986984E+01  0.17778530783E+02  0.00000000000E+00 0.  1.
</event>
<event>
 8    1  0.1248739E-006  0.9118800E+02  0.7816164E-02  0.1184000E+00
        -11   -1    0    0    0    0  0.00000000000E+00  0.00000000000E+00  0.45593999997E+02  0.45594000000E+02  0.51100000000E-03 0.  1.
         11   -1    0    0    0    0 -0.00000000000E+00 -0.00000000000E+00 -0.45593999997E+02  0.45594000000E+02  0.51100000000E-03 0. -1.
         23    2    1    2    0    0 -0.71054273576E-14  0.17763568394E-14 -0.33306690739E-15  0.91188000000E+02  0.91188000000E+02 0.  0.
    9900012    2    3    3    0    0 -0.33290295232E+02  0.15731685319E+02 -0.22376575283E+00  0.54367085417E+02  0.40000002824E+02 0.  0.
         12    1    3    3    0    0  0.33290295232E+02 -0.15731685319E+02  0.22376575283E+00  0.36820914583E+02  0.00000000000E+00 0. -1.
         11    1    4    4    0    0 -0.86942391693E+01  0.15798672299E+02  0.20631317823E+01  0.18150602033E+02  0.51100000000E-03 0. -1.
        -11    1    4    4    0    0 -0.21796124457E+02  0.51877068657E+01  0.84448624078E+01  0.23943663989E+02  0.51100000000E-03 0.  1.
         12    1    4    4    0    0 -0.27999316060E+01 -0.52546938458E+01 -0.10731759943E+02  0.12272819394E+02  0.00000000000E+00 0. -1.
</event>
<event>
 8    1  0.1248739E-006  0.9118800E+02  0.7816164E-02  0.1184000E+00
        -11   -1    0    0    0    0  0.00000000000E+00  0.00000000000E+00  0.45593999997E+02  0.45594000000E+02  0.51100000000E-03 0.  1.
         11   -1    0    0    0    0 -0.00000000000E+00 -0.00000000000E+00 -0.45593999997E+02  0.45594000000E+02  0.51100000000E-03 0. -1.
         23    2    1    2    0    0  0.00000000000E+00  0.00000000000E+00  0.00000000000E+00  0.91188000000E+02  0.91188000000E+02 0.  0.
    9900012    2    3    3    0    0 -0.17543156843E+02  0.32131152218E+02  0.39503665083E+01  0.54367099815E+02  0.40000035649E+02 0.  0.
         12    1    3    3    0    0  0.17543156843E+02 -0.32131152218E+02 -0.39503665083E+01  0.36820900185E+02  0.00000000000E+00 0. -1.
         11    1    4    4    0    0 -0.60030623670E+00  0.22468302894E+02  0.72301564110E+01  0.23610594328E+02  0.51100000000E-03 0. -1.
        -11    1    4    4    0    0 -0.54980840563E+01  0.11080011003E+02 -0.11264593165E+02  0.16729812657E+02  0.51100000000E-03 0.  1.
        -12    1    4    4    0    0 -0.11444766550E+02 -0.14171616791E+01  0.79848032626E+01  0.14026692830E+02  0.00000000000E+00 0.  1.
</event>
<event>
 8    1  0.1248739E-006  0.9118800E+02  0.7816164E-02  0.1184000E+00
        -11   -1    0    0    0    0  0.00000000000E+00  0.00000000000E+00  0.45593999997E+02  0.45594000000E+02  0.51100000000E-03 0.  1.
         11   -1    0    0    0    0 -0.00000000000E+00 -0.00000000000E+00 -0.45593999997E+02  0.45594000000E+02  0.51100000000E-03 0. -1.
         23    2    1    2    0    0  0.17763568394E-14  0.00000000000E+00 -0.17763568394E-14  0.91188000000E+02  0.91188000000E+02 0.  0.
    9900012    2    3    3    0    0  0.65194683671E+01  0.34947806116E+02 -0.95878385912E+01  0.54367091959E+02  0.40000017738E+02 0.  0.
        -12    1    3    3    0    0 -0.65194683671E+01 -0.34947806116E+02  0.95878385912E+01  0.36820908041E+02  0.00000000000E+00 0.  1.
         11    1    4    4    0    0  0.19686910823E+00  0.27137223117E+02 -0.76063772494E+01  0.28183765027E+02  0.51100000000E-03 0. -1.
        -11    1    4    4    0    0  0.21589165866E+01  0.55768325527E+01 -0.12936994695E+02  0.14252291541E+02  0.51100000000E-03 0.  1.
         12    1    4    4    0    0  0.41636826723E+01  0.22337504462E+01  0.10955533354E+02  0.11931035391E+02  0.00000000000E+00 0. -1.
</event>
<event>
 8    1  0.1248739E-006  0.9118800E+02  0.7816164E-02  0.1184000E+00
        -11   -1    0    0    0    0  0.00000000000E+00  0.00000000000E+00  0.45593999997E+02  0.45594000000E+02  0.51100000000E-03 0. -1.
         11   -1    0    0    0    0 -0.00000000000E+00 -0.00000000000E+00 -0.45593999997E+02  0.45594000000E+02  0.51100000000E-03 0.  1.
         23    2    1    2    0    0  0.35527136788E-14  0.00000000000E+00 -0.35527136788E-14  0.91188000000E+02  0.91188000000E+02 0.  0.
    9900012    2    3    3    0    0 -0.13172181198E+02 -0.14565440184E+02  0.31146777148E+02  0.54367080240E+02  0.39999991024E+02 0.  0.
        -12    1    3    3    0    0  0.13172181198E+02  0.14565440184E+02 -0.31146777148E+02  0.36820919760E+02  0.00000000000E+00 0.  1.
         11    1    4    4    0    0 -0.10409061146E+02  0.10477841545E+01  0.30337705257E+02  0.32090851751E+02  0.51100000000E-03 0. -1.
        -11    1    4    4    0    0 -0.27854890389E+01 -0.31872479887E+01  0.71627923005E+01  0.83200416301E+01  0.51100000000E-03 0.  1.
        -12    1    4    4    0    0  0.22368987179E-01 -0.12425976350E+02 -0.63537204094E+01  0.13956186859E+02  0.00000000000E+00 0.  1.
</event>
<event>
 8    1  0.1248739E-006  0.9118800E+02  0.7816164E-02  0.1184000E+00
        -11   -1    0    0    0    0  0.00000000000E+00  0.00000000000E+00  0.45593999997E+02  0.45594000000E+02  0.51100000000E-03 0.  1.
         11   -1    0    0    0    0 -0.00000000000E+00 -0.00000000000E+00 -0.45593999997E+02  0.45594000000E+02  0.51100000000E-03 0. -1.
         23    2    1    2    0    0  0.00000000000E+00 -0.35527136788E-14  0.00000000000E+00  0.91188000000E+02  0.91188000000E+02 0.  0.
    9900012    2    3    3    0    0 -0.10110510007E+02  0.20030303814E+02  0.29194910886E+02  0.54367105048E+02  0.40000047577E+02 0.  0.
         12    1    3    3    0    0  0.10110510007E+02 -0.20030303814E+02 -0.29194910886E+02  0.36820894952E+02  0.00000000000E+00 0. -1.
         11    1    4    4    0    0 -0.88748373906E+00 -0.56464422512E+01  0.12011078757E+02  0.13301727356E+02  0.51100000000E-03 0. -1.
        -11    1    4    4    0    0  0.13898658253E+01 -0.47691074258E+01  0.13667448175E+01  0.51520970787E+01  0.51100000000E-03 0.  1.
        -12    1    4    4    0    0 -0.10612892093E+02  0.30445853491E+02  0.15817087311E+02  0.35913280613E+02  0.00000000000E+00 0.  1.
</event>
<event>
 8    1  0.1248739E-006  0.9118800E+02  0.7816164E-02  0.1184000E+00
        -11   -1    0    0    0    0  0.00000000000E+00  0.00000000000E+00  0.45593999997E+02  0.45594000000E+02  0.51100000000E-03 0. -1.
         11   -1    0    0    0    0 -0.00000000000E+00 -0.00000000000E+00 -0.45593999997E+02  0.45594000000E+02  0.51100000000E-03 0.  1.
         23    2    1    2    0    0  0.53290705182E-14 -0.35527136788E-14 -0.35527136788E-14  0.91188000000E+02  0.91188000000E+02 0.  0.
    9900012    2    3    3    0    0 -0.15079600681E+02 -0.29456621036E+02  0.16145994981E+02  0.54367081577E+02  0.39999994072E+02 0.  0.
        -12    1    3    3    0    0  0.15079600681E+02  0.29456621036E+02 -0.16145994981E+02  0.36820918423E+02  0.00000000000E+00 0.  1.
         11    1    4    4    0    0 -0.22807722438E+02 -0.23002020983E+02  0.11224070566E+02  0.34282137221E+02  0.51100000000E-03 0. -1.
        -11    1    4    4    0    0  0.11359141262E+02  0.66205982054E+00  0.18629468652E+01  0.11529916943E+02  0.51100000000E-03 0.  1.
        -12    1    4    4    0    0 -0.36310195056E+01 -0.71166598731E+01  0.30589775504E+01  0.85550274140E+01  0.00000000000E+00 0.  1.
</event>
<event>
 8    1  0.1248739E-006  0.9118800E+02  0.7816164E-02  0.1184000E+00
        -11   -1    0    0    0    0  0.00000000000E+00  0.00000000000E+00  0.45593999997E+02  0.45594000000E+02  0.51100000000E-03 0.  1.
         11   -1    0    0    0    0 -0.00000000000E+00 -0.00000000000E+00 -0.45593999997E+02  0.45594000000E+02  0.51100000000E-03 0. -1.
         23    2    1    2    0    0  0.71054273576E-14 -0.17763568394E-14  0.44408920985E-15  0.91188000000E+02  0.91188000000E+02 0.  0.
    9900012    2    3    3    0    0 -0.33175920489E+02  0.15755993306E+02 -0.26243752320E+01  0.54367076998E+02  0.39999983632E+02 0.  0.
        -12    1    3    3    0    0  0.33175920489E+02 -0.15755993306E+02  0.26243752320E+01  0.36820923002E+02  0.00000000000E+00 0.  1.
         11    1    4    4    0    0 -0.15804626524E+02  0.17481042365E+01 -0.14389687681E+02  0.21445400435E+02  0.51100000000E-03 0. -1.
        -11    1    4    4    0    0  0.18803244735E+01 -0.34583145901E+01  0.44008422692E+01  0.59044875196E+01  0.51100000000E-03 0.  1.
        -12    1    4    4    0    0 -0.19251618439E+02  0.17466203659E+02  0.73644701799E+01  0.27017189043E+02  0.00000000000E+00 0.  1.
</event>
<event>
 8    1  0.1248739E-006  0.9118800E+02  0.7816164E-02  0.1184000E+00
        -11   -1    0    0    0    0  0.00000000000E+00  0.00000000000E+00  0.45593999997E+02  0.45594000000E+02  0.51100000000E-03 0.  1.
         11   -1    0    0    0    0 -0.00000000000E+00 -0.00000000000E+00 -0.45593999997E+02  0.45594000000E+02  0.51100000000E-03 0. -1.
         23    2    1    2    0    0 -0.35527136788E-14  0.00000000000E+00  0.35527136788E-14  0.91188000000E+02  0.91188000000E+02 0.  0.
    9900012    2    3    3    0    0  0.24476810990E+02 -0.21264952426E+02  0.17448967947E+02  0.54367096150E+02  0.40000027294E+02 0.  0.
         12    1    3    3    0    0 -0.24476810990E+02  0.21264952426E+02 -0.17448967947E+02  0.36820903850E+02  0.00000000000E+00 0. -1.
         11    1    4    4    0    0 -0.30501747935E+01  0.49404076764E+01  0.13690744377E+02  0.14871034803E+02  0.51100000000E-03 0. -1.
        -11    1    4    4    0    0  0.17088707395E+02 -0.20074688353E+02 -0.12562608530E+01  0.26393090469E+02  0.51100000000E-03 0.  1.
        -12    1    4    4    0    0  0.10438278388E+02 -0.61306717488E+01  0.50144844230E+01  0.13102970878E+02  0.00000000000E+00 0.  1.
</event>
<event>
 8    1  0.1248739E-006  0.9118800E+02  0.7816164E-02  0.1184000E+00
        -11   -1    0    0    0    0  0.00000000000E+00  0.00000000000E+00  0.45593999997E+02  0.45594000000E+02  0.51100000000E-03 0. -1.
         11   -1    0    0    0    0 -0.00000000000E+00 -0.00000000000E+00 -0.45593999997E+02  0.45594000000E+02  0.51100000000E-03 0.  1.
         23    2    1    2    0    0  0.00000000000E+00  0.00000000000E+00  0.71054273576E-14  0.91188000000E+02  0.91188000000E+02 0.  0.
    9900012    2    3    3    0    0 -0.15293516467E+02  0.11530479174E+02  0.31447343553E+02  0.54367095442E+02  0.40000025678E+02 0.  0.
        -12    1    3    3    0    0  0.15293516467E+02 -0.11530479174E+02 -0.31447343553E+02  0.36820904558E+02  0.00000000000E+00 0.  1.
         11    1    4    4    0    0 -0.94822384107E+01  0.11044482064E+01  0.32030046990E+02  0.33422396108E+02  0.51100000000E-03 0. -1.
        -11    1    4    4    0    0 -0.43977941361E+00  0.29735062840E+01 -0.83752118787E+01  0.88982762278E+01  0.51100000000E-03 0.  1.
        -12    1    4    4    0    0 -0.53714986429E+01  0.74525246841E+01  0.77925084416E+01  0.12046423106E+02  0.00000000000E+00 0.  1.
</event>
<event>
 8    1  0.1248739E-006  0.9118800E+02  0.7816164E-02  0.1184000E+00
        -11   -1    0    0    0    0  0.00000000000E+00  0.00000000000E+00  0.45593999997E+02  0.45594000000E+02  0.51100000000E-03 0.  1.
         11   -1    0    0    0    0 -0.00000000000E+00 -0.00000000000E+00 -0.45593999997E+02  0.45594000000E+02  0.51100000000E-03 0. -1.
         23    2    1    2    0    0  0.00000000000E+00 -0.35527136788E-14 -0.35527136788E-14  0.91188000000E+02  0.91188000000E+02 0.  0.
    9900012    2    3    3    0    0 -0.16825304942E+02  0.23973041148E+02 -0.22315515647E+02  0.54367084383E+02  0.40000000468E+02 0.  0.
        -12    1    3    3    0    0  0.16825304942E+02 -0.23973041148E+02  0.22315515647E+02  0.36820915617E+02  0.00000000000E+00 0.  1.
         11    1    4    4    0    0 -0.92738613250E+01 -0.19044842058E+01 -0.89482383181E+01  0.13026992486E+02  0.51100000000E-03 0. -1.
        -11    1    4    4    0    0 -0.63728799058E+01  0.24475504872E+01  0.73578245181E+01  0.10037015671E+02  0.51100000000E-03 0.  1.
         12    1    4    4    0    0 -0.11785637110E+01  0.23429974866E+02 -0.20725101847E+02  0.31303076226E+02  0.00000000000E+00 0. -1.
</event>
<event>
 8    1  0.1248739E-006  0.9118800E+02  0.7816164E-02  0.1184000E+00
        -11   -1    0    0    0    0  0.00000000000E+00  0.00000000000E+00  0.45593999997E+02  0.45594000000E+02  0.51100000000E-03 0. -1.
         11   -1    0    0    0    0 -0.00000000000E+00 -0.00000000000E+00 -0.45593999997E+02  0.45594000000E+02  0.51100000000E-03 0.  1.
         23    2    1    2    0    0  0.00000000000E+00 -0.71054273576E-14  0.00000000000E+00  0.91188000000E+02  0.91188000000E+02 0.  0.
    9900012    2    3    3    0    0 -0.22815651416E+02 -0.28603826024E+02 -0.41286118269E+01  0.54367105818E+02  0.40000049333E+02 0.  0.
         12    1    3    3    0    0  0.22815651416E+02  0.28603826024E+02  0.41286118269E+01  0.36820894182E+02  0.00000000000E+00 0. -1.
         11    1    4    4    0    0  0.41726557191E+01  0.11516289776E+01  0.21095598954E+01  0.48153450827E+01  0.51100000000E-03 0. -1.
        -11    1    4    4    0    0 -0.22699414983E+02 -0.18526946443E+02  0.85239929038E+01  0.30515072347E+02  0.51100000000E-03 0.  1.
         12    1    4    4    0    0 -0.42888921521E+01 -0.11228508558E+02 -0.14762164626E+02  0.19036688388E+02  0.00000000000E+00 0. -1.
</event>
<event>
 8    1  0.1248739E-006  0.9118800E+02  0.7816164E-02  0.1184000E+00
        -11   -1    0    0    0    0  0.00000000000E+00  0.00000000000E+00  0.45593999997E+02  0.45594000000E+02  0.51100000000E-03 0.  1.
         11   -1    0    0    0    0 -0.00000000000E+00 -0.00000000000E+00 -0.45593999997E+02  0.45594000000E+02  0.51100000000E-03 0. -1.
         23    2    1    2    0    0  0.00000000000E+00  0.00000000000E+00  0.88817841970E-15  0.91188000000E+02  0.91188000000E+02 0.  0.
    9900012    2    3    3    0    0  0.35538371439E+02 -0.85910130919E+01  0.43587912843E+01  0.54367076439E+02  0.39999982357E+02 0.  0.
         12    1    3    3    0    0 -0.35538371439E+02  0.85910130919E+01 -0.43587912843E+01  0.36820923561E+02  0.00000000000E+00 0. -1.
         11    1    4    4    0    0 -0.41421912274E+01  0.77338350409E+01 -0.46537122732E+01  0.99311122633E+01  0.51100000000E-03 0. -1.
        -11    1    4    4    0    0  0.76167254771E+01 -0.35055541109E+01  0.47653343276E+01  0.96442640016E+01  0.51100000000E-03 0.  1.
         12    1    4    4    0    0  0.32063837189E+02 -0.12819294022E+02  0.42471692298E+01  0.34791700174E+02  0.00000000000E+00 0. -1.
</event>
<event>
 8    1  0.1248739E-006  0.9118800E+02  0.7816164E-02  0.1184000E+00
        -11   -1    0    0    0    0  0.00000000000E+00  0.00000000000E+00  0.45593999997E+02  0.45594000000E+02  0.51100000000E-03 0.  1.
         11   -1    0    0    0    0 -0.00000000000E+00 -0.00000000000E+00 -0.45593999997E+02  0.45594000000E+02  0.51100000000E-03 0. -1.
         23    2    1    2    0    0 -0.35527136788E-14 -0.22204460493E-15  0.00000000000E+00  0.91188000000E+02  0.91188000000E+02 0.  0.
    9900012    2    3    3    0    0  0.27394869202E+02  0.15731325670E+01 -0.24552569311E+02  0.54367051282E+02  0.39999925009E+02 0.  0.
        -12    1    3    3    0    0 -0.27394869202E+02 -0.15731325670E+01  0.24552569311E+02  0.36820948718E+02  0.00000000000E+00 0.  1.
         11    1    4    4    0    0  0.37798212089E+01  0.33479242090E+01 -0.21234524346E+02  0.21826604622E+02  0.51100000000E-03 0. -1.
        -11    1    4    4    0    0  0.18196719968E+02  0.88559723837E+01 -0.32981115377E+00  0.20240000991E+02  0.51100000000E-03 0.  1.
         12    1    4    4    0    0  0.54183280252E+01 -0.10630764026E+02 -0.29882338122E+01  0.12300445670E+02  0.00000000000E+00 0. -1.
</event>
<event>
 8    1  0.1248739E-006  0.9118800E+02  0.7816164E-02  0.1184000E+00
        -11   -1    0    0    0    0  0.00000000000E+00  0.00000000000E+00  0.45593999997E+02  0.45594000000E+02  0.51100000000E-03 0.  1.
         11   -1    0    0    0    0 -0.00000000000E+00 -0.00000000000E+00 -0.45593999997E+02  0.45594000000E+02  0.51100000000E-03 0. -1.
         23    2    1    2    0    0  0.00000000000E+00  0.00000000000E+00  0.35527136788E-14  0.91188000000E+02  0.91188000000E+02 0.  0.
    9900012    2    3    3    0    0 -0.26545759108E+02 -0.48362855049E+01 -0.25054181611E+02  0.54367095607E+02  0.40000026055E+02 0.  0.
        -12    1    3    3    0    0  0.26545759108E+02  0.48362855049E+01  0.25054181611E+02  0.36820904393E+02  0.00000000000E+00 0.  1.
         11    1    4    4    0    0 -0.99046319787E+01  0.14991935405E+01 -0.24118586210E+02  0.26116192619E+02  0.51100000000E-03 0. -1.
        -11    1    4    4    0    0 -0.21971825873E+02 -0.46381664195E+01 -0.20401088427E+01  0.22548520224E+02  0.51100000000E-03 0.  1.
         12    1    4    4    0    0  0.53306987434E+01 -0.16973126259E+01  0.11045134418E+01  0.57023827639E+01  0.00000000000E+00 0. -1.
</event>
<event>
 8    1  0.1248739E-006  0.9118800E+02  0.7816164E-02  0.1184000E+00
        -11   -1    0    0    0    0  0.00000000000E+00  0.00000000000E+00  0.45593999997E+02  0.45594000000E+02  0.51100000000E-03 0.  1.
         11   -1    0    0    0    0 -0.00000000000E+00 -0.00000000000E+00 -0.45593999997E+02  0.45594000000E+02  0.51100000000E-03 0. -1.
         23    2    1    2    0    0  0.00000000000E+00  0.00000000000E+00 -0.88817841970E-15  0.91188000000E+02  0.91188000000E+02 0.  0.
    9900012    2    3    3    0    0  0.31279287784E+02  0.18409728445E+02 -0.62022012530E+01  0.54367092270E+02  0.40000018448E+02 0.  0.
        -12    1    3    3    0    0 -0.31279287784E+02 -0.18409728445E+02  0.62022012530E+01  0.36820907730E+02  0.00000000000E+00 0.  1.
         11    1    4    4    0    0  0.13279194861E+02  0.16514545222E+02 -0.10579104420E+02  0.23685114959E+02  0.51100000000E-03 0. -1.
        -11    1    4    4    0    0 -0.25271267398E+01  0.79446969368E+01 -0.15422252309E+01  0.84783865152E+01  0.51100000000E-03 0.  1.
         12    1    4    4    0    0  0.20527219662E+02 -0.60495137137E+01  0.59191283979E+01  0.22203590796E+02  0.00000000000E+00 0. -1.
</event>
<event>
 8    1  0.1248739E-006  0.9118800E+02  0.7816164E-02  0.1184000E+00
        -11   -1    0    0    0    0  0.00000000000E+00  0.00000000000E+00  0.45593999997E+02  0.45594000000E+02  0.51100000000E-03 0.  1.
         11   -1    0    0    0    0 -0.00000000000E+00 -0.00000000000E+00 -0.45593999997E+02  0.45594000000E+02  0.51100000000E-03 0. -1.
         23    2    1    2    0    0  0.15543122345E-14  0.00000000000E+00  0.00000000000E+00  0.91188000000E+02  0.91188000000E+02 0.  0.
    9900012    2    3    3    0    0  0.14415990529E+01  0.20214848997E+02  0.30741852398E+02  0.54367084522E+02  0.40000000784E+02 0.  0.
         12    1    3    3    0    0 -0.14415990529E+01 -0.20214848997E+02 -0.30741852398E+02  0.36820915478E+02  0.00000000000E+00 0. -1.
         11    1    4    4    0    0  0.11705572404E+02  0.17466315599E+02  0.23122472222E+02  0.31252861115E+02  0.51100000000E-03 0. -1.
        -11    1    4    4    0    0 -0.66787195146E+00 -0.58823593051E+01  0.82939886587E+01  0.10190115410E+02  0.51100000000E-03 0.  1.
         12    1    4    4    0    0 -0.95961013998E+01  0.86308927023E+01 -0.67460848244E+00  0.12924107997E+02  0.00000000000E+00 0. -1.
</event>
<event>
 8    1  0.1248739E-006  0.9118800E+02  0.7816164E-02  0.1184000E+00
        -11   -1    0    0    0    0  0.00000000000E+00  0.00000000000E+00  0.45593999997E+02  0.45594000000E+02  0.51100000000E-03 0. -1.
         11   -1    0    0    0    0 -0.00000000000E+00 -0.00000000000E+00 -0.45593999997E+02  0.45594000000E+02  0.51100000000E-03 0.  1.
         23    2    1    2    0    0  0.00000000000E+00  0.17763568394E-14  0.00000000000E+00  0.91188000000E+02  0.91188000000E+02 0.  0.
    9900012    2    3    3    0    0 -0.33574363955E+02  0.13958546245E+02 -0.58052110422E+01  0.54367090132E+02  0.40000013574E+02 0.  0.
         12    1    3    3    0    0  0.33574363955E+02 -0.13958546245E+02  0.58052110422E+01  0.36820909868E+02  0.00000000000E+00 0. -1.
         11    1    4    4    0    0 -0.23457183932E+02 -0.79075396045E+01  0.11519570332E+01  0.24780953692E+02  0.51100000000E-03 0. -1.
        -11    1    4    4    0    0 -0.13336008429E+02  0.20661090327E+02 -0.82136191481E+01  0.25926691152E+02  0.51100000000E-03 0.  1.
        -12    1    4    4    0    0  0.32188284058E+01  0.12049955227E+01  0.12564510727E+01  0.36594452877E+01  0.00000000000E+00 0.  1.
</event>
<event>
 8    1  0.1248739E-006  0.9118800E+02  0.7816164E-02  0.1184000E+00
        -11   -1    0    0    0    0  0.00000000000E+00  0.00000000000E+00  0.45593999997E+02  0.45594000000E+02  0.51100000000E-03 0.  1.
         11   -1    0    0    0    0 -0.00000000000E+00 -0.00000000000E+00 -0.45593999997E+02  0.45594000000E+02  0.51100000000E-03 0. -1.
         23    2    1    2    0    0  0.00000000000E+00  0.00000000000E+00  0.00000000000E+00  0.91188000000E+02  0.91188000000E+02 0.  0.
    9900012    2    3    3    0    0 -0.27127070724E+02  0.74440202961E+01  0.23758985573E+02  0.54367071173E+02  0.39999970354E+02 0.  0.
         12    1    3    3    0    0  0.27127070724E+02 -0.74440202961E+01 -0.23758985573E+02  0.36820928827E+02  0.00000000000E+00 0. -1.
         11    1    4    4    0    0 -0.18000793749E+01  0.10968827415E+02  0.23442509725E+02  0.25944300396E+02  0.51100000000E-03 0. -1.
        -11    1    4    4    0    0 -0.14430376285E+02  0.55545375761E+00  0.57970148781E+01  0.15561159030E+02  0.51100000000E-03 0.  1.
        -12    1    4    4    0    0 -0.10896615063E+02 -0.40802608762E+01 -0.54805390301E+01  0.12861611747E+02  0.00000000000E+00 0.  1.
</event>
<event>
 8    1  0.1248739E-006  0.9118800E+02  0.7816164E-02  0.1184000E+00
        -11   -1    0    0    0    0  0.00000000000E+00  0.00000000000E+00  0.45593999997E+02  0.45594000000E+02  0.51100000000E-03 0.  1.
         11   -1    0    0    0    0 -0.00000000000E+00 -0.00000000000E+00 -0.45593999997E+02  0.45594000000E+02  0.51100000000E-03 0. -1.
         23    2    1    2    0    0  0.00000000000E+00  0.00000000000E+00  0.00000000000E+00  0.91188000000E+02  0.91188000000E+02 0.  0.
    9900012    2    3    3    0    0  0.34900562751E+02 -0.11221858203E+02 -0.34350197816E+01  0.54367099105E+02  0.40000034029E+02 0.  0.
        -12    1    3    3    0    0 -0.34900562751E+02  0.11221858203E+02  0.34350197816E+01  0.36820900895E+02  0.00000000000E+00 0.  1.
         11    1    4    4    0    0  0.21296325470E+02 -0.61711347737E+01 -0.11443157107E+02  0.24951196920E+02  0.51100000000E-03 0. -1.
        -11    1    4    4    0    0  0.31829021706E+01 -0.13554864207E+02  0.32908042108E+00  0.13927437096E+02  0.51100000000E-03 0.  1.
         12    1    4    4    0    0  0.10421335110E+02  0.85041407779E+01  0.76790569038E+01  0.15488465088E+02  0.00000000000E+00 0. -1.
</event>
<event>
 8    1  0.1248739E-006  0.9118800E+02  0.7816164E-02  0.1184000E+00
        -11   -1    0    0    0    0  0.00000000000E+00  0.00000000000E+00  0.45593999997E+02  0.45594000000E+02  0.51100000000E-03 0.  1.
         11   -1    0    0    0    0 -0.00000000000E+00 -0.00000000000E+00 -0.45593999997E+02  0.45594000000E+02  0.51100000000E-03 0. -1.
         23    2    1    2    0    0 -0.17763568394E-14  0.00000000000E+00  0.71054273576E-14  0.91188000000E+02  0.91188000000E+02 0.  0.
    9900012    2    3    3    0    0  0.92440019616E+01  0.85009028474E+01 -0.34613044912E+02  0.54367084754E+02  0.40000001313E+02 0.  0.
        -12    1    3    3    0    0 -0.92440019616E+01 -0.85009028474E+01  0.34613044912E+02  0.36820915246E+02  0.00000000000E+00 0.  1.
         11    1    4    4    0    0  0.77652777345E+01  0.15487933742E+02 -0.16998044928E+02  0.24271571056E+02  0.51100000000E-03 0. -1.
        -11    1    4    4    0    0 -0.54289674729E+01  0.46265128482E+01  0.88340734067E+00  0.71873999295E+01  0.51100000000E-03 0.  1.
        -12    1    4    4    0    0  0.69076917000E+01 -0.11613543742E+02 -0.18498407325E+02  0.22908113769E+02  0.00000000000E+00 0.  1.
</event>
<event>
 8    1  0.1248739E-006  0.9118800E+02  0.7816164E-02  0.1184000E+00
        -11   -1    0    0    0    0  0.00000000000E+00  0.00000000000E+00  0.45593999997E+02  0.45594000000E+02  0.51100000000E-03 0.  1.
         11   -1    0    0    0    0 -0.00000000000E+00 -0.00000000000E+00 -0.45593999997E+02  0.45594000000E+02  0.51100000000E-03 0. -1.
         23    2    1    2    0    0  0.71054273576E-14 -0.44408920985E-15  0.35527136788E-14  0.91188000000E+02  0.91188000000E+02 0.  0.
    9900012    2    3    3    0    0  0.35982024994E+02  0.54645302883E+00  0.77958621375E+01  0.54367079316E+02  0.39999988916E+02 0.  0.
         12    1    3    3    0    0 -0.35982024994E+02 -0.54645302883E+00 -0.77958621375E+01  0.36820920684E+02  0.00000000000E+00 0. -1.
         11    1    4    4    0    0 -0.32867625714E+01  0.35135924211E+01 -0.83411331283E+01  0.96292596822E+01  0.51100000000E-03 0. -1.
        -11    1    4    4    0    0  0.16053846376E+02  0.22064460086E+01  0.38335924038E+00  0.16209298320E+02  0.51100000000E-03 0.  1.
         12    1    4    4    0    0  0.23214941189E+02 -0.51735854008E+01  0.15753636025E+02  0.28528521313E+02  0.00000000000E+00 0. -1.
</event>
<event>
 8    1  0.1248739E-006  0.9118800E+02  0.7816164E-02  0.1184000E+00
        -11   -1    0    0    0    0  0.00000000000E+00  0.00000000000E+00  0.45593999997E+02  0.45594000000E+02  0.51100000000E-03 0.  1.
         11   -1    0    0    0    0 -0.00000000000E+00 -0.00000000000E+00 -0.45593999997E+02  0.45594000000E+02  0.51100000000E-03 0. -1.
         23    2    1    2    0    0  0.00000000000E+00  0.71054273576E-14  0.00000000000E+00  0.91188000000E+02  0.91188000000E+02 0.  0.
    9900012    2    3    3    0    0 -0.83168861096E+01  0.30883373347E+02  0.18243516212E+02  0.54367092520E+02  0.40000019019E+02 0.  0.
         12    1    3    3    0    0  0.83168861096E+01 -0.30883373347E+02 -0.18243516212E+02  0.36820907480E+02  0.00000000000E+00 0. -1.
         11    1    4    4    0    0 -0.16061072004E+02  0.34600951520E+01  0.49677956909E+01  0.17164186164E+02  0.51100000000E-03 0. -1.
        -11    1    4    4    0    0  0.89401554119E+01  0.27796462423E+02  0.59856958278E+01  0.29806010414E+02  0.51100000000E-03 0.  1.
         12    1    4    4    0    0 -0.11959695173E+01 -0.37318422801E+00  0.72900246930E+01  0.73968959421E+01  0.00000000000E+00 0. -1.
</event>
<event>
 8    1  0.1248739E-006  0.9118800E+02  0.7816164E-02  0.1184000E+00
        -11   -1    0    0    0    0  0.00000000000E+00  0.00000000000E+00  0.45593999997E+02  0.45594000000E+02  0.51100000000E-03 0. -1.
         11   -1    0    0    0    0 -0.00000000000E+00 -0.00000000000E+00 -0.45593999997E+02  0.45594000000E+02  0.51100000000E-03 0.  1.
         23    2    1    2    0    0  0.35527136788E-14 -0.88817841970E-15 -0.35527136788E-14  0.91188000000E+02  0.91188000000E+02 0.  0.
    9900012    2    3    3    0    0 -0.21971606948E+02  0.65351512686E+01  0.28815283312E+02  0.54367078416E+02  0.39999986864E+02 0.  0.
        -12    1    3    3    0    0  0.21971606948E+02 -0.65351512686E+01 -0.28815283312E+02  0.36820921584E+02  0.00000000000E+00 0.  1.
         11    1    4    4    0    0 -0.47074993142E+01  0.92689392491E+01  0.17767558721E+02  0.20585429987E+02  0.51100000000E-03 0. -1.
        -11    1    4    4    0    0  0.15885998931E+01  0.41700801945E+01  0.12870376920E+02  0.13622034385E+02  0.51100000000E-03 0.  1.
         12    1    4    4    0    0 -0.18852707527E+02 -0.69038681750E+01 -0.18226523292E+01  0.20159614044E+02  0.00000000000E+00 0. -1.
</event>
<event>
 8    1  0.1248739E-006  0.9118800E+02  0.7816164E-02  0.1184000E+00
        -11   -1    0    0    0    0  0.00000000000E+00  0.00000000000E+00  0.45593999997E+02  0.45594000000E+02  0.51100000000E-03 0.  1.
         11   -1    0    0    0    0 -0.00000000000E+00 -0.00000000000E+00 -0.45593999997E+02  0.45594000000E+02  0.51100000000E-03 0. -1.
         23    2    1    2    0    0  0.00000000000E+00  0.00000000000E+00  0.35527136788E-14  0.91188000000E+02  0.91188000000E+02 0.  0.
    9900012    2    3    3    0    0 -0.38412240096E+01 -0.27656594118E+02 -0.24002922492E+02  0.54367048244E+02  0.39999918081E+02 0.  0.
         12    1    3    3    0    0  0.38412240096E+01  0.27656594118E+02  0.24002922492E+02  0.36820951756E+02  0.00000000000E+00 0. -1.
         11    1    4    4    0    0 -0.89765198559E+01 -0.62563686183E+01 -0.18077841397E+02  0.21131218774E+02  0.51100000000E-03 0. -1.
        -11    1    4    4    0    0 -0.90846924764E+01 -0.13682766312E+02 -0.42840802904E+01  0.16973599369E+02  0.51100000000E-03 0.  1.
         12    1    4    4    0    0  0.14219988323E+02 -0.77174591876E+01 -0.16410008042E+01  0.16262230101E+02  0.00000000000E+00 0. -1.
</event>
<event>
 8    1  0.1248739E-006  0.9118800E+02  0.7816164E-02  0.1184000E+00
        -11   -1    0    0    0    0  0.00000000000E+00  0.00000000000E+00  0.45593999997E+02  0.45594000000E+02  0.51100000000E-03 0.  1.
         11   -1    0    0    0    0 -0.00000000000E+00 -0.00000000000E+00 -0.45593999997E+02  0.45594000000E+02  0.51100000000E-03 0. -1.
         23    2    1    2    0    0  0.17763568394E-14  0.35527136788E-14  0.00000000000E+00  0.91188000000E+02  0.91188000000E+02 0.  0.
    9900012    2    3    3    0    0 -0.46356157409E+01  0.28949716456E+02  0.22275666664E+02  0.54367077395E+02  0.39999984536E+02 0.  0.
         12    1    3    3    0    0  0.46356157409E+01 -0.28949716456E+02 -0.22275666664E+02  0.36820922605E+02  0.00000000000E+00 0. -1.
         11    1    4    4    0    0  0.14169600715E+02  0.43243486774E+01  0.52600787157E+01  0.15720877974E+02  0.51100000000E-03 0. -1.
        -11    1    4    4    0    0 -0.11203632275E+02  0.39428455423E+01  0.99846361238E+01  0.15516454683E+02  0.51100000000E-03 0.  1.
         12    1    4    4    0    0 -0.76015841805E+01  0.20682522236E+02  0.70309518244E+01  0.23129744739E+02  0.00000000000E+00 0. -1.
</event>
<event>
 8    1  0.1248739E-006  0.9118800E+02  0.7816164E-02  0.1184000E+00
        -11   -1    0    0    0    0  0.00000000000E+00  0.00000000000E+00  0.45593999997E+02  0.45594000000E+02  0.51100000000E-03 0. -1.
         11   -1    0    0    0    0 -0.00000000000E+00 -0.00000000000E+00 -0.45593999997E+02  0.45594000000E+02  0.51100000000E-03 0.  1.
         23    2    1    2    0    0  0.00000000000E+00 -0.35527136788E-14  0.00000000000E+00  0.91188000000E+02  0.91188000000E+02 0.  0.
    9900012    2    3    3    0    0 -0.16556050633E+02 -0.31911634767E+02  0.79577643265E+01  0.54367064934E+02  0.39999956130E+02 0.  0.
        -12    1    3    3    0    0  0.16556050633E+02  0.31911634767E+02 -0.79577643265E+01  0.36820935066E+02  0.00000000000E+00 0.  1.
         11    1    4    4    0    0 -0.16459482631E+02 -0.85689256414E+00  0.52698960251E+01  0.17303775245E+02  0.51100000000E-03 0. -1.
        -11    1    4    4    0    0 -0.75854362877E+01 -0.25435049522E+02 -0.19520666582E+01  0.26613739917E+02  0.51100000000E-03 0.  1.
        -12    1    4    4    0    0  0.74888682852E+01 -0.56196926807E+01  0.46399349595E+01  0.10449549773E+02  0.00000000000E+00 0.  1.
</event>
<event>
 8    1  0.1248739E-006  0.9118800E+02  0.7816164E-02  0.1184000E+00
        -11   -1    0    0    0    0  0.00000000000E+00  0.00000000000E+00  0.45593999997E+02  0.45594000000E+02  0.51100000000E-03 0. -1.
         11   -1    0    0    0    0 -0.00000000000E+00 -0.00000000000E+00 -0.45593999997E+02  0.45594000000E+02  0.51100000000E-03 0.  1.
         23    2    1    2    0    0 -0.35527136788E-14  0.17763568394E-14  0.53290705182E-14  0.91188000000E+02  0.91188000000E+02 0.  0.
    9900012    2    3    3    0    0 -0.30386206485E+02  0.14182728023E+02 -0.15208839709E+02  0.54367080348E+02  0.39999991268E+02 0.  0.
         12    1    3    3    0    0  0.30386206485E+02 -0.14182728023E+02  0.15208839709E+02  0.36820919652E+02  0.00000000000E+00 0. -1.
         11    1    4    4    0    0 -0.12881944163E+02  0.47643665876E+01  0.16408303604E+01  0.13832425635E+02  0.51100000000E-03 0. -1.
        -11    1    4    4    0    0 -0.55157033582E+01  0.15504864055E+02  0.28323625108E+01  0.16698684696E+02  0.51100000000E-03 0.  1.
        -12    1    4    4    0    0 -0.11988558964E+02 -0.60865026196E+01 -0.19682032580E+02  0.23835970017E+02  0.00000000000E+00 0.  1.
</event>
<event>
 8    1  0.1248739E-006  0.9118800E+02  0.7816164E-02  0.1184000E+00
        -11   -1    0    0    0    0  0.00000000000E+00  0.00000000000E+00  0.45593999997E+02  0.45594000000E+02  0.51100000000E-03 0.  1.
         11   -1    0    0    0    0 -0.00000000000E+00 -0.00000000000E+00 -0.45593999997E+02  0.45594000000E+02  0.51100000000E-03 0. -1.
         23    2    1    2    0    0  0.00000000000E+00  0.00000000000E+00  0.17763568394E-14  0.91188000000E+02  0.91188000000E+02 0.  0.
    9900012    2    3    3    0    0 -0.20763909475E+02  0.27940228897E+02  0.11999334634E+02  0.54367077155E+02  0.39999983990E+02 0.  0.
         12    1    3    3    0    0  0.20763909475E+02 -0.27940228897E+02 -0.11999334634E+02  0.36820922845E+02  0.00000000000E+00 0. -1.
         11    1    4    4    0    0  0.40502303863E+01  0.20727973807E+02 -0.19833910155E+01  0.21212899483E+02  0.51100000000E-03 0. -1.
        -11    1    4    4    0    0 -0.39209777076E+01  0.26426675050E+01  0.10459838425E+02  0.11478936269E+02  0.51100000000E-03 0.  1.
         12    1    4    4    0    0 -0.20893162154E+02  0.45695875852E+01  0.35228872246E+01  0.21675241403E+02  0.00000000000E+00 0. -1.
</event>
<event>
 8    1  0.1248739E-006  0.9118800E+02  0.7816164E-02  0.1184000E+00
        -11   -1    0    0    0    0  0.00000000000E+00  0.00000000000E+00  0.45593999997E+02  0.45594000000E+02  0.51100000000E-03 0.  1.
         11   -1    0    0    0    0 -0.00000000000E+00 -0.00000000000E+00 -0.45593999997E+02  0.45594000000E+02  0.51100000000E-03 0. -1.
         23    2    1    2    0    0 -0.17763568394E-14  0.00000000000E+00  0.00000000000E+00  0.91188000000E+02  0.91188000000E+02 0.  0.
    9900012    2    3    3    0    0  0.12071608991E+02  0.28414509987E+02 -0.20066670362E+02  0.54367090440E+02  0.40000014275E+02 0.  0.
        -12    1    3    3    0    0 -0.12071608991E+02 -0.28414509987E+02  0.20066670362E+02  0.36820909560E+02  0.00000000000E+00 0.  1.
         11    1    4    4    0    0 -0.51730381095E+01  0.12954271682E+02  0.56702260126E+00  0.13960479683E+02  0.51100000000E-03 0. -1.
        -11    1    4    4    0    0  0.69101606211E+01 -0.71097507421E+01 -0.56485649862E+01  0.11410747657E+02  0.51100000000E-03 0.  1.
        -12    1    4    4    0    0  0.10334486480E+02  0.22569989047E+02 -0.14985127977E+02  0.28995863099E+02  0.00000000000E+00 0.  1.
</event>
<event>
 8    1  0.1248739E-006  0.9118800E+02  0.7816164E-02  0.1184000E+00
        -11   -1    0    0    0    0  0.00000000000E+00  0.00000000000E+00  0.45593999997E+02  0.45594000000E+02  0.51100000000E-03 0. -1.
         11   -1    0    0    0    0 -0.00000000000E+00 -0.00000000000E+00 -0.45593999997E+02  0.45594000000E+02  0.51100000000E-03 0.  1.
         23    2    1    2    0    0  0.00000000000E+00  0.00000000000E+00  0.35527136788E-14  0.91188000000E+02  0.91188000000E+02 0.  0.
    9900012    2    3    3    0    0 -0.21891268973E+02  0.12494585514E+02  0.26840916775E+02  0.54367120900E+02  0.40000083715E+02 0.  0.
        -12    1    3    3    0    0  0.21891268973E+02 -0.12494585514E+02 -0.26840916775E+02  0.36820879100E+02  0.00000000000E+00 0.  1.
         11    1    4    4    0    0 -0.11912183049E+02 -0.83893676042E+01  0.66144948235E+01  0.16001035461E+02  0.51100000000E-03 0. -1.
        -11    1    4    4    0    0 -0.14273711179E+02  0.10645952190E+02  0.32791589212E+01  0.18106021439E+02  0.51100000000E-03 0.  1.
        -12    1    4    4    0    0  0.42946252546E+01  0.10238000928E+02  0.16947263030E+02  0.20260064000E+02  0.00000000000E+00 0.  1.
</event>
<event>
 8    1  0.1248739E-006  0.9118800E+02  0.7816164E-02  0.1184000E+00
        -11   -1    0    0    0    0  0.00000000000E+00  0.00000000000E+00  0.45593999997E+02  0.45594000000E+02  0.51100000000E-03 0.  1.
         11   -1    0    0    0    0 -0.00000000000E+00 -0.00000000000E+00 -0.45593999997E+02  0.45594000000E+02  0.51100000000E-03 0. -1.
         23    2    1    2    0    0  0.00000000000E+00  0.00000000000E+00 -0.35527136788E-14  0.91188000000E+02  0.91188000000E+02 0.  0.
    9900012    2    3    3    0    0 -0.10399923954E+02  0.33266484827E+02 -0.11872724881E+02  0.54367095243E+02  0.40000025226E+02 0.  0.
        -12    1    3    3    0    0  0.10399923954E+02 -0.33266484827E+02  0.11872724881E+02  0.36820904757E+02  0.00000000000E+00 0.  1.
         11    1    4    4    0    0 -0.11025492498E+02  0.70949102128E+01  0.10059225265E+02  0.16525351704E+02  0.51100000000E-03 0. -1.
        -11    1    4    4    0    0  0.20093884365E+01 -0.98617334513E+00  0.82221852025E+00  0.23845803219E+01  0.51100000000E-03 0.  1.
         12    1    4    4    0    0 -0.13838198927E+01  0.27157747959E+02 -0.22754168667E+02  0.35457163217E+02  0.00000000000E+00 0. -1.
</event>
<event>
 8    1  0.1248739E-006  0.9118800E+02  0.7816164E-02  0.1184000E+00
        -11   -1    0    0    0    0  0.00000000000E+00  0.00000000000E+00  0.45593999997E+02  0.45594000000E+02  0.51100000000E-03 0.  1.
         11   -1    0    0    0    0 -0.00000000000E+00 -0.00000000000E+00 -0.45593999997E+02  0.45594000000E+02  0.51100000000E-03 0. -1.
         23    2    1    2    0    0  0.00000000000E+00  0.00000000000E+00  0.00000000000E+00  0.91188000000E+02  0.91188000000E+02 0.  0.
    9900012    2    3    3    0    0 -0.18035201790E+02 -0.28845609167E+02  0.14086937869E+02  0.54367088953E+02  0.40000010886E+02 0.  0.
         12    1    3    3    0    0  0.18035201790E+02  0.28845609167E+02 -0.14086937869E+02  0.36820911047E+02  0.00000000000E+00 0. -1.
         11    1    4    4    0    0 -0.10642464998E+02 -0.47767890294E+01 -0.63114350879E+01  0.13263257058E+02  0.51100000000E-03 0. -1.
        -11    1    4    4    0    0 -0.85877292516E+01 -0.26625985232E+02  0.90413832038E+01  0.29401339999E+02  0.51100000000E-03 0.  1.
        -12    1    4    4    0    0  0.11949924597E+01  0.25571650946E+01  0.11356989753E+02  0.11702491895E+02  0.00000000000E+00 0.  1.
</event>
<event>
 8    1  0.1248739E-006  0.9118800E+02  0.7816164E-02  0.1184000E+00
        -11   -1    0    0    0    0  0.00000000000E+00  0.00000000000E+00  0.45593999997E+02  0.45594000000E+02  0.51100000000E-03 0.  1.
         11   -1    0    0    0    0 -0.00000000000E+00 -0.00000000000E+00 -0.45593999997E+02  0.45594000000E+02  0.51100000000E-03 0. -1.
         23    2    1    2    0    0  0.00000000000E+00  0.00000000000E+00  0.00000000000E+00  0.91188000000E+02  0.91188000000E+02 0.  0.
    9900012    2    3    3    0    0  0.28087667441E+02  0.19821568589E+02 -0.13189760206E+02  0.54367062778E+02  0.39999951215E+02 0.  0.
        -12    1    3    3    0    0 -0.28087667441E+02 -0.19821568589E+02  0.13189760206E+02  0.36820937222E+02  0.00000000000E+00 0.  1.
         11    1    4    4    0    0  0.22683323387E+02  0.26656231745E+02 -0.94121983424E+00  0.35013907891E+02  0.51100000000E-03 0. -1.
        -11    1    4    4    0    0  0.61851051614E+01 -0.87488769932E+01 -0.13263210338E+02  0.17050252879E+02  0.51100000000E-03 0.  1.
         12    1    4    4    0    0 -0.78076110724E+00  0.19142138373E+01  0.10146699659E+01  0.23029020086E+01  0.00000000000E+00 0. -1.
</event>
<event>
 8    1  0.1248739E-006  0.9118800E+02  0.7816164E-02  0.1184000E+00
        -11   -1    0    0    0    0  0.00000000000E+00  0.00000000000E+00  0.45593999997E+02  0.45594000000E+02  0.51100000000E-03 0. -1.
         11   -1    0    0    0    0 -0.00000000000E+00 -0.00000000000E+00 -0.45593999997E+02  0.45594000000E+02  0.51100000000E-03 0.  1.
         23    2    1    2    0    0  0.00000000000E+00  0.00000000000E+00  0.17763568394E-14  0.91188000000E+02  0.91188000000E+02 0.  0.
    9900012    2    3    3    0    0 -0.33960767562E+02  0.89899966080E+01  0.11028458677E+02  0.54367072890E+02  0.39999974268E+02 0.  0.
        -12    1    3    3    0    0  0.33960767562E+02 -0.89899966080E+01 -0.11028458677E+02  0.36820927110E+02  0.00000000000E+00 0.  1.
         11    1    4    4    0    0 -0.49483162821E+01  0.51036142730E+01  0.11859260885E+02  0.13826596894E+02  0.51100000000E-03 0. -1.
        -11    1    4    4    0    0 -0.32258920056E+02 -0.19485991830E+00 -0.64243720459E+01  0.32892984814E+02  0.51100000000E-03 0.  1.
        -12    1    4    4    0    0  0.32464687754E+01  0.40812422532E+01  0.55935698377E+01  0.76474911813E+01  0.00000000000E+00 0.  1.
</event>
<event>
 8    1  0.1248739E-006  0.9118800E+02  0.7816164E-02  0.1184000E+00
        -11   -1    0    0    0    0  0.00000000000E+00  0.00000000000E+00  0.45593999997E+02  0.45594000000E+02  0.51100000000E-03 0. -1.
         11   -1    0    0    0    0 -0.00000000000E+00 -0.00000000000E+00 -0.45593999997E+02  0.45594000000E+02  0.51100000000E-03 0.  1.
         23    2    1    2    0    0  0.17763568394E-14  0.17763568394E-14  0.00000000000E+00  0.91188000000E+02  0.91188000000E+02 0.  0.
    9900012    2    3    3    0    0 -0.14841990613E+02  0.10508891368E+02  0.32016530397E+02  0.54367086082E+02  0.40000004340E+02 0.  0.
        -12    1    3    3    0    0  0.14841990613E+02 -0.10508891368E+02 -0.32016530397E+02  0.36820913918E+02  0.00000000000E+00 0.  1.
         11    1    4    4    0    0 -0.11024744419E+02  0.80043219900E+01  0.38786164574E+02  0.41109375119E+02  0.51100000000E-03 0. -1.
        -11    1    4    4    0    0 -0.21532471292E+01  0.51537321760E+01 -0.81156974792E+01  0.98520035717E+01  0.51100000000E-03 0.  1.
        -12    1    4    4    0    0 -0.16639990647E+01 -0.26491627986E+01  0.13460633015E+01  0.34057073909E+01  0.00000000000E+00 0.  1.
</event>
<event>
 8    1  0.1248739E-006  0.9118800E+02  0.7816164E-02  0.1184000E+00
        -11   -1    0    0    0    0  0.00000000000E+00  0.00000000000E+00  0.45593999997E+02  0.45594000000E+02  0.51100000000E-03 0.  1.
         11   -1    0    0    0    0 -0.00000000000E+00 -0.00000000000E+00 -0.45593999997E+02  0.45594000000E+02  0.51100000000E-03 0. -1.
         23    2    1    2    0    0 -0.17763568394E-14 -0.35527136788E-14  0.00000000000E+00  0.91188000000E+02  0.91188000000E+02 0.  0.
    9900012    2    3    3    0    0 -0.54254736922E+01 -0.28121384822E+02 -0.23141579940E+02  0.54367071559E+02  0.39999971234E+02 0.  0.
        -12    1    3    3    0    0  0.54254736922E+01  0.28121384822E+02  0.23141579940E+02  0.36820928441E+02  0.00000000000E+00 0.  1.
         11    1    4    4    0    0 -0.42954120734E+00  0.10510033704E+01 -0.48652031249E+01  0.49959298876E+01  0.51100000000E-03 0. -1.
        -11    1    4    4    0    0 -0.12320361852E+02 -0.15527859248E+02  0.58812927563E+01  0.20675960285E+02  0.51100000000E-03 0.  1.
         12    1    4    4    0    0  0.73244293668E+01 -0.13644528945E+02 -0.24157669571E+02  0.28695181386E+02  0.00000000000E+00 0. -1.
</event>
<event>
 8    1  0.1248739E-006  0.9118800E+02  0.7816164E-02  0.1184000E+00
        -11   -1    0    0    0    0  0.00000000000E+00  0.00000000000E+00  0.45593999997E+02  0.45594000000E+02  0.51100000000E-03 0.  1.
         11   -1    0    0    0    0 -0.00000000000E+00 -0.00000000000E+00 -0.45593999997E+02  0.45594000000E+02  0.51100000000E-03 0. -1.
         23    2    1    2    0    0 -0.35527136788E-14  0.00000000000E+00 -0.35527136788E-14  0.91188000000E+02  0.91188000000E+02 0.  0.
    9900012    2    3    3    0    0 -0.10559597927E+02  0.22848506807E+02 -0.26874153959E+02  0.54367088513E+02  0.40000009883E+02 0.  0.
        -12    1    3    3    0    0  0.10559597927E+02 -0.22848506807E+02  0.26874153959E+02  0.36820911487E+02  0.00000000000E+00 0.  1.
         11    1    4    4    0    0  0.20981981030E+01 -0.31541565253E+01 -0.15496184289E+02  0.15952519125E+02  0.51100000000E-03 0. -1.
        -11    1    4    4    0    0 -0.10619668207E+01  0.50471212664E+00  0.55585114822E+01  0.56815101881E+01  0.51100000000E-03 0.  1.
         12    1    4    4    0    0 -0.11595829209E+02  0.25497951206E+02 -0.16936481153E+02  0.32733059200E+02  0.00000000000E+00 0. -1.
</event>
<event>
 8    1  0.1248739E-006  0.9118800E+02  0.7816164E-02  0.1184000E+00
        -11   -1    0    0    0    0  0.00000000000E+00  0.00000000000E+00  0.45593999997E+02  0.45594000000E+02  0.51100000000E-03 0.  1.
         11   -1    0    0    0    0 -0.00000000000E+00 -0.00000000000E+00 -0.45593999997E+02  0.45594000000E+02  0.51100000000E-03 0. -1.
         23    2    1    2    0    0 -0.88817841970E-15  0.88817841970E-15  0.00000000000E+00  0.91188000000E+02  0.91188000000E+02 0.  0.
    9900012    2    3    3    0    0 -0.47391193267E+01  0.63411453252E+01 -0.35959809225E+02  0.54367119300E+02  0.40000080068E+02 0.  0.
        -12    1    3    3    0    0  0.47391193267E+01 -0.63411453252E+01  0.35959809225E+02  0.36820880700E+02  0.00000000000E+00 0.  1.
         11    1    4    4    0    0 -0.41248277264E+01  0.63480811629E+01 -0.65538346825E+01  0.10013245604E+02  0.51100000000E-03 0. -1.
        -11    1    4    4    0    0  0.32330561291E+01 -0.13601526172E+02 -0.28421377892E+01  0.14266461145E+02  0.51100000000E-03 0.  1.
        -12    1    4    4    0    0 -0.38473477295E+01  0.13594590334E+02 -0.26563836753E+02  0.30087412550E+02  0.00000000000E+00 0.  1.
</event>
<event>
 8    1  0.1248739E-006  0.9118800E+02  0.7816164E-02  0.1184000E+00
        -11   -1    0    0    0    0  0.00000000000E+00  0.00000000000E+00  0.45593999997E+02  0.45594000000E+02  0.51100000000E-03 0. -1.
         11   -1    0    0    0    0 -0.00000000000E+00 -0.00000000000E+00 -0.45593999997E+02  0.45594000000E+02  0.51100000000E-03 0.  1.
         23    2    1    2    0    0  0.35527136788E-14  0.00000000000E+00  0.00000000000E+00  0.91188000000E+02  0.91188000000E+02 0.  0.
    9900012    2    3    3    0    0 -0.18084177041E+02  0.24366474399E+02 -0.20857079598E+02  0.54367077914E+02  0.39999985722E+02 0.  0.
         12    1    3    3    0    0  0.18084177041E+02 -0.24366474399E+02  0.20857079598E+02  0.36820922086E+02  0.00000000000E+00 0. -1.
         11    1    4    4    0    0 -0.15353565245E+02  0.27365843325E+01 -0.47628550654E+00  0.15602810891E+02  0.51100000000E-03 0. -1.
        -11    1    4    4    0    0 -0.12988458949E+02  0.11149036744E+02 -0.57718629440E+01  0.18064204613E+02  0.51100000000E-03 0.  1.
         12    1    4    4    0    0  0.10257847152E+02  0.10480853322E+02 -0.14608931147E+02  0.20700062411E+02  0.00000000000E+00 0. -1.
</event>
<event>
 8    1  0.1248739E-006  0.9118800E+02  0.7816164E-02  0.1184000E+00
        -11   -1    0    0    0    0  0.00000000000E+00  0.00000000000E+00  0.45593999997E+02  0.45594000000E+02  0.51100000000E-03 0.  1.
         11   -1    0    0    0    0 -0.00000000000E+00 -0.00000000000E+00 -0.45593999997E+02  0.45594000000E+02  0.51100000000E-03 0. -1.
         23    2    1    2    0    0 -0.35527136788E-14  0.13322676296E-14  0.35527136788E-14  0.91188000000E+02  0.91188000000E+02 0.  0.
    9900012    2    3    3    0    0 -0.28096565263E+02  0.13987331130E+01  0.23757237015E+02  0.54367085501E+02  0.40000003018E+02 0.  0.
         12    1    3    3    0    0  0.28096565263E+02 -0.13987331130E+01 -0.23757237015E+02  0.36820914499E+02  0.00000000000E+00 0. -1.
         11    1    4    4    0    0 -0.67080668362E+00 -0.78181394717E+01  0.14737999069E+01  0.79840699416E+01  0.51100000000E-03 0. -1.
        -11    1    4    4    0    0 -0.25284548292E+02 -0.38865123837E+01  0.78212372750E+01  0.26750422681E+02  0.51100000000E-03 0.  1.
         12    1    4    4    0    0 -0.21412102876E+01  0.13103384968E+02  0.14462199834E+02  0.19632592879E+02  0.00000000000E+00 0. -1.
</event>
<event>
 8    1  0.1248739E-006  0.9118800E+02  0.7816164E-02  0.1184000E+00
        -11   -1    0    0    0    0  0.00000000000E+00  0.00000000000E+00  0.45593999997E+02  0.45594000000E+02  0.51100000000E-03 0. -1.
         11   -1    0    0    0    0 -0.00000000000E+00 -0.00000000000E+00 -0.45593999997E+02  0.45594000000E+02  0.51100000000E-03 0.  1.
         23    2    1    2    0    0  0.00000000000E+00 -0.17763568394E-14  0.00000000000E+00  0.91188000000E+02  0.91188000000E+02 0.  0.
    9900012    2    3    3    0    0 -0.35664268447E+02 -0.70317191775E+01  0.58639836403E+01  0.54367198507E+02  0.40000260636E+02 0.  0.
         12    1    3    3    0    0  0.35664268447E+02  0.70317191775E+01 -0.58639836403E+01  0.36820801493E+02  0.00000000000E+00 0. -1.
         11    1    4    4    0    0 -0.10549695591E+02  0.76363121233E+01  0.82063187639E+00  0.13049244301E+02  0.51100000000E-03 0. -1.
        -11    1    4    4    0    0 -0.11415797324E+02 -0.15101529712E+02 -0.96299027707E+01  0.21239389253E+02  0.51100000000E-03 0.  1.
         12    1    4    4    0    0 -0.13698775532E+02  0.43349841158E+00  0.14673254535E+02  0.20078564953E+02  0.00000000000E+00 0. -1.
</event>
<event>
 8    1  0.1248739E-006  0.9118800E+02  0.7816164E-02  0.1184000E+00
        -11   -1    0    0    0    0  0.00000000000E+00  0.00000000000E+00  0.45593999997E+02  0.45594000000E+02  0.51100000000E-03 0.  1.
         11   -1    0    0    0    0 -0.00000000000E+00 -0.00000000000E+00 -0.45593999997E+02  0.45594000000E+02  0.51100000000E-03 0. -1.
         23    2    1    2    0    0 -0.17763568394E-14  0.00000000000E+00  0.00000000000E+00  0.91188000000E+02  0.91188000000E+02 0.  0.
    9900012    2    3    3    0    0  0.14924310083E+02  0.25778926192E+02 -0.21644645669E+02  0.54367098962E+02  0.40000033704E+02 0.  0.
        -12    1    3    3    0    0 -0.14924310083E+02 -0.25778926192E+02  0.21644645669E+02  0.36820901038E+02  0.00000000000E+00 0.  1.
         11    1    4    4    0    0  0.83392818491E+01  0.56627715762E+01 -0.12119087691E+02  0.15763340078E+02  0.51100000000E-03 0. -1.
        -11    1    4    4    0    0 -0.15144817387E+01  0.22544987375E+01 -0.17296225527E+02  0.17508164873E+02  0.51100000000E-03 0.  1.
         12    1    4    4    0    0  0.80995099724E+01  0.17861655878E+02  0.77706675489E+01  0.21095594011E+02  0.00000000000E+00 0. -1.
</event>
<event>
 8    1  0.1248739E-006  0.9118800E+02  0.7816164E-02  0.1184000E+00
        -11   -1    0    0    0    0  0.00000000000E+00  0.00000000000E+00  0.45593999997E+02  0.45594000000E+02  0.51100000000E-03 0. -1.
         11   -1    0    0    0    0 -0.00000000000E+00 -0.00000000000E+00 -0.45593999997E+02  0.45594000000E+02  0.51100000000E-03 0.  1.
         23    2    1    2    0    0  0.00000000000E+00  0.44408920985E-15  0.00000000000E+00  0.91188000000E+02  0.91188000000E+02 0.  0.
    9900012    2    3    3    0    0 -0.21438962981E+02  0.38993007776E+00  0.29933236230E+02  0.54367084607E+02  0.40000000979E+02 0.  0.
        -12    1    3    3    0    0  0.21438962981E+02 -0.38993007776E+00 -0.29933236230E+02  0.36820915393E+02  0.00000000000E+00 0.  1.
         11    1    4    4    0    0 -0.10325875751E+02 -0.73019497706E+01 -0.26969656450E+01  0.12931195011E+02  0.51100000000E-03 0. -1.
        -11    1    4    4    0    0 -0.71473749909E+00 -0.47891559516E+01 -0.15714172275E+00  0.48447454219E+01  0.51100000000E-03 0.  1.
         12    1    4    4    0    0 -0.10398349731E+02  0.12481035800E+02  0.32787343598E+02  0.36591144174E+02  0.00000000000E+00 0. -1.
</event>
<event>
 8    1  0.1248739E-006  0.9118800E+02  0.7816164E-02  0.1184000E+00
        -11   -1    0    0    0    0  0.00000000000E+00  0.00000000000E+00  0.45593999997E+02  0.45594000000E+02  0.51100000000E-03 0. -1.
         11   -1    0    0    0    0 -0.00000000000E+00 -0.00000000000E+00 -0.45593999997E+02  0.45594000000E+02  0.51100000000E-03 0.  1.
         23    2    1    2    0    0 -0.44408920985E-15  0.00000000000E+00  0.00000000000E+00  0.91188000000E+02  0.91188000000E+02 0.  0.
    9900012    2    3    3    0    0  0.16268345117E+01 -0.32625060200E+02  0.16992305867E+02  0.54367087433E+02  0.40000007421E+02 0.  0.
        -12    1    3    3    0    0 -0.16268345117E+01  0.32625060200E+02 -0.16992305867E+02  0.36820912567E+02  0.00000000000E+00 0.  1.
         11    1    4    4    0    0  0.80551890202E+00  0.30392390164E+01  0.13034027916E+01  0.34036294743E+01  0.51100000000E-03 0. -1.
        -11    1    4    4    0    0 -0.15728890661E+02 -0.13364146608E+02  0.81231020676E+01  0.22180694386E+02  0.51100000000E-03 0.  1.
         12    1    4    4    0    0  0.16550206271E+02 -0.22300152609E+02  0.75658010079E+01  0.28782763573E+02  0.00000000000E+00 0. -1.
</event>
<event>
 8    1  0.1248739E-006  0.9118800E+02  0.7816164E-02  0.1184000E+00
        -11   -1    0    0    0    0  0.00000000000E+00  0.00000000000E+00  0.45593999997E+02  0.45594000000E+02  0.51100000000E-03 0.  1.
         11   -1    0    0    0    0 -0.00000000000E+00 -0.00000000000E+00 -0.45593999997E+02  0.45594000000E+02  0.51100000000E-03 0. -1.
         23    2    1    2    0    0  0.00000000000E+00  0.00000000000E+00  0.17763568394E-14  0.91188000000E+02  0.91188000000E+02 0.  0.
    9900012    2    3    3    0    0 -0.92734995110E+01 -0.34121645277E+02  0.10271078072E+02  0.54367088627E+02  0.40000010143E+02 0.  0.
         12    1    3    3    0    0  0.92734995110E+01  0.34121645277E+02 -0.10271078072E+02  0.36820911373E+02  0.00000000000E+00 0. -1.
         11    1    4    4    0    0 -0.30956152359E+01 -0.55816094542E+01 -0.49616038886E+01  0.80842260728E+01  0.51100000000E-03 0. -1.
        -11    1    4    4    0    0  0.22559160717E+01 -0.19880692785E+02 -0.68166226710E+01  0.21137583775E+02  0.51100000000E-03 0.  1.
         12    1    4    4    0    0 -0.84338003469E+01 -0.86593430373E+01  0.22049304632E+02  0.25145278779E+02  0.00000000000E+00 0. -1.
</event>
<event>
 8    1  0.1248739E-006  0.9118800E+02  0.7816164E-02  0.1184000E+00
        -11   -1    0    0    0    0  0.00000000000E+00  0.00000000000E+00  0.45593999997E+02  0.45594000000E+02  0.51100000000E-03 0. -1.
         11   -1    0    0    0    0 -0.00000000000E+00 -0.00000000000E+00 -0.45593999997E+02  0.45594000000E+02  0.51100000000E-03 0.  1.
         23    2    1    2    0    0 -0.88817841970E-15  0.00000000000E+00  0.71054273576E-14  0.91188000000E+02  0.91188000000E+02 0.  0.
    9900012    2    3    3    0    0 -0.37529132373E+01 -0.12861592300E+02  0.34296867895E+02  0.54367081195E+02  0.39999993199E+02 0.  0.
        -12    1    3    3    0    0  0.37529132373E+01  0.12861592300E+02 -0.34296867895E+02  0.36820918805E+02  0.00000000000E+00 0.  1.
         11    1    4    4    0    0 -0.42461453700E+01 -0.26391823123E+01  0.75961099704E+01  0.90937297477E+01  0.51100000000E-03 0. -1.
        -11    1    4    4    0    0 -0.16343678479E+02 -0.97459576652E+01  0.97672893375E+01  0.21389236974E+02  0.51100000000E-03 0.  1.
         12    1    4    4    0    0  0.16836910612E+02 -0.47645232229E+00  0.16933468587E+02  0.23884114473E+02  0.00000000000E+00 0. -1.
</event>
<event>
 8    1  0.1248739E-006  0.9118800E+02  0.7816164E-02  0.1184000E+00
        -11   -1    0    0    0    0  0.00000000000E+00  0.00000000000E+00  0.45593999997E+02  0.45594000000E+02  0.51100000000E-03 0. -1.
         11   -1    0    0    0    0 -0.00000000000E+00 -0.00000000000E+00 -0.45593999997E+02  0.45594000000E+02  0.51100000000E-03 0.  1.
         23    2    1    2    0    0  0.00000000000E+00  0.00000000000E+00  0.00000000000E+00  0.91188000000E+02  0.91188000000E+02 0.  0.
    9900012    2    3    3    0    0  0.32053903680E+02  0.10577072209E+02 -0.14712336407E+02  0.54367081486E+02  0.39999993864E+02 0.  0.
        -12    1    3    3    0    0 -0.32053903680E+02 -0.10577072209E+02  0.14712336407E+02  0.36820918514E+02  0.00000000000E+00 0.  1.
         11    1    4    4    0    0  0.43405455131E+01  0.11496548750E+01 -0.73397662032E+01  0.86043134451E+01  0.51100000000E-03 0. -1.
        -11    1    4    4    0    0  0.49506409081E+01  0.94598155630E-01 -0.18216308648E+02  0.18877279869E+02  0.51100000000E-03 0.  1.
         12    1    4    4    0    0  0.22762717259E+02  0.93328191785E+01  0.10843738444E+02  0.26885488172E+02  0.00000000000E+00 0. -1.
</event>
<event>
 8    1  0.1248739E-006  0.9118800E+02  0.7816164E-02  0.1184000E+00
        -11   -1    0    0    0    0  0.00000000000E+00  0.00000000000E+00  0.45593999997E+02  0.45594000000E+02  0.51100000000E-03 0. -1.
         11   -1    0    0    0    0 -0.00000000000E+00 -0.00000000000E+00 -0.45593999997E+02  0.45594000000E+02  0.51100000000E-03 0.  1.
         23    2    1    2    0    0  0.00000000000E+00  0.88817841970E-15  0.00000000000E+00  0.91188000000E+02  0.91188000000E+02 0.  0.
    9900012    2    3    3    0    0  0.17619052304E+01  0.55916494037E+01 -0.36351201144E+02  0.54367072830E+02  0.39999974129E+02 0.  0.
         12    1    3    3    0    0 -0.17619052304E+01 -0.55916494037E+01  0.36351201144E+02  0.36820927170E+02  0.00000000000E+00 0. -1.
         11    1    4    4    0    0  0.10032543503E+02 -0.50793727777E+01 -0.45425088877E+01  0.12127915905E+02  0.51100000000E-03 0. -1.
        -11    1    4    4    0    0  0.73801778573E+01  0.95653681049E+01 -0.13048564577E+02  0.17782809957E+02  0.51100000000E-03 0.  1.
        -12    1    4    4    0    0 -0.15650816129E+02  0.11056540764E+01 -0.18760127679E+02  0.24456346967E+02  0.00000000000E+00 0.  1.
</event>
<event>
 8    1  0.1248739E-006  0.9118800E+02  0.7816164E-02  0.1184000E+00
        -11   -1    0    0    0    0  0.00000000000E+00  0.00000000000E+00  0.45593999997E+02  0.45594000000E+02  0.51100000000E-03 0.  1.
         11   -1    0    0    0    0 -0.00000000000E+00 -0.00000000000E+00 -0.45593999997E+02  0.45594000000E+02  0.51100000000E-03 0. -1.
         23    2    1    2    0    0 -0.38857805862E-15  0.00000000000E+00  0.00000000000E+00  0.91188000000E+02  0.91188000000E+02 0.  0.
    9900012    2    3    3    0    0  0.44473015066E+00 -0.35323046098E+02  0.10385739305E+02  0.54367096271E+02  0.40000027568E+02 0.  0.
         12    1    3    3    0    0 -0.44473015066E+00  0.35323046098E+02 -0.10385739305E+02  0.36820903729E+02  0.00000000000E+00 0. -1.
         11    1    4    4    0    0 -0.53388899048E+01 -0.16422224346E+02 -0.22921223405E+01  0.17419730853E+02  0.51100000000E-03 0. -1.
        -11    1    4    4    0    0  0.47302029236E+01 -0.26478504350E+02  0.83831869944E+01  0.28173814736E+02  0.51100000000E-03 0.  1.
        -12    1    4    4    0    0  0.10534171319E+01  0.75776825986E+01  0.42946746506E+01  0.87735506823E+01  0.00000000000E+00 0.  1.
</event>
<event>
 8    1  0.1248739E-006  0.9118800E+02  0.7816164E-02  0.1184000E+00
        -11   -1    0    0    0    0  0.00000000000E+00  0.00000000000E+00  0.45593999997E+02  0.45594000000E+02  0.51100000000E-03 0. -1.
         11   -1    0    0    0    0 -0.00000000000E+00 -0.00000000000E+00 -0.45593999997E+02  0.45594000000E+02  0.51100000000E-03 0.  1.
         23    2    1    2    0    0  0.88817841970E-15 -0.22204460493E-15  0.00000000000E+00  0.91188000000E+02  0.91188000000E+02 0.  0.
    9900012    2    3    3    0    0  0.71652581154E+01  0.34757524137E+00  0.36115354078E+02  0.54367074800E+02  0.39999978620E+02 0.  0.
        -12    1    3    3    0    0 -0.71652581154E+01 -0.34757524137E+00 -0.36115354078E+02  0.36820925200E+02  0.00000000000E+00 0.  1.
         11    1    4    4    0    0 -0.54976892907E+01  0.80130042886E+01  0.19368889657E+02  0.21669949517E+02  0.51100000000E-03 0. -1.
        -11    1    4    4    0    0  0.19744500912E+01  0.29417403554E+01 -0.50719051946E+01  0.61868014390E+01  0.51100000000E-03 0.  1.
        -12    1    4    4    0    0  0.10688497315E+02 -0.10607169403E+02  0.21818369616E+02  0.26510323844E+02  0.00000000000E+00 0.  1.
</event>
<event>
 8    1  0.1248739E-006  0.9118800E+02  0.7816164E-02  0.1184000E+00
        -11   -1    0    0    0    0  0.00000000000E+00  0.00000000000E+00  0.45593999997E+02  0.45594000000E+02  0.51100000000E-03 0.  1.
         11   -1    0    0    0    0 -0.00000000000E+00 -0.00000000000E+00 -0.45593999997E+02  0.45594000000E+02  0.51100000000E-03 0. -1.
         23    2    1    2    0    0 -0.28865798640E-14  0.00000000000E+00  0.00000000000E+00  0.91188000000E+02  0.91188000000E+02 0.  0.
    9900012    2    3    3    0    0  0.11332538638E+01  0.21060352267E+02 -0.30181975460E+02  0.54367158828E+02  0.40000170181E+02 0.  0.
        -12    1    3    3    0    0 -0.11332538638E+01 -0.21060352267E+02  0.30181975460E+02  0.36820841172E+02  0.00000000000E+00 0.  1.
         11    1    4    4    0    0  0.13605180915E+02  0.13090447038E+02 -0.13426172595E+02  0.23167279992E+02  0.51100000000E-03 0. -1.
        -11    1    4    4    0    0 -0.90938842328E+01  0.45103390775E+00 -0.20283889391E+02  0.22233720586E+02  0.51100000000E-03 0.  1.
        -12    1    4    4    0    0 -0.33780428187E+01  0.75188713214E+01  0.35280865263E+01  0.89661582503E+01  0.00000000000E+00 0.  1.
</event>
<event>
 8    1  0.1248739E-006  0.9118800E+02  0.7816164E-02  0.1184000E+00
        -11   -1    0    0    0    0  0.00000000000E+00  0.00000000000E+00  0.45593999997E+02  0.45594000000E+02  0.51100000000E-03 0.  1.
         11   -1    0    0    0    0 -0.00000000000E+00 -0.00000000000E+00 -0.45593999997E+02  0.45594000000E+02  0.51100000000E-03 0. -1.
         23    2    1    2    0    0  0.88817841970E-15  0.00000000000E+00  0.00000000000E+00  0.91188000000E+02  0.91188000000E+02 0.  0.
    9900012    2    3    3    0    0  0.47018693144E+01  0.36094442042E+02 -0.55553927354E+01  0.54367099552E+02  0.40000035049E+02 0.  0.
         12    1    3    3    0    0 -0.47018693144E+01 -0.36094442042E+02  0.55553927354E+01  0.36820900448E+02  0.00000000000E+00 0. -1.
         11    1    4    4    0    0 -0.66561194507E+01  0.78484457824E+00 -0.49128899094E+01  0.83100177303E+01  0.51100000000E-03 0. -1.
        -11    1    4    4    0    0  0.19133773078E+02  0.17260983665E+02 -0.41293620932E+01  0.26097786512E+02  0.51100000000E-03 0.  1.
        -12    1    4    4    0    0 -0.77757843128E+01  0.18048613798E+02  0.34868592672E+01  0.19959295310E+02  0.00000000000E+00 0.  1.
</event>
<event>
 8    1  0.1248739E-006  0.9118800E+02  0.7816164E-02  0.1184000E+00
        -11   -1    0    0    0    0  0.00000000000E+00  0.00000000000E+00  0.45593999997E+02  0.45594000000E+02  0.51100000000E-03 0.  1.
         11   -1    0    0    0    0 -0.00000000000E+00 -0.00000000000E+00 -0.45593999997E+02  0.45594000000E+02  0.51100000000E-03 0. -1.
         23    2    1    2    0    0  0.00000000000E+00  0.32196467714E-14  0.00000000000E+00  0.91188000000E+02  0.91188000000E+02 0.  0.
    9900012    2    3    3    0    0  0.34328549285E+02  0.47036219101E+00 -0.13308234917E+02  0.54367086741E+02  0.40000005844E+02 0.  0.
        -12    1    3    3    0    0 -0.34328549285E+02 -0.47036219101E+00  0.13308234917E+02  0.36820913259E+02  0.00000000000E+00 0.  1.
         11    1    4    4    0    0  0.19944730179E+02 -0.12097554352E+02 -0.10812803915E+02  0.25711083446E+02  0.51100000000E-03 0. -1.
        -11    1    4    4    0    0  0.25012277385E+01  0.11044545916E+02  0.70490150189E+01  0.13338918536E+02  0.51100000000E-03 0.  1.
         12    1    4    4    0    0  0.11882591367E+02  0.15233706268E+01 -0.95444460211E+01  0.15317084759E+02  0.00000000000E+00 0. -1.
</event>
<event>
 8    1  0.1248739E-006  0.9118800E+02  0.7816164E-02  0.1184000E+00
        -11   -1    0    0    0    0  0.00000000000E+00  0.00000000000E+00  0.45593999997E+02  0.45594000000E+02  0.51100000000E-03 0.  1.
         11   -1    0    0    0    0 -0.00000000000E+00 -0.00000000000E+00 -0.45593999997E+02  0.45594000000E+02  0.51100000000E-03 0. -1.
         23    2    1    2    0    0  0.00000000000E+00  0.00000000000E+00  0.00000000000E+00  0.91188000000E+02  0.91188000000E+02 0.  0.
    9900012    2    3    3    0    0 -0.21714281019E+02 -0.18892505290E+02  0.22963969279E+02  0.54367073323E+02  0.39999975255E+02 0.  0.
         12    1    3    3    0    0  0.21714281019E+02  0.18892505290E+02 -0.22963969279E+02  0.36820926677E+02  0.00000000000E+00 0. -1.
         11    1    4    4    0    0 -0.13352276403E+01  0.27237943239E+01  0.48792214339E+00  0.30724512444E+01  0.51100000000E-03 0. -1.
        -11    1    4    4    0    0 -0.16474254700E+02  0.49226349073E+01  0.15321032330E+01  0.17262118726E+02  0.51100000000E-03 0.  1.
        -12    1    4    4    0    0 -0.39047986793E+01 -0.26538934521E+02  0.20943943902E+02  0.34032503353E+02  0.00000000000E+00 0.  1.
</event>
<event>
 8    1  0.1248739E-006  0.9118800E+02  0.7816164E-02  0.1184000E+00
        -11   -1    0    0    0    0  0.00000000000E+00  0.00000000000E+00  0.45593999997E+02  0.45594000000E+02  0.51100000000E-03 0.  1.
         11   -1    0    0    0    0 -0.00000000000E+00 -0.00000000000E+00 -0.45593999997E+02  0.45594000000E+02  0.51100000000E-03 0. -1.
         23    2    1    2    0    0  0.35527136788E-14  0.13322676296E-14  0.00000000000E+00  0.91188000000E+02  0.91188000000E+02 0.  0.
    9900012    2    3    3    0    0  0.26976083146E+02  0.25536209796E+01  0.24930895759E+02  0.54367087391E+02  0.40000007326E+02 0.  0.
         12    1    3    3    0    0 -0.26976083146E+02 -0.25536209796E+01 -0.24930895759E+02  0.36820912609E+02  0.00000000000E+00 0. -1.
         11    1    4    4    0    0  0.40471466523E+01  0.75200953621E+01  0.10291445533E+02  0.13373297338E+02  0.51100000000E-03 0. -1.
        -11    1    4    4    0    0  0.18140082421E+02  0.77275982200E+01  0.18342673458E+02  0.26930132461E+02  0.51100000000E-03 0.  1.
         12    1    4    4    0    0  0.47888540720E+01 -0.12694072602E+02 -0.37032232324E+01  0.14063657592E+02  0.00000000000E+00 0. -1.
</event>
<event>
 8    1  0.1248739E-006  0.9118800E+02  0.7816164E-02  0.1184000E+00
        -11   -1    0    0    0    0  0.00000000000E+00  0.00000000000E+00  0.45593999997E+02  0.45594000000E+02  0.51100000000E-03 0.  1.
         11   -1    0    0    0    0 -0.00000000000E+00 -0.00000000000E+00 -0.45593999997E+02  0.45594000000E+02  0.51100000000E-03 0. -1.
         23    2    1    2    0    0  0.00000000000E+00  0.00000000000E+00  0.27755575616E-15  0.91188000000E+02  0.91188000000E+02 0.  0.
    9900012    2    3    3    0    0 -0.25804954765E+02 -0.26264045124E+02  0.29120804082E+00  0.54367074443E+02  0.39999977809E+02 0.  0.
         12    1    3    3    0    0  0.25804954765E+02  0.26264045124E+02 -0.29120804082E+00  0.36820925557E+02  0.00000000000E+00 0. -1.
         11    1    4    4    0    0 -0.11344647879E+00 -0.19185122779E+01  0.27756442570E+01  0.33760569851E+01  0.51100000000E-03 0. -1.
        -11    1    4    4    0    0 -0.22123720571E+02 -0.24506226883E+02  0.12713849326E+02  0.35378752563E+02  0.51100000000E-03 0.  1.
         12    1    4    4    0    0 -0.35677877156E+01  0.16069403674E+00 -0.15198285542E+02  0.15612264896E+02  0.00000000000E+00 0. -1.
</event>
<event>
 8    1  0.1248739E-006  0.9118800E+02  0.7816164E-02  0.1184000E+00
        -11   -1    0    0    0    0  0.00000000000E+00  0.00000000000E+00  0.45593999997E+02  0.45594000000E+02  0.51100000000E-03 0. -1.
         11   -1    0    0    0    0 -0.00000000000E+00 -0.00000000000E+00 -0.45593999997E+02  0.45594000000E+02  0.51100000000E-03 0.  1.
         23    2    1    2    0    0  0.88817841970E-15 -0.88817841970E-15  0.00000000000E+00  0.91188000000E+02  0.91188000000E+02 0.  0.
    9900012    2    3    3    0    0  0.33162696204E+01  0.14809529060E+01  0.36641347711E+02  0.54367092518E+02  0.40000019013E+02 0.  0.
        -12    1    3    3    0    0 -0.33162696204E+01 -0.14809529060E+01 -0.36641347711E+02  0.36820907482E+02  0.00000000000E+00 0.  1.
         11    1    4    4    0    0  0.31999427044E+01 -0.44749957883E+01  0.96054546296E+01  0.11069326064E+02  0.51100000000E-03 0. -1.
        -11    1    4    4    0    0 -0.55077712194E+01 -0.11532789978E+02  0.31474598263E+01  0.13162343716E+02  0.51100000000E-03 0.  1.
        -12    1    4    4    0    0  0.56240981355E+01  0.17488738672E+02  0.23888433255E+02  0.30135422738E+02  0.00000000000E+00 0.  1.
</event>
<event>
 8    1  0.1248739E-006  0.9118800E+02  0.7816164E-02  0.1184000E+00
        -11   -1    0    0    0    0  0.00000000000E+00  0.00000000000E+00  0.45593999997E+02  0.45594000000E+02  0.51100000000E-03 0.  1.
         11   -1    0    0    0    0 -0.00000000000E+00 -0.00000000000E+00 -0.45593999997E+02  0.45594000000E+02  0.51100000000E-03 0. -1.
         23    2    1    2    0    0 -0.35527136788E-14 -0.88817841970E-15  0.35527136788E-14  0.91188000000E+02  0.91188000000E+02 0.  0.
    9900012    2    3    3    0    0 -0.21309019788E+02 -0.71764901135E+01  0.29158439431E+02  0.54366933683E+02  0.39999656916E+02 0.  0.
         12    1    3    3    0    0  0.21309019788E+02  0.71764901135E+01 -0.29158439431E+02  0.36821066317E+02  0.00000000000E+00 0. -1.
         11    1    4    4    0    0 -0.23389068817E+01 -0.76563402714E+01  0.17571236256E+01  0.81961890809E+01  0.51100000000E-03 0. -1.
        -11    1    4    4    0    0 -0.17349981201E+01 -0.39385512900E+01  0.28038503677E+02  0.28366883745E+02  0.51100000000E-03 0.  1.
         12    1    4    4    0    0 -0.17235114786E+02  0.44184014479E+01 -0.63718787130E+00  0.17803860857E+02  0.00000000000E+00 0. -1.
</event>
<event>
 8    1  0.1248739E-006  0.9118800E+02  0.7816164E-02  0.1184000E+00
        -11   -1    0    0    0    0  0.00000000000E+00  0.00000000000E+00  0.45593999997E+02  0.45594000000E+02  0.51100000000E-03 0.  1.
         11   -1    0    0    0    0 -0.00000000000E+00 -0.00000000000E+00 -0.45593999997E+02  0.45594000000E+02  0.51100000000E-03 0. -1.
         23    2    1    2    0    0  0.00000000000E+00  0.00000000000E+00  0.35527136788E-14  0.91188000000E+02  0.91188000000E+02 0.  0.
    9900012    2    3    3    0    0 -0.21559201762E+02  0.15660028916E+02  0.25411547722E+02  0.54367048846E+02  0.39999919455E+02 0.  0.
         12    1    3    3    0    0  0.21559201762E+02 -0.15660028916E+02 -0.25411547722E+02  0.36820951154E+02  0.00000000000E+00 0. -1.
         11    1    4    4    0    0 -0.89829981795E+00 -0.52519072435E+01 -0.12565125036E+01  0.54743306614E+01  0.51100000000E-03 0. -1.
        -11    1    4    4    0    0  0.63755669435E+00  0.14876945435E+02  0.89455384959E+00  0.14917446526E+02  0.51100000000E-03 0.  1.
        -12    1    4    4    0    0 -0.21298458638E+02  0.60349907245E+01  0.25773506376E+02  0.33975271659E+02  0.00000000000E+00 0.  1.
</event>
<event>
 8    1  0.1248739E-006  0.9118800E+02  0.7816164E-02  0.1184000E+00
        -11   -1    0    0    0    0  0.00000000000E+00  0.00000000000E+00  0.45593999997E+02  0.45594000000E+02  0.51100000000E-03 0. -1.
         11   -1    0    0    0    0 -0.00000000000E+00 -0.00000000000E+00 -0.45593999997E+02  0.45594000000E+02  0.51100000000E-03 0.  1.
         23    2    1    2    0    0  0.00000000000E+00  0.00000000000E+00  0.35527136788E-14  0.91188000000E+02  0.91188000000E+02 0.  0.
    9900012    2    3    3    0    0  0.23708119226E+02  0.19359325197E+02 -0.20467651172E+02  0.54367039477E+02  0.39999898097E+02 0.  0.
         12    1    3    3    0    0 -0.23708119226E+02 -0.19359325197E+02  0.20467651172E+02  0.36820960523E+02  0.00000000000E+00 0. -1.
         11    1    4    4    0    0  0.15768901732E+02  0.21925620947E+02  0.12922251720E+00  0.27007551064E+02  0.51100000000E-03 0. -1.
        -11    1    4    4    0    0  0.10125491105E+02  0.32495138624E+01 -0.17348626637E+02  0.20348458342E+02  0.51100000000E-03 0.  1.
         12    1    4    4    0    0 -0.21862736115E+01 -0.58158096122E+01 -0.32482470522E+01  0.70110300714E+01  0.00000000000E+00 0. -1.
</event>
<event>
 8    1  0.1248739E-006  0.9118800E+02  0.7816164E-02  0.1184000E+00
        -11   -1    0    0    0    0  0.00000000000E+00  0.00000000000E+00  0.45593999997E+02  0.45594000000E+02  0.51100000000E-03 0.  1.
         11   -1    0    0    0    0 -0.00000000000E+00 -0.00000000000E+00 -0.45593999997E+02  0.45594000000E+02  0.51100000000E-03 0. -1.
         23    2    1    2    0    0  0.00000000000E+00  0.00000000000E+00  0.00000000000E+00  0.91188000000E+02  0.91188000000E+02 0.  0.
    9900012    2    3    3    0    0 -0.31435852810E+02  0.91442966920E+01 -0.16850545386E+02  0.54367192246E+02  0.40000246362E+02 0.  0.
        -12    1    3    3    0    0  0.31435852810E+02 -0.91442966920E+01  0.16850545386E+02  0.36820807754E+02  0.00000000000E+00 0.  1.
         11    1    4    4    0    0 -0.26774939595E+02  0.65353847331E+01 -0.18185895839E+02  0.33020227916E+02  0.51100000000E-03 0. -1.
        -11    1    4    4    0    0 -0.39372115211E+01  0.11791625957E+01  0.10899937879E+02  0.11649064556E+02  0.51100000000E-03 0.  1.
         12    1    4    4    0    0 -0.72370169424E+00  0.14297493632E+01 -0.95645874266E+01  0.96978997740E+01  0.00000000000E+00 0. -1.
</event>
<event>
 8    1  0.1248739E-006  0.9118800E+02  0.7816164E-02  0.1184000E+00
        -11   -1    0    0    0    0  0.00000000000E+00  0.00000000000E+00  0.45593999997E+02  0.45594000000E+02  0.51100000000E-03 0. -1.
         11   -1    0    0    0    0 -0.00000000000E+00 -0.00000000000E+00 -0.45593999997E+02  0.45594000000E+02  0.51100000000E-03 0.  1.
         23    2    1    2    0    0 -0.35527136788E-14  0.00000000000E+00  0.00000000000E+00  0.91188000000E+02  0.91188000000E+02 0.  0.
    9900012    2    3    3    0    0 -0.12879395979E+02  0.24642938940E+01  0.34406803749E+02  0.54367085706E+02  0.40000003484E+02 0.  0.
        -12    1    3    3    0    0  0.12879395979E+02 -0.24642938940E+01 -0.34406803749E+02  0.36820914294E+02  0.00000000000E+00 0.  1.
         11    1    4    4    0    0  0.24735372962E+01  0.11305414541E+02  0.63117843838E+01  0.13182162458E+02  0.51100000000E-03 0. -1.
        -11    1    4    4    0    0  0.63515041589E+01  0.67668643798E+00  0.66950055674E+01  0.92532485877E+01  0.51100000000E-03 0.  1.
        -12    1    4    4    0    0 -0.21704437434E+02 -0.95178070853E+01  0.21400013798E+02  0.31931674660E+02  0.00000000000E+00 0.  1.
</event>
<event>
 8    1  0.1248739E-006  0.9118800E+02  0.7816164E-02  0.1184000E+00
        -11   -1    0    0    0    0  0.00000000000E+00  0.00000000000E+00  0.45593999997E+02  0.45594000000E+02  0.51100000000E-03 0.  1.
         11   -1    0    0    0    0 -0.00000000000E+00 -0.00000000000E+00 -0.45593999997E+02  0.45594000000E+02  0.51100000000E-03 0. -1.
         23    2    1    2    0    0 -0.35527136788E-14  0.35527136788E-14  0.00000000000E+00  0.91188000000E+02  0.91188000000E+02 0.  0.
    9900012    2    3    3    0    0  0.24731834103E+02 -0.21592522678E+02  0.16669702881E+02  0.54367086814E+02  0.40000006010E+02 0.  0.
         12    1    3    3    0    0 -0.24731834103E+02  0.21592522678E+02 -0.16669702881E+02  0.36820913186E+02  0.00000000000E+00 0. -1.
         11    1    4    4    0    0  0.23680305378E+02 -0.77273478764E+01  0.11217990160E+02  0.27318712844E+02  0.51100000000E-03 0. -1.
        -11    1    4    4    0    0  0.11492314795E+02 -0.77508990672E+01  0.21261663359E+00  0.13863439032E+02  0.51100000000E-03 0.  1.
        -12    1    4    4    0    0 -0.10440786069E+02 -0.61142757349E+01  0.52390960872E+01  0.13184934938E+02  0.00000000000E+00 0.  1.
</event>
<event>
 8    1  0.1248739E-006  0.9118800E+02  0.7816164E-02  0.1184000E+00
        -11   -1    0    0    0    0  0.00000000000E+00  0.00000000000E+00  0.45593999997E+02  0.45594000000E+02  0.51100000000E-03 0.  1.
         11   -1    0    0    0    0 -0.00000000000E+00 -0.00000000000E+00 -0.45593999997E+02  0.45594000000E+02  0.51100000000E-03 0. -1.
         23    2    1    2    0    0  0.00000000000E+00  0.00000000000E+00 -0.88817841970E-15  0.91188000000E+02  0.91188000000E+02 0.  0.
    9900012    2    3    3    0    0  0.19009325012E+02  0.30700638679E+02  0.72039177216E+01  0.54367080902E+02  0.39999992532E+02 0.  0.
         12    1    3    3    0    0 -0.19009325012E+02 -0.30700638679E+02 -0.72039177216E+01  0.36820919098E+02  0.00000000000E+00 0. -1.
         11    1    4    4    0    0  0.15523210974E+02  0.24700981648E+01  0.15405858717E+02  0.22009360439E+02  0.51100000000E-03 0.  1.
        -11    1    4    4    0    0  0.78414534150E+01  0.19387437451E+02 -0.82993428503E+01  0.22499782545E+02  0.51100000000E-03 0. -1.
        -12    1    4    4    0    0 -0.43553393764E+01  0.88431030627E+01  0.97401855373E-01  0.98579379174E+01  0.00000000000E+00 0.  1.
</event>
<event>
 8    1  0.1248739E-006  0.9118800E+02  0.7816164E-02  0.1184000E+00
        -11   -1    0    0    0    0  0.00000000000E+00  0.00000000000E+00  0.45593999997E+02  0.45594000000E+02  0.51100000000E-03 0.  1.
         11   -1    0    0    0    0 -0.00000000000E+00 -0.00000000000E+00 -0.45593999997E+02  0.45594000000E+02  0.51100000000E-03 0. -1.
         23    2    1    2    0    0  0.00000000000E+00  0.00000000000E+00  0.00000000000E+00  0.91188000000E+02  0.91188000000E+02 0.  0.
    9900012    2    3    3    0    0  0.32592571458E+02 -0.11809435092E+02 -0.12411321651E+02  0.54367090498E+02  0.40000014409E+02 0.  0.
        -12    1    3    3    0    0 -0.32592571458E+02  0.11809435092E+02  0.12411321651E+02  0.36820909502E+02  0.00000000000E+00 0.  1.
         11    1    4    4    0    0  0.17055053538E+02 -0.43291527801E+01 -0.94960841995E+01  0.19994800083E+02  0.51100000000E-03 0. -1.
        -11    1    4    4    0    0  0.22254425146E+02  0.18086766501E+01 -0.45691924229E+01  0.22790530258E+02  0.51100000000E-03 0.  1.
         12    1    4    4    0    0 -0.67169072264E+01 -0.92889589618E+01  0.16539549713E+01  0.11581760157E+02  0.00000000000E+00 0. -1.
</event>
<event>
 8    1  0.1248739E-006  0.9118800E+02  0.7816164E-02  0.1184000E+00
        -11   -1    0    0    0    0  0.00000000000E+00  0.00000000000E+00  0.45593999997E+02  0.45594000000E+02  0.51100000000E-03 0.  1.
         11   -1    0    0    0    0 -0.00000000000E+00 -0.00000000000E+00 -0.45593999997E+02  0.45594000000E+02  0.51100000000E-03 0. -1.
         23    2    1    2    0    0  0.00000000000E+00  0.00000000000E+00  0.00000000000E+00  0.91188000000E+02  0.91188000000E+02 0.  0.
    9900012    2    3    3    0    0 -0.24011182994E+02  0.17533364559E+02  0.21721465437E+02  0.54367111332E+02  0.40000061904E+02 0.  0.
         12    1    3    3    0    0  0.24011182994E+02 -0.17533364559E+02 -0.21721465437E+02  0.36820888668E+02  0.00000000000E+00 0. -1.
         11    1    4    4    0    0  0.77956134676E+00  0.16304445046E+02  0.16850703652E+01  0.16409817383E+02  0.51100000000E-03 0. -1.
        -11    1    4    4    0    0 -0.20134133298E+02  0.97273842438E+01  0.15808426920E+02  0.27384515512E+02  0.51100000000E-03 0.  1.
        -12    1    4    4    0    0 -0.46566110424E+01 -0.84984647308E+01  0.42279681525E+01  0.10572778437E+02  0.00000000000E+00 0.  1.
</event>
<event>
 8    1  0.1248739E-006  0.9118800E+02  0.7816164E-02  0.1184000E+00
        -11   -1    0    0    0    0  0.00000000000E+00  0.00000000000E+00  0.45593999997E+02  0.45594000000E+02  0.51100000000E-03 0. -1.
         11   -1    0    0    0    0 -0.00000000000E+00 -0.00000000000E+00 -0.45593999997E+02  0.45594000000E+02  0.51100000000E-03 0.  1.
         23    2    1    2    0    0  0.35527136788E-14 -0.35527136788E-14  0.17763568394E-14  0.91188000000E+02  0.91188000000E+02 0.  0.
    9900012    2    3    3    0    0  0.31773349535E+02 -0.98552578315E+01  0.15783118041E+02  0.54367100191E+02  0.40000036506E+02 0.  0.
        -12    1    3    3    0    0 -0.31773349535E+02  0.98552578315E+01 -0.15783118041E+02  0.36820899809E+02  0.00000000000E+00 0.  1.
         11    1    4    4    0    0  0.28725424500E+02  0.23677949812E+01 -0.30705113087E+01  0.28985936343E+02  0.51100000000E-03 0. -1.
        -11    1    4    4    0    0  0.18661053809E+01 -0.47663893677E+01  0.50440218289E-01  0.51189218957E+01  0.51100000000E-03 0.  1.
         12    1    4    4    0    0  0.11818196550E+01 -0.74566634449E+01  0.18803189131E+02  0.20262241952E+02  0.00000000000E+00 0. -1.
</event>
<event>
 8    1  0.1248739E-006  0.9118800E+02  0.7816164E-02  0.1184000E+00
        -11   -1    0    0    0    0  0.00000000000E+00  0.00000000000E+00  0.45593999997E+02  0.45594000000E+02  0.51100000000E-03 0.  1.
         11   -1    0    0    0    0 -0.00000000000E+00 -0.00000000000E+00 -0.45593999997E+02  0.45594000000E+02  0.51100000000E-03 0. -1.
         23    2    1    2    0    0  0.00000000000E+00 -0.88817841970E-15 -0.71054273576E-14  0.91188000000E+02  0.91188000000E+02 0.  0.
    9900012    2    3    3    0    0 -0.57429296602E+01 -0.29428324611E+01 -0.36251042159E+02  0.54367087985E+02  0.40000008680E+02 0.  0.
        -12    1    3    3    0    0  0.57429296602E+01  0.29428324611E+01  0.36251042159E+02  0.36820912015E+02  0.00000000000E+00 0.  1.
         11    1    4    4    0    0 -0.18831468973E+01 -0.15374653988E+02 -0.31479883170E+02  0.35084316612E+02  0.51100000000E-03 0. -1.
        -11    1    4    4    0    0 -0.45899917579E+01  0.13011232122E+02 -0.79817977918E+01  0.15939550870E+02  0.51100000000E-03 0.  1.
         12    1    4    4    0    0  0.73020899510E+00 -0.57941059554E+00  0.32106388024E+01  0.33432205034E+01  0.00000000000E+00 0. -1.
</event>
<event>
 8    1  0.1248739E-006  0.9118800E+02  0.7816164E-02  0.1184000E+00
        -11   -1    0    0    0    0  0.00000000000E+00  0.00000000000E+00  0.45593999997E+02  0.45594000000E+02  0.51100000000E-03 0. -1.
         11   -1    0    0    0    0 -0.00000000000E+00 -0.00000000000E+00 -0.45593999997E+02  0.45594000000E+02  0.51100000000E-03 0.  1.
         23    2    1    2    0    0  0.00000000000E+00  0.00000000000E+00  0.00000000000E+00  0.91188000000E+02  0.91188000000E+02 0.  0.
    9900012    2    3    3    0    0 -0.14749148782E+02 -0.12399163232E+02 -0.31376796544E+02  0.54367082032E+02  0.39999995109E+02 0.  0.
        -12    1    3    3    0    0  0.14749148782E+02  0.12399163232E+02  0.31376796544E+02  0.36820917968E+02  0.00000000000E+00 0.  1.
         11    1    4    4    0    0  0.52737851244E+01 -0.91670259723E+01  0.32142330499E+01  0.11053436980E+02  0.51100000000E-03 0. -1.
        -11    1    4    4    0    0  0.11800732137E+01  0.35941943452E+01 -0.46066052771E+01  0.59608403955E+01  0.51100000000E-03 0.  1.
         12    1    4    4    0    0 -0.21203007120E+02 -0.68263316046E+01 -0.29984424317E+02  0.37352804656E+02  0.00000000000E+00 0. -1.
</event>
<event>
 8    1  0.1248739E-006  0.9118800E+02  0.7816164E-02  0.1184000E+00
        -11   -1    0    0    0    0  0.00000000000E+00  0.00000000000E+00  0.45593999997E+02  0.45594000000E+02  0.51100000000E-03 0. -1.
         11   -1    0    0    0    0 -0.00000000000E+00 -0.00000000000E+00 -0.45593999997E+02  0.45594000000E+02  0.51100000000E-03 0.  1.
         23    2    1    2    0    0 -0.35527136788E-14  0.17763568394E-14 -0.35527136788E-14  0.91188000000E+02  0.91188000000E+02 0.  0.
    9900012    2    3    3    0    0 -0.19366506618E+02 -0.10909751572E+02 -0.29354650149E+02  0.54367085517E+02  0.40000003054E+02 0.  0.
         12    1    3    3    0    0  0.19366506618E+02  0.10909751572E+02  0.29354650149E+02  0.36820914483E+02  0.00000000000E+00 0. -1.
         11    1    4    4    0    0 -0.12526295013E+01 -0.16171366928E+02 -0.19871829146E+01  0.16341085802E+02  0.51100000000E-03 0. -1.
        -11    1    4    4    0    0  0.31469004753E+01  0.44013885482E+00 -0.89154117829E+01  0.94647383658E+01  0.51100000000E-03 0.  1.
        -12    1    4    4    0    0 -0.21260777592E+02  0.48214765017E+01 -0.18452055452E+02  0.28561261349E+02  0.00000000000E+00 0.  1.
</event>
<event>
 8    1  0.1248739E-006  0.9118800E+02  0.7816164E-02  0.1184000E+00
        -11   -1    0    0    0    0  0.00000000000E+00  0.00000000000E+00  0.45593999997E+02  0.45594000000E+02  0.51100000000E-03 0. -1.
         11   -1    0    0    0    0 -0.00000000000E+00 -0.00000000000E+00 -0.45593999997E+02  0.45594000000E+02  0.51100000000E-03 0.  1.
         23    2    1    2    0    0  0.00000000000E+00  0.00000000000E+00  0.35527136788E-14  0.91188000000E+02  0.91188000000E+02 0.  0.
    9900012    2    3    3    0    0  0.29302997289E+02 -0.89316208973E+01  0.20428875482E+02  0.54367103007E+02  0.40000042924E+02 0.  0.
        -12    1    3    3    0    0 -0.29302997289E+02  0.89316208973E+01 -0.20428875482E+02  0.36820896993E+02  0.00000000000E+00 0.  1.
         11    1    4    4    0    0 -0.17654871383E+01  0.75416777371E+01 -0.92565537381E+00  0.78006849736E+01  0.51100000000E-03 0. -1.
        -11    1    4    4    0    0  0.24891020898E+02 -0.15571824830E+02  0.25651427887E+02  0.38987695530E+02  0.51100000000E-03 0.  1.
        -12    1    4    4    0    0  0.61774635290E+01 -0.90147380441E+00 -0.42968970315E+01  0.75787225026E+01  0.00000000000E+00 0.  1.
</event>
<event>
 8    1  0.1248739E-006  0.9118800E+02  0.7816164E-02  0.1184000E+00
        -11   -1    0    0    0    0  0.00000000000E+00  0.00000000000E+00  0.45593999997E+02  0.45594000000E+02  0.51100000000E-03 0.  1.
         11   -1    0    0    0    0 -0.00000000000E+00 -0.00000000000E+00 -0.45593999997E+02  0.45594000000E+02  0.51100000000E-03 0. -1.
         23    2    1    2    0    0  0.00000000000E+00 -0.71054273576E-14  0.00000000000E+00  0.91188000000E+02  0.91188000000E+02 0.  0.
    9900012    2    3    3    0    0  0.57000869922E+01  0.29750538246E+02  0.20933096707E+02  0.54367081280E+02  0.39999993394E+02 0.  0.
         12    1    3    3    0    0 -0.57000869922E+01 -0.29750538246E+02 -0.20933096707E+02  0.36820918720E+02  0.00000000000E+00 0. -1.
         11    1    4    4    0    0  0.16662147094E+02  0.39261483212E+01  0.40229041009E+01  0.17584810038E+02  0.51100000000E-03 0. -1.
        -11    1    4    4    0    0 -0.71703791176E+01  0.11068024448E+02  0.17038633588E+02  0.21546009763E+02  0.51100000000E-03 0.  1.
         12    1    4    4    0    0 -0.37916809841E+01  0.14756365477E+02 -0.12844098230E+00  0.15236261479E+02  0.00000000000E+00 0. -1.
</event>
<event>
 8    1  0.1248739E-006  0.9118800E+02  0.7816164E-02  0.1184000E+00
        -11   -1    0    0    0    0  0.00000000000E+00  0.00000000000E+00  0.45593999997E+02  0.45594000000E+02  0.51100000000E-03 0. -1.
         11   -1    0    0    0    0 -0.00000000000E+00 -0.00000000000E+00 -0.45593999997E+02  0.45594000000E+02  0.51100000000E-03 0.  1.
         23    2    1    2    0    0  0.00000000000E+00 -0.44408920985E-15  0.71054273576E-14  0.91188000000E+02  0.91188000000E+02 0.  0.
    9900012    2    3    3    0    0  0.16643165630E+02  0.38497566301E+01 -0.32618466177E+02  0.54367083063E+02  0.39999997460E+02 0.  0.
         12    1    3    3    0    0 -0.16643165630E+02 -0.38497566301E+01  0.32618466177E+02  0.36820916937E+02  0.00000000000E+00 0. -1.
         11    1    4    4    0    0  0.11652135982E+02  0.91209573747E+00  0.13742532146E+01  0.11768294853E+02  0.51100000000E-03 0. -1.
        -11    1    4    4    0    0 -0.63376561391E+01  0.42666841503E+01 -0.10187261820E+01  0.77076768401E+01  0.51100000000E-03 0.  1.
         12    1    4    4    0    0  0.11328685787E+02 -0.13290232577E+01 -0.32973993210E+02  0.34891111370E+02  0.00000000000E+00 0. -1.
</event>
<event>
 8    1  0.1248739E-006  0.9118800E+02  0.7816164E-02  0.1184000E+00
        -11   -1    0    0    0    0  0.00000000000E+00  0.00000000000E+00  0.45593999997E+02  0.45594000000E+02  0.51100000000E-03 0.  1.
         11   -1    0    0    0    0 -0.00000000000E+00 -0.00000000000E+00 -0.45593999997E+02  0.45594000000E+02  0.51100000000E-03 0. -1.
         23    2    1    2    0    0 -0.17763568394E-14  0.35527136788E-14 -0.71054273576E-14  0.91188000000E+02  0.91188000000E+02 0.  0.
    9900012    2    3    3    0    0  0.74468576177E+00 -0.16607892242E+02  0.32854266180E+02  0.54367089530E+02  0.40000012202E+02 0.  0.
         12    1    3    3    0    0 -0.74468576177E+00  0.16607892242E+02 -0.32854266180E+02  0.36820910470E+02  0.00000000000E+00 0. -1.
         11    1    4    4    0    0  0.48454322192E+01 -0.11001167390E+01  0.44070074881E+01  0.66415499314E+01  0.51100000000E-03 0. -1.
        -11    1    4    4    0    0  0.14622873941E+02 -0.23360100597E+01  0.15450135909E+02  0.21400749640E+02  0.51100000000E-03 0.  1.
         12    1    4    4    0    0 -0.18723620399E+02 -0.13171765443E+02  0.12997122784E+02  0.26324789959E+02  0.00000000000E+00 0. -1.
</event>
<event>
 8    1  0.1248739E-006  0.9118800E+02  0.7816164E-02  0.1184000E+00
        -11   -1    0    0    0    0  0.00000000000E+00  0.00000000000E+00  0.45593999997E+02  0.45594000000E+02  0.51100000000E-03 0. -1.
         11   -1    0    0    0    0 -0.00000000000E+00 -0.00000000000E+00 -0.45593999997E+02  0.45594000000E+02  0.51100000000E-03 0.  1.
         23    2    1    2    0    0  0.00000000000E+00  0.00000000000E+00  0.88817841970E-15  0.91188000000E+02  0.91188000000E+02 0.  0.
    9900012    2    3    3    0    0 -0.15241448127E+02  0.33188022645E+02 -0.46950359276E+01  0.54366946913E+02  0.39999687076E+02 0.  0.
         12    1    3    3    0    0  0.15241448127E+02 -0.33188022645E+02  0.46950359276E+01  0.36821053087E+02  0.00000000000E+00 0. -1.
         11    1    4    4    0    0 -0.14416821635E+02  0.24495979692E+02  0.88860765120E+01  0.29780196829E+02  0.51100000000E-03 0. -1.
        -11    1    4    4    0    0 -0.93367815213E+01  0.72858241964E+01 -0.84516277921E+01  0.14549527002E+02  0.51100000000E-03 0.  1.
         12    1    4    4    0    0  0.85121550293E+01  0.14062187566E+01 -0.51294846475E+01  0.10037223081E+02  0.00000000000E+00 0. -1.
</event>
<event>
 8    1  0.1248739E-006  0.9118800E+02  0.7816164E-02  0.1184000E+00
        -11   -1    0    0    0    0  0.00000000000E+00  0.00000000000E+00  0.45593999997E+02  0.45594000000E+02  0.51100000000E-03 0. -1.
         11   -1    0    0    0    0 -0.00000000000E+00 -0.00000000000E+00 -0.45593999997E+02  0.45594000000E+02  0.51100000000E-03 0.  1.
         23    2    1    2    0    0  0.00000000000E+00  0.00000000000E+00  0.88817841970E-15  0.91188000000E+02  0.91188000000E+02 0.  0.
    9900012    2    3    3    0    0 -0.33608975227E+02  0.13839859049E+02 -0.58885096720E+01  0.54367089359E+02  0.40000011811E+02 0.  0.
        -12    1    3    3    0    0  0.33608975227E+02 -0.13839859049E+02  0.58885096720E+01  0.36820910641E+02  0.00000000000E+00 0.  1.
         11    1    4    4    0    0 -0.22750658464E+02  0.36058157527E+01  0.44167863353E+01  0.23454261225E+02  0.51100000000E-03 0. -1.
        -11    1    4    4    0    0 -0.94089035673E+01 -0.91035423378E+00  0.59362518210E+01  0.11162226351E+02  0.51100000000E-03 0.  1.
         12    1    4    4    0    0 -0.14494131953E+01  0.11144397531E+02 -0.16241547828E+02  0.19750601783E+02  0.00000000000E+00 0. -1.
</event>
<event>
 8    1  0.1248739E-006  0.9118800E+02  0.7816164E-02  0.1184000E+00
        -11   -1    0    0    0    0  0.00000000000E+00  0.00000000000E+00  0.45593999997E+02  0.45594000000E+02  0.51100000000E-03 0.  1.
         11   -1    0    0    0    0 -0.00000000000E+00 -0.00000000000E+00 -0.45593999997E+02  0.45594000000E+02  0.51100000000E-03 0. -1.
         23    2    1    2    0    0  0.44408920985E-15 -0.17763568394E-14  0.00000000000E+00  0.91188000000E+02  0.91188000000E+02 0.  0.
    9900012    2    3    3    0    0 -0.12953371542E+01 -0.84337941123E+01 -0.35818613189E+02  0.54367084310E+02  0.40000000300E+02 0.  0.
        -12    1    3    3    0    0  0.12953371542E+01  0.84337941123E+01  0.35818613189E+02  0.36820915690E+02  0.00000000000E+00 0.  1.
         11    1    4    4    0    0 -0.24627852425E+01  0.77247016773E+01 -0.27433824405E+02  0.28606835702E+02  0.51100000000E-03 0. -1.
        -11    1    4    4    0    0  0.77537045725E+01 -0.98758299867E+01  0.11128596664E+01  0.12605173915E+02  0.51100000000E-03 0.  1.
         12    1    4    4    0    0 -0.65862564842E+01 -0.62826658028E+01 -0.94976484509E+01  0.13155074692E+02  0.00000000000E+00 0. -1.
</event>
<event>
 8    1  0.1248739E-006  0.9118800E+02  0.7816164E-02  0.1184000E+00
        -11   -1    0    0    0    0  0.00000000000E+00  0.00000000000E+00  0.45593999997E+02  0.45594000000E+02  0.51100000000E-03 0. -1.
         11   -1    0    0    0    0 -0.00000000000E+00 -0.00000000000E+00 -0.45593999997E+02  0.45594000000E+02  0.51100000000E-03 0.  1.
         23    2    1    2    0    0  0.00000000000E+00 -0.17763568394E-14  0.00000000000E+00  0.91188000000E+02  0.91188000000E+02 0.  0.
    9900012    2    3    3    0    0 -0.13831652401E+02 -0.75961753588E+01  0.33268064614E+02  0.54367073730E+02  0.39999976182E+02 0.  0.
        -12    1    3    3    0    0  0.13831652401E+02  0.75961753588E+01 -0.33268064614E+02  0.36820926270E+02  0.00000000000E+00 0.  1.
         11    1    4    4    0    0 -0.10149714149E+01 -0.13431460132E+02  0.46825963247E+01  0.14260469727E+02  0.51100000000E-03 0. -1.
        -11    1    4    4    0    0 -0.18319820742E+02  0.80409690941E+01  0.14161309122E+02  0.24511542022E+02  0.51100000000E-03 0.  1.
         12    1    4    4    0    0  0.55031397560E+01 -0.22056843212E+01  0.14424159167E+02  0.15595061980E+02  0.00000000000E+00 0. -1.
</event>
<event>
 8    1  0.1248739E-006  0.9118800E+02  0.7816164E-02  0.1184000E+00
        -11   -1    0    0    0    0  0.00000000000E+00  0.00000000000E+00  0.45593999997E+02  0.45594000000E+02  0.51100000000E-03 0.  1.
         11   -1    0    0    0    0 -0.00000000000E+00 -0.00000000000E+00 -0.45593999997E+02  0.45594000000E+02  0.51100000000E-03 0. -1.
         23    2    1    2    0    0  0.00000000000E+00 -0.71054273576E-14  0.17763568394E-14  0.91188000000E+02  0.91188000000E+02 0.  0.
    9900012    2    3    3    0    0 -0.46940749859E+01 -0.33943553202E+02 -0.13475352019E+02  0.54367024239E+02  0.39999863358E+02 0.  0.
        -12    1    3    3    0    0  0.46940749859E+01  0.33943553202E+02  0.13475352019E+02  0.36820975761E+02  0.00000000000E+00 0.  1.
         11    1    4    4    0    0 -0.73452372321E+01 -0.20496545872E+02 -0.22080890452E+02  0.31010105225E+02  0.51100000000E-03 0. -1.
        -11    1    4    4    0    0  0.33724312649E+01  0.26046521682E+01 -0.13317737588E+01  0.44644290967E+01  0.51100000000E-03 0.  1.
        -12    1    4    4    0    0 -0.72126901865E+00 -0.16051659499E+02  0.99373121927E+01  0.18892489917E+02  0.00000000000E+00 0.  1.
</event>
<event>
 8    1  0.1248739E-006  0.9118800E+02  0.7816164E-02  0.1184000E+00
        -11   -1    0    0    0    0  0.00000000000E+00  0.00000000000E+00  0.45593999997E+02  0.45594000000E+02  0.51100000000E-03 0.  1.
         11   -1    0    0    0    0 -0.00000000000E+00 -0.00000000000E+00 -0.45593999997E+02  0.45594000000E+02  0.51100000000E-03 0. -1.
         23    2    1    2    0    0  0.00000000000E+00 -0.88817841970E-15  0.00000000000E+00  0.91188000000E+02  0.91188000000E+02 0.  0.
    9900012    2    3    3    0    0  0.14666779833E+02  0.23369448533E+01 -0.33692762512E+02  0.54367109359E+02  0.40000057405E+02 0.  0.
        -12    1    3    3    0    0 -0.14666779833E+02 -0.23369448533E+01  0.33692762512E+02  0.36820890641E+02  0.00000000000E+00 0.  1.
         11    1    4    4    0    0  0.11637189254E+02 -0.43148712823E+01 -0.26496042246E+02  0.29258888272E+02  0.51100000000E-03 0. -1.
        -11    1    4    4    0    0  0.57132242627E+01 -0.24913009162E+01 -0.12669483683E+02  0.14119607954E+02  0.51100000000E-03 0.  1.
         12    1    4    4    0    0 -0.26836336835E+01  0.91431170518E+01  0.54727634167E+01  0.10988613133E+02  0.00000000000E+00 0. -1.
</event>
<event>
 8    1  0.1248739E-006  0.9118800E+02  0.7816164E-02  0.1184000E+00
        -11   -1    0    0    0    0  0.00000000000E+00  0.00000000000E+00  0.45593999997E+02  0.45594000000E+02  0.51100000000E-03 0.  1.
         11   -1    0    0    0    0 -0.00000000000E+00 -0.00000000000E+00 -0.45593999997E+02  0.45594000000E+02  0.51100000000E-03 0. -1.
         23    2    1    2    0    0  0.71054273576E-14  0.17763568394E-14  0.00000000000E+00  0.91188000000E+02  0.91188000000E+02 0.  0.
    9900012    2    3    3    0    0  0.33952449603E+02  0.13366873405E+02 -0.49333449292E+01  0.54367081613E+02  0.39999994154E+02 0.  0.
        -12    1    3    3    0    0 -0.33952449603E+02 -0.13366873405E+02  0.49333449292E+01  0.36820918387E+02  0.00000000000E+00 0.  1.
         11    1    4    4    0    0  0.20872685516E+02  0.12035208457E+02 -0.56192121435E+01  0.24740468642E+02  0.51100000000E-03 0. -1.
        -11    1    4    4    0    0  0.20230743332E+02 -0.40567782868E+01 -0.14786965530E+00  0.20634008130E+02  0.51100000000E-03 0.  1.
        -12    1    4    4    0    0 -0.71509792451E+01  0.53884432353E+01  0.83373686967E+00  0.89926048413E+01  0.00000000000E+00 0.  1.
</event>
<event>
 8    1  0.1248739E-006  0.9118800E+02  0.7816164E-02  0.1184000E+00
        -11   -1    0    0    0    0  0.00000000000E+00  0.00000000000E+00  0.45593999997E+02  0.45594000000E+02  0.51100000000E-03 0. -1.
         11   -1    0    0    0    0 -0.00000000000E+00 -0.00000000000E+00 -0.45593999997E+02  0.45594000000E+02  0.51100000000E-03 0.  1.
         23    2    1    2    0    0  0.35527136788E-14  0.00000000000E+00  0.00000000000E+00  0.91188000000E+02  0.91188000000E+02 0.  0.
    9900012    2    3    3    0    0 -0.24358879442E+02 -0.16336760740E+01 -0.27563453351E+02  0.54367246805E+02  0.40000370740E+02 0.  0.
         12    1    3    3    0    0  0.24358879442E+02  0.16336760740E+01  0.27563453351E+02  0.36820753195E+02  0.00000000000E+00 0. -1.
         11    1    4    4    0    0  0.10824049221E+02  0.20269780451E+01 -0.34726108748E+01  0.11546761801E+02  0.51100000000E-03 0. -1.
        -11    1    4    4    0    0 -0.14739480330E+02 -0.12744079423E+01 -0.10858406647E+02  0.18351604594E+02  0.51100000000E-03 0.  1.
         12    1    4    4    0    0 -0.20443448333E+02 -0.23862461768E+01 -0.13232435830E+02  0.24468880410E+02  0.00000000000E+00 0. -1.
</event>
<event>
 8    1  0.1248739E-006  0.9118800E+02  0.7816164E-02  0.1184000E+00
        -11   -1    0    0    0    0  0.00000000000E+00  0.00000000000E+00  0.45593999997E+02  0.45594000000E+02  0.51100000000E-03 0.  1.
         11   -1    0    0    0    0 -0.00000000000E+00 -0.00000000000E+00 -0.45593999997E+02  0.45594000000E+02  0.51100000000E-03 0. -1.
         23    2    1    2    0    0  0.71054273576E-14 -0.88817841970E-15 -0.66613381478E-15  0.91188000000E+02  0.91188000000E+02 0.  0.
    9900012    2    3    3    0    0  0.36783552464E+02 -0.12059246207E+01  0.11369259317E+01  0.54367128383E+02  0.40000100774E+02 0.  0.
         12    1    3    3    0    0 -0.36783552464E+02  0.12059246207E+01 -0.11369259317E+01  0.36820871617E+02  0.00000000000E+00 0. -1.
         11    1    4    4    0    0 -0.26951855585E+00 -0.99410967115E+01  0.94469952082E+01  0.13716550689E+02  0.51100000000E-03 0. -1.
        -11    1    4    4    0    0  0.86074781712E+01  0.16109340042E+01  0.29476312843E+01  0.92397142425E+01  0.51100000000E-03 0.  1.
        -12    1    4    4    0    0  0.28445592849E+02  0.71242380866E+01 -0.11257700561E+02  0.31410863451E+02  0.00000000000E+00 0.  1.
</event>
<event>
 8    1  0.1248739E-006  0.9118800E+02  0.7816164E-02  0.1184000E+00
        -11   -1    0    0    0    0  0.00000000000E+00  0.00000000000E+00  0.45593999997E+02  0.45594000000E+02  0.51100000000E-03 0.  1.
         11   -1    0    0    0    0 -0.00000000000E+00 -0.00000000000E+00 -0.45593999997E+02  0.45594000000E+02  0.51100000000E-03 0. -1.
         23    2    1    2    0    0 -0.35527136788E-14  0.00000000000E+00  0.00000000000E+00  0.91188000000E+02  0.91188000000E+02 0.  0.
    9900012    2    3    3    0    0  0.18390436831E+02 -0.27240921523E+02 -0.16598317214E+02  0.54367080585E+02  0.39999991809E+02 0.  0.
        -12    1    3    3    0    0 -0.18390436831E+02  0.27240921523E+02  0.16598317214E+02  0.36820919415E+02  0.00000000000E+00 0.  1.
         11    1    4    4    0    0  0.20981325965E+02 -0.55511329123E+01 -0.20352917766E+02  0.29753527148E+02  0.51100000000E-03 0. -1.
        -11    1    4    4    0    0  0.19534113486E+01 -0.64020927918E+01  0.53724820572E+01  0.85828999603E+01  0.51100000000E-03 0.  1.
         12    1    4    4    0    0 -0.45443004828E+01 -0.15287695819E+02 -0.16178815055E+01  0.16030653477E+02  0.00000000000E+00 0. -1.
</event>
<event>
 8    1  0.1248739E-006  0.9118800E+02  0.7816164E-02  0.1184000E+00
        -11   -1    0    0    0    0  0.00000000000E+00  0.00000000000E+00  0.45593999997E+02  0.45594000000E+02  0.51100000000E-03 0.  1.
         11   -1    0    0    0    0 -0.00000000000E+00 -0.00000000000E+00 -0.45593999997E+02  0.45594000000E+02  0.51100000000E-03 0. -1.
         23    2    1    2    0    0  0.00000000000E+00  0.00000000000E+00  0.66613381478E-15  0.91188000000E+02  0.91188000000E+02 0.  0.
    9900012    2    3    3    0    0 -0.21784664490E+02  0.29684297492E+02  0.22505168271E+00  0.54367085117E+02  0.40000002141E+02 0.  0.
         12    1    3    3    0    0  0.21784664490E+02 -0.29684297492E+02 -0.22505168271E+00  0.36820914883E+02  0.00000000000E+00 0. -1.
         11    1    4    4    0    0 -0.11828955207E+02  0.21738203000E+02  0.73577893751E+01  0.25818805467E+02  0.51100000000E-03 0.  1.
        -11    1    4    4    0    0 -0.57054991653E+01  0.63805493022E+01  0.86257032072E+01  0.12151826455E+02  0.51100000000E-03 0. -1.
         12    1    4    4    0    0 -0.42502101178E+01  0.15655451902E+01 -0.15758440899E+02  0.16396453195E+02  0.00000000000E+00 0. -1.
</event>
<event>
 8    1  0.1248739E-006  0.9118800E+02  0.7816164E-02  0.1184000E+00
        -11   -1    0    0    0    0  0.00000000000E+00  0.00000000000E+00  0.45593999997E+02  0.45594000000E+02  0.51100000000E-03 0.  1.
         11   -1    0    0    0    0 -0.00000000000E+00 -0.00000000000E+00 -0.45593999997E+02  0.45594000000E+02  0.51100000000E-03 0. -1.
         23    2    1    2    0    0  0.00000000000E+00  0.00000000000E+00  0.00000000000E+00  0.91188000000E+02  0.91188000000E+02 0.  0.
    9900012    2    3    3    0    0  0.15158140210E+02 -0.42344831718E+01  0.33287789677E+02  0.54367122717E+02  0.40000087857E+02 0.  0.
         12    1    3    3    0    0 -0.15158140210E+02  0.42344831718E+01 -0.33287789677E+02  0.36820877283E+02  0.00000000000E+00 0. -1.
         11    1    4    4    0    0  0.49329910691E+01 -0.34138165906E+01 -0.80880970121E+01  0.10070047574E+02  0.51100000000E-03 0. -1.
        -11    1    4    4    0    0  0.40056044315E+01 -0.31239996853E+01  0.34001760144E+02  0.34379120611E+02  0.51100000000E-03 0.  1.
         12    1    4    4    0    0  0.62195447090E+01  0.23033331041E+01  0.73741265454E+01  0.99179545312E+01  0.00000000000E+00 0. -1.
</event>
<event>
 8    1  0.1248739E-006  0.9118800E+02  0.7816164E-02  0.1184000E+00
        -11   -1    0    0    0    0  0.00000000000E+00  0.00000000000E+00  0.45593999997E+02  0.45594000000E+02  0.51100000000E-03 0.  1.
         11   -1    0    0    0    0 -0.00000000000E+00 -0.00000000000E+00 -0.45593999997E+02  0.45594000000E+02  0.51100000000E-03 0. -1.
         23    2    1    2    0    0  0.00000000000E+00  0.44408920985E-15 -0.88817841970E-15  0.91188000000E+02  0.91188000000E+02 0.  0.
    9900012    2    3    3    0    0 -0.36355685393E+02  0.30229266537E+01 -0.49908332591E+01  0.54367049950E+02  0.39999921971E+02 0.  0.
         12    1    3    3    0    0  0.36355685393E+02 -0.30229266537E+01  0.49908332591E+01  0.36820950050E+02  0.00000000000E+00 0. -1.
         11    1    4    4    0    0 -0.27608953451E+01 -0.10614158409E+02  0.55939859189E+00  0.10981613219E+02  0.51100000000E-03 0. -1.
        -11    1    4    4    0    0 -0.16131884856E+02  0.15236886327E+02  0.52336326321E+01  0.22798932535E+02  0.51100000000E-03 0.  1.
         12    1    4    4    0    0 -0.17462905192E+02 -0.15998012637E+01 -0.10783864483E+02  0.20586504196E+02  0.00000000000E+00 0. -1.
</event>
<event>
 8    1  0.1248739E-006  0.9118800E+02  0.7816164E-02  0.1184000E+00
        -11   -1    0    0    0    0  0.00000000000E+00  0.00000000000E+00  0.45593999997E+02  0.45594000000E+02  0.51100000000E-03 0.  1.
         11   -1    0    0    0    0 -0.00000000000E+00 -0.00000000000E+00 -0.45593999997E+02  0.45594000000E+02  0.51100000000E-03 0. -1.
         23    2    1    2    0    0  0.00000000000E+00  0.00000000000E+00 -0.35527136788E-14  0.91188000000E+02  0.91188000000E+02 0.  0.
    9900012    2    3    3    0    0 -0.26578114452E+02  0.23592302897E+01 -0.25373564056E+02  0.54367083549E+02  0.39999998566E+02 0.  0.
        -12    1    3    3    0    0  0.26578114452E+02 -0.23592302897E+01  0.25373564056E+02  0.36820916451E+02  0.00000000000E+00 0.  1.
         11    1    4    4    0    0 -0.12916210326E+02 -0.45875720933E+01  0.53154820054E+00  0.13717027763E+02  0.51100000000E-03 0. -1.
        -11    1    4    4    0    0 -0.73990388872E+01 -0.10155893031E+02 -0.69355776938E+01  0.14352357922E+02  0.51100000000E-03 0.  1.
        -12    1    4    4    0    0 -0.62628652388E+01  0.17102695414E+02 -0.18969534563E+02  0.26297697864E+02  0.00000000000E+00 0.  1.
</event>
<event>
 8    1  0.1248739E-006  0.9118800E+02  0.7816164E-02  0.1184000E+00
        -11   -1    0    0    0    0  0.00000000000E+00  0.00000000000E+00  0.45593999997E+02  0.45594000000E+02  0.51100000000E-03 0.  1.
         11   -1    0    0    0    0 -0.00000000000E+00 -0.00000000000E+00 -0.45593999997E+02  0.45594000000E+02  0.51100000000E-03 0. -1.
         23    2    1    2    0    0  0.00000000000E+00  0.35527136788E-14  0.00000000000E+00  0.91188000000E+02  0.91188000000E+02 0.  0.
    9900012    2    3    3    0    0  0.16759366160E+02  0.23657039218E+02  0.22699061386E+02  0.54367092264E+02  0.40000018435E+02 0.  0.
         12    1    3    3    0    0 -0.16759366160E+02 -0.23657039218E+02 -0.22699061386E+02  0.36820907736E+02  0.00000000000E+00 0. -1.
         11    1    4    4    0    0  0.77183034246E+01  0.19453317726E+02  0.47594914426E+01  0.21462910738E+02  0.51100000000E-03 0. -1.
        -11    1    4    4    0    0  0.11435408171E+02  0.13006395126E+02  0.70503557526E+01  0.18698726981E+02  0.51100000000E-03 0.  1.
         12    1    4    4    0    0 -0.23943454361E+01 -0.88026736328E+01  0.10889214191E+02  0.14205454546E+02  0.00000000000E+00 0. -1.
</event>
<event>
 8    1  0.1248739E-006  0.9118800E+02  0.7816164E-02  0.1184000E+00
        -11   -1    0    0    0    0  0.00000000000E+00  0.00000000000E+00  0.45593999997E+02  0.45594000000E+02  0.51100000000E-03 0.  1.
         11   -1    0    0    0    0 -0.00000000000E+00 -0.00000000000E+00 -0.45593999997E+02  0.45594000000E+02  0.51100000000E-03 0. -1.
         23    2    1    2    0    0  0.00000000000E+00  0.00000000000E+00 -0.35527136788E-14  0.91188000000E+02  0.91188000000E+02 0.  0.
    9900012    2    3    3    0    0 -0.47820914016E+01 -0.19272433771E+02 -0.31007817525E+02  0.54367084079E+02  0.39999999774E+02 0.  0.
        -12    1    3    3    0    0  0.47820914016E+01  0.19272433771E+02  0.31007817525E+02  0.36820915921E+02  0.00000000000E+00 0.  1.
         11    1    4    4    0    0  0.77434677279E+00  0.64736218577E+01 -0.37688258479E+01  0.75306999285E+01  0.51100000000E-03 0. -1.
        -11    1    4    4    0    0  0.66387942687E+00  0.40116905180E+01  0.21092802167E+01  0.45807706774E+01  0.51100000000E-03 0.  1.
         12    1    4    4    0    0 -0.62203176013E+01 -0.29757746147E+02 -0.29348271894E+02  0.42255613473E+02  0.00000000000E+00 0. -1.
</event>
<event>
 8    1  0.1248739E-006  0.9118800E+02  0.7816164E-02  0.1184000E+00
        -11   -1    0    0    0    0  0.00000000000E+00  0.00000000000E+00  0.45593999997E+02  0.45594000000E+02  0.51100000000E-03 0. -1.
         11   -1    0    0    0    0 -0.00000000000E+00 -0.00000000000E+00 -0.45593999997E+02  0.45594000000E+02  0.51100000000E-03 0.  1.
         23    2    1    2    0    0  0.17763568394E-14  0.00000000000E+00  0.00000000000E+00  0.91188000000E+02  0.91188000000E+02 0.  0.
    9900012    2    3    3    0    0 -0.15496296612E+02  0.28467100669E+02 -0.17471950323E+02  0.54367080982E+02  0.39999992716E+02 0.  0.
         12    1    3    3    0    0  0.15496296612E+02 -0.28467100669E+02  0.17471950323E+02  0.36820919018E+02  0.00000000000E+00 0. -1.
         11    1    4    4    0    0 -0.19581871001E+02  0.28110363331E+01 -0.17023334619E+01  0.19855717984E+02  0.51100000000E-03 0. -1.
        -11    1    4    4    0    0 -0.32388866819E+01  0.58773528832E+01 -0.11003200651E+02  0.12888137518E+02  0.51100000000E-03 0.  1.
         12    1    4    4    0    0  0.73244610710E+01  0.19778711453E+02 -0.47664162108E+01  0.21623225481E+02  0.00000000000E+00 0. -1.
</event>
<event>
 8    1  0.1248739E-006  0.9118800E+02  0.7816164E-02  0.1184000E+00
        -11   -1    0    0    0    0  0.00000000000E+00  0.00000000000E+00  0.45593999997E+02  0.45594000000E+02  0.51100000000E-03 0.  1.
         11   -1    0    0    0    0 -0.00000000000E+00 -0.00000000000E+00 -0.45593999997E+02  0.45594000000E+02  0.51100000000E-03 0. -1.
         23    2    1    2    0    0 -0.71054273576E-14 -0.88817841970E-15  0.35527136788E-14  0.91188000000E+02  0.91188000000E+02 0.  0.
    9900012    2    3    3    0    0  0.30006836000E+02  0.71258631964E+01 -0.20114493513E+02  0.54367068693E+02  0.39999964700E+02 0.  0.
        -12    1    3    3    0    0 -0.30006836000E+02 -0.71258631964E+01  0.20114493513E+02  0.36820931307E+02  0.00000000000E+00 0.  1.
         11    1    4    4    0    0 -0.31938422099E+01  0.57132914506E+01 -0.76108153309E+01  0.10038268652E+02  0.51100000000E-03 0. -1.
        -11    1    4    4    0    0  0.11536142379E+02 -0.98756963128E+01  0.28840807180E+01  0.15457356840E+02  0.51100000000E-03 0.  1.
         12    1    4    4    0    0  0.21664535832E+02  0.11288268059E+02 -0.15387758900E+02  0.28871443201E+02  0.00000000000E+00 0. -1.
</event>
<event>
 8    1  0.1248739E-006  0.9118800E+02  0.7816164E-02  0.1184000E+00
        -11   -1    0    0    0    0  0.00000000000E+00  0.00000000000E+00  0.45593999997E+02  0.45594000000E+02  0.51100000000E-03 0.  1.
         11   -1    0    0    0    0 -0.00000000000E+00 -0.00000000000E+00 -0.45593999997E+02  0.45594000000E+02  0.51100000000E-03 0. -1.
         23    2    1    2    0    0  0.00000000000E+00 -0.88817841970E-15  0.00000000000E+00  0.91188000000E+02  0.91188000000E+02 0.  0.
    9900012    2    3    3    0    0 -0.17573119225E+02 -0.35816079900E+01 -0.32158022140E+02  0.54367070856E+02  0.39999969631E+02 0.  0.
        -12    1    3    3    0    0  0.17573119225E+02  0.35816079900E+01  0.32158022140E+02  0.36820929144E+02  0.00000000000E+00 0.  1.
         11    1    4    4    0    0 -0.19207302401E+02 -0.89075861681E+01 -0.26066371324E+02  0.33581561476E+02  0.51100000000E-03 0. -1.
        -11    1    4    4    0    0 -0.80986166487E+01 -0.11505079743E+01 -0.26601382157E+01  0.86016042579E+01  0.51100000000E-03 0.  1.
        -12    1    4    4    0    0  0.97327998248E+01  0.64764861524E+01 -0.34315125996E+01  0.12183905122E+02  0.00000000000E+00 0.  1.
</event>
<event>
 8    1  0.1248739E-006  0.9118800E+02  0.7816164E-02  0.1184000E+00
        -11   -1    0    0    0    0  0.00000000000E+00  0.00000000000E+00  0.45593999997E+02  0.45594000000E+02  0.51100000000E-03 0. -1.
         11   -1    0    0    0    0 -0.00000000000E+00 -0.00000000000E+00 -0.45593999997E+02  0.45594000000E+02  0.51100000000E-03 0.  1.
         23    2    1    2    0    0  0.17763568394E-14  0.00000000000E+00  0.44408920985E-15  0.91188000000E+02  0.91188000000E+02 0.  0.
    9900012    2    3    3    0    0 -0.14852855335E+02  0.33681110682E+02 -0.86870728145E+00  0.54367093157E+02  0.40000020470E+02 0.  0.
        -12    1    3    3    0    0  0.14852855335E+02 -0.33681110682E+02  0.86870728145E+00  0.36820906843E+02  0.00000000000E+00 0.  1.
         11    1    4    4    0    0 -0.12320624804E+02  0.80546302235E+01 -0.64412888843E+01  0.16067515873E+02  0.51100000000E-03 0. -1.
        -11    1    4    4    0    0  0.69497606204E+00 -0.43566529571E+01  0.68142398510E+01  0.81177140701E+01  0.51100000000E-03 0.  1.
        -12    1    4    4    0    0 -0.32272065935E+01  0.29983133416E+02 -0.12416582482E+01  0.30181863214E+02  0.00000000000E+00 0.  1.
</event>
<event>
 8    1  0.1248739E-006  0.9118800E+02  0.7816164E-02  0.1184000E+00
        -11   -1    0    0    0    0  0.00000000000E+00  0.00000000000E+00  0.45593999997E+02  0.45594000000E+02  0.51100000000E-03 0. -1.
         11   -1    0    0    0    0 -0.00000000000E+00 -0.00000000000E+00 -0.45593999997E+02  0.45594000000E+02  0.51100000000E-03 0.  1.
         23    2    1    2    0    0  0.15543122345E-14 -0.35527136788E-14  0.00000000000E+00  0.91188000000E+02  0.91188000000E+02 0.  0.
    9900012    2    3    3    0    0 -0.26954116148E+00 -0.17205865859E+02  0.32552498304E+02  0.54367087216E+02  0.40000006927E+02 0.  0.
        -12    1    3    3    0    0  0.26954116148E+00  0.17205865859E+02 -0.32552498304E+02  0.36820912784E+02  0.00000000000E+00 0.  1.
         11    1    4    4    0    0 -0.93027321775E+01 -0.10568814444E+02  0.16012128833E+02  0.21322029330E+02  0.51100000000E-03 0. -1.
        -11    1    4    4    0    0  0.93882168309E+01 -0.39124563461E+01  0.23476252059E+02  0.25584767752E+02  0.51100000000E-03 0.  1.
        -12    1    4    4    0    0 -0.35502581488E+00 -0.27245950690E+01 -0.69358825880E+01  0.74602901347E+01  0.00000000000E+00 0.  1.
</event>
<event>
 8    1  0.1248739E-006  0.9118800E+02  0.7816164E-02  0.1184000E+00
        -11   -1    0    0    0    0  0.00000000000E+00  0.00000000000E+00  0.45593999997E+02  0.45594000000E+02  0.51100000000E-03 0. -1.
         11   -1    0    0    0    0 -0.00000000000E+00 -0.00000000000E+00 -0.45593999997E+02  0.45594000000E+02  0.51100000000E-03 0.  1.
         23    2    1    2    0    0 -0.17763568394E-14  0.00000000000E+00  0.35527136788E-14  0.91188000000E+02  0.91188000000E+02 0.  0.
    9900012    2    3    3    0    0 -0.15922178362E+02 -0.16076450892E+02  0.29048445589E+02  0.54367078933E+02  0.39999988044E+02 0.  0.
        -12    1    3    3    0    0  0.15922178362E+02  0.16076450892E+02 -0.29048445589E+02  0.36820921067E+02  0.00000000000E+00 0.  1.
         11    1    4    4    0    0 -0.89352813767E+00  0.72483920329E+01  0.38297542691E+01  0.82464900180E+01  0.51100000000E-03 0. -1.
        -11    1    4    4    0    0 -0.30144552133E+01 -0.97996387198E+01 -0.46046287585E+01  0.11239326739E+02  0.51100000000E-03 0.  1.
         12    1    4    4    0    0 -0.12014195011E+02 -0.13525204205E+02  0.29823320078E+02  0.34881262177E+02  0.00000000000E+00 0. -1.
</event>
<event>
 8    1  0.1248739E-006  0.9118800E+02  0.7816164E-02  0.1184000E+00
        -11   -1    0    0    0    0  0.00000000000E+00  0.00000000000E+00  0.45593999997E+02  0.45594000000E+02  0.51100000000E-03 0.  1.
         11   -1    0    0    0    0 -0.00000000000E+00 -0.00000000000E+00 -0.45593999997E+02  0.45594000000E+02  0.51100000000E-03 0. -1.
         23    2    1    2    0    0  0.00000000000E+00  0.00000000000E+00  0.35527136788E-14  0.91188000000E+02  0.91188000000E+02 0.  0.
    9900012    2    3    3    0    0 -0.22596821320E+02  0.17675813893E+02  0.23080975023E+02  0.54367052992E+02  0.39999928906E+02 0.  0.
         12    1    3    3    0    0  0.22596821320E+02 -0.17675813893E+02 -0.23080975023E+02  0.36820947008E+02  0.00000000000E+00 0. -1.
         11    1    4    4    0    0  0.72242525788E+00  0.13810152693E+02  0.18244189500E+02  0.22893070271E+02  0.51100000000E-03 0. -1.
        -11    1    4    4    0    0  0.34948636159E+01  0.23352310121E+01  0.11844757303E+00  0.42049263564E+01  0.51100000000E-03 0.  1.
        -12    1    4    4    0    0 -0.26814110194E+02  0.15304301884E+01  0.47183379499E+01  0.27269056365E+02  0.00000000000E+00 0.  1.
</event>
<event>
 8    1  0.1248739E-006  0.9118800E+02  0.7816164E-02  0.1184000E+00
        -11   -1    0    0    0    0  0.00000000000E+00  0.00000000000E+00  0.45593999997E+02  0.45594000000E+02  0.51100000000E-03 0. -1.
         11   -1    0    0    0    0 -0.00000000000E+00 -0.00000000000E+00 -0.45593999997E+02  0.45594000000E+02  0.51100000000E-03 0.  1.
         23    2    1    2    0    0  0.00000000000E+00  0.00000000000E+00  0.00000000000E+00  0.91188000000E+02  0.91188000000E+02 0.  0.
    9900012    2    3    3    0    0  0.16578237371E+02  0.32871406523E+02 -0.64197236333E+00  0.54367089505E+02  0.40000012145E+02 0.  0.
        -12    1    3    3    0    0 -0.16578237371E+02 -0.32871406523E+02  0.64197236333E+00  0.36820910495E+02  0.00000000000E+00 0.  1.
         11    1    4    4    0    0  0.12378136115E+02  0.24412600823E+02  0.72906860223E+01  0.28325738041E+02  0.51100000000E-03 0. -1.
        -11    1    4    4    0    0 -0.31636021311E+01  0.10975632011E+02  0.37341374026E+01  0.12017348247E+02  0.51100000000E-03 0.  1.
        -12    1    4    4    0    0  0.73637033873E+01 -0.25168263114E+01 -0.11666795788E+02  0.14024003217E+02  0.00000000000E+00 0.  1.
</event>
<event>
 8    1  0.1248739E-006  0.9118800E+02  0.7816164E-02  0.1184000E+00
        -11   -1    0    0    0    0  0.00000000000E+00  0.00000000000E+00  0.45593999997E+02  0.45594000000E+02  0.51100000000E-03 0.  1.
         11   -1    0    0    0    0 -0.00000000000E+00 -0.00000000000E+00 -0.45593999997E+02  0.45594000000E+02  0.51100000000E-03 0. -1.
         23    2    1    2    0    0 -0.44408920985E-15 -0.17763568394E-14  0.00000000000E+00  0.91188000000E+02  0.91188000000E+02 0.  0.
    9900012    2    3    3    0    0 -0.29890413032E+01 -0.11729870857E+02 -0.34774347214E+02  0.54367089332E+02  0.40000011750E+02 0.  0.
        -12    1    3    3    0    0  0.29890413032E+01  0.11729870857E+02  0.34774347214E+02  0.36820910668E+02  0.00000000000E+00 0.  1.
         11    1    4    4    0    0 -0.14004014204E+02 -0.17974961099E+02 -0.13846819023E+02  0.26663571360E+02  0.51100000000E-03 0. -1.
        -11    1    4    4    0    0  0.43048752124E+01  0.67363211925E+01 -0.29721391445E+01  0.85289850017E+01  0.51100000000E-03 0.  1.
        -12    1    4    4    0    0  0.67100976883E+01 -0.49123095032E+00 -0.17955389047E+02  0.19174532971E+02  0.00000000000E+00 0.  1.
</event>
<event>
 8    1  0.1248739E-006  0.9118800E+02  0.7816164E-02  0.1184000E+00
        -11   -1    0    0    0    0  0.00000000000E+00  0.00000000000E+00  0.45593999997E+02  0.45594000000E+02  0.51100000000E-03 0.  1.
         11   -1    0    0    0    0 -0.00000000000E+00 -0.00000000000E+00 -0.45593999997E+02  0.45594000000E+02  0.51100000000E-03 0. -1.
         23    2    1    2    0    0 -0.35527136788E-14  0.17763568394E-14  0.35527136788E-14  0.91188000000E+02  0.91188000000E+02 0.  0.
    9900012    2    3    3    0    0  0.18183461764E+02 -0.12252569678E+02 -0.29580717475E+02  0.54367046838E+02  0.39999914876E+02 0.  0.
        -12    1    3    3    0    0 -0.18183461764E+02  0.12252569678E+02  0.29580717475E+02  0.36820953162E+02  0.00000000000E+00 0.  1.
         11    1    4    4    0    0  0.70137217441E+01 -0.46337093139E+01 -0.27825562350E+02  0.29067601812E+02  0.51100000000E-03 0. -1.
        -11    1    4    4    0    0  0.12969573517E+02  0.25912842167E+01 -0.54337418240E+01  0.14298606281E+02  0.51100000000E-03 0.  1.
        -12    1    4    4    0    0 -0.17998334969E+01 -0.10210144581E+02  0.36785866998E+01  0.11000838745E+02  0.00000000000E+00 0.  1.
</event>
<event>
 8    1  0.1248739E-006  0.9118800E+02  0.7816164E-02  0.1184000E+00
        -11   -1    0    0    0    0  0.00000000000E+00  0.00000000000E+00  0.45593999997E+02  0.45594000000E+02  0.51100000000E-03 0. -1.
         11   -1    0    0    0    0 -0.00000000000E+00 -0.00000000000E+00 -0.45593999997E+02  0.45594000000E+02  0.51100000000E-03 0.  1.
         23    2    1    2    0    0  0.35527136788E-14 -0.35527136788E-14 -0.17763568394E-14  0.91188000000E+02  0.91188000000E+02 0.  0.
    9900012    2    3    3    0    0 -0.25140717595E+02 -0.23395891446E+02  0.13279953002E+02  0.54367074299E+02  0.39999977480E+02 0.  0.
         12    1    3    3    0    0  0.25140717595E+02  0.23395891446E+02 -0.13279953002E+02  0.36820925701E+02  0.00000000000E+00 0. -1.
         11    1    4    4    0    0  0.24633103957E+01 -0.69653319412E+01 -0.19006504116E+01  0.76286446637E+01  0.51100000000E-03 0. -1.
        -11    1    4    4    0    0 -0.27434109096E+02 -0.24052699516E+02  0.11373786804E+02  0.38216825122E+02  0.51100000000E-03 0.  1.
         12    1    4    4    0    0 -0.16991889435E+00  0.76221400110E+01  0.38068166102E+01  0.85216045133E+01  0.00000000000E+00 0. -1.
</event>
<event>
 8    1  0.1248739E-006  0.9118800E+02  0.7816164E-02  0.1184000E+00
        -11   -1    0    0    0    0  0.00000000000E+00  0.00000000000E+00  0.45593999997E+02  0.45594000000E+02  0.51100000000E-03 0.  1.
         11   -1    0    0    0    0 -0.00000000000E+00 -0.00000000000E+00 -0.45593999997E+02  0.45594000000E+02  0.51100000000E-03 0. -1.
         23    2    1    2    0    0 -0.71054273576E-14 -0.17763568394E-14  0.17763568394E-14  0.91188000000E+02  0.91188000000E+02 0.  0.
    9900012    2    3    3    0    0 -0.32052601205E+02 -0.13733327445E+02  0.11823969965E+02  0.54367084850E+02  0.40000001533E+02 0.  0.
         12    1    3    3    0    0  0.32052601205E+02  0.13733327445E+02 -0.11823969965E+02  0.36820915150E+02  0.00000000000E+00 0. -1.
         11    1    4    4    0    0  0.43336414167E+01 -0.15164414386E+01  0.30325511188E+01  0.55024003048E+01  0.51100000000E-03 0. -1.
        -11    1    4    4    0    0 -0.95117461028E+01 -0.17518324290E+02  0.79456530064E+01  0.21459226496E+02  0.51100000000E-03 0.  1.
        -12    1    4    4    0    0 -0.26874496519E+02  0.53014382839E+01  0.84576583957E+00  0.27405458049E+02  0.00000000000E+00 0.  1.
</event>
<event>
 8    1  0.1248739E-006  0.9118800E+02  0.7816164E-02  0.1184000E+00
        -11   -1    0    0    0    0  0.00000000000E+00  0.00000000000E+00  0.45593999997E+02  0.45594000000E+02  0.51100000000E-03 0.  1.
         11   -1    0    0    0    0 -0.00000000000E+00 -0.00000000000E+00 -0.45593999997E+02  0.45594000000E+02  0.51100000000E-03 0. -1.
         23    2    1    2    0    0 -0.35527136788E-14  0.00000000000E+00  0.00000000000E+00  0.91188000000E+02  0.91188000000E+02 0.  0.
    9900012    2    3    3    0    0 -0.23461296953E+02 -0.27657391713E+02 -0.63571844673E+01  0.54367115092E+02  0.40000070475E+02 0.  0.
        -12    1    3    3    0    0  0.23461296953E+02  0.27657391713E+02  0.63571844673E+01  0.36820884908E+02  0.00000000000E+00 0.  1.
         11    1    4    4    0    0 -0.84985972611E+01  0.13165254051E+01 -0.86454031050E+01  0.12194358928E+02  0.51100000000E-03 0. -1.
        -11    1    4    4    0    0 -0.93830434438E+01 -0.14936011468E+02 -0.12036844897E+02  0.21354427601E+02  0.51100000000E-03 0.  1.
        -12    1    4    4    0    0 -0.55796562483E+01 -0.14037905650E+02  0.14325063535E+02  0.20818328563E+02  0.00000000000E+00 0.  1.
</event>
<event>
 8    1  0.1248739E-006  0.9118800E+02  0.7816164E-02  0.1184000E+00
        -11   -1    0    0    0    0  0.00000000000E+00  0.00000000000E+00  0.45593999997E+02  0.45594000000E+02  0.51100000000E-03 0. -1.
         11   -1    0    0    0    0 -0.00000000000E+00 -0.00000000000E+00 -0.45593999997E+02  0.45594000000E+02  0.51100000000E-03 0.  1.
         23    2    1    2    0    0  0.17763568394E-14  0.00000000000E+00  0.00000000000E+00  0.91188000000E+02  0.91188000000E+02 0.  0.
    9900012    2    3    3    0    0  0.10963785796E+02 -0.26942609793E+02  0.22575880109E+02  0.54367093111E+02  0.40000020366E+02 0.  0.
         12    1    3    3    0    0 -0.10963785796E+02  0.26942609793E+02 -0.22575880109E+02  0.36820906889E+02  0.00000000000E+00 0. -1.
         11    1    4    4    0    0 -0.10124344799E+02  0.77652503771E+00  0.22869940692E+01  0.10408443250E+02  0.51100000000E-03 0. -1.
        -11    1    4    4    0    0  0.52030961945E+01 -0.20501741993E+02  0.14212275765E+02  0.25482982900E+02  0.51100000000E-03 0.  1.
        -12    1    4    4    0    0  0.15885034400E+02 -0.72173928372E+01  0.60766102743E+01  0.18475666962E+02  0.00000000000E+00 0.  1.
</event>
<event>
 8    1  0.1248739E-006  0.9118800E+02  0.7816164E-02  0.1184000E+00
        -11   -1    0    0    0    0  0.00000000000E+00  0.00000000000E+00  0.45593999997E+02  0.45594000000E+02  0.51100000000E-03 0. -1.
         11   -1    0    0    0    0 -0.00000000000E+00 -0.00000000000E+00 -0.45593999997E+02  0.45594000000E+02  0.51100000000E-03 0.  1.
         23    2    1    2    0    0  0.00000000000E+00  0.00000000000E+00  0.55511151231E-15  0.91188000000E+02  0.91188000000E+02 0.  0.
    9900012    2    3    3    0    0 -0.12081146431E+02  0.34774404899E+02 -0.75386240155E+00  0.54367059712E+02  0.39999944226E+02 0.  0.
        -12    1    3    3    0    0  0.12081146431E+02 -0.34774404899E+02  0.75386240155E+00  0.36820940288E+02  0.00000000000E+00 0.  1.
         11    1    4    4    0    0 -0.65749611929E+01  0.71389604502E+01  0.12535448781E+01  0.97860229930E+01  0.51100000000E-03 0. -1.
        -11    1    4    4    0    0 -0.74629372333E+01  0.25075822066E+02  0.13012009073E+02  0.29219936085E+02  0.51100000000E-03 0.  1.
        -12    1    4    4    0    0  0.19567519956E+01  0.25596223830E+01 -0.15019416353E+02  0.15361100634E+02  0.00000000000E+00 0.  1.
</event>
<event>
 8    1  0.1248739E-006  0.9118800E+02  0.7816164E-02  0.1184000E+00
        -11   -1    0    0    0    0  0.00000000000E+00  0.00000000000E+00  0.45593999997E+02  0.45594000000E+02  0.51100000000E-03 0. -1.
         11   -1    0    0    0    0 -0.00000000000E+00 -0.00000000000E+00 -0.45593999997E+02  0.45594000000E+02  0.51100000000E-03 0.  1.
         23    2    1    2    0    0 -0.35527136788E-14  0.00000000000E+00 -0.13322676296E-14  0.91188000000E+02  0.91188000000E+02 0.  0.
    9900012    2    3    3    0    0  0.27676227884E+02 -0.23993088590E+02 -0.37599327711E+01  0.54367095823E+02  0.40000026548E+02 0.  0.
        -12    1    3    3    0    0 -0.27676227884E+02  0.23993088590E+02  0.37599327711E+01  0.36820904177E+02  0.00000000000E+00 0.  1.
         11    1    4    4    0    0  0.11344271009E+02 -0.12386091197E+02  0.99584504165E+01  0.19526353342E+02  0.51100000000E-03 0. -1.
        -11    1    4    4    0    0  0.14316943976E+02  0.38934823275E+01 -0.12063853483E+02  0.19122516847E+02  0.51100000000E-03 0.  1.
        -12    1    4    4    0    0  0.20150128992E+01 -0.15500479720E+02 -0.16545297041E+01  0.15718225634E+02  0.00000000000E+00 0.  1.
</event>
<event>
 8    1  0.1248739E-006  0.9118800E+02  0.7816164E-02  0.1184000E+00
        -11   -1    0    0    0    0  0.00000000000E+00  0.00000000000E+00  0.45593999997E+02  0.45594000000E+02  0.51100000000E-03 0.  1.
         11   -1    0    0    0    0 -0.00000000000E+00 -0.00000000000E+00 -0.45593999997E+02  0.45594000000E+02  0.51100000000E-03 0. -1.
         23    2    1    2    0    0 -0.33306690739E-15 -0.88817841970E-15  0.71054273576E-14  0.91188000000E+02  0.91188000000E+02 0.  0.
    9900012    2    3    3    0    0  0.91121334857E+00  0.54910828128E+01  0.36397761070E+02  0.54367091387E+02  0.40000016435E+02 0.  0.
         12    1    3    3    0    0 -0.91121334857E+00 -0.54910828128E+01 -0.36397761070E+02  0.36820908613E+02  0.00000000000E+00 0. -1.
         11    1    4    4    0    0  0.70811326418E+01  0.87805114015E-02  0.71091981950E+01  0.10034102642E+02  0.51100000000E-03 0. -1.
        -11    1    4    4    0    0  0.84620613472E+01  0.11673674074E+02  0.49042608045E+01  0.15229344140E+02  0.51100000000E-03 0.  1.
        -12    1    4    4    0    0 -0.14631980640E+02 -0.61913717722E+01  0.24384302070E+02  0.29103644606E+02  0.00000000000E+00 0.  1.
</event>
<event>
 8    1  0.1248739E-006  0.9118800E+02  0.7816164E-02  0.1184000E+00
        -11   -1    0    0    0    0  0.00000000000E+00  0.00000000000E+00  0.45593999997E+02  0.45594000000E+02  0.51100000000E-03 0.  1.
         11   -1    0    0    0    0 -0.00000000000E+00 -0.00000000000E+00 -0.45593999997E+02  0.45594000000E+02  0.51100000000E-03 0. -1.
         23    2    1    2    0    0  0.00000000000E+00  0.17763568394E-14 -0.35527136788E-14  0.91188000000E+02  0.91188000000E+02 0.  0.
    9900012    2    3    3    0    0  0.28906855567E+02  0.12853569069E+02 -0.18840411982E+02  0.54367059487E+02  0.39999943713E+02 0.  0.
        -12    1    3    3    0    0 -0.28906855567E+02 -0.12853569069E+02  0.18840411982E+02  0.36820940513E+02  0.00000000000E+00 0.  1.
         11    1    4    4    0    0  0.28260379003E+01  0.13953685595E+02  0.23437350877E+01  0.14428614844E+02  0.51100000000E-03 0. -1.
        -11    1    4    4    0    0  0.24572959843E+02 -0.37334257934E+01 -0.75582618290E+01  0.25978763361E+02  0.51100000000E-03 0.  1.
         12    1    4    4    0    0  0.15078578236E+01  0.26333092677E+01 -0.13625885241E+02  0.13959681283E+02  0.00000000000E+00 0. -1.
</event>
<event>
 8    1  0.1248739E-006  0.9118800E+02  0.7816164E-02  0.1184000E+00
        -11   -1    0    0    0    0  0.00000000000E+00  0.00000000000E+00  0.45593999997E+02  0.45594000000E+02  0.51100000000E-03 0. -1.
         11   -1    0    0    0    0 -0.00000000000E+00 -0.00000000000E+00 -0.45593999997E+02  0.45594000000E+02  0.51100000000E-03 0.  1.
         23    2    1    2    0    0  0.00000000000E+00  0.35527136788E-14 -0.35527136788E-14  0.91188000000E+02  0.91188000000E+02 0.  0.
    9900012    2    3    3    0    0 -0.18545664063E+02 -0.21441616745E+02  0.23496734160E+02  0.54367067090E+02  0.39999961046E+02 0.  0.
        -12    1    3    3    0    0  0.18545664063E+02  0.21441616745E+02 -0.23496734160E+02  0.36820932910E+02  0.00000000000E+00 0.  1.
         11    1    4    4    0    0 -0.82081099176E+01  0.45411460049E+00  0.65976910666E+01  0.10540816674E+02  0.51100000000E-03 0. -1.
        -11    1    4    4    0    0 -0.17909374553E+02 -0.10290037155E+02  0.20918766505E+02  0.29397710011E+02  0.51100000000E-03 0.  1.
         12    1    4    4    0    0  0.75718204076E+01 -0.11605694190E+02 -0.40197234118E+01  0.14428540406E+02  0.00000000000E+00 0. -1.
</event>
<event>
 8    1  0.1248739E-006  0.9118800E+02  0.7816164E-02  0.1184000E+00
        -11   -1    0    0    0    0  0.00000000000E+00  0.00000000000E+00  0.45593999997E+02  0.45594000000E+02  0.51100000000E-03 0. -1.
         11   -1    0    0    0    0 -0.00000000000E+00 -0.00000000000E+00 -0.45593999997E+02  0.45594000000E+02  0.51100000000E-03 0.  1.
         23    2    1    2    0    0  0.00000000000E+00  0.71054273576E-14 -0.17763568394E-14  0.91188000000E+02  0.91188000000E+02 0.  0.
    9900012    2    3    3    0    0 -0.57797902337E+01  0.35405371301E+02 -0.82974009521E+01  0.54366903402E+02  0.39999587883E+02 0.  0.
         12    1    3    3    0    0  0.57797902337E+01 -0.35405371301E+02  0.82974009521E+01  0.36821096598E+02  0.00000000000E+00 0. -1.
         11    1    4    4    0    0 -0.21990209298E+01  0.22627910202E+02 -0.14904529897E+02  0.27184610074E+02  0.51100000000E-03 0. -1.
        -11    1    4    4    0    0 -0.10344188162E+02  0.15042866591E+02  0.79706941185E+01  0.19920392291E+02  0.51100000000E-03 0.  1.
         12    1    4    4    0    0  0.67634188583E+01 -0.22654054919E+01 -0.13635651737E+01  0.72619010375E+01  0.00000000000E+00 0. -1.
</event>
<event>
 8    1  0.1248739E-006  0.9118800E+02  0.7816164E-02  0.1184000E+00
        -11   -1    0    0    0    0  0.00000000000E+00  0.00000000000E+00  0.45593999997E+02  0.45594000000E+02  0.51100000000E-03 0. -1.
         11   -1    0    0    0    0 -0.00000000000E+00 -0.00000000000E+00 -0.45593999997E+02  0.45594000000E+02  0.51100000000E-03 0.  1.
         23    2    1    2    0    0  0.00000000000E+00  0.00000000000E+00  0.00000000000E+00  0.91188000000E+02  0.91188000000E+02 0.  0.
    9900012    2    3    3    0    0  0.16658149677E+02 -0.26343269955E+02  0.19604062382E+02  0.54367067306E+02  0.39999961538E+02 0.  0.
        -12    1    3    3    0    0 -0.16658149677E+02  0.26343269955E+02 -0.19604062382E+02  0.36820932694E+02  0.00000000000E+00 0.  1.
         11    1    4    4    0    0  0.12926519564E+02 -0.26821551310E+02  0.23246239648E+02  0.37774041096E+02  0.51100000000E-03 0. -1.
        -11    1    4    4    0    0  0.28153614128E+00  0.79266826146E+01 -0.24286022462E+01  0.82951593718E+01  0.51100000000E-03 0.  1.
         12    1    4    4    0    0  0.34500939723E+01 -0.74484012590E+01 -0.12135750200E+01  0.82978668380E+01  0.00000000000E+00 0. -1.
</event>
<event>
 8    1  0.1248739E-006  0.9118800E+02  0.7816164E-02  0.1184000E+00
        -11   -1    0    0    0    0  0.00000000000E+00  0.00000000000E+00  0.45593999997E+02  0.45594000000E+02  0.51100000000E-03 0. -1.
         11   -1    0    0    0    0 -0.00000000000E+00 -0.00000000000E+00 -0.45593999997E+02  0.45594000000E+02  0.51100000000E-03 0.  1.
         23    2    1    2    0    0 -0.35527136788E-14 -0.35527136788E-14 -0.35527136788E-14  0.91188000000E+02  0.91188000000E+02 0.  0.
    9900012    2    3    3    0    0  0.15786664019E+02 -0.27870071783E+02  0.18160889843E+02  0.54367114867E+02  0.40000069963E+02 0.  0.
        -12    1    3    3    0    0 -0.15786664019E+02  0.27870071783E+02 -0.18160889843E+02  0.36820885133E+02  0.00000000000E+00 0.  1.
         11    1    4    4    0    0  0.11805753349E+02 -0.52790162306E+01  0.61928176379E+01  0.14338577861E+02  0.51100000000E-03 0. -1.
        -11    1    4    4    0    0  0.13435514514E+02 -0.93130565280E+01 -0.43990952494E+01  0.16929208824E+02  0.51100000000E-03 0.  1.
        -12    1    4    4    0    0 -0.94546038447E+01 -0.13277999025E+02  0.16367167455E+02  0.23099328182E+02  0.00000000000E+00 0.  1.
</event>
<event>
 8    1  0.1248739E-006  0.9118800E+02  0.7816164E-02  0.1184000E+00
        -11   -1    0    0    0    0  0.00000000000E+00  0.00000000000E+00  0.45593999997E+02  0.45594000000E+02  0.51100000000E-03 0.  1.
         11   -1    0    0    0    0 -0.00000000000E+00 -0.00000000000E+00 -0.45593999997E+02  0.45594000000E+02  0.51100000000E-03 0. -1.
         23    2    1    2    0    0 -0.35527136788E-14 -0.35527136788E-14 -0.17763568394E-14  0.91188000000E+02  0.91188000000E+02 0.  0.
    9900012    2    3    3    0    0  0.16622365986E+02  0.31533385014E+02  0.92262319625E+01  0.54367071472E+02  0.39999971036E+02 0.  0.
         12    1    3    3    0    0 -0.16622365986E+02 -0.31533385014E+02 -0.92262319625E+01  0.36820928528E+02  0.00000000000E+00 0. -1.
         11    1    4    4    0    0 -0.11944209068E+01  0.10974569835E+02  0.50861676468E+01  0.12154707975E+02  0.51100000000E-03 0. -1.
        -11    1    4    4    0    0  0.19710729696E+02  0.27980559633E+02  0.21241449225E+01  0.34291931623E+02  0.51100000000E-03 0.  1.
         12    1    4    4    0    0 -0.18939428029E+01 -0.74217444540E+01  0.20159193933E+01  0.79204318747E+01  0.00000000000E+00 0. -1.
</event>
<event>
 8    1  0.1248739E-006  0.9118800E+02  0.7816164E-02  0.1184000E+00
        -11   -1    0    0    0    0  0.00000000000E+00  0.00000000000E+00  0.45593999997E+02  0.45594000000E+02  0.51100000000E-03 0.  1.
         11   -1    0    0    0    0 -0.00000000000E+00 -0.00000000000E+00 -0.45593999997E+02  0.45594000000E+02  0.51100000000E-03 0. -1.
         23    2    1    2    0    0  0.17763568394E-14  0.35527136788E-14  0.00000000000E+00  0.91188000000E+02  0.91188000000E+02 0.  0.
    9900012    2    3    3    0    0  0.11486399911E+02  0.26374431526E+02 -0.22983283079E+02  0.54367091234E+02  0.40000016087E+02 0.  0.
        -12    1    3    3    0    0 -0.11486399911E+02 -0.26374431526E+02  0.22983283079E+02  0.36820908766E+02  0.00000000000E+00 0.  1.
         11    1    4    4    0    0  0.59139012671E+01  0.24664778271E+01 -0.22163938560E+01  0.67801285426E+01  0.51100000000E-03 0. -1.
        -11    1    4    4    0    0 -0.57547351380E+01  0.76178645959E+01  0.81261497973E+01  0.12537270369E+02  0.51100000000E-03 0.  1.
         12    1    4    4    0    0  0.11327233782E+02  0.16290089103E+02 -0.28893039020E+02  0.35049692323E+02  0.00000000000E+00 0. -1.
</event>
<event>
 8    1  0.1248739E-006  0.9118800E+02  0.7816164E-02  0.1184000E+00
        -11   -1    0    0    0    0  0.00000000000E+00  0.00000000000E+00  0.45593999997E+02  0.45594000000E+02  0.51100000000E-03 0.  1.
         11   -1    0    0    0    0 -0.00000000000E+00 -0.00000000000E+00 -0.45593999997E+02  0.45594000000E+02  0.51100000000E-03 0. -1.
         23    2    1    2    0    0 -0.17763568394E-14  0.00000000000E+00  0.00000000000E+00  0.91188000000E+02  0.91188000000E+02 0.  0.
    9900012    2    3    3    0    0 -0.81232921841E+01 -0.79015516597E+01 -0.35033668536E+02  0.54367077611E+02  0.39999985029E+02 0.  0.
        -12    1    3    3    0    0  0.81232921841E+01  0.79015516597E+01  0.35033668536E+02  0.36820922389E+02  0.00000000000E+00 0.  1.
         11    1    4    4    0    0 -0.26470685031E+01 -0.55979388253E+01 -0.40312889322E+02  0.40785695244E+02  0.51100000000E-03 0. -1.
        -11    1    4    4    0    0 -0.63703339676E+01  0.30653277089E+01  0.30675606775E+01  0.77063167332E+01  0.51100000000E-03 0.  1.
         12    1    4    4    0    0  0.89411028666E+00 -0.53689405433E+01  0.22116601092E+01  0.58750656337E+01  0.00000000000E+00 0. -1.
</event>
<event>
 8    1  0.1248739E-006  0.9118800E+02  0.7816164E-02  0.1184000E+00
        -11   -1    0    0    0    0  0.00000000000E+00  0.00000000000E+00  0.45593999997E+02  0.45594000000E+02  0.51100000000E-03 0. -1.
         11   -1    0    0    0    0 -0.00000000000E+00 -0.00000000000E+00 -0.45593999997E+02  0.45594000000E+02  0.51100000000E-03 0.  1.
         23    2    1    2    0    0  0.00000000000E+00  0.35527136788E-14  0.00000000000E+00  0.91188000000E+02  0.91188000000E+02 0.  0.
    9900012    2    3    3    0    0 -0.11561492830E+02  0.14617875922E+02  0.31755763007E+02  0.54367097009E+02  0.40000029252E+02 0.  0.
        -12    1    3    3    0    0  0.11561492830E+02 -0.14617875922E+02 -0.31755763007E+02  0.36820902991E+02  0.00000000000E+00 0.  1.
         11    1    4    4    0    0 -0.21265499796E+02  0.81130772854E+01  0.19071357902E+02  0.29694447243E+02  0.51100000000E-03 0. -1.
        -11    1    4    4    0    0  0.29083676427E+01 -0.34317494153E+01  0.11769468269E+02  0.12599836904E+02  0.51100000000E-03 0.  1.
        -12    1    4    4    0    0  0.67956393229E+01  0.99365480516E+01  0.91493683529E+00  0.12072812862E+02  0.00000000000E+00 0.  1.
</event>
<event>
 8    1  0.1248739E-006  0.9118800E+02  0.7816164E-02  0.1184000E+00
        -11   -1    0    0    0    0  0.00000000000E+00  0.00000000000E+00  0.45593999997E+02  0.45594000000E+02  0.51100000000E-03 0.  1.
         11   -1    0    0    0    0 -0.00000000000E+00 -0.00000000000E+00 -0.45593999997E+02  0.45594000000E+02  0.51100000000E-03 0. -1.
         23    2    1    2    0    0  0.00000000000E+00 -0.71054273576E-14  0.00000000000E+00  0.91188000000E+02  0.91188000000E+02 0.  0.
    9900012    2    3    3    0    0 -0.52731236467E+01  0.29827297027E+02 -0.20935851575E+02  0.54367036378E+02  0.39999891030E+02 0.  0.
        -12    1    3    3    0    0  0.52731236467E+01 -0.29827297027E+02  0.20935851575E+02  0.36820963622E+02  0.00000000000E+00 0.  1.
         11    1    4    4    0    0  0.50250642605E+01  0.32951202902E+01 -0.22367065386E+01  0.64118597107E+01  0.51100000000E-03 0. -1.
        -11    1    4    4    0    0 -0.13599297173E+02 -0.31344889863E+01 -0.31858853124E+01  0.14314879332E+02  0.51100000000E-03 0.  1.
        -12    1    4    4    0    0  0.33011092663E+01  0.29666665723E+02 -0.15513259724E+02  0.33640297335E+02  0.00000000000E+00 0.  1.
</event>
<event>
 8    1  0.1248739E-006  0.9118800E+02  0.7816164E-02  0.1184000E+00
        -11   -1    0    0    0    0  0.00000000000E+00  0.00000000000E+00  0.45593999997E+02  0.45594000000E+02  0.51100000000E-03 0. -1.
         11   -1    0    0    0    0 -0.00000000000E+00 -0.00000000000E+00 -0.45593999997E+02  0.45594000000E+02  0.51100000000E-03 0.  1.
         23    2    1    2    0    0  0.00000000000E+00 -0.71054273576E-14  0.00000000000E+00  0.91188000000E+02  0.91188000000E+02 0.  0.
    9900012    2    3    3    0    0 -0.54949892532E+01  0.35589648252E+02 -0.76787955968E+01  0.54367056620E+02  0.39999937176E+02 0.  0.
         12    1    3    3    0    0  0.54949892532E+01 -0.35589648252E+02  0.76787955968E+01  0.36820943380E+02  0.00000000000E+00 0. -1.
         11    1    4    4    0    0 -0.22157226678E+01 -0.49094740464E+01  0.21302395828E+01  0.57922606376E+01  0.51100000000E-03 0. -1.
        -11    1    4    4    0    0 -0.11169327477E+02  0.14596632401E+02 -0.11091164278E+02  0.21466939210E+02  0.51100000000E-03 0.  1.
        -12    1    4    4    0    0  0.78900608916E+01  0.25902489898E+02  0.12821290986E+01  0.27107856772E+02  0.00000000000E+00 0.  1.
</event>
<event>
 8    1  0.1248739E-006  0.9118800E+02  0.7816164E-02  0.1184000E+00
        -11   -1    0    0    0    0  0.00000000000E+00  0.00000000000E+00  0.45593999997E+02  0.45594000000E+02  0.51100000000E-03 0.  1.
         11   -1    0    0    0    0 -0.00000000000E+00 -0.00000000000E+00 -0.45593999997E+02  0.45594000000E+02  0.51100000000E-03 0. -1.
         23    2    1    2    0    0  0.00000000000E+00  0.00000000000E+00  0.53290705182E-14  0.91188000000E+02  0.91188000000E+02 0.  0.
    9900012    2    3    3    0    0  0.33472364383E+02 -0.42705056734E+01  0.14735767492E+02  0.54367092356E+02  0.40000018645E+02 0.  0.
         12    1    3    3    0    0 -0.33472364383E+02  0.42705056734E+01 -0.14735767492E+02  0.36820907644E+02  0.00000000000E+00 0. -1.
         11    1    4    4    0    0  0.20537978574E+02 -0.51974725020E+01 -0.55620218399E+01  0.21903387216E+02  0.51100000000E-03 0. -1.
        -11    1    4    4    0    0  0.12541162433E+02 -0.13381730728E+01  0.24566688858E+02  0.27615098479E+02  0.51100000000E-03 0.  1.
         12    1    4    4    0    0  0.39322337660E+00  0.22651399014E+01 -0.42688995257E+01  0.48486066614E+01  0.00000000000E+00 0. -1.
</event>
<event>
 8    1  0.1248739E-006  0.9118800E+02  0.7816164E-02  0.1184000E+00
        -11   -1    0    0    0    0  0.00000000000E+00  0.00000000000E+00  0.45593999997E+02  0.45594000000E+02  0.51100000000E-03 0. -1.
         11   -1    0    0    0    0 -0.00000000000E+00 -0.00000000000E+00 -0.45593999997E+02  0.45594000000E+02  0.51100000000E-03 0.  1.
         23    2    1    2    0    0  0.00000000000E+00 -0.17763568394E-14  0.00000000000E+00  0.91188000000E+02  0.91188000000E+02 0.  0.
    9900012    2    3    3    0    0 -0.80664598978E+01  0.13939226471E+02  0.33112102007E+02  0.54367066969E+02  0.39999960770E+02 0.  0.
        -12    1    3    3    0    0  0.80664598978E+01 -0.13939226471E+02 -0.33112102007E+02  0.36820933031E+02  0.00000000000E+00 0.  1.
         11    1    4    4    0    0 -0.77342448274E+01  0.21835524363E+02  0.14525115901E+02  0.27342049291E+02  0.51100000000E-03 0.  1.
        -11    1    4    4    0    0 -0.62363459964E+01 -0.41998835630E+01  0.18596808146E+02  0.20059219995E+02  0.51100000000E-03 0. -1.
         12    1    4    4    0    0  0.59041309260E+01 -0.36964143288E+01 -0.98220397495E-02  0.69657976826E+01  0.00000000000E+00 0. -1.
</event>
<event>
 8    1  0.1248739E-006  0.9118800E+02  0.7816164E-02  0.1184000E+00
        -11   -1    0    0    0    0  0.00000000000E+00  0.00000000000E+00  0.45593999997E+02  0.45594000000E+02  0.51100000000E-03 0. -1.
         11   -1    0    0    0    0 -0.00000000000E+00 -0.00000000000E+00 -0.45593999997E+02  0.45594000000E+02  0.51100000000E-03 0.  1.
         23    2    1    2    0    0  0.00000000000E+00  0.00000000000E+00  0.35527136788E-14  0.91188000000E+02  0.91188000000E+02 0.  0.
    9900012    2    3    3    0    0 -0.12355669236E+02 -0.16999353345E+02  0.30234723817E+02  0.54367094244E+02  0.40000022948E+02 0.  0.
        -12    1    3    3    0    0  0.12355669236E+02  0.16999353345E+02 -0.30234723817E+02  0.36820905756E+02  0.00000000000E+00 0.  1.
         11    1    4    4    0    0 -0.11443131116E+02  0.19205539584E+01  0.22089653199E+02  0.24951684431E+02  0.51100000000E-03 0. -1.
        -11    1    4    4    0    0 -0.10175602123E+02 -0.10923932425E+02  0.40172332504E+00  0.14934408595E+02  0.51100000000E-03 0.  1.
        -12    1    4    4    0    0  0.92630640029E+01 -0.79959748786E+01  0.77433472929E+01  0.14481001218E+02  0.00000000000E+00 0.  1.
</event>
<event>
 8    1  0.1248739E-006  0.9118800E+02  0.7816164E-02  0.1184000E+00
        -11   -1    0    0    0    0  0.00000000000E+00  0.00000000000E+00  0.45593999997E+02  0.45594000000E+02  0.51100000000E-03 0. -1.
         11   -1    0    0    0    0 -0.00000000000E+00 -0.00000000000E+00 -0.45593999997E+02  0.45594000000E+02  0.51100000000E-03 0.  1.
         23    2    1    2    0    0  0.00000000000E+00  0.35527136788E-14 -0.35527136788E-14  0.91188000000E+02  0.91188000000E+02 0.  0.
    9900012    2    3    3    0    0 -0.23799037119E+02 -0.18738086365E+02  0.20934899913E+02  0.54367080907E+02  0.39999992545E+02 0.  0.
        -12    1    3    3    0    0  0.23799037119E+02  0.18738086365E+02 -0.20934899913E+02  0.36820919093E+02  0.00000000000E+00 0.  1.
         11    1    4    4    0    0 -0.20616898735E+02 -0.92632252767E+01  0.20080411226E+02  0.30233867951E+02  0.51100000000E-03 0. -1.
        -11    1    4    4    0    0  0.30871588833E+01  0.45176142285E+01  0.58471914567E+01  0.80080607191E+01  0.51100000000E-03 0.  1.
         12    1    4    4    0    0 -0.62692972673E+01 -0.13992475317E+02 -0.49927027700E+01  0.16125152237E+02  0.00000000000E+00 0. -1.
</event>
<event>
 8    1  0.1248739E-006  0.9118800E+02  0.7816164E-02  0.1184000E+00
        -11   -1    0    0    0    0  0.00000000000E+00  0.00000000000E+00  0.45593999997E+02  0.45594000000E+02  0.51100000000E-03 0. -1.
         11   -1    0    0    0    0 -0.00000000000E+00 -0.00000000000E+00 -0.45593999997E+02  0.45594000000E+02  0.51100000000E-03 0.  1.
         23    2    1    2    0    0  0.00000000000E+00  0.00000000000E+00  0.88817841970E-15  0.91188000000E+02  0.91188000000E+02 0.  0.
    9900012    2    3    3    0    0 -0.19274833823E+02  0.30552108259E+02  0.71294566414E+01  0.54367086242E+02  0.40000004705E+02 0.  0.
        -12    1    3    3    0    0  0.19274833823E+02 -0.30552108259E+02 -0.71294566414E+01  0.36820913758E+02  0.00000000000E+00 0.  1.
         11    1    4    4    0    0 -0.22826742762E+02  0.37472395848E+02  0.55496420671E+01  0.44227131527E+02  0.51100000000E-03 0. -1.
        -11    1    4    4    0    0  0.24476776934E+00 -0.49383551135E+01 -0.15417006078E+01  0.51791991189E+01  0.51100000000E-03 0.  1.
         12    1    4    4    0    0  0.33071411697E+01 -0.19819324753E+01  0.31215151821E+01  0.49607555962E+01  0.00000000000E+00 0. -1.
</event>
<event>
 8    1  0.1248739E-006  0.9118800E+02  0.7816164E-02  0.1184000E+00
        -11   -1    0    0    0    0  0.00000000000E+00  0.00000000000E+00  0.45593999997E+02  0.45594000000E+02  0.51100000000E-03 0.  1.
         11   -1    0    0    0    0 -0.00000000000E+00 -0.00000000000E+00 -0.45593999997E+02  0.45594000000E+02  0.51100000000E-03 0. -1.
         23    2    1    2    0    0  0.00000000000E+00 -0.44408920985E-15  0.44408920985E-15  0.91188000000E+02  0.91188000000E+02 0.  0.
    9900012    2    3    3    0    0  0.36513793961E+02 -0.37969588969E+01  0.28471085337E+01  0.54367081037E+02  0.39999992841E+02 0.  0.
        -12    1    3    3    0    0 -0.36513793961E+02  0.37969588969E+01 -0.28471085337E+01  0.36820918963E+02  0.00000000000E+00 0.  1.
         11    1    4    4    0    0  0.33720767256E+02 -0.52230705959E+01  0.78741228314E+01  0.35019600532E+02  0.51100000000E-03 0. -1.
        -11    1    4    4    0    0  0.80289624493E+01 -0.52386158276E+01 -0.51264571357E+01  0.10871425704E+02  0.51100000000E-03 0.  1.
         12    1    4    4    0    0 -0.52359357447E+01  0.66647275266E+01  0.99442838051E-01  0.84760548019E+01  0.00000000000E+00 0. -1.
</event>
<event>
 8    1  0.1248739E-006  0.9118800E+02  0.7816164E-02  0.1184000E+00
        -11   -1    0    0    0    0  0.00000000000E+00  0.00000000000E+00  0.45593999997E+02  0.45594000000E+02  0.51100000000E-03 0.  1.
         11   -1    0    0    0    0 -0.00000000000E+00 -0.00000000000E+00 -0.45593999997E+02  0.45594000000E+02  0.51100000000E-03 0. -1.
         23    2    1    2    0    0  0.00000000000E+00  0.00000000000E+00  0.00000000000E+00  0.91188000000E+02  0.91188000000E+02 0.  0.
    9900012    2    3    3    0    0 -0.11638775482E+02  0.16482148749E+02  0.30800260957E+02  0.54367103798E+02  0.40000044728E+02 0.  0.
         12    1    3    3    0    0  0.11638775482E+02 -0.16482148749E+02 -0.30800260957E+02  0.36820896202E+02  0.00000000000E+00 0. -1.
         11    1    4    4    0    0  0.51174241030E+01  0.69662987597E+01  0.57114110099E+01  0.10360384348E+02  0.51100000000E-03 0. -1.
        -11    1    4    4    0    0 -0.20165198729E+02 -0.17961358318E+01  0.25029348916E+02  0.32192074353E+02  0.51100000000E-03 0.  1.
        -12    1    4    4    0    0  0.34089991441E+01  0.11311985821E+02  0.59501030774E-01  0.11814645097E+02  0.00000000000E+00 0.  1.
</event>
<event>
 8    1  0.1248739E-006  0.9118800E+02  0.7816164E-02  0.1184000E+00
        -11   -1    0    0    0    0  0.00000000000E+00  0.00000000000E+00  0.45593999997E+02  0.45594000000E+02  0.51100000000E-03 0.  1.
         11   -1    0    0    0    0 -0.00000000000E+00 -0.00000000000E+00 -0.45593999997E+02  0.45594000000E+02  0.51100000000E-03 0. -1.
         23    2    1    2    0    0 -0.35527136788E-14  0.17763568394E-14  0.00000000000E+00  0.91188000000E+02  0.91188000000E+02 0.  0.
    9900012    2    3    3    0    0  0.28834043880E+02 -0.13319451453E+02 -0.18627072698E+02  0.54367113118E+02  0.40000065976E+02 0.  0.
        -12    1    3    3    0    0 -0.28834043880E+02  0.13319451453E+02  0.18627072698E+02  0.36820886882E+02  0.00000000000E+00 0.  1.
         11    1    4    4    0    0  0.36407260598E+01 -0.13696947102E+02  0.13467864901E+01  0.14236399835E+02  0.51100000000E-03 0. -1.
        -11    1    4    4    0    0 -0.40939296444E+01 -0.20540766592E+01 -0.61112861468E+01  0.76372317946E+01  0.51100000000E-03 0.  1.
         12    1    4    4    0    0  0.29287247465E+02  0.24315723081E+01 -0.13862573041E+02  0.32493481489E+02  0.00000000000E+00 0. -1.
</event>
<event>
 8    1  0.1248739E-006  0.9118800E+02  0.7816164E-02  0.1184000E+00
        -11   -1    0    0    0    0  0.00000000000E+00  0.00000000000E+00  0.45593999997E+02  0.45594000000E+02  0.51100000000E-03 0. -1.
         11   -1    0    0    0    0 -0.00000000000E+00 -0.00000000000E+00 -0.45593999997E+02  0.45594000000E+02  0.51100000000E-03 0.  1.
         23    2    1    2    0    0  0.17763568394E-14  0.17763568394E-14 -0.71054273576E-14  0.91188000000E+02  0.91188000000E+02 0.  0.
    9900012    2    3    3    0    0 -0.14843334536E+02  0.10211868501E+02  0.32111880998E+02  0.54367085567E+02  0.40000003167E+02 0.  0.
        -12    1    3    3    0    0  0.14843334536E+02 -0.10211868501E+02 -0.32111880998E+02  0.36820914433E+02  0.00000000000E+00 0.  1.
         11    1    4    4    0    0 -0.34917847831E+01  0.18316828653E+02  0.91107090649E+01  0.20753404367E+02  0.51100000000E-03 0. -1.
        -11    1    4    4    0    0 -0.40473052344E+01 -0.13407464348E+02  0.80625388165E+01  0.16159991100E+02  0.51100000000E-03 0.  1.
        -12    1    4    4    0    0 -0.73042445183E+01  0.53025041962E+01  0.14938633117E+02  0.17453690101E+02  0.00000000000E+00 0.  1.
</event>
<event>
 8    1  0.1248739E-006  0.9118800E+02  0.7816164E-02  0.1184000E+00
        -11   -1    0    0    0    0  0.00000000000E+00  0.00000000000E+00  0.45593999997E+02  0.45594000000E+02  0.51100000000E-03 0. -1.
         11   -1    0    0    0    0 -0.00000000000E+00 -0.00000000000E+00 -0.45593999997E+02  0.45594000000E+02  0.51100000000E-03 0.  1.
         23    2    1    2    0    0  0.17763568394E-14  0.17763568394E-14  0.35527136788E-14  0.91188000000E+02  0.91188000000E+02 0.  0.
    9900012    2    3    3    0    0  0.14384420399E+02  0.15108849004E+02  0.30341273590E+02  0.54367058249E+02  0.39999940889E+02 0.  0.
        -12    1    3    3    0    0 -0.14384420399E+02 -0.15108849004E+02 -0.30341273590E+02  0.36820941751E+02  0.00000000000E+00 0.  1.
         11    1    4    4    0    0  0.13162235912E+02  0.85963756696E+01  0.38542348430E+02  0.41625169689E+02  0.51100000000E-03 0. -1.
        -11    1    4    4    0    0 -0.23879542644E+01  0.36386032499E+01 -0.14953718595E+01  0.46019448539E+01  0.51100000000E-03 0.  1.
         12    1    4    4    0    0  0.36101387513E+01  0.28738700842E+01 -0.67057029810E+01  0.81399437059E+01  0.00000000000E+00 0. -1.
</event>
<event>
 8    1  0.1248739E-006  0.9118800E+02  0.7816164E-02  0.1184000E+00
        -11   -1    0    0    0    0  0.00000000000E+00  0.00000000000E+00  0.45593999997E+02  0.45594000000E+02  0.51100000000E-03 0. -1.
         11   -1    0    0    0    0 -0.00000000000E+00 -0.00000000000E+00 -0.45593999997E+02  0.45594000000E+02  0.51100000000E-03 0.  1.
         23    2    1    2    0    0  0.71054273576E-14  0.00000000000E+00  0.00000000000E+00  0.91188000000E+02  0.91188000000E+02 0.  0.
    9900012    2    3    3    0    0 -0.34889534937E+02  0.52622413049E+00 -0.11756856967E+02  0.54367078696E+02  0.39999987503E+02 0.  0.
         12    1    3    3    0    0  0.34889534937E+02 -0.52622413049E+00  0.11756856967E+02  0.36820921304E+02  0.00000000000E+00 0. -1.
         11    1    4    4    0    0 -0.82502507719E+01  0.15072748439E+02 -0.62445409365E+01  0.18282469064E+02  0.51100000000E-03 0. -1.
        -11    1    4    4    0    0 -0.30906794862E+01 -0.58069902771E+01 -0.85453743408E+01  0.10784102125E+02  0.51100000000E-03 0.  1.
        -12    1    4    4    0    0 -0.23548604679E+02 -0.87395340309E+01  0.30330583108E+01  0.25300507507E+02  0.00000000000E+00 0.  1.
</event>
<event>
 8    1  0.1248739E-006  0.9118800E+02  0.7816164E-02  0.1184000E+00
        -11   -1    0    0    0    0  0.00000000000E+00  0.00000000000E+00  0.45593999997E+02  0.45594000000E+02  0.51100000000E-03 0.  1.
         11   -1    0    0    0    0 -0.00000000000E+00 -0.00000000000E+00 -0.45593999997E+02  0.45594000000E+02  0.51100000000E-03 0. -1.
         23    2    1    2    0    0  0.00000000000E+00  0.00000000000E+00  0.71054273576E-14  0.91188000000E+02  0.91188000000E+02 0.  0.
    9900012    2    3    3    0    0 -0.59435730512E+01  0.68485878949E+01 -0.35686848455E+02  0.54367077016E+02  0.39999983673E+02 0.  0.
        -12    1    3    3    0    0  0.59435730512E+01 -0.68485878949E+01  0.35686848455E+02  0.36820922984E+02  0.00000000000E+00 0.  1.
         11    1    4    4    0    0 -0.12572972231E+01  0.81737143971E+01  0.38590492197E+01  0.91259336231E+01  0.51100000000E-03 0.  1.
        -11    1    4    4    0    0 -0.76582193975E+01 -0.22436279079E+01 -0.41026997152E+02  0.41795893173E+02  0.51100000000E-03 0. -1.
         12    1    4    4    0    0  0.29719435694E+01  0.91850140566E+00  0.14810994779E+01  0.34452502195E+01  0.00000000000E+00 0. -1.
</event>
<event>
 8    1  0.1248739E-006  0.9118800E+02  0.7816164E-02  0.1184000E+00
        -11   -1    0    0    0    0  0.00000000000E+00  0.00000000000E+00  0.45593999997E+02  0.45594000000E+02  0.51100000000E-03 0. -1.
         11   -1    0    0    0    0 -0.00000000000E+00 -0.00000000000E+00 -0.45593999997E+02  0.45594000000E+02  0.51100000000E-03 0.  1.
         23    2    1    2    0    0  0.00000000000E+00  0.35527136788E-14  0.35527136788E-14  0.91188000000E+02  0.91188000000E+02 0.  0.
    9900012    2    3    3    0    0 -0.17616393946E+02  0.16671094670E+02  0.27704058776E+02  0.54367114544E+02  0.40000069225E+02 0.  0.
        -12    1    3    3    0    0  0.17616393946E+02 -0.16671094670E+02 -0.27704058776E+02  0.36820885456E+02  0.00000000000E+00 0.  1.
         11    1    4    4    0    0 -0.25392299703E+02  0.73888401550E+01  0.21211257177E+02  0.33901051228E+02  0.51100000000E-03 0. -1.
        -11    1    4    4    0    0  0.89092722025E+01 -0.67963128433E+00  0.88675550646E+00  0.89790514783E+01  0.51100000000E-03 0.  1.
         12    1    4    4    0    0 -0.11333664447E+01  0.99618857991E+01  0.56060460925E+01  0.11487011838E+02  0.00000000000E+00 0. -1.
</event>
<event>
 8    1  0.1248739E-006  0.9118800E+02  0.7816164E-02  0.1184000E+00
        -11   -1    0    0    0    0  0.00000000000E+00  0.00000000000E+00  0.45593999997E+02  0.45594000000E+02  0.51100000000E-03 0.  1.
         11   -1    0    0    0    0 -0.00000000000E+00 -0.00000000000E+00 -0.45593999997E+02  0.45594000000E+02  0.51100000000E-03 0. -1.
         23    2    1    2    0    0  0.88817841970E-15  0.00000000000E+00  0.00000000000E+00  0.91188000000E+02  0.91188000000E+02 0.  0.
    9900012    2    3    3    0    0  0.76330579281E+01  0.13355899377E+02 -0.33453486905E+02  0.54367090076E+02  0.40000013447E+02 0.  0.
        -12    1    3    3    0    0 -0.76330579281E+01 -0.13355899377E+02  0.33453486905E+02  0.36820909924E+02  0.00000000000E+00 0.  1.
         11    1    4    4    0    0  0.17672959087E+01  0.77065304782E+01  0.62748203201E+01  0.10093924764E+02  0.51100000000E-03 0. -1.
        -11    1    4    4    0    0  0.91318554605E+01  0.43235341510E+01 -0.95927135535E+01  0.13932117043E+02  0.51100000000E-03 0.  1.
         12    1    4    4    0    0 -0.32660934411E+01  0.13258347475E+01 -0.30135593672E+02  0.30341048269E+02  0.00000000000E+00 0. -1.
</event>
<event>
 8    1  0.1248739E-006  0.9118800E+02  0.7816164E-02  0.1184000E+00
        -11   -1    0    0    0    0  0.00000000000E+00  0.00000000000E+00  0.45593999997E+02  0.45594000000E+02  0.51100000000E-03 0. -1.
         11   -1    0    0    0    0 -0.00000000000E+00 -0.00000000000E+00 -0.45593999997E+02  0.45594000000E+02  0.51100000000E-03 0.  1.
         23    2    1    2    0    0  0.00000000000E+00  0.00000000000E+00  0.00000000000E+00  0.91188000000E+02  0.91188000000E+02 0.  0.
    9900012    2    3    3    0    0  0.24479992314E+02 -0.14450832920E+02 -0.23402640689E+02  0.54367079493E+02  0.39999989320E+02 0.  0.
         12    1    3    3    0    0 -0.24479992314E+02  0.14450832920E+02  0.23402640689E+02  0.36820920507E+02  0.00000000000E+00 0. -1.
         11    1    4    4    0    0  0.12943296085E+02 -0.69235989003E+01  0.42804065108E+01  0.15290095337E+02  0.51100000000E-03 0. -1.
        -11    1    4    4    0    0  0.14936154074E+02  0.39662090186E+01 -0.17528146732E+02  0.23367829181E+02  0.51100000000E-03 0.  1.
        -12    1    4    4    0    0 -0.33994578443E+01 -0.11493443038E+02 -0.10154900468E+02  0.15709154975E+02  0.00000000000E+00 0.  1.
</event>
<event>
 8    1  0.1248739E-006  0.9118800E+02  0.7816164E-02  0.1184000E+00
        -11   -1    0    0    0    0  0.00000000000E+00  0.00000000000E+00  0.45593999997E+02  0.45594000000E+02  0.51100000000E-03 0. -1.
         11   -1    0    0    0    0 -0.00000000000E+00 -0.00000000000E+00 -0.45593999997E+02  0.45594000000E+02  0.51100000000E-03 0.  1.
         23    2    1    2    0    0  0.00000000000E+00 -0.12212453271E-14 -0.35527136788E-14  0.91188000000E+02  0.91188000000E+02 0.  0.
    9900012    2    3    3    0    0 -0.27364091585E+02  0.28284780725E+00  0.24635483141E+02  0.54367074689E+02  0.39999978370E+02 0.  0.
        -12    1    3    3    0    0  0.27364091585E+02 -0.28284780725E+00 -0.24635483141E+02  0.36820925311E+02  0.00000000000E+00 0.  1.
         11    1    4    4    0    0 -0.49854119172E+00  0.96077545626E+01  0.61011705903E+01  0.11392180383E+02  0.51100000000E-03 0.  1.
        -11    1    4    4    0    0 -0.84348452019E+01 -0.15262774005E+01  0.21122466079E+02  0.22795497577E+02  0.51100000000E-03 0. -1.
         12    1    4    4    0    0 -0.18430705191E+02 -0.77986293548E+01 -0.25881535282E+01  0.20179396729E+02  0.00000000000E+00 0. -1.
</event>
<event>
 8    1  0.1248739E-006  0.9118800E+02  0.7816164E-02  0.1184000E+00
        -11   -1    0    0    0    0  0.00000000000E+00  0.00000000000E+00  0.45593999997E+02  0.45594000000E+02  0.51100000000E-03 0. -1.
         11   -1    0    0    0    0 -0.00000000000E+00 -0.00000000000E+00 -0.45593999997E+02  0.45594000000E+02  0.51100000000E-03 0.  1.
         23    2    1    2    0    0  0.00000000000E+00  0.00000000000E+00 -0.17763568394E-14  0.91188000000E+02  0.91188000000E+02 0.  0.
    9900012    2    3    3    0    0 -0.29177203701E+02 -0.21740220343E+02 -0.56420288813E+01  0.54367097156E+02  0.40000029586E+02 0.  0.
        -12    1    3    3    0    0  0.29177203701E+02  0.21740220343E+02  0.56420288813E+01  0.36820902844E+02  0.00000000000E+00 0.  1.
         11    1    4    4    0    0 -0.19091998076E+02 -0.19555778528E+02  0.12938631455E+02  0.30238072831E+02  0.51100000000E-03 0. -1.
        -11    1    4    4    0    0  0.20328775924E+01  0.16667026343E+01 -0.39543838840E+01  0.47484356519E+01  0.51100000000E-03 0.  1.
         12    1    4    4    0    0 -0.12118083217E+02 -0.38511444491E+01 -0.14626276452E+02  0.19380588672E+02  0.00000000000E+00 0. -1.
</event>
<event>
 8    1  0.1248739E-006  0.9118800E+02  0.7816164E-02  0.1184000E+00
        -11   -1    0    0    0    0  0.00000000000E+00  0.00000000000E+00  0.45593999997E+02  0.45594000000E+02  0.51100000000E-03 0.  1.
         11   -1    0    0    0    0 -0.00000000000E+00 -0.00000000000E+00 -0.45593999997E+02  0.45594000000E+02  0.51100000000E-03 0. -1.
         23    2    1    2    0    0 -0.17763568394E-14  0.35527136788E-14  0.00000000000E+00  0.91188000000E+02  0.91188000000E+02 0.  0.
    9900012    2    3    3    0    0  0.91606227315E+01 -0.16326789025E+02 -0.31706447630E+02  0.54367083797E+02  0.39999999131E+02 0.  0.
        -12    1    3    3    0    0 -0.91606227315E+01  0.16326789025E+02  0.31706447630E+02  0.36820916203E+02  0.00000000000E+00 0.  1.
         11    1    4    4    0    0 -0.56810848830E+01 -0.19231116587E+01  0.19370336263E+01  0.63027917172E+01  0.51100000000E-03 0. -1.
        -11    1    4    4    0    0 -0.12306494985E+01  0.63103954602E+01 -0.13664246599E+02  0.15101232547E+02  0.51100000000E-03 0.  1.
         12    1    4    4    0    0  0.16072357113E+02 -0.20714072827E+02 -0.19979234658E+02  0.32963059533E+02  0.00000000000E+00 0. -1.
</event>
<event>
 8    1  0.1248739E-006  0.9118800E+02  0.7816164E-02  0.1184000E+00
        -11   -1    0    0    0    0  0.00000000000E+00  0.00000000000E+00  0.45593999997E+02  0.45594000000E+02  0.51100000000E-03 0.  1.
         11   -1    0    0    0    0 -0.00000000000E+00 -0.00000000000E+00 -0.45593999997E+02  0.45594000000E+02  0.51100000000E-03 0. -1.
         23    2    1    2    0    0 -0.71054273576E-14  0.00000000000E+00 -0.44408920985E-15  0.91188000000E+02  0.91188000000E+02 0.  0.
    9900012    2    3    3    0    0 -0.36208211683E+02  0.59545532587E+01  0.30482954976E+01  0.54367035819E+02  0.39999889757E+02 0.  0.
         12    1    3    3    0    0  0.36208211683E+02 -0.59545532587E+01 -0.30482954976E+01  0.36820964181E+02  0.00000000000E+00 0. -1.
         11    1    4    4    0    0 -0.75955272532E+01 -0.72096735006E+01 -0.36889775543E+01  0.11103151890E+02  0.51100000000E-03 0. -1.
        -11    1    4    4    0    0  0.36852033294E+01  0.90057687910E+01 -0.10327134119E+01  0.97852487116E+01  0.51100000000E-03 0.  1.
        -12    1    4    4    0    0 -0.32297887759E+02  0.41584579684E+01  0.77699864637E+01  0.33478635217E+02  0.00000000000E+00 0.  1.
</event>
<event>
 8    1  0.1248739E-006  0.9118800E+02  0.7816164E-02  0.1184000E+00
        -11   -1    0    0    0    0  0.00000000000E+00  0.00000000000E+00  0.45593999997E+02  0.45594000000E+02  0.51100000000E-03 0. -1.
         11   -1    0    0    0    0 -0.00000000000E+00 -0.00000000000E+00 -0.45593999997E+02  0.45594000000E+02  0.51100000000E-03 0.  1.
         23    2    1    2    0    0 -0.35527136788E-14  0.00000000000E+00  0.17763568394E-14  0.91188000000E+02  0.91188000000E+02 0.  0.
    9900012    2    3    3    0    0 -0.24214192897E+02 -0.24357270795E+02  0.13273104161E+02  0.54367094629E+02  0.40000023826E+02 0.  0.
        -12    1    3    3    0    0  0.24214192897E+02  0.24357270795E+02 -0.13273104161E+02  0.36820905371E+02  0.00000000000E+00 0.  1.
         11    1    4    4    0    0  0.71136170853E+01 -0.30409354820E+01  0.73146362352E+01  0.10646818311E+02  0.51100000000E-03 0. -1.
        -11    1    4    4    0    0 -0.12413716164E+02  0.11329786239E+01 -0.33804825758E+01  0.12915558535E+02  0.51100000000E-03 0.  1.
        -12    1    4    4    0    0 -0.18914093819E+02 -0.22449313937E+02  0.93389505021E+01  0.30804717783E+02  0.00000000000E+00 0.  1.
</event>
<event>
 8    1  0.1248739E-006  0.9118800E+02  0.7816164E-02  0.1184000E+00
        -11   -1    0    0    0    0  0.00000000000E+00  0.00000000000E+00  0.45593999997E+02  0.45594000000E+02  0.51100000000E-03 0. -1.
         11   -1    0    0    0    0 -0.00000000000E+00 -0.00000000000E+00 -0.45593999997E+02  0.45594000000E+02  0.51100000000E-03 0.  1.
         23    2    1    2    0    0  0.00000000000E+00  0.00000000000E+00  0.35527136788E-14  0.91188000000E+02  0.91188000000E+02 0.  0.
    9900012    2    3    3    0    0 -0.26655016108E+02  0.17308157188E+02 -0.18593426059E+02  0.54367113514E+02  0.40000066878E+02 0.  0.
         12    1    3    3    0    0  0.26655016108E+02 -0.17308157188E+02  0.18593426059E+02  0.36820886486E+02  0.00000000000E+00 0. -1.
         11    1    4    4    0    0 -0.79178678406E+01 -0.11059672252E+01 -0.54912241800E+01  0.96989348848E+01  0.51100000000E-03 0. -1.
        -11    1    4    4    0    0 -0.14117550583E+02  0.20396208607E+02 -0.22833842488E+02  0.33714906540E+02  0.51100000000E-03 0.  1.
         12    1    4    4    0    0 -0.46195976845E+01 -0.19820841933E+01  0.97316406084E+01  0.10953272089E+02  0.00000000000E+00 0. -1.
</event>
<event>
 8    1  0.1248739E-006  0.9118800E+02  0.7816164E-02  0.1184000E+00
        -11   -1    0    0    0    0  0.00000000000E+00  0.00000000000E+00  0.45593999997E+02  0.45594000000E+02  0.51100000000E-03 0. -1.
         11   -1    0    0    0    0 -0.00000000000E+00 -0.00000000000E+00 -0.45593999997E+02  0.45594000000E+02  0.51100000000E-03 0.  1.
         23    2    1    2    0    0  0.00000000000E+00 -0.35527136788E-14 -0.35527136788E-14  0.91188000000E+02  0.91188000000E+02 0.  0.
    9900012    2    3    3    0    0  0.12689787909E+02  0.22512993743E+02  0.26228127182E+02  0.54367078502E+02  0.39999987061E+02 0.  0.
        -12    1    3    3    0    0 -0.12689787909E+02 -0.22512993743E+02 -0.26228127182E+02  0.36820921498E+02  0.00000000000E+00 0.  1.
         11    1    4    4    0    0  0.10190827958E+02  0.25595577283E+01 -0.18071434808E+01  0.10661617047E+02  0.51100000000E-03 0. -1.
        -11    1    4    4    0    0  0.81727196668E+01 -0.38141332612E+01  0.62926618571E+01  0.10997206591E+02  0.51100000000E-03 0.  1.
         12    1    4    4    0    0 -0.56737597155E+01  0.23767569276E+02  0.21742608806E+02  0.32708254865E+02  0.00000000000E+00 0. -1.
</event>
<event>
 8    1  0.1248739E-006  0.9118800E+02  0.7816164E-02  0.1184000E+00
        -11   -1    0    0    0    0  0.00000000000E+00  0.00000000000E+00  0.45593999997E+02  0.45594000000E+02  0.51100000000E-03 0.  1.
         11   -1    0    0    0    0 -0.00000000000E+00 -0.00000000000E+00 -0.45593999997E+02  0.45594000000E+02  0.51100000000E-03 0. -1.
         23    2    1    2    0    0  0.00000000000E+00 -0.17763568394E-14  0.00000000000E+00  0.91188000000E+02  0.91188000000E+02 0.  0.
    9900012    2    3    3    0    0 -0.15038807881E+02 -0.14026298660E+02  0.30543033734E+02  0.54367086021E+02  0.40000004201E+02 0.  0.
         12    1    3    3    0    0  0.15038807881E+02  0.14026298660E+02 -0.30543033734E+02  0.36820913979E+02  0.00000000000E+00 0. -1.
         11    1    4    4    0    0 -0.70409838217E+01  0.46434676682E+01 -0.10497655949E+01  0.84993678135E+01  0.51100000000E-03 0. -1.
        -11    1    4    4    0    0  0.10085875818E+01 -0.46801770009E+01  0.28556321407E+02  0.28954875207E+02  0.51100000000E-03 0.  1.
        -12    1    4    4    0    0 -0.90064116410E+01 -0.13989589327E+02  0.30364779220E+01  0.16912843000E+02  0.00000000000E+00 0.  1.
</event>
<event>
 8    1  0.1248739E-006  0.9118800E+02  0.7816164E-02  0.1184000E+00
        -11   -1    0    0    0    0  0.00000000000E+00  0.00000000000E+00  0.45593999997E+02  0.45594000000E+02  0.51100000000E-03 0. -1.
         11   -1    0    0    0    0 -0.00000000000E+00 -0.00000000000E+00 -0.45593999997E+02  0.45594000000E+02  0.51100000000E-03 0.  1.
         23    2    1    2    0    0  0.00000000000E+00 -0.35527136788E-14 -0.17763568394E-14  0.91188000000E+02  0.91188000000E+02 0.  0.
    9900012    2    3    3    0    0  0.12923608460E+02 -0.30628023039E+02 -0.15833026730E+02  0.54367079502E+02  0.39999989342E+02 0.  0.
         12    1    3    3    0    0 -0.12923608460E+02  0.30628023039E+02  0.15833026730E+02  0.36820920498E+02  0.00000000000E+00 0. -1.
         11    1    4    4    0    0 -0.22553521584E+01 -0.34774075479E+01  0.81894585472E+01  0.91785733189E+01  0.51100000000E-03 0. -1.
        -11    1    4    4    0    0  0.45704204666E+01  0.35228245871E+01 -0.28394940922E+01  0.64313111629E+01  0.51100000000E-03 0.  1.
        -12    1    4    4    0    0  0.10608540151E+02 -0.30673440078E+02 -0.21182991185E+02  0.38757195021E+02  0.00000000000E+00 0.  1.
</event>
<event>
 8    1  0.1248739E-006  0.9118800E+02  0.7816164E-02  0.1184000E+00
        -11   -1    0    0    0    0  0.00000000000E+00  0.00000000000E+00  0.45593999997E+02  0.45594000000E+02  0.51100000000E-03 0. -1.
         11   -1    0    0    0    0 -0.00000000000E+00 -0.00000000000E+00 -0.45593999997E+02  0.45594000000E+02  0.51100000000E-03 0.  1.
         23    2    1    2    0    0  0.00000000000E+00  0.17763568394E-14  0.00000000000E+00  0.91188000000E+02  0.91188000000E+02 0.  0.
    9900012    2    3    3    0    0  0.32225653595E+02 -0.11226204218E+02 -0.13829777567E+02  0.54367039145E+02  0.39999897338E+02 0.  0.
         12    1    3    3    0    0 -0.32225653595E+02  0.11226204218E+02  0.13829777567E+02  0.36820960855E+02  0.00000000000E+00 0. -1.
         11    1    4    4    0    0 -0.70767448968E+01 -0.65353677640E+01 -0.52962690923E+01  0.10992807499E+02  0.51100000000E-03 0. -1.
        -11    1    4    4    0    0  0.22805984235E+01 -0.13265159739E+01 -0.54710209129E+01  0.60739479656E+01  0.51100000000E-03 0.  1.
         12    1    4    4    0    0  0.37021800068E+02 -0.33643204799E+01 -0.30624875621E+01  0.37300283680E+02  0.00000000000E+00 0. -1.
</event>
<event>
 8    1  0.1248739E-006  0.9118800E+02  0.7816164E-02  0.1184000E+00
        -11   -1    0    0    0    0  0.00000000000E+00  0.00000000000E+00  0.45593999997E+02  0.45594000000E+02  0.51100000000E-03 0. -1.
         11   -1    0    0    0    0 -0.00000000000E+00 -0.00000000000E+00 -0.45593999997E+02  0.45594000000E+02  0.51100000000E-03 0.  1.
         23    2    1    2    0    0  0.17763568394E-14  0.00000000000E+00 -0.71054273576E-14  0.91188000000E+02  0.91188000000E+02 0.  0.
    9900012    2    3    3    0    0 -0.13222674063E+02  0.12961596657E+02  0.31826687537E+02  0.54367080174E+02  0.39999990872E+02 0.  0.
        -12    1    3    3    0    0  0.13222674063E+02 -0.12961596657E+02 -0.31826687537E+02  0.36820919826E+02  0.00000000000E+00 0.  1.
         11    1    4    4    0    0 -0.13236519439E+02  0.15914295114E+02  0.14822025233E+02  0.25459039026E+02  0.51100000000E-03 0. -1.
        -11    1    4    4    0    0  0.10748362540E+02 -0.43343224810E+01  0.46612597892E+01  0.12491636872E+02  0.51100000000E-03 0.  1.
         12    1    4    4    0    0 -0.10734517164E+02  0.13816240239E+01  0.12343402515E+02  0.16416404275E+02  0.00000000000E+00 0. -1.
</event>
<event>
 8    1  0.1248739E-006  0.9118800E+02  0.7816164E-02  0.1184000E+00
        -11   -1    0    0    0    0  0.00000000000E+00  0.00000000000E+00  0.45593999997E+02  0.45594000000E+02  0.51100000000E-03 0. -1.
         11   -1    0    0    0    0 -0.00000000000E+00 -0.00000000000E+00 -0.45593999997E+02  0.45594000000E+02  0.51100000000E-03 0.  1.
         23    2    1    2    0    0  0.00000000000E+00  0.35527136788E-14  0.00000000000E+00  0.91188000000E+02  0.91188000000E+02 0.  0.
    9900012    2    3    3    0    0  0.22590733679E+02 -0.25449672111E+02 -0.14062459996E+02  0.54367084206E+02  0.40000000065E+02 0.  0.
         12    1    3    3    0    0 -0.22590733679E+02  0.25449672111E+02  0.14062459996E+02  0.36820915794E+02  0.00000000000E+00 0. -1.
         11    1    4    4    0    0 -0.17862385454E+01  0.40878451750E+01  0.58309941199E+00  0.44990145033E+01  0.51100000000E-03 0. -1.
        -11    1    4    4    0    0  0.25328354965E+02 -0.94480830555E+01 -0.12021677953E+02  0.29585682005E+02  0.51100000000E-03 0.  1.
        -12    1    4    4    0    0 -0.95138274064E+00 -0.20089434231E+02 -0.26238814555E+01  0.20282387698E+02  0.00000000000E+00 0.  1.
</event>
<event>
 8    1  0.1248739E-006  0.9118800E+02  0.7816164E-02  0.1184000E+00
        -11   -1    0    0    0    0  0.00000000000E+00  0.00000000000E+00  0.45593999997E+02  0.45594000000E+02  0.51100000000E-03 0.  1.
         11   -1    0    0    0    0 -0.00000000000E+00 -0.00000000000E+00 -0.45593999997E+02  0.45594000000E+02  0.51100000000E-03 0. -1.
         23    2    1    2    0    0  0.00000000000E+00  0.35527136788E-14 -0.35527136788E-14  0.91188000000E+02  0.91188000000E+02 0.  0.
    9900012    2    3    3    0    0  0.14312778136E+02 -0.29589614637E+02  0.16594975164E+02  0.54366890388E+02  0.39999558216E+02 0.  0.
         12    1    3    3    0    0 -0.14312778136E+02  0.29589614637E+02 -0.16594975164E+02  0.36821109612E+02  0.00000000000E+00 0. -1.
         11    1    4    4    0    0  0.13207675197E+02 -0.12558964343E+02  0.47679340697E+00  0.18231774507E+02  0.51100000000E-03 0. -1.
        -11    1    4    4    0    0 -0.86800108003E+01 -0.20249418057E+02  0.10587115486E+02  0.24443169469E+02  0.51100000000E-03 0.  1.
         12    1    4    4    0    0  0.97851137394E+01  0.32187677624E+01  0.55310662708E+01  0.11691946412E+02  0.00000000000E+00 0. -1.
</event>
<event>
 8    1  0.1248739E-006  0.9118800E+02  0.7816164E-02  0.1184000E+00
        -11   -1    0    0    0    0  0.00000000000E+00  0.00000000000E+00  0.45593999997E+02  0.45594000000E+02  0.51100000000E-03 0.  1.
         11   -1    0    0    0    0 -0.00000000000E+00 -0.00000000000E+00 -0.45593999997E+02  0.45594000000E+02  0.51100000000E-03 0. -1.
         23    2    1    2    0    0  0.35527136788E-14 -0.17763568394E-14 -0.35527136788E-14  0.91188000000E+02  0.91188000000E+02 0.  0.
    9900012    2    3    3    0    0 -0.30491829889E+02  0.48930405207E+01 -0.20052063446E+02  0.54367098545E+02  0.40000032752E+02 0.  0.
        -12    1    3    3    0    0  0.30491829889E+02 -0.48930405207E+01  0.20052063446E+02  0.36820901455E+02  0.00000000000E+00 0.  1.
         11    1    4    4    0    0 -0.22354382553E+02 -0.19038888213E+01 -0.11707646050E+02  0.25306366556E+02  0.51100000000E-03 0. -1.
        -11    1    4    4    0    0  0.22638979517E+01 -0.82802378441E+01 -0.62628058175E+01  0.10625926296E+02  0.51100000000E-03 0.  1.
        -12    1    4    4    0    0 -0.10401345288E+02  0.15077167186E+02 -0.20816115791E+01  0.18434805693E+02  0.00000000000E+00 0.  1.
</event>
<event>
 8    1  0.1248739E-006  0.9118800E+02  0.7816164E-02  0.1184000E+00
        -11   -1    0    0    0    0  0.00000000000E+00  0.00000000000E+00  0.45593999997E+02  0.45594000000E+02  0.51100000000E-03 0.  1.
         11   -1    0    0    0    0 -0.00000000000E+00 -0.00000000000E+00 -0.45593999997E+02  0.45594000000E+02  0.51100000000E-03 0. -1.
         23    2    1    2    0    0  0.88817841970E-15  0.66613381478E-15  0.00000000000E+00  0.91188000000E+02  0.91188000000E+02 0.  0.
    9900012    2    3    3    0    0  0.40183545866E+01 -0.11264558987E+01 -0.36583709137E+02  0.54367029743E+02  0.39999875904E+02 0.  0.
        -12    1    3    3    0    0 -0.40183545866E+01  0.11264558987E+01  0.36583709137E+02  0.36820970257E+02  0.00000000000E+00 0.  1.
         11    1    4    4    0    0  0.12564010372E+02 -0.42371035761E+01 -0.40425061444E+01  0.13861791354E+02  0.51100000000E-03 0.  1.
        -11    1    4    4    0    0 -0.10248631795E+02 -0.65566260593E+01 -0.26009976848E+02  0.28714851469E+02  0.51100000000E-03 0. -1.
        -12    1    4    4    0    0  0.17029760101E+01  0.96672737367E+01 -0.65312261441E+01  0.11790386921E+02  0.00000000000E+00 0.  1.
</event>
<event>
 8    1  0.1248739E-006  0.9118800E+02  0.7816164E-02  0.1184000E+00
        -11   -1    0    0    0    0  0.00000000000E+00  0.00000000000E+00  0.45593999997E+02  0.45594000000E+02  0.51100000000E-03 0.  1.
         11   -1    0    0    0    0 -0.00000000000E+00 -0.00000000000E+00 -0.45593999997E+02  0.45594000000E+02  0.51100000000E-03 0. -1.
         23    2    1    2    0    0  0.35527136788E-14  0.00000000000E+00  0.00000000000E+00  0.91188000000E+02  0.91188000000E+02 0.  0.
    9900012    2    3    3    0    0 -0.16692245567E+02  0.78122256215E+01  0.31876547906E+02  0.54367133123E+02  0.40000111580E+02 0.  0.
         12    1    3    3    0    0  0.16692245567E+02 -0.78122256215E+01 -0.31876547906E+02  0.36820866877E+02  0.00000000000E+00 0. -1.
         11    1    4    4    0    0  0.75487019016E+00  0.15769801934E+02  0.12769963151E+02  0.20305872086E+02  0.51100000000E-03 0.  1.
        -11    1    4    4    0    0 -0.18166263195E+02  0.15276840741E+01  0.15356399019E+02  0.23836231418E+02  0.51100000000E-03 0. -1.
         12    1    4    4    0    0  0.71914743864E+00 -0.94852603869E+01  0.37501857355E+01  0.10225029618E+02  0.00000000000E+00 0. -1.
</event>
<event>
 8    1  0.1248739E-006  0.9118800E+02  0.7816164E-02  0.1184000E+00
        -11   -1    0    0    0    0  0.00000000000E+00  0.00000000000E+00  0.45593999997E+02  0.45594000000E+02  0.51100000000E-03 0.  1.
         11   -1    0    0    0    0 -0.00000000000E+00 -0.00000000000E+00 -0.45593999997E+02  0.45594000000E+02  0.51100000000E-03 0. -1.
         23    2    1    2    0    0  0.00000000000E+00  0.17763568394E-14  0.00000000000E+00  0.91188000000E+02  0.91188000000E+02 0.  0.
    9900012    2    3    3    0    0 -0.23090080583E+02  0.92137600610E+01 -0.27161246478E+02  0.54367102319E+02  0.40000041357E+02 0.  0.
        -12    1    3    3    0    0  0.23090080583E+02 -0.92137600610E+01  0.27161246478E+02  0.36820897681E+02  0.00000000000E+00 0.  1.
         11    1    4    4    0    0 -0.18560337249E+02 -0.33890646778E+01 -0.14909556698E+02  0.24047177784E+02  0.51100000000E-03 0. -1.
        -11    1    4    4    0    0 -0.36942809974E+01  0.19468829580E+02 -0.52983477762E+01  0.20512326215E+02  0.51100000000E-03 0.  1.
        -12    1    4    4    0    0 -0.83546233694E+00 -0.68660048417E+01 -0.69533420036E+01  0.98075983208E+01  0.00000000000E+00 0.  1.
</event>
<event>
 8    1  0.1248739E-006  0.9118800E+02  0.7816164E-02  0.1184000E+00
        -11   -1    0    0    0    0  0.00000000000E+00  0.00000000000E+00  0.45593999997E+02  0.45594000000E+02  0.51100000000E-03 0.  1.
         11   -1    0    0    0    0 -0.00000000000E+00 -0.00000000000E+00 -0.45593999997E+02  0.45594000000E+02  0.51100000000E-03 0. -1.
         23    2    1    2    0    0  0.00000000000E+00  0.88817841970E-15  0.17763568394E-14  0.91188000000E+02  0.91188000000E+02 0.  0.
    9900012    2    3    3    0    0  0.33642209891E+02  0.68173227788E+01  0.13323096641E+02  0.54367094520E+02  0.40000023578E+02 0.  0.
        -12    1    3    3    0    0 -0.33642209891E+02 -0.68173227788E+01 -0.13323096641E+02  0.36820905480E+02  0.00000000000E+00 0.  1.
         11    1    4    4    0    0  0.13605503037E+02 -0.13841042892E+01  0.63935352413E+01  0.15096448281E+02  0.51100000000E-03 0. -1.
        -11    1    4    4    0    0  0.74926166883E+01 -0.99715691294E+01  0.11218830276E+02  0.16775984286E+02  0.51100000000E-03 0.  1.
        -12    1    4    4    0    0  0.12544090166E+02  0.18172996197E+02 -0.42892688760E+01  0.22494661953E+02  0.00000000000E+00 0.  1.
</event>
<event>
 8    1  0.1248739E-006  0.9118800E+02  0.7816164E-02  0.1184000E+00
        -11   -1    0    0    0    0  0.00000000000E+00  0.00000000000E+00  0.45593999997E+02  0.45594000000E+02  0.51100000000E-03 0. -1.
         11   -1    0    0    0    0 -0.00000000000E+00 -0.00000000000E+00 -0.45593999997E+02  0.45594000000E+02  0.51100000000E-03 0.  1.
         23    2    1    2    0    0  0.00000000000E+00 -0.71054273576E-14 -0.88817841970E-15  0.91188000000E+02  0.91188000000E+02 0.  0.
    9900012    2    3    3    0    0  0.11840484430E+02 -0.33965745766E+02  0.78683163547E+01  0.54367090733E+02  0.40000014943E+02 0.  0.
         12    1    3    3    0    0 -0.11840484430E+02  0.33965745766E+02 -0.78683163547E+01  0.36820909267E+02  0.00000000000E+00 0. -1.
         11    1    4    4    0    0 -0.53293953728E+00 -0.96411865750E+01 -0.11903513845E+02  0.15327431136E+02  0.51100000000E-03 0. -1.
        -11    1    4    4    0    0  0.10501346667E+02 -0.23359851798E+02  0.76408211821E+01  0.26727197879E+02  0.51100000000E-03 0.  1.
         12    1    4    4    0    0  0.18720773010E+01 -0.96470739303E+00  0.12131009017E+02  0.12312461718E+02  0.00000000000E+00 0. -1.
</event>
<event>
 8    1  0.1248739E-006  0.9118800E+02  0.7816164E-02  0.1184000E+00
        -11   -1    0    0    0    0  0.00000000000E+00  0.00000000000E+00  0.45593999997E+02  0.45594000000E+02  0.51100000000E-03 0.  1.
         11   -1    0    0    0    0 -0.00000000000E+00 -0.00000000000E+00 -0.45593999997E+02  0.45594000000E+02  0.51100000000E-03 0. -1.
         23    2    1    2    0    0  0.00000000000E+00  0.35527136788E-14 -0.17763568394E-14  0.91188000000E+02  0.91188000000E+02 0.  0.
    9900012    2    3    3    0    0  0.21808176066E+02 -0.27453819966E+02  0.11245909358E+02  0.54367092198E+02  0.40000018285E+02 0.  0.
         12    1    3    3    0    0 -0.21808176066E+02  0.27453819966E+02 -0.11245909358E+02  0.36820907802E+02  0.00000000000E+00 0. -1.
         11    1    4    4    0    0 -0.52871015349E+01  0.40196877827E+01  0.63973201218E+01  0.92215528796E+01  0.51100000000E-03 0. -1.
        -11    1    4    4    0    0  0.10465441797E+02 -0.40853315681E+01 -0.39652789065E+01  0.11913808924E+02  0.51100000000E-03 0.  1.
        -12    1    4    4    0    0  0.16629835804E+02 -0.27388176181E+02  0.88138681426E+01  0.33231730394E+02  0.00000000000E+00 0.  1.
</event>
<event>
 8    1  0.1248739E-006  0.9118800E+02  0.7816164E-02  0.1184000E+00
        -11   -1    0    0    0    0  0.00000000000E+00  0.00000000000E+00  0.45593999997E+02  0.45594000000E+02  0.51100000000E-03 0. -1.
         11   -1    0    0    0    0 -0.00000000000E+00 -0.00000000000E+00 -0.45593999997E+02  0.45594000000E+02  0.51100000000E-03 0.  1.
         23    2    1    2    0    0  0.00000000000E+00  0.00000000000E+00  0.00000000000E+00  0.91188000000E+02  0.91188000000E+02 0.  0.
    9900012    2    3    3    0    0  0.73447017364E+01 -0.19634621511E+02  0.30270729680E+02  0.54367080934E+02  0.39999992606E+02 0.  0.
        -12    1    3    3    0    0 -0.73447017364E+01  0.19634621511E+02 -0.30270729680E+02  0.36820919066E+02  0.00000000000E+00 0.  1.
         11    1    4    4    0    0 -0.25201330782E+01  0.97287871319E+01  0.99075425107E+01  0.14112397693E+02  0.51100000000E-03 0. -1.
        -11    1    4    4    0    0  0.14062375790E+02 -0.20319054600E+02  0.13593676941E+02  0.28202880097E+02  0.51100000000E-03 0.  1.
         12    1    4    4    0    0 -0.41975409758E+01 -0.90443540431E+01  0.67695102278E+01  0.12051803144E+02  0.00000000000E+00 0. -1.
</event>
<event>
 8    1  0.1248739E-006  0.9118800E+02  0.7816164E-02  0.1184000E+00
        -11   -1    0    0    0    0  0.00000000000E+00  0.00000000000E+00  0.45593999997E+02  0.45594000000E+02  0.51100000000E-03 0. -1.
         11   -1    0    0    0    0 -0.00000000000E+00 -0.00000000000E+00 -0.45593999997E+02  0.45594000000E+02  0.51100000000E-03 0.  1.
         23    2    1    2    0    0  0.00000000000E+00  0.00000000000E+00 -0.11102230246E-15  0.91188000000E+02  0.91188000000E+02 0.  0.
    9900012    2    3    3    0    0 -0.14888275685E+02 -0.33667286921E+02  0.79677389954E+00  0.54367057452E+02  0.39999939072E+02 0.  0.
         12    1    3    3    0    0  0.14888275685E+02  0.33667286921E+02 -0.79677389954E+00  0.36820942548E+02  0.00000000000E+00 0. -1.
         11    1    4    4    0    0  0.99069863961E+01 -0.12097645607E+02  0.59498114346E+01  0.16730261954E+02  0.51100000000E-03 0. -1.
        -11    1    4    4    0    0  0.58692361682E+00 -0.63015159669E+01 -0.49186749609E+01  0.80154192932E+01  0.51100000000E-03 0.  1.
        -12    1    4    4    0    0 -0.25382185698E+02 -0.15268125347E+02 -0.23436257417E+00  0.29621376204E+02  0.00000000000E+00 0.  1.
</event>
<event>
 8    1  0.1248739E-006  0.9118800E+02  0.7816164E-02  0.1184000E+00
        -11   -1    0    0    0    0  0.00000000000E+00  0.00000000000E+00  0.45593999997E+02  0.45594000000E+02  0.51100000000E-03 0. -1.
         11   -1    0    0    0    0 -0.00000000000E+00 -0.00000000000E+00 -0.45593999997E+02  0.45594000000E+02  0.51100000000E-03 0.  1.
         23    2    1    2    0    0  0.00000000000E+00 -0.17763568394E-14  0.00000000000E+00  0.91188000000E+02  0.91188000000E+02 0.  0.
    9900012    2    3    3    0    0 -0.32543690695E+02 -0.83014726736E+01  0.15092134028E+02  0.54367098842E+02  0.40000033429E+02 0.  0.
        -12    1    3    3    0    0  0.32543690695E+02  0.83014726736E+01 -0.15092134028E+02  0.36820901158E+02  0.00000000000E+00 0.  1.
         11    1    4    4    0    0 -0.99857386660E+01  0.77440437870E+00 -0.53067903278E+01  0.11334756402E+02  0.51100000000E-03 0. -1.
        -11    1    4    4    0    0 -0.22564625819E+02  0.52500439669E+01  0.95340125467E+01  0.25052398997E+02  0.51100000000E-03 0.  1.
        -12    1    4    4    0    0  0.66737897935E-02 -0.14325921019E+02  0.10864911809E+02  0.17979943443E+02  0.00000000000E+00 0.  1.
</event>
<event>
 8    1  0.1248739E-006  0.9118800E+02  0.7816164E-02  0.1184000E+00
        -11   -1    0    0    0    0  0.00000000000E+00  0.00000000000E+00  0.45593999997E+02  0.45594000000E+02  0.51100000000E-03 0. -1.
         11   -1    0    0    0    0 -0.00000000000E+00 -0.00000000000E+00 -0.45593999997E+02  0.45594000000E+02  0.51100000000E-03 0.  1.
         23    2    1    2    0    0 -0.71054273576E-14  0.35527136788E-14  0.00000000000E+00  0.91188000000E+02  0.91188000000E+02 0.  0.
    9900012    2    3    3    0    0  0.31365431056E+02 -0.15118369030E+02  0.11975844409E+02  0.54367133677E+02  0.40000112844E+02 0.  0.
         12    1    3    3    0    0 -0.31365431056E+02  0.15118369030E+02 -0.11975844409E+02  0.36820866323E+02  0.00000000000E+00 0. -1.
         11    1    4    4    0    0  0.14474725332E+01 -0.48724217761E+01 -0.49638728852E+00  0.51070609258E+01  0.51100000000E-03 0.  1.
        -11    1    4    4    0    0  0.32594571208E+01 -0.18267676876E+02  0.10570981334E+02  0.21355976349E+02  0.51100000000E-03 0. -1.
         12    1    4    4    0    0  0.26658501402E+02  0.80217296219E+01  0.19012503627E+01  0.27904096403E+02  0.00000000000E+00 0. -1.
</event>
<event>
 8    1  0.1248739E-006  0.9118800E+02  0.7816164E-02  0.1184000E+00
        -11   -1    0    0    0    0  0.00000000000E+00  0.00000000000E+00  0.45593999997E+02  0.45594000000E+02  0.51100000000E-03 0.  1.
         11   -1    0    0    0    0 -0.00000000000E+00 -0.00000000000E+00 -0.45593999997E+02  0.45594000000E+02  0.51100000000E-03 0. -1.
         23    2    1    2    0    0  0.88817841970E-15  0.00000000000E+00  0.00000000000E+00  0.91188000000E+02  0.91188000000E+02 0.  0.
    9900012    2    3    3    0    0 -0.77674267098E+01  0.21485743040E+02  0.28875771561E+02  0.54367078570E+02  0.39999987217E+02 0.  0.
         12    1    3    3    0    0  0.77674267098E+01 -0.21485743040E+02 -0.28875771561E+02  0.36820921430E+02  0.00000000000E+00 0. -1.
         11    1    4    4    0    0  0.41866758536E+00  0.18303457220E+02  0.13196493251E+01  0.18355743062E+02  0.51100000000E-03 0. -1.
        -11    1    4    4    0    0 -0.14578197012E+02  0.18524417293E+01  0.11441346563E+02  0.18624171926E+02  0.51100000000E-03 0.  1.
         12    1    4    4    0    0  0.63921027169E+01  0.13298440908E+01  0.16114775673E+02  0.17387163583E+02  0.00000000000E+00 0. -1.
</event>
<event>
 8    1  0.1248739E-006  0.9118800E+02  0.7816164E-02  0.1184000E+00
        -11   -1    0    0    0    0  0.00000000000E+00  0.00000000000E+00  0.45593999997E+02  0.45594000000E+02  0.51100000000E-03 0.  1.
         11   -1    0    0    0    0 -0.00000000000E+00 -0.00000000000E+00 -0.45593999997E+02  0.45594000000E+02  0.51100000000E-03 0. -1.
         23    2    1    2    0    0  0.00000000000E+00  0.35527136788E-14  0.00000000000E+00  0.91188000000E+02  0.91188000000E+02 0.  0.
    9900012    2    3    3    0    0  0.20062565599E+02  0.27262896265E+02  0.14491622328E+02  0.54367093318E+02  0.40000020838E+02 0.  0.
         12    1    3    3    0    0 -0.20062565599E+02 -0.27262896265E+02 -0.14491622328E+02  0.36820906682E+02  0.00000000000E+00 0. -1.
         11    1    4    4    0    0  0.13961430946E+01  0.82416252389E+01  0.14553368597E+02  0.16783150476E+02  0.51100000000E-03 0. -1.
        -11    1    4    4    0    0  0.22358832934E+02  0.58760867702E+01  0.37211826755E+01  0.23415657297E+02  0.51100000000E-03 0.  1.
         12    1    4    4    0    0 -0.36924104298E+01  0.13145184255E+02 -0.37829289440E+01  0.14168285545E+02  0.00000000000E+00 0. -1.
</event>
<event>
 8    1  0.1248739E-006  0.9118800E+02  0.7816164E-02  0.1184000E+00
        -11   -1    0    0    0    0  0.00000000000E+00  0.00000000000E+00  0.45593999997E+02  0.45594000000E+02  0.51100000000E-03 0. -1.
         11   -1    0    0    0    0 -0.00000000000E+00 -0.00000000000E+00 -0.45593999997E+02  0.45594000000E+02  0.51100000000E-03 0.  1.
         23    2    1    2    0    0 -0.35527136788E-14  0.00000000000E+00 -0.17763568394E-14  0.91188000000E+02  0.91188000000E+02 0.  0.
    9900012    2    3    3    0    0 -0.31138474063E+02 -0.16583400570E+02 -0.10543600449E+02  0.54367065033E+02  0.39999956355E+02 0.  0.
         12    1    3    3    0    0  0.31138474063E+02  0.16583400570E+02  0.10543600449E+02  0.36820934967E+02  0.00000000000E+00 0. -1.
         11    1    4    4    0    0  0.55610134949E+01 -0.12468815355E+02  0.38521019284E+01  0.14185729343E+02  0.51100000000E-03 0. -1.
        -11    1    4    4    0    0 -0.34468087762E+02 -0.34566998383E+01 -0.11571933958E+02  0.36522698470E+02  0.51100000000E-03 0.  1.
         12    1    4    4    0    0 -0.22313997958E+01 -0.65788537607E+00 -0.28237684197E+01  0.36586372197E+01  0.00000000000E+00 0. -1.
</event>
<event>
 8    1  0.1248739E-006  0.9118800E+02  0.7816164E-02  0.1184000E+00
        -11   -1    0    0    0    0  0.00000000000E+00  0.00000000000E+00  0.45593999997E+02  0.45594000000E+02  0.51100000000E-03 0. -1.
         11   -1    0    0    0    0 -0.00000000000E+00 -0.00000000000E+00 -0.45593999997E+02  0.45594000000E+02  0.51100000000E-03 0.  1.
         23    2    1    2    0    0 -0.71054273576E-14  0.27755575616E-15  0.00000000000E+00  0.91188000000E+02  0.91188000000E+02 0.  0.
    9900012    2    3    3    0    0 -0.36316325208E+02 -0.39098971122E+00 -0.60623716477E+01  0.54367072533E+02  0.39999973452E+02 0.  0.
         12    1    3    3    0    0  0.36316325208E+02  0.39098971122E+00  0.60623716477E+01  0.36820927467E+02  0.00000000000E+00 0. -1.
         11    1    4    4    0    0  0.87529543243E+00  0.58259999609E+01  0.10481966715E+02  0.12024144215E+02  0.51100000000E-03 0. -1.
        -11    1    4    4    0    0  0.48743257775E+00  0.50544721894E+00 -0.26238425015E+00  0.74960867447E+00  0.51100000000E-03 0.  1.
        -12    1    4    4    0    0 -0.37679053218E+02 -0.67224368911E+01 -0.16281954113E+02  0.41593319643E+02  0.00000000000E+00 0.  1.
</event>
<event>
 8    1  0.1248739E-006  0.9118800E+02  0.7816164E-02  0.1184000E+00
        -11   -1    0    0    0    0  0.00000000000E+00  0.00000000000E+00  0.45593999997E+02  0.45594000000E+02  0.51100000000E-03 0. -1.
         11   -1    0    0    0    0 -0.00000000000E+00 -0.00000000000E+00 -0.45593999997E+02  0.45594000000E+02  0.51100000000E-03 0.  1.
         23    2    1    2    0    0  0.35527136788E-14  0.00000000000E+00 -0.35527136788E-14  0.91188000000E+02  0.91188000000E+02 0.  0.
    9900012    2    3    3    0    0 -0.25004203597E+02  0.91133201879E+01  0.25446359175E+02  0.54367082064E+02  0.39999995182E+02 0.  0.
        -12    1    3    3    0    0  0.25004203597E+02 -0.91133201879E+01 -0.25446359175E+02  0.36820917936E+02  0.00000000000E+00 0.  1.
         11    1    4    4    0    0  0.21659431953E+01  0.15352704374E+02  0.93791202762E+01  0.18120837148E+02  0.51100000000E-03 0. -1.
        -11    1    4    4    0    0 -0.29181764687E+02 -0.65623930996E+01  0.13115658648E+02  0.32659774884E+02  0.51100000000E-03 0.  1.
         12    1    4    4    0    0  0.20116178951E+01  0.32300891319E+00  0.29515802509E+01  0.35864700322E+01  0.00000000000E+00 0. -1.
</event>
<event>
 8    1  0.1248739E-006  0.9118800E+02  0.7816164E-02  0.1184000E+00
        -11   -1    0    0    0    0  0.00000000000E+00  0.00000000000E+00  0.45593999997E+02  0.45594000000E+02  0.51100000000E-03 0. -1.
         11   -1    0    0    0    0 -0.00000000000E+00 -0.00000000000E+00 -0.45593999997E+02  0.45594000000E+02  0.51100000000E-03 0.  1.
         23    2    1    2    0    0  0.35527136788E-14 -0.35527136788E-14 -0.35527136788E-14  0.91188000000E+02  0.91188000000E+02 0.  0.
    9900012    2    3    3    0    0 -0.29629476986E+02  0.16558304093E+02  0.14272230425E+02  0.54367083360E+02  0.39999998135E+02 0.  0.
        -12    1    3    3    0    0  0.29629476986E+02 -0.16558304093E+02 -0.14272230425E+02  0.36820916640E+02  0.00000000000E+00 0.  1.
         11    1    4    4    0    0  0.70630027341E-03  0.55630963537E+01  0.69024921896E+00  0.56057547025E+01  0.51100000000E-03 0. -1.
        -11    1    4    4    0    0  0.27372289969E+01 -0.81239139320E+01  0.58596686698E+01  0.10383935542E+02  0.51100000000E-03 0.  1.
        -12    1    4    4    0    0 -0.32367412283E+02  0.19119121672E+02  0.77223125365E+01  0.38377393115E+02  0.00000000000E+00 0.  1.
</event>
<event>
 8    1  0.1248739E-006  0.9118800E+02  0.7816164E-02  0.1184000E+00
        -11   -1    0    0    0    0  0.00000000000E+00  0.00000000000E+00  0.45593999997E+02  0.45594000000E+02  0.51100000000E-03 0. -1.
         11   -1    0    0    0    0 -0.00000000000E+00 -0.00000000000E+00 -0.45593999997E+02  0.45594000000E+02  0.51100000000E-03 0.  1.
         23    2    1    2    0    0  0.00000000000E+00 -0.88817841970E-15 -0.35527136788E-14  0.91188000000E+02  0.91188000000E+02 0.  0.
    9900012    2    3    3    0    0 -0.27488498746E+02  0.10774093798E+01  0.24474497705E+02  0.54367090015E+02  0.40000013306E+02 0.  0.
        -12    1    3    3    0    0  0.27488498746E+02 -0.10774093798E+01 -0.24474497705E+02  0.36820909985E+02  0.00000000000E+00 0.  1.
         11    1    4    4    0    0  0.40306387100E+01 -0.29287276156E+00  0.13570462008E+00  0.40435428611E+01  0.51100000000E-03 0. -1.
        -11    1    4    4    0    0  0.20207453287E+01 -0.47138310841E+01  0.13678294311E+02  0.14608194642E+02  0.51100000000E-03 0.  1.
        -12    1    4    4    0    0 -0.33539882784E+02  0.60841132254E+01  0.10660498774E+02  0.35715352511E+02  0.00000000000E+00 0.  1.
</event>
<event>
 8    1  0.1248739E-006  0.9118800E+02  0.7816164E-02  0.1184000E+00
        -11   -1    0    0    0    0  0.00000000000E+00  0.00000000000E+00  0.45593999997E+02  0.45594000000E+02  0.51100000000E-03 0. -1.
         11   -1    0    0    0    0 -0.00000000000E+00 -0.00000000000E+00 -0.45593999997E+02  0.45594000000E+02  0.51100000000E-03 0.  1.
         23    2    1    2    0    0  0.00000000000E+00  0.24424906542E-14  0.00000000000E+00  0.91188000000E+02  0.91188000000E+02 0.  0.
    9900012    2    3    3    0    0  0.22143546676E+02  0.12566193778E+01 -0.29391574315E+02  0.54367076704E+02  0.39999982962E+02 0.  0.
         12    1    3    3    0    0 -0.22143546676E+02 -0.12566193778E+01  0.29391574315E+02  0.36820923296E+02  0.00000000000E+00 0. -1.
         11    1    4    4    0    0  0.20490005549E+02 -0.11531925300E+02 -0.12732055632E+02  0.26738191214E+02  0.51100000000E-03 0. -1.
        -11    1    4    4    0    0 -0.60911887243E+00 -0.42072634659E+01 -0.62882934380E+01  0.75904365023E+01  0.51100000000E-03 0.  1.
         12    1    4    4    0    0  0.22626599996E+01  0.16995808144E+02 -0.10371225245E+02  0.20038448987E+02  0.00000000000E+00 0. -1.
</event>
<event>
 8    1  0.1248739E-006  0.9118800E+02  0.7816164E-02  0.1184000E+00
        -11   -1    0    0    0    0  0.00000000000E+00  0.00000000000E+00  0.45593999997E+02  0.45594000000E+02  0.51100000000E-03 0.  1.
         11   -1    0    0    0    0 -0.00000000000E+00 -0.00000000000E+00 -0.45593999997E+02  0.45594000000E+02  0.51100000000E-03 0. -1.
         23    2    1    2    0    0  0.00000000000E+00  0.00000000000E+00  0.00000000000E+00  0.91188000000E+02  0.91188000000E+02 0.  0.
    9900012    2    3    3    0    0 -0.55652267359E+01  0.13227536327E+02  0.33909314194E+02  0.54367067706E+02  0.39999962449E+02 0.  0.
         12    1    3    3    0    0  0.55652267359E+01 -0.13227536327E+02 -0.33909314194E+02  0.36820932294E+02  0.00000000000E+00 0. -1.
         11    1    4    4    0    0  0.11775211147E+01  0.79659145073E+01 -0.17321090547E+01  0.82366590285E+01  0.51100000000E-03 0. -1.
        -11    1    4    4    0    0 -0.14232978562E+02 -0.27204095071E+01  0.83466886690E+01  0.16722605019E+02  0.51100000000E-03 0.  1.
        -12    1    4    4    0    0  0.74902307111E+01  0.79820313268E+01  0.27294734580E+02  0.29407803658E+02  0.00000000000E+00 0.  1.
</event>
<event>
 8    1  0.1248739E-006  0.9118800E+02  0.7816164E-02  0.1184000E+00
        -11   -1    0    0    0    0  0.00000000000E+00  0.00000000000E+00  0.45593999997E+02  0.45594000000E+02  0.51100000000E-03 0.  1.
         11   -1    0    0    0    0 -0.00000000000E+00 -0.00000000000E+00 -0.45593999997E+02  0.45594000000E+02  0.51100000000E-03 0. -1.
         23    2    1    2    0    0  0.35527136788E-14 -0.17763568394E-14  0.00000000000E+00  0.91188000000E+02  0.91188000000E+02 0.  0.
    9900012    2    3    3    0    0  0.26231085630E+02 -0.11558483472E+02  0.23110924458E+02  0.54367038269E+02  0.39999895341E+02 0.  0.
         12    1    3    3    0    0 -0.26231085630E+02  0.11558483472E+02 -0.23110924458E+02  0.36820961731E+02  0.00000000000E+00 0. -1.
         11    1    4    4    0    0  0.20025216124E+02 -0.88985348823E+00  0.12015165205E+02  0.23370180043E+02  0.51100000000E-03 0.  1.
        -11    1    4    4    0    0  0.66102779784E+01 -0.12169439999E+02  0.18680731174E+02  0.23254263315E+02  0.51100000000E-03 0. -1.
         12    1    4    4    0    0 -0.40440847270E+00  0.15008100157E+01 -0.75849719211E+01  0.77425949112E+01  0.00000000000E+00 0. -1.
</event>
<event>
 8    1  0.1248739E-006  0.9118800E+02  0.7816164E-02  0.1184000E+00
        -11   -1    0    0    0    0  0.00000000000E+00  0.00000000000E+00  0.45593999997E+02  0.45594000000E+02  0.51100000000E-03 0.  1.
         11   -1    0    0    0    0 -0.00000000000E+00 -0.00000000000E+00 -0.45593999997E+02  0.45594000000E+02  0.51100000000E-03 0. -1.
         23    2    1    2    0    0  0.00000000000E+00  0.35527136788E-14  0.35527136788E-14  0.91188000000E+02  0.91188000000E+02 0.  0.
    9900012    2    3    3    0    0 -0.14941530233E+02 -0.21928847207E+02 -0.25527556466E+02  0.54367084684E+02  0.40000001155E+02 0.  0.
        -12    1    3    3    0    0  0.14941530233E+02  0.21928847207E+02  0.25527556466E+02  0.36820915316E+02  0.00000000000E+00 0.  1.
         11    1    4    4    0    0  0.18831537208E+01  0.68265143996E+00  0.21593269397E+01  0.29453308843E+01  0.51100000000E-03 0.  1.
        -11    1    4    4    0    0  0.43253162582E+01 -0.21731568460E+02 -0.13748556539E+02  0.26076660746E+02  0.51100000000E-03 0. -1.
        -12    1    4    4    0    0 -0.21150000212E+02 -0.87993018712E+00 -0.13938326867E+02  0.25345093055E+02  0.00000000000E+00 0.  1.
</event>
<event>
 8    1  0.1248739E-006  0.9118800E+02  0.7816164E-02  0.1184000E+00
        -11   -1    0    0    0    0  0.00000000000E+00  0.00000000000E+00  0.45593999997E+02  0.45594000000E+02  0.51100000000E-03 0.  1.
         11   -1    0    0    0    0 -0.00000000000E+00 -0.00000000000E+00 -0.45593999997E+02  0.45594000000E+02  0.51100000000E-03 0. -1.
         23    2    1    2    0    0 -0.17763568394E-14  0.00000000000E+00  0.35527136788E-14  0.91188000000E+02  0.91188000000E+02 0.  0.
    9900012    2    3    3    0    0 -0.14591828814E+02 -0.16567016677E+02 -0.29468494213E+02  0.54367086637E+02  0.40000005607E+02 0.  0.
        -12    1    3    3    0    0  0.14591828814E+02  0.16567016677E+02  0.29468494213E+02  0.36820913363E+02  0.00000000000E+00 0.  1.
         11    1    4    4    0    0  0.48249014245E-01  0.24037038362E+00 -0.61685411807E+01  0.61734112489E+01  0.51100000000E-03 0. -1.
        -11    1    4    4    0    0 -0.14693205644E+02  0.72909769748E+01 -0.29789191190E+01  0.16671010669E+02  0.51100000000E-03 0.  1.
         12    1    4    4    0    0  0.53127816065E-01 -0.24098364035E+02 -0.20321033913E+02  0.31522664720E+02  0.00000000000E+00 0. -1.
</event>
<event>
 8    1  0.1248739E-006  0.9118800E+02  0.7816164E-02  0.1184000E+00
        -11   -1    0    0    0    0  0.00000000000E+00  0.00000000000E+00  0.45593999997E+02  0.45594000000E+02  0.51100000000E-03 0.  1.
         11   -1    0    0    0    0 -0.00000000000E+00 -0.00000000000E+00 -0.45593999997E+02  0.45594000000E+02  0.51100000000E-03 0. -1.
         23    2    1    2    0    0 -0.35527136788E-14  0.00000000000E+00  0.17763568394E-14  0.91188000000E+02  0.91188000000E+02 0.  0.
    9900012    2    3    3    0    0 -0.29668054362E+02  0.15382752682E+02 -0.15458219172E+02  0.54367094665E+02  0.40000023907E+02 0.  0.
        -12    1    3    3    0    0  0.29668054362E+02 -0.15382752682E+02  0.15458219172E+02  0.36820905335E+02  0.00000000000E+00 0.  1.
         11    1    4    4    0    0 -0.17163598010E+01 -0.83343067237E+01 -0.23738167056E+01  0.88341137385E+01  0.51100000000E-03 0. -1.
        -11    1    4    4    0    0 -0.19086789650E+02  0.27056776882E+02 -0.58754037044E+01  0.33628783554E+02  0.51100000000E-03 0.  1.
        -12    1    4    4    0    0 -0.88649049118E+01 -0.33397174766E+01 -0.72089987625E+01  0.11904197372E+02  0.00000000000E+00 0.  1.
</event>
<event>
 8    1  0.1248739E-006  0.9118800E+02  0.7816164E-02  0.1184000E+00
        -11   -1    0    0    0    0  0.00000000000E+00  0.00000000000E+00  0.45593999997E+02  0.45594000000E+02  0.51100000000E-03 0. -1.
         11   -1    0    0    0    0 -0.00000000000E+00 -0.00000000000E+00 -0.45593999997E+02  0.45594000000E+02  0.51100000000E-03 0.  1.
         23    2    1    2    0    0  0.00000000000E+00  0.17763568394E-14  0.00000000000E+00  0.91188000000E+02  0.91188000000E+02 0.  0.
    9900012    2    3    3    0    0 -0.13249965523E+02 -0.10974501966E+02 -0.32554480884E+02  0.54366871481E+02  0.39999515113E+02 0.  0.
         12    1    3    3    0    0  0.13249965523E+02  0.10974501966E+02  0.32554480884E+02  0.36821128519E+02  0.00000000000E+00 0. -1.
         11    1    4    4    0    0 -0.87947861149E+01  0.11498966410E+02 -0.31811470948E+01  0.14822084482E+02  0.51100000000E-03 0. -1.
        -11    1    4    4    0    0  0.38206382340E+01 -0.13137901865E+02 -0.12293234665E+02  0.18393622828E+02  0.51100000000E-03 0.  1.
         12    1    4    4    0    0 -0.82758176423E+01 -0.93355665110E+01 -0.17080099124E+02  0.21151164171E+02  0.00000000000E+00 0. -1.
</event>
<event>
 8    1  0.1248739E-006  0.9118800E+02  0.7816164E-02  0.1184000E+00
        -11   -1    0    0    0    0  0.00000000000E+00  0.00000000000E+00  0.45593999997E+02  0.45594000000E+02  0.51100000000E-03 0.  1.
         11   -1    0    0    0    0 -0.00000000000E+00 -0.00000000000E+00 -0.45593999997E+02  0.45594000000E+02  0.51100000000E-03 0. -1.
         23    2    1    2    0    0  0.88817841970E-15  0.35527136788E-14  0.00000000000E+00  0.91188000000E+02  0.91188000000E+02 0.  0.
    9900012    2    3    3    0    0 -0.64647896868E+01  0.17022657169E+02  0.32003376158E+02  0.54367075944E+02  0.39999981230E+02 0.  0.
         12    1    3    3    0    0  0.64647896868E+01 -0.17022657169E+02 -0.32003376158E+02  0.36820924056E+02  0.00000000000E+00 0. -1.
         11    1    4    4    0    0  0.83371969880E+01  0.10453111368E+02  0.93159816249E+00  0.13403143895E+02  0.51100000000E-03 0. -1.
        -11    1    4    4    0    0 -0.28620002959E+01  0.49917528264E+01  0.27930766948E+02  0.28517299742E+02  0.51100000000E-03 0.  1.
         12    1    4    4    0    0 -0.11939986379E+02  0.15777929751E+01  0.31410110474E+01  0.12446632308E+02  0.00000000000E+00 0. -1.
</event>
<event>
 8    1  0.1248739E-006  0.9118800E+02  0.7816164E-02  0.1184000E+00
        -11   -1    0    0    0    0  0.00000000000E+00  0.00000000000E+00  0.45593999997E+02  0.45594000000E+02  0.51100000000E-03 0. -1.
         11   -1    0    0    0    0 -0.00000000000E+00 -0.00000000000E+00 -0.45593999997E+02  0.45594000000E+02  0.51100000000E-03 0.  1.
         23    2    1    2    0    0  0.13322676296E-14  0.66613381478E-15  0.00000000000E+00  0.91188000000E+02  0.91188000000E+02 0.  0.
    9900012    2    3    3    0    0  0.36982330049E+01  0.15893406363E+01  0.36600243698E+02  0.54367071579E+02  0.39999971280E+02 0.  0.
        -12    1    3    3    0    0 -0.36982330049E+01 -0.15893406363E+01 -0.36600243698E+02  0.36820928421E+02  0.00000000000E+00 0.  1.
         11    1    4    4    0    0 -0.90717313986E+01  0.21404014650E+01  0.71555955603E+01  0.11750752192E+02  0.51100000000E-03 0. -1.
        -11    1    4    4    0    0  0.61415449623E+01  0.13671945136E+02  0.16333076515E+02  0.22167770457E+02  0.51100000000E-03 0.  1.
         12    1    4    4    0    0  0.66284194412E+01 -0.14223005964E+02  0.13111571623E+02  0.20448548931E+02  0.00000000000E+00 0. -1.
</event>
<event>
 8    1  0.1248739E-006  0.9118800E+02  0.7816164E-02  0.1184000E+00
        -11   -1    0    0    0    0  0.00000000000E+00  0.00000000000E+00  0.45593999997E+02  0.45594000000E+02  0.51100000000E-03 0. -1.
         11   -1    0    0    0    0 -0.00000000000E+00 -0.00000000000E+00 -0.45593999997E+02  0.45594000000E+02  0.51100000000E-03 0.  1.
         23    2    1    2    0    0  0.00000000000E+00 -0.88817841970E-15  0.88817841970E-15  0.91188000000E+02  0.91188000000E+02 0.  0.
    9900012    2    3    3    0    0  0.35536850986E+02 -0.60492294918E+01  0.75043637215E+01  0.54367130506E+02  0.40000105615E+02 0.  0.
        -12    1    3    3    0    0 -0.35536850986E+02  0.60492294918E+01 -0.75043637215E+01  0.36820869494E+02  0.00000000000E+00 0.  1.
         11    1    4    4    0    0  0.16318946752E+02 -0.13324779774E+02  0.57541191001E+01  0.21839589419E+02  0.51100000000E-03 0. -1.
        -11    1    4    4    0    0  0.14852418964E+02 -0.20258761487E+01 -0.91387772769E+01  0.17556075121E+02  0.51100000000E-03 0.  1.
         12    1    4    4    0    0  0.43654852697E+01  0.93014264309E+01  0.10889021898E+02  0.14971465967E+02  0.00000000000E+00 0. -1.
</event>
<event>
 8    1  0.1248739E-006  0.9118800E+02  0.7816164E-02  0.1184000E+00
        -11   -1    0    0    0    0  0.00000000000E+00  0.00000000000E+00  0.45593999997E+02  0.45594000000E+02  0.51100000000E-03 0.  1.
         11   -1    0    0    0    0 -0.00000000000E+00 -0.00000000000E+00 -0.45593999997E+02  0.45594000000E+02  0.51100000000E-03 0. -1.
         23    2    1    2    0    0 -0.35527136788E-14  0.00000000000E+00 -0.35527136788E-14  0.91188000000E+02  0.91188000000E+02 0.  0.
    9900012    2    3    3    0    0  0.16577083373E+02  0.28687676079E+02  0.16062287212E+02  0.54367088517E+02  0.40000009892E+02 0.  0.
        -12    1    3    3    0    0 -0.16577083373E+02 -0.28687676079E+02 -0.16062287212E+02  0.36820911483E+02  0.00000000000E+00 0.  1.
         11    1    4    4    0    0  0.17518949059E+02  0.10681287805E+02 -0.27783249706E+01  0.20705616997E+02  0.51100000000E-03 0. -1.
        -11    1    4    4    0    0  0.69271512291E+00  0.21856917919E+02  0.10344051841E+02  0.24190992620E+02  0.51100000000E-03 0.  1.
         12    1    4    4    0    0 -0.16345808098E+01 -0.38505296446E+01  0.84965603415E+01  0.94704789004E+01  0.00000000000E+00 0. -1.
</event>
<event>
 8    1  0.1248739E-006  0.9118800E+02  0.7816164E-02  0.1184000E+00
        -11   -1    0    0    0    0  0.00000000000E+00  0.00000000000E+00  0.45593999997E+02  0.45594000000E+02  0.51100000000E-03 0.  1.
         11   -1    0    0    0    0 -0.00000000000E+00 -0.00000000000E+00 -0.45593999997E+02  0.45594000000E+02  0.51100000000E-03 0. -1.
         23    2    1    2    0    0  0.00000000000E+00  0.00000000000E+00  0.35527136788E-14  0.91188000000E+02  0.91188000000E+02 0.  0.
    9900012    2    3    3    0    0 -0.21273558753E+02 -0.19649242077E+02  0.22740337136E+02  0.54367082721E+02  0.39999996679E+02 0.  0.
         12    1    3    3    0    0  0.21273558753E+02  0.19649242077E+02 -0.22740337136E+02  0.36820917279E+02  0.00000000000E+00 0. -1.
         11    1    4    4    0    0 -0.12634252062E+02 -0.75568820940E+00 -0.72098721495E+01  0.14566318907E+02  0.51100000000E-03 0. -1.
        -11    1    4    4    0    0 -0.26398982372E+01  0.12160344430E+01 -0.36645479488E+00  0.29295207539E+01  0.51100000000E-03 0.  1.
         12    1    4    4    0    0 -0.59994084541E+01 -0.20109588311E+02  0.30316664080E+02  0.36871243060E+02  0.00000000000E+00 0. -1.
</event>
<event>
 8    1  0.1248739E-006  0.9118800E+02  0.7816164E-02  0.1184000E+00
        -11   -1    0    0    0    0  0.00000000000E+00  0.00000000000E+00  0.45593999997E+02  0.45594000000E+02  0.51100000000E-03 0. -1.
         11   -1    0    0    0    0 -0.00000000000E+00 -0.00000000000E+00 -0.45593999997E+02  0.45594000000E+02  0.51100000000E-03 0.  1.
         23    2    1    2    0    0  0.17763568394E-14  0.00000000000E+00 -0.35527136788E-14  0.91188000000E+02  0.91188000000E+02 0.  0.
    9900012    2    3    3    0    0 -0.15180974940E+02  0.26749503812E+02  0.20243142291E+02  0.54367044497E+02  0.39999909540E+02 0.  0.
        -12    1    3    3    0    0  0.15180974940E+02 -0.26749503812E+02 -0.20243142291E+02  0.36820955503E+02  0.00000000000E+00 0.  1.
         11    1    4    4    0    0 -0.28723265080E+01 -0.28003091069E+01 -0.10430681052E+01  0.41448741834E+01  0.51100000000E-03 0. -1.
        -11    1    4    4    0    0 -0.14354254456E+02  0.12441509671E+02 -0.42035305938E+01  0.19455216617E+02  0.51100000000E-03 0.  1.
        -12    1    4    4    0    0  0.20456060243E+01  0.17108303248E+02  0.25489740990E+02  0.30766953697E+02  0.00000000000E+00 0.  1.
</event>
<event>
 8    1  0.1248739E-006  0.9118800E+02  0.7816164E-02  0.1184000E+00
        -11   -1    0    0    0    0  0.00000000000E+00  0.00000000000E+00  0.45593999997E+02  0.45594000000E+02  0.51100000000E-03 0. -1.
         11   -1    0    0    0    0 -0.00000000000E+00 -0.00000000000E+00 -0.45593999997E+02  0.45594000000E+02  0.51100000000E-03 0.  1.
         23    2    1    2    0    0  0.00000000000E+00  0.17763568394E-14 -0.17763568394E-14  0.91188000000E+02  0.91188000000E+02 0.  0.
    9900012    2    3    3    0    0 -0.31491734983E+02  0.12057691377E+02  0.14787436867E+02  0.54367006224E+02  0.39999822288E+02 0.  0.
        -12    1    3    3    0    0  0.31491734983E+02 -0.12057691377E+02 -0.14787436867E+02  0.36820993776E+02  0.00000000000E+00 0.  1.
         11    1    4    4    0    0 -0.83180477766E+01  0.22028122232E+02  0.22134935800E+00  0.23547337082E+02  0.51100000000E-03 0. -1.
        -11    1    4    4    0    0 -0.25147202139E+01 -0.39277438004E+01 -0.27930531372E+00  0.46721516280E+01  0.51100000000E-03 0.  1.
         12    1    4    4    0    0 -0.20658966993E+02 -0.60426870546E+01  0.14845392822E+02  0.26147517513E+02  0.00000000000E+00 0. -1.
</event>
<event>
 8    1  0.1248739E-006  0.9118800E+02  0.7816164E-02  0.1184000E+00
        -11   -1    0    0    0    0  0.00000000000E+00  0.00000000000E+00  0.45593999997E+02  0.45594000000E+02  0.51100000000E-03 0. -1.
         11   -1    0    0    0    0 -0.00000000000E+00 -0.00000000000E+00 -0.45593999997E+02  0.45594000000E+02  0.51100000000E-03 0.  1.
         23    2    1    2    0    0  0.17763568394E-14  0.00000000000E+00  0.35527136788E-14  0.91188000000E+02  0.91188000000E+02 0.  0.
    9900012    2    3    3    0    0 -0.15488590706E+02 -0.11001017434E+02 -0.31541438270E+02  0.54367066351E+02  0.39999959359E+02 0.  0.
         12    1    3    3    0    0  0.15488590706E+02  0.11001017434E+02  0.31541438270E+02  0.36820933649E+02  0.00000000000E+00 0. -1.
         11    1    4    4    0    0 -0.16736572197E+01  0.35681689570E+01 -0.25696136795E+01  0.47048775667E+01  0.51100000000E-03 0. -1.
        -11    1    4    4    0    0 -0.16921608308E+02  0.66701830944E+01 -0.17859300905E+02  0.25490916015E+02  0.51100000000E-03 0.  1.
        -12    1    4    4    0    0  0.31066748211E+01 -0.21239369485E+02 -0.11112523686E+02  0.24171272768E+02  0.00000000000E+00 0.  1.
</event>
<event>
 8    1  0.1248739E-006  0.9118800E+02  0.7816164E-02  0.1184000E+00
        -11   -1    0    0    0    0  0.00000000000E+00  0.00000000000E+00  0.45593999997E+02  0.45594000000E+02  0.51100000000E-03 0. -1.
         11   -1    0    0    0    0 -0.00000000000E+00 -0.00000000000E+00 -0.45593999997E+02  0.45594000000E+02  0.51100000000E-03 0.  1.
         23    2    1    2    0    0 -0.88817841970E-15  0.35527136788E-14  0.71054273576E-14  0.91188000000E+02  0.91188000000E+02 0.  0.
    9900012    2    3    3    0    0 -0.50964044806E+01 -0.21819400613E+02 -0.29218497377E+02  0.54367079714E+02  0.39999989824E+02 0.  0.
         12    1    3    3    0    0  0.50964044806E+01  0.21819400613E+02  0.29218497377E+02  0.36820920286E+02  0.00000000000E+00 0. -1.
         11    1    4    4    0    0 -0.25860824325E+01  0.49823036186E+01 -0.11957494866E+01  0.57394240818E+01  0.51100000000E-03 0. -1.
        -11    1    4    4    0    0  0.63057919450E+01 -0.10826591908E+02 -0.27673905501E+02  0.30378004383E+02  0.51100000000E-03 0.  1.
         12    1    4    4    0    0 -0.88161139931E+01 -0.15975112324E+02 -0.34884238961E+00  0.18249651249E+02  0.00000000000E+00 0. -1.
</event>
<event>
 8    1  0.1248739E-006  0.9118800E+02  0.7816164E-02  0.1184000E+00
        -11   -1    0    0    0    0  0.00000000000E+00  0.00000000000E+00  0.45593999997E+02  0.45594000000E+02  0.51100000000E-03 0.  1.
         11   -1    0    0    0    0 -0.00000000000E+00 -0.00000000000E+00 -0.45593999997E+02  0.45594000000E+02  0.51100000000E-03 0. -1.
         23    2    1    2    0    0 -0.71054273576E-14 -0.20677903834E-14  0.00000000000E+00  0.91188000000E+02  0.91188000000E+02 0.  0.
    9900012    2    3    3    0    0  0.32734991567E+02  0.47054265250E-01  0.16858514957E+02  0.54366927045E+02  0.39999641784E+02 0.  0.
         12    1    3    3    0    0 -0.32734991567E+02 -0.47054265250E-01 -0.16858514957E+02  0.36821072955E+02  0.00000000000E+00 0. -1.
         11    1    4    4    0    0  0.17667084954E+02  0.13254122908E+02  0.76201834849E+01  0.23363751014E+02  0.51100000000E-03 0. -1.
        -11    1    4    4    0    0  0.16446240792E+02 -0.15706677854E+02  0.15411009339E+01  0.22793717506E+02  0.51100000000E-03 0.  1.
        -12    1    4    4    0    0 -0.13783341795E+01  0.24996092111E+01  0.76972305379E+01  0.82094585249E+01  0.00000000000E+00 0.  1.
</event>
<event>
 8    1  0.1248739E-006  0.9118800E+02  0.7816164E-02  0.1184000E+00
        -11   -1    0    0    0    0  0.00000000000E+00  0.00000000000E+00  0.45593999997E+02  0.45594000000E+02  0.51100000000E-03 0. -1.
         11   -1    0    0    0    0 -0.00000000000E+00 -0.00000000000E+00 -0.45593999997E+02  0.45594000000E+02  0.51100000000E-03 0.  1.
         23    2    1    2    0    0 -0.13877787808E-15 -0.71054273576E-14 -0.17763568394E-14  0.91188000000E+02  0.91188000000E+02 0.  0.
    9900012    2    3    3    0    0 -0.14257617899E+00 -0.34898662691E+02  0.11740731098E+02  0.54367058237E+02  0.39999940862E+02 0.  0.
        -12    1    3    3    0    0  0.14257617899E+00  0.34898662691E+02 -0.11740731098E+02  0.36820941763E+02  0.00000000000E+00 0.  1.
         11    1    4    4    0    0  0.46844409447E+01 -0.39174209649E+02  0.18324505891E+02  0.43501151766E+02  0.51100000000E-03 0. -1.
        -11    1    4    4    0    0 -0.30592882476E+01  0.68129438735E+00  0.29330329664E-01  0.31343687010E+01  0.51100000000E-03 0.  1.
        -12    1    4    4    0    0 -0.17677288761E+01  0.35942525699E+01 -0.66131051230E+01  0.77315377696E+01  0.00000000000E+00 0.  1.
</event>
<event>
 8    1  0.1248739E-006  0.9118800E+02  0.7816164E-02  0.1184000E+00
        -11   -1    0    0    0    0  0.00000000000E+00  0.00000000000E+00  0.45593999997E+02  0.45594000000E+02  0.51100000000E-03 0.  1.
         11   -1    0    0    0    0 -0.00000000000E+00 -0.00000000000E+00 -0.45593999997E+02  0.45594000000E+02  0.51100000000E-03 0. -1.
         23    2    1    2    0    0  0.00000000000E+00  0.00000000000E+00  0.88817841970E-15  0.91188000000E+02  0.91188000000E+02 0.  0.
    9900012    2    3    3    0    0  0.32606832690E+02 -0.17078301614E+02 -0.95268005266E+00  0.54367061346E+02  0.39999947950E+02 0.  0.
         12    1    3    3    0    0 -0.32606832690E+02  0.17078301614E+02  0.95268005266E+00  0.36820938654E+02  0.00000000000E+00 0. -1.
         11    1    4    4    0    0  0.16607870623E+01 -0.38126925090E+01 -0.32041144687E+01  0.52498750103E+01  0.51100000000E-03 0. -1.
        -11    1    4    4    0    0  0.17769967955E+02 -0.20647704401E+02  0.13386624510E+02  0.30352943419E+02  0.51100000000E-03 0.  1.
        -12    1    4    4    0    0  0.13176077673E+02  0.73820952962E+01 -0.11135190094E+02  0.18764242917E+02  0.00000000000E+00 0.  1.
</event>
<event>
 8    1  0.1248739E-006  0.9118800E+02  0.7816164E-02  0.1184000E+00
        -11   -1    0    0    0    0  0.00000000000E+00  0.00000000000E+00  0.45593999997E+02  0.45594000000E+02  0.51100000000E-03 0.  1.
         11   -1    0    0    0    0 -0.00000000000E+00 -0.00000000000E+00 -0.45593999997E+02  0.45594000000E+02  0.51100000000E-03 0. -1.
         23    2    1    2    0    0 -0.17763568394E-14  0.00000000000E+00 -0.17763568394E-14  0.91188000000E+02  0.91188000000E+02 0.  0.
    9900012    2    3    3    0    0  0.38239733351E+01  0.34988344567E+02 -0.10815433846E+02  0.54367073384E+02  0.39999975394E+02 0.  0.
        -12    1    3    3    0    0 -0.38239733351E+01 -0.34988344567E+02  0.10815433846E+02  0.36820926616E+02  0.00000000000E+00 0.  1.
         11    1    4    4    0    0 -0.10548945224E+02  0.18049946523E+02  0.17773307112E+01  0.20981890276E+02  0.51100000000E-03 0. -1.
        -11    1    4    4    0    0  0.12825622163E+02  0.20511599218E+02 -0.47846148880E+01  0.24659984312E+02  0.51100000000E-03 0.  1.
        -12    1    4    4    0    0  0.15472963969E+01 -0.35732011753E+01 -0.78081496692E+01  0.87251987963E+01  0.00000000000E+00 0.  1.
</event>
<event>
 8    1  0.1248739E-006  0.9118800E+02  0.7816164E-02  0.1184000E+00
        -11   -1    0    0    0    0  0.00000000000E+00  0.00000000000E+00  0.45593999997E+02  0.45594000000E+02  0.51100000000E-03 0. -1.
         11   -1    0    0    0    0 -0.00000000000E+00 -0.00000000000E+00 -0.45593999997E+02  0.45594000000E+02  0.51100000000E-03 0.  1.
         23    2    1    2    0    0  0.00000000000E+00 -0.22204460493E-15  0.00000000000E+00  0.91188000000E+02  0.91188000000E+02 0.  0.
    9900012    2    3    3    0    0  0.47653123471E+01 -0.15779738608E+01  0.36477111284E+02  0.54367111216E+02  0.40000061638E+02 0.  0.
        -12    1    3    3    0    0 -0.47653123471E+01  0.15779738608E+01 -0.36477111284E+02  0.36820888784E+02  0.00000000000E+00 0.  1.
         11    1    4    4    0    0 -0.58498656012E+01  0.28663966927E+01  0.38696042274E+02  0.39240551034E+02  0.51100000000E-03 0. -1.
        -11    1    4    4    0    0  0.11469972285E+02 -0.15175059370E+01 -0.40152329016E+00  0.11576886874E+02  0.51100000000E-03 0.  1.
         12    1    4    4    0    0 -0.85479433653E+00 -0.29268646165E+01 -0.18174077001E+01  0.35496733074E+01  0.00000000000E+00 0. -1.
</event>
<event>
 8    1  0.1248739E-006  0.9118800E+02  0.7816164E-02  0.1184000E+00
        -11   -1    0    0    0    0  0.00000000000E+00  0.00000000000E+00  0.45593999997E+02  0.45594000000E+02  0.51100000000E-03 0. -1.
         11   -1    0    0    0    0 -0.00000000000E+00 -0.00000000000E+00 -0.45593999997E+02  0.45594000000E+02  0.51100000000E-03 0.  1.
         23    2    1    2    0    0 -0.71054273576E-14  0.00000000000E+00  0.00000000000E+00  0.91188000000E+02  0.91188000000E+02 0.  0.
    9900012    2    3    3    0    0  0.32325644015E+02 -0.13952456815E+02 -0.10777834337E+02  0.54367081691E+02  0.39999994330E+02 0.  0.
         12    1    3    3    0    0 -0.32325644015E+02  0.13952456815E+02  0.10777834337E+02  0.36820918309E+02  0.00000000000E+00 0. -1.
         11    1    4    4    0    0  0.17532167639E+02 -0.14815168793E+02  0.96445694424E+01  0.24897466708E+02  0.51100000000E-03 0. -1.
        -11    1    4    4    0    0 -0.16125616780E+01 -0.35543931679E+01 -0.19200705775E+01  0.43497973793E+01  0.51100000000E-03 0.  1.
        -12    1    4    4    0    0  0.16406038054E+02  0.44171051460E+01 -0.18502333202E+02  0.25119817603E+02  0.00000000000E+00 0.  1.
</event>
<event>
 8    1  0.1248739E-006  0.9118800E+02  0.7816164E-02  0.1184000E+00
        -11   -1    0    0    0    0  0.00000000000E+00  0.00000000000E+00  0.45593999997E+02  0.45594000000E+02  0.51100000000E-03 0.  1.
         11   -1    0    0    0    0 -0.00000000000E+00 -0.00000000000E+00 -0.45593999997E+02  0.45594000000E+02  0.51100000000E-03 0. -1.
         23    2    1    2    0    0 -0.17763568394E-14 -0.26645352591E-14  0.71054273576E-14  0.91188000000E+02  0.91188000000E+02 0.  0.
    9900012    2    3    3    0    0 -0.13617153591E+02  0.58933062897E+01 -0.33698975712E+02  0.54367097037E+02  0.40000029316E+02 0.  0.
        -12    1    3    3    0    0  0.13617153591E+02 -0.58933062897E+01  0.33698975712E+02  0.36820902963E+02  0.00000000000E+00 0.  1.
         11    1    4    4    0    0  0.19468584835E+01 -0.32545156916E+01  0.27905971661E+01  0.47084565566E+01  0.51100000000E-03 0.  1.
        -11    1    4    4    0    0  0.97981511271E-01  0.16374758378E+02 -0.19230771522E+02  0.25257966781E+02  0.51100000000E-03 0. -1.
         12    1    4    4    0    0 -0.15661993586E+02 -0.72269363968E+01 -0.17258801357E+02  0.24400673700E+02  0.00000000000E+00 0. -1.
</event>
<event>
 8    1  0.1248739E-006  0.9118800E+02  0.7816164E-02  0.1184000E+00
        -11   -1    0    0    0    0  0.00000000000E+00  0.00000000000E+00  0.45593999997E+02  0.45594000000E+02  0.51100000000E-03 0.  1.
         11   -1    0    0    0    0 -0.00000000000E+00 -0.00000000000E+00 -0.45593999997E+02  0.45594000000E+02  0.51100000000E-03 0. -1.
         23    2    1    2    0    0 -0.88817841970E-15  0.00000000000E+00  0.00000000000E+00  0.91188000000E+02  0.91188000000E+02 0.  0.
    9900012    2    3    3    0    0 -0.31922576782E+01 -0.20401192629E+02  0.30485729321E+02  0.54367097486E+02  0.40000030338E+02 0.  0.
         12    1    3    3    0    0  0.31922576782E+01  0.20401192629E+02 -0.30485729321E+02  0.36820902514E+02  0.00000000000E+00 0. -1.
         11    1    4    4    0    0  0.40547351870E-01 -0.11158230668E+02 -0.26164227594E+01  0.11460952144E+02  0.51100000000E-03 0. -1.
        -11    1    4    4    0    0 -0.83152325816E+01 -0.12379887730E+02  0.33750484043E+02  0.36898507917E+02  0.51100000000E-03 0.  1.
         12    1    4    4    0    0  0.50824275515E+01  0.31369257692E+01 -0.64833196276E+00  0.60076374251E+01  0.00000000000E+00 0. -1.
</event>
<event>
 8    1  0.1248739E-006  0.9118800E+02  0.7816164E-02  0.1184000E+00
        -11   -1    0    0    0    0  0.00000000000E+00  0.00000000000E+00  0.45593999997E+02  0.45594000000E+02  0.51100000000E-03 0. -1.
         11   -1    0    0    0    0 -0.00000000000E+00 -0.00000000000E+00 -0.45593999997E+02  0.45594000000E+02  0.51100000000E-03 0.  1.
         23    2    1    2    0    0  0.00000000000E+00  0.00000000000E+00  0.71054273576E-14  0.91188000000E+02  0.91188000000E+02 0.  0.
    9900012    2    3    3    0    0 -0.55461606555E+01  0.68112272065E+01 -0.35757895811E+02  0.54367084383E+02  0.40000000467E+02 0.  0.
         12    1    3    3    0    0  0.55461606555E+01 -0.68112272065E+01  0.35757895811E+02  0.36820915617E+02  0.00000000000E+00 0. -1.
         11    1    4    4    0    0  0.42755641714E+01  0.55492465456E+01 -0.17288412947E+02  0.18653788052E+02  0.51100000000E-03 0. -1.
        -11    1    4    4    0    0 -0.75727856552E+01  0.13277063860E+02 -0.17813038272E+02  0.23471937288E+02  0.51100000000E-03 0.  1.
         12    1    4    4    0    0 -0.22489391718E+01 -0.12015083199E+02 -0.65644459174E+00  0.12241359042E+02  0.00000000000E+00 0. -1.
</event>
<event>
 8    1  0.1248739E-006  0.9118800E+02  0.7816164E-02  0.1184000E+00
        -11   -1    0    0    0    0  0.00000000000E+00  0.00000000000E+00  0.45593999997E+02  0.45594000000E+02  0.51100000000E-03 0.  1.
         11   -1    0    0    0    0 -0.00000000000E+00 -0.00000000000E+00 -0.45593999997E+02  0.45594000000E+02  0.51100000000E-03 0. -1.
         23    2    1    2    0    0  0.00000000000E+00  0.00000000000E+00  0.88817841970E-15  0.91188000000E+02  0.91188000000E+02 0.  0.
    9900012    2    3    3    0    0 -0.33602727124E+02 -0.12890804610E+02  0.77758730534E+01  0.54367077750E+02  0.39999985346E+02 0.  0.
         12    1    3    3    0    0  0.33602727124E+02  0.12890804610E+02 -0.77758730534E+01  0.36820922250E+02  0.00000000000E+00 0. -1.
         11    1    4    4    0    0 -0.57380315043E+00  0.52503864025E+01 -0.30806750701E+01  0.61144391876E+01  0.51100000000E-03 0. -1.
        -11    1    4    4    0    0 -0.20731064547E+02 -0.22659091403E+02 -0.79147541609E+00  0.30721944828E+02  0.51100000000E-03 0.  1.
        -12    1    4    4    0    0 -0.12297859427E+02  0.45179003901E+01  0.11648023540E+02  0.17530693734E+02  0.00000000000E+00 0.  1.
</event>
<event>
 8    1  0.1248739E-006  0.9118800E+02  0.7816164E-02  0.1184000E+00
        -11   -1    0    0    0    0  0.00000000000E+00  0.00000000000E+00  0.45593999997E+02  0.45594000000E+02  0.51100000000E-03 0.  1.
         11   -1    0    0    0    0 -0.00000000000E+00 -0.00000000000E+00 -0.45593999997E+02  0.45594000000E+02  0.51100000000E-03 0. -1.
         23    2    1    2    0    0  0.00000000000E+00  0.00000000000E+00  0.35527136788E-14  0.91188000000E+02  0.91188000000E+02 0.  0.
    9900012    2    3    3    0    0  0.17395538593E+02 -0.24815892056E+02  0.20912843193E+02  0.54367078340E+02  0.39999986692E+02 0.  0.
         12    1    3    3    0    0 -0.17395538593E+02  0.24815892056E+02 -0.20912843193E+02  0.36820921660E+02  0.00000000000E+00 0. -1.
         11    1    4    4    0    0  0.80577815638E+01 -0.10542509248E+02  0.25629445680E+02  0.28860714320E+02  0.51100000000E-03 0. -1.
        -11    1    4    4    0    0  0.18420376696E+01  0.25072912587E+01  0.40800594742E+01  0.51309353735E+01  0.51100000000E-03 0.  1.
         12    1    4    4    0    0  0.74957193598E+01 -0.16780674067E+02 -0.87966619613E+01  0.20375428646E+02  0.00000000000E+00 0. -1.
</event>
<event>
 8    1  0.1248739E-006  0.9118800E+02  0.7816164E-02  0.1184000E+00
        -11   -1    0    0    0    0  0.00000000000E+00  0.00000000000E+00  0.45593999997E+02  0.45594000000E+02  0.51100000000E-03 0.  1.
         11   -1    0    0    0    0 -0.00000000000E+00 -0.00000000000E+00 -0.45593999997E+02  0.45594000000E+02  0.51100000000E-03 0. -1.
         23    2    1    2    0    0  0.00000000000E+00 -0.71054273576E-14  0.17763568394E-14  0.91188000000E+02  0.91188000000E+02 0.  0.
    9900012    2    3    3    0    0 -0.87725038628E+01  0.32991730840E+02 -0.13797404632E+02  0.54367088789E+02  0.40000010512E+02 0.  0.
        -12    1    3    3    0    0  0.87725038628E+01 -0.32991730840E+02  0.13797404632E+02  0.36820911211E+02  0.00000000000E+00 0.  1.
         11    1    4    4    0    0 -0.66346676142E+01  0.61786630711E+01  0.12785366295E+01  0.91558368198E+01  0.51100000000E-03 0. -1.
        -11    1    4    4    0    0  0.80749545429E+00  0.31287071997E+02 -0.23283200349E+01  0.31383976763E+02  0.51100000000E-03 0.  1.
        -12    1    4    4    0    0 -0.29453317029E+01 -0.44740042279E+01 -0.12747621227E+02  0.13827275206E+02  0.00000000000E+00 0.  1.
</event>
<event>
 8    1  0.1248739E-006  0.9118800E+02  0.7816164E-02  0.1184000E+00
        -11   -1    0    0    0    0  0.00000000000E+00  0.00000000000E+00  0.45593999997E+02  0.45594000000E+02  0.51100000000E-03 0.  1.
         11   -1    0    0    0    0 -0.00000000000E+00 -0.00000000000E+00 -0.45593999997E+02  0.45594000000E+02  0.51100000000E-03 0. -1.
         23    2    1    2    0    0 -0.35527136788E-14  0.00000000000E+00  0.00000000000E+00  0.91188000000E+02  0.91188000000E+02 0.  0.
    9900012    2    3    3    0    0 -0.25719431487E+02 -0.40790010156E+01  0.26031754487E+02  0.54367086826E+02  0.40000006036E+02 0.  0.
         12    1    3    3    0    0  0.25719431487E+02  0.40790010156E+01 -0.26031754487E+02  0.36820913174E+02  0.00000000000E+00 0. -1.
         11    1    4    4    0    0  0.80788890391E+01 -0.65670089773E+01  0.97416352007E+01  0.14258103368E+02  0.51100000000E-03 0. -1.
        -11    1    4    4    0    0 -0.27629815654E+02  0.22304128139E+01  0.18747347102E+02  0.33464077427E+02  0.51100000000E-03 0.  1.
         12    1    4    4    0    0 -0.61685048721E+01  0.25759514772E+00 -0.24572278153E+01  0.66449060305E+01  0.00000000000E+00 0. -1.
</event>
<event>
 8    1  0.1248739E-006  0.9118800E+02  0.7816164E-02  0.1184000E+00
        -11   -1    0    0    0    0  0.00000000000E+00  0.00000000000E+00  0.45593999997E+02  0.45594000000E+02  0.51100000000E-03 0.  1.
         11   -1    0    0    0    0 -0.00000000000E+00 -0.00000000000E+00 -0.45593999997E+02  0.45594000000E+02  0.51100000000E-03 0. -1.
         23    2    1    2    0    0  0.00000000000E+00 -0.71054273576E-14 -0.17763568394E-14  0.91188000000E+02  0.91188000000E+02 0.  0.
    9900012    2    3    3    0    0  0.11113206618E+02  0.32035665551E+02  0.14352421727E+02  0.54367092379E+02  0.40000018697E+02 0.  0.
         12    1    3    3    0    0 -0.11113206618E+02 -0.32035665551E+02 -0.14352421727E+02  0.36820907621E+02  0.00000000000E+00 0. -1.
         11    1    4    4    0    0  0.20526022598E+01 -0.72798097821E+01  0.11412889120E+02  0.13691707156E+02  0.51100000000E-03 0. -1.
        -11    1    4    4    0    0  0.60202406836E+01  0.22866133785E+02 -0.24684401504E+00  0.23646655248E+02  0.51100000000E-03 0.  1.
         12    1    4    4    0    0  0.30403636746E+01  0.16449341547E+02  0.31863766214E+01  0.17028729976E+02  0.00000000000E+00 0. -1.
</event>
<event>
 8    1  0.1248739E-006  0.9118800E+02  0.7816164E-02  0.1184000E+00
        -11   -1    0    0    0    0  0.00000000000E+00  0.00000000000E+00  0.45593999997E+02  0.45594000000E+02  0.51100000000E-03 0. -1.
         11   -1    0    0    0    0 -0.00000000000E+00 -0.00000000000E+00 -0.45593999997E+02  0.45594000000E+02  0.51100000000E-03 0.  1.
         23    2    1    2    0    0 -0.35527136788E-14 -0.19428902931E-15 -0.10658141036E-13  0.91188000000E+02  0.91188000000E+02 0.  0.
    9900012    2    3    3    0    0 -0.25843079281E+02 -0.22782184782E+00 -0.26227129299E+02  0.54367096143E+02  0.40000027278E+02 0.  0.
         12    1    3    3    0    0  0.25843079281E+02  0.22782184782E+00  0.26227129299E+02  0.36820903857E+02  0.00000000000E+00 0. -1.
         11    1    4    4    0    0  0.33401398689E+01  0.28578602718E+01 -0.12108116888E+01  0.45596013952E+01  0.51100000000E-03 0. -1.
        -11    1    4    4    0    0 -0.12994796054E+02 -0.70477450066E+01  0.48900671311E+01  0.15570747926E+02  0.51100000000E-03 0.  1.
        -12    1    4    4    0    0 -0.16188423096E+02  0.39620628870E+01 -0.29906384742E+02  0.34236746822E+02  0.00000000000E+00 0.  1.
</event>
<event>
 8    1  0.1248739E-006  0.9118800E+02  0.7816164E-02  0.1184000E+00
        -11   -1    0    0    0    0  0.00000000000E+00  0.00000000000E+00  0.45593999997E+02  0.45594000000E+02  0.51100000000E-03 0. -1.
         11   -1    0    0    0    0 -0.00000000000E+00 -0.00000000000E+00 -0.45593999997E+02  0.45594000000E+02  0.51100000000E-03 0.  1.
         23    2    1    2    0    0  0.35527136788E-14  0.00000000000E+00 -0.35527136788E-14  0.91188000000E+02  0.91188000000E+02 0.  0.
    9900012    2    3    3    0    0 -0.15656214280E+02  0.23785343867E+02  0.23343537934E+02  0.54367076713E+02  0.39999982982E+02 0.  0.
        -12    1    3    3    0    0  0.15656214280E+02 -0.23785343867E+02 -0.23343537934E+02  0.36820923287E+02  0.00000000000E+00 0.  1.
         11    1    4    4    0    0  0.56226975830E+01  0.65029371829E+01  0.38465892077E+01  0.94180236201E+01  0.51100000000E-03 0. -1.
        -11    1    4    4    0    0 -0.22276129276E+02  0.92341994659E+01  0.25319683230E+02  0.34965450582E+02  0.51100000000E-03 0.  1.
        -12    1    4    4    0    0  0.99721741289E+00  0.80482072178E+01 -0.58227345033E+01  0.99836025104E+01  0.00000000000E+00 0.  1.
</event>
<event>
 8    1  0.1248739E-006  0.9118800E+02  0.7816164E-02  0.1184000E+00
        -11   -1    0    0    0    0  0.00000000000E+00  0.00000000000E+00  0.45593999997E+02  0.45594000000E+02  0.51100000000E-03 0.  1.
         11   -1    0    0    0    0 -0.00000000000E+00 -0.00000000000E+00 -0.45593999997E+02  0.45594000000E+02  0.51100000000E-03 0. -1.
         23    2    1    2    0    0 -0.35527136788E-14  0.00000000000E+00  0.00000000000E+00  0.91188000000E+02  0.91188000000E+02 0.  0.
    9900012    2    3    3    0    0 -0.31125596899E+02  0.15850765738E+02 -0.11650377847E+02  0.54367070343E+02  0.39999968461E+02 0.  0.
        -12    1    3    3    0    0  0.31125596899E+02 -0.15850765738E+02  0.11650377847E+02  0.36820929657E+02  0.00000000000E+00 0.  1.
         11    1    4    4    0    0 -0.16620349218E+02  0.18270876356E+02 -0.78057330921E+01  0.25903482398E+02  0.51100000000E-03 0. -1.
        -11    1    4    4    0    0  0.23969181675E-01 -0.34003516011E+00 -0.11775588213E+02  0.11780521060E+02  0.51100000000E-03 0.  1.
        -12    1    4    4    0    0 -0.14529216863E+02 -0.20800754577E+01  0.79309434584E+01  0.16683066885E+02  0.00000000000E+00 0.  1.
</event>
<event>
 8    1  0.1248739E-006  0.9118800E+02  0.7816164E-02  0.1184000E+00
        -11   -1    0    0    0    0  0.00000000000E+00  0.00000000000E+00  0.45593999997E+02  0.45594000000E+02  0.51100000000E-03 0.  1.
         11   -1    0    0    0    0 -0.00000000000E+00 -0.00000000000E+00 -0.45593999997E+02  0.45594000000E+02  0.51100000000E-03 0. -1.
         23    2    1    2    0    0  0.00000000000E+00  0.00000000000E+00  0.00000000000E+00  0.91188000000E+02  0.91188000000E+02 0.  0.
    9900012    2    3    3    0    0  0.17255261001E+02 -0.32459033671E+02  0.21088406873E+01  0.54367080564E+02  0.39999991761E+02 0.  0.
         12    1    3    3    0    0 -0.17255261001E+02  0.32459033671E+02 -0.21088406873E+01  0.36820919436E+02  0.00000000000E+00 0. -1.
         11    1    4    4    0    0 -0.66154268458E+01 -0.61873024468E+01  0.11440470955E+02  0.14592154051E+02  0.51100000000E-03 0. -1.
        -11    1    4    4    0    0  0.88039736104E+01 -0.97607153600E+01  0.40113981055E+01  0.13743101204E+02  0.51100000000E-03 0.  1.
        -12    1    4    4    0    0  0.15066714237E+02 -0.16511015865E+02 -0.13343028373E+02  0.26031825309E+02  0.00000000000E+00 0.  1.
</event>
<event>
 8    1  0.1248739E-006  0.9118800E+02  0.7816164E-02  0.1184000E+00
        -11   -1    0    0    0    0  0.00000000000E+00  0.00000000000E+00  0.45593999997E+02  0.45594000000E+02  0.51100000000E-03 0.  1.
         11   -1    0    0    0    0 -0.00000000000E+00 -0.00000000000E+00 -0.45593999997E+02  0.45594000000E+02  0.51100000000E-03 0. -1.
         23    2    1    2    0    0  0.88817841970E-15  0.00000000000E+00 -0.71054273576E-14  0.91188000000E+02  0.91188000000E+02 0.  0.
    9900012    2    3    3    0    0  0.39042425545E+01 -0.85885608102E+01  0.35591770351E+02  0.54367073838E+02  0.39999976428E+02 0.  0.
         12    1    3    3    0    0 -0.39042425545E+01  0.85885608102E+01 -0.35591770351E+02  0.36820926162E+02  0.00000000000E+00 0. -1.
         11    1    4    4    0    0  0.25562805676E+01 -0.67981475108E+01  0.32334399759E+01  0.79501266819E+01  0.51100000000E-03 0. -1.
        -11    1    4    4    0    0 -0.93668678357E+01  0.69424937243E+00  0.34020191182E+02  0.35292968189E+02  0.51100000000E-03 0.  1.
        -12    1    4    4    0    0  0.10714829823E+02 -0.24846626719E+01 -0.16618608066E+01  0.11123978967E+02  0.00000000000E+00 0.  1.
</event>
<event>
 8    1  0.1248739E-006  0.9118800E+02  0.7816164E-02  0.1184000E+00
        -11   -1    0    0    0    0  0.00000000000E+00  0.00000000000E+00  0.45593999997E+02  0.45594000000E+02  0.51100000000E-03 0. -1.
         11   -1    0    0    0    0 -0.00000000000E+00 -0.00000000000E+00 -0.45593999997E+02  0.45594000000E+02  0.51100000000E-03 0.  1.
         23    2    1    2    0    0  0.17763568394E-14 -0.71054273576E-14  0.00000000000E+00  0.91188000000E+02  0.91188000000E+02 0.  0.
    9900012    2    3    3    0    0  0.14988993592E+02  0.25013454280E+02 -0.22481931746E+02  0.54367080960E+02  0.39999992664E+02 0.  0.
         12    1    3    3    0    0 -0.14988993592E+02 -0.25013454280E+02  0.22481931746E+02  0.36820919040E+02  0.00000000000E+00 0. -1.
         11    1    4    4    0    0 -0.11637489552E+01  0.21566831419E+02 -0.14355117422E+02  0.25933606104E+02  0.51100000000E-03 0. -1.
        -11    1    4    4    0    0 -0.36923969746E+00  0.38350608664E+01 -0.11003421834E+02  0.11658444241E+02  0.51100000000E-03 0.  1.
        -12    1    4    4    0    0  0.16521982244E+02 -0.38843800545E+00  0.28766075098E+01  0.16775030615E+02  0.00000000000E+00 0.  1.
</event>
<event>
 8    1  0.1248739E-006  0.9118800E+02  0.7816164E-02  0.1184000E+00
        -11   -1    0    0    0    0  0.00000000000E+00  0.00000000000E+00  0.45593999997E+02  0.45594000000E+02  0.51100000000E-03 0.  1.
         11   -1    0    0    0    0 -0.00000000000E+00 -0.00000000000E+00 -0.45593999997E+02  0.45594000000E+02  0.51100000000E-03 0. -1.
         23    2    1    2    0    0  0.00000000000E+00  0.00000000000E+00  0.35527136788E-14  0.91188000000E+02  0.91188000000E+02 0.  0.
    9900012    2    3    3    0    0  0.19305478106E+02  0.24491315582E+02  0.19576861207E+02  0.54367088570E+02  0.40000010012E+02 0.  0.
         12    1    3    3    0    0 -0.19305478106E+02 -0.24491315582E+02 -0.19576861207E+02  0.36820911430E+02  0.00000000000E+00 0. -1.
         11    1    4    4    0    0  0.38905527447E+01  0.64077109102E+01  0.20421053448E+01  0.77695144165E+01  0.51100000000E-03 0. -1.
        -11    1    4    4    0    0 -0.17221790315E+00  0.23532158241E+02  0.18680544233E+02  0.30045879311E+02  0.51100000000E-03 0.  1.
         12    1    4    4    0    0  0.15587143265E+02 -0.54485535691E+01 -0.11457883710E+01  0.16551694842E+02  0.00000000000E+00 0. -1.
</event>
<event>
 8    1  0.1248739E-006  0.9118800E+02  0.7816164E-02  0.1184000E+00
        -11   -1    0    0    0    0  0.00000000000E+00  0.00000000000E+00  0.45593999997E+02  0.45594000000E+02  0.51100000000E-03 0.  1.
         11   -1    0    0    0    0 -0.00000000000E+00 -0.00000000000E+00 -0.45593999997E+02  0.45594000000E+02  0.51100000000E-03 0. -1.
         23    2    1    2    0    0  0.00000000000E+00  0.00000000000E+00  0.00000000000E+00  0.91188000000E+02  0.91188000000E+02 0.  0.
    9900012    2    3    3    0    0  0.10871073404E+02  0.10558090167E+02 -0.33557806421E+02  0.54367083706E+02  0.39999998924E+02 0.  0.
        -12    1    3    3    0    0 -0.10871073404E+02 -0.10558090167E+02  0.33557806421E+02  0.36820916294E+02  0.00000000000E+00 0.  1.
         11    1    4    4    0    0  0.35200195553E+01  0.10674598893E+02 -0.16535949122E+02  0.19994379531E+02  0.51100000000E-03 0. -1.
        -11    1    4    4    0    0 -0.48652589616E+01 -0.97356401722E+01 -0.15232614020E+02  0.18721270375E+02  0.51100000000E-03 0.  1.
         12    1    4    4    0    0  0.12216312811E+02  0.96191314461E+01 -0.17892432790E+01  0.15651433799E+02  0.00000000000E+00 0. -1.
</event>
<event>
 8    1  0.1248739E-006  0.9118800E+02  0.7816164E-02  0.1184000E+00
        -11   -1    0    0    0    0  0.00000000000E+00  0.00000000000E+00  0.45593999997E+02  0.45594000000E+02  0.51100000000E-03 0.  1.
         11   -1    0    0    0    0 -0.00000000000E+00 -0.00000000000E+00 -0.45593999997E+02  0.45594000000E+02  0.51100000000E-03 0. -1.
         23    2    1    2    0    0  0.00000000000E+00  0.00000000000E+00 -0.44408920985E-15  0.91188000000E+02  0.91188000000E+02 0.  0.
    9900012    2    3    3    0    0  0.56008256232E+01 -0.36224785210E+02 -0.34886321971E+01  0.54367151751E+02  0.40000154046E+02 0.  0.
         12    1    3    3    0    0 -0.56008256232E+01  0.36224785210E+02  0.34886321971E+01  0.36820848249E+02  0.00000000000E+00 0. -1.
         11    1    4    4    0    0 -0.61157487339E+01 -0.48606745269E+01 -0.50230429721E+01  0.92875992804E+01  0.51100000000E-03 0. -1.
        -11    1    4    4    0    0 -0.97013185704E+01 -0.54202147679E+01  0.26282237032E+01  0.11419363828E+02  0.51100000000E-03 0.  1.
         12    1    4    4    0    0  0.21417892928E+02 -0.25943895915E+02 -0.10938129283E+01  0.33660188643E+02  0.00000000000E+00 0. -1.
</event>
<event>
 8    1  0.1248739E-006  0.9118800E+02  0.7816164E-02  0.1184000E+00
        -11   -1    0    0    0    0  0.00000000000E+00  0.00000000000E+00  0.45593999997E+02  0.45594000000E+02  0.51100000000E-03 0. -1.
         11   -1    0    0    0    0 -0.00000000000E+00 -0.00000000000E+00 -0.45593999997E+02  0.45594000000E+02  0.51100000000E-03 0.  1.
         23    2    1    2    0    0  0.35527136788E-14  0.88817841970E-15  0.35527136788E-14  0.91188000000E+02  0.91188000000E+02 0.  0.
    9900012    2    3    3    0    0  0.30749491774E+02  0.52602238081E+01  0.19559611216E+02  0.54367087602E+02  0.40000007806E+02 0.  0.
         12    1    3    3    0    0 -0.30749491774E+02 -0.52602238081E+01 -0.19559611216E+02  0.36820912398E+02  0.00000000000E+00 0. -1.
         11    1    4    4    0    0  0.24002125966E+00  0.60938775182E+01  0.22357023250E+02  0.23173895708E+02  0.51100000000E-03 0. -1.
        -11    1    4    4    0    0  0.91324457295E+01  0.20585340560E+00 -0.34924394791E+01  0.97796254736E+01  0.51100000000E-03 0.  1.
         12    1    4    4    0    0  0.21377024785E+02 -0.10395071157E+01  0.69502744567E+00  0.21413566421E+02  0.00000000000E+00 0. -1.
</event>
<event>
 8    1  0.1248739E-006  0.9118800E+02  0.7816164E-02  0.1184000E+00
        -11   -1    0    0    0    0  0.00000000000E+00  0.00000000000E+00  0.45593999997E+02  0.45594000000E+02  0.51100000000E-03 0.  1.
         11   -1    0    0    0    0 -0.00000000000E+00 -0.00000000000E+00 -0.45593999997E+02  0.45594000000E+02  0.51100000000E-03 0. -1.
         23    2    1    2    0    0  0.00000000000E+00 -0.17763568394E-14  0.00000000000E+00  0.91188000000E+02  0.91188000000E+02 0.  0.
    9900012    2    3    3    0    0 -0.58387238951E+01 -0.90221823164E+01 -0.35217741617E+02  0.54367084814E+02  0.40000001451E+02 0.  0.
        -12    1    3    3    0    0  0.58387238951E+01  0.90221823164E+01  0.35217741617E+02  0.36820915186E+02  0.00000000000E+00 0.  1.
         11    1    4    4    0    0 -0.13622744289E+02  0.77448523436E-01 -0.34017658558E+02  0.36644048006E+02  0.51100000000E-03 0. -1.
        -11    1    4    4    0    0 -0.21055991361E+01 -0.64568400996E+01  0.18549254257E+01  0.70402471824E+01  0.51100000000E-03 0.  1.
         12    1    4    4    0    0  0.98896195303E+01 -0.26427907402E+01 -0.30550084854E+01  0.10682789626E+02  0.00000000000E+00 0. -1.
</event>
<event>
 8    1  0.1248739E-006  0.9118800E+02  0.7816164E-02  0.1184000E+00
        -11   -1    0    0    0    0  0.00000000000E+00  0.00000000000E+00  0.45593999997E+02  0.45594000000E+02  0.51100000000E-03 0.  1.
         11   -1    0    0    0    0 -0.00000000000E+00 -0.00000000000E+00 -0.45593999997E+02  0.45594000000E+02  0.51100000000E-03 0. -1.
         23    2    1    2    0    0  0.71054273576E-14  0.14432899320E-14 -0.88817841970E-15  0.91188000000E+02  0.91188000000E+02 0.  0.
    9900012    2    3    3    0    0  0.36367562660E+02  0.62236737894E+00 -0.57265078610E+01  0.54367084106E+02  0.39999999837E+02 0.  0.
         12    1    3    3    0    0 -0.36367562660E+02 -0.62236737894E+00  0.57265078610E+01  0.36820915894E+02  0.00000000000E+00 0. -1.
         11    1    4    4    0    0 -0.54746362724E+00 -0.13661768646E+02 -0.45351174361E+00  0.13680252634E+02  0.51100000000E-03 0. -1.
        -11    1    4    4    0    0  0.23140505231E+02  0.11121188334E+02 -0.65491781209E+01  0.26496330814E+02  0.51100000000E-03 0.  1.
         12    1    4    4    0    0  0.13774521057E+02  0.31629476911E+01  0.12761820034E+01  0.14190500659E+02  0.00000000000E+00 0. -1.
</event>
<event>
 8    1  0.1248739E-006  0.9118800E+02  0.7816164E-02  0.1184000E+00
        -11   -1    0    0    0    0  0.00000000000E+00  0.00000000000E+00  0.45593999997E+02  0.45594000000E+02  0.51100000000E-03 0.  1.
         11   -1    0    0    0    0 -0.00000000000E+00 -0.00000000000E+00 -0.45593999997E+02  0.45594000000E+02  0.51100000000E-03 0. -1.
         23    2    1    2    0    0  0.00000000000E+00  0.17763568394E-14 -0.35527136788E-14  0.91188000000E+02  0.91188000000E+02 0.  0.
    9900012    2    3    3    0    0  0.26474229844E+02 -0.23167165169E+01 -0.25485825185E+02  0.54367091448E+02  0.40000016574E+02 0.  0.
        -12    1    3    3    0    0 -0.26474229844E+02  0.23167165169E+01  0.25485825185E+02  0.36820908552E+02  0.00000000000E+00 0.  1.
         11    1    4    4    0    0 -0.10802412268E+01 -0.10874324969E+02 -0.94127070956E+01  0.14422791677E+02  0.51100000000E-03 0. -1.
        -11    1    4    4    0    0  0.88591591265E+01 -0.71228545000E+00  0.50746639447E+01  0.10234464588E+02  0.51100000000E-03 0.  1.
         12    1    4    4    0    0  0.18695311945E+02  0.92698939017E+01 -0.21147782034E+02  0.29709835183E+02  0.00000000000E+00 0. -1.
</event>
<event>
 8    1  0.1248739E-006  0.9118800E+02  0.7816164E-02  0.1184000E+00
        -11   -1    0    0    0    0  0.00000000000E+00  0.00000000000E+00  0.45593999997E+02  0.45594000000E+02  0.51100000000E-03 0. -1.
         11   -1    0    0    0    0 -0.00000000000E+00 -0.00000000000E+00 -0.45593999997E+02  0.45594000000E+02  0.51100000000E-03 0.  1.
         23    2    1    2    0    0 -0.35527136788E-14  0.00000000000E+00  0.00000000000E+00  0.91188000000E+02  0.91188000000E+02 0.  0.
    9900012    2    3    3    0    0  0.29466741356E+02  0.19281594803E+02  0.10756892199E+02  0.54367089174E+02  0.40000011389E+02 0.  0.
         12    1    3    3    0    0 -0.29466741356E+02 -0.19281594803E+02 -0.10756892199E+02  0.36820910826E+02  0.00000000000E+00 0. -1.
         11    1    4    4    0    0 -0.40147584536E+00 -0.35251700761E+01  0.35055628031E+01  0.49876826029E+01  0.51100000000E-03 0. -1.
        -11    1    4    4    0    0  0.99504636592E+01  0.12859591080E+02  0.18337800074E+02  0.24508278634E+02  0.51100000000E-03 0.  1.
        -12    1    4    4    0    0  0.19917753542E+02  0.99471737994E+01 -0.11086470678E+02  0.24871127937E+02  0.00000000000E+00 0.  1.
</event>
<event>
 8    1  0.1248739E-006  0.9118800E+02  0.7816164E-02  0.1184000E+00
        -11   -1    0    0    0    0  0.00000000000E+00  0.00000000000E+00  0.45593999997E+02  0.45594000000E+02  0.51100000000E-03 0.  1.
         11   -1    0    0    0    0 -0.00000000000E+00 -0.00000000000E+00 -0.45593999997E+02  0.45594000000E+02  0.51100000000E-03 0. -1.
         23    2    1    2    0    0  0.17763568394E-14  0.35527136788E-14  0.00000000000E+00  0.91188000000E+02  0.91188000000E+02 0.  0.
    9900012    2    3    3    0    0 -0.14586543248E+02 -0.21981480810E+02 -0.25687091537E+02  0.54367089987E+02  0.40000013244E+02 0.  0.
        -12    1    3    3    0    0  0.14586543248E+02  0.21981480810E+02  0.25687091537E+02  0.36820910013E+02  0.00000000000E+00 0.  1.
         11    1    4    4    0    0  0.41228301647E+01  0.34327709734E+01 -0.10397774207E+02  0.11700228794E+02  0.51100000000E-03 0. -1.
        -11    1    4    4    0    0 -0.13092230911E+02 -0.84387113568E+01 -0.18831563763E+02  0.24438620125E+02  0.51100000000E-03 0.  1.
        -12    1    4    4    0    0 -0.56171425018E+01 -0.16975540427E+02  0.35422464323E+01  0.18228241068E+02  0.00000000000E+00 0.  1.
</event>
<event>
 8    1  0.1248739E-006  0.9118800E+02  0.7816164E-02  0.1184000E+00
        -11   -1    0    0    0    0  0.00000000000E+00  0.00000000000E+00  0.45593999997E+02  0.45594000000E+02  0.51100000000E-03 0.  1.
         11   -1    0    0    0    0 -0.00000000000E+00 -0.00000000000E+00 -0.45593999997E+02  0.45594000000E+02  0.51100000000E-03 0. -1.
         23    2    1    2    0    0  0.00000000000E+00  0.17763568394E-14  0.71054273576E-14  0.91188000000E+02  0.91188000000E+02 0.  0.
    9900012    2    3    3    0    0 -0.57790171881E+01  0.47537318681E+01 -0.36052528580E+02  0.54367084431E+02  0.40000000578E+02 0.  0.
        -12    1    3    3    0    0  0.57790171881E+01 -0.47537318681E+01  0.36052528580E+02  0.36820915569E+02  0.00000000000E+00 0.  1.
         11    1    4    4    0    0 -0.27808069846E+01  0.13656124159E+02 -0.15416331990E+02  0.20781864854E+02  0.51100000000E-03 0.  1.
        -11    1    4    4    0    0  0.52728454045E+01 -0.15206311639E+02 -0.12273736286E+02  0.20240538901E+02  0.51100000000E-03 0. -1.
        -12    1    4    4    0    0 -0.82710556080E+01  0.63039193486E+01 -0.83624603032E+01  0.13344680676E+02  0.00000000000E+00 0.  1.
</event>
<event>
 8    1  0.1248739E-006  0.9118800E+02  0.7816164E-02  0.1184000E+00
        -11   -1    0    0    0    0  0.00000000000E+00  0.00000000000E+00  0.45593999997E+02  0.45594000000E+02  0.51100000000E-03 0.  1.
         11   -1    0    0    0    0 -0.00000000000E+00 -0.00000000000E+00 -0.45593999997E+02  0.45594000000E+02  0.51100000000E-03 0. -1.
         23    2    1    2    0    0 -0.35527136788E-14  0.00000000000E+00  0.00000000000E+00  0.91188000000E+02  0.91188000000E+02 0.  0.
    9900012    2    3    3    0    0  0.24724873262E+02  0.20451513878E+02  0.18060894176E+02  0.54367086430E+02  0.40000005134E+02 0.  0.
         12    1    3    3    0    0 -0.24724873262E+02 -0.20451513878E+02 -0.18060894176E+02  0.36820913570E+02  0.00000000000E+00 0. -1.
         11    1    4    4    0    0  0.22175975478E+02  0.31836343197E+01  0.40319238745E+01  0.22763256056E+02  0.51100000000E-03 0. -1.
        -11    1    4    4    0    0  0.47848652909E+01  0.21903689920E+02  0.14046441699E+02  0.26456929010E+02  0.51100000000E-03 0.  1.
        -12    1    4    4    0    0 -0.22359675070E+01 -0.46358103618E+01 -0.17471397692E-01  0.51469013641E+01  0.00000000000E+00 0.  1.
</event>
<event>
 8    1  0.1248739E-006  0.9118800E+02  0.7816164E-02  0.1184000E+00
        -11   -1    0    0    0    0  0.00000000000E+00  0.00000000000E+00  0.45593999997E+02  0.45594000000E+02  0.51100000000E-03 0.  1.
         11   -1    0    0    0    0 -0.00000000000E+00 -0.00000000000E+00 -0.45593999997E+02  0.45594000000E+02  0.51100000000E-03 0. -1.
         23    2    1    2    0    0 -0.88817841970E-15  0.17763568394E-14  0.00000000000E+00  0.91188000000E+02  0.91188000000E+02 0.  0.
    9900012    2    3    3    0    0 -0.48127797085E+01 -0.13862459418E+02  0.33770552562E+02  0.54367070490E+02  0.39999968795E+02 0.  0.
         12    1    3    3    0    0  0.48127797085E+01  0.13862459418E+02 -0.33770552562E+02  0.36820929510E+02  0.00000000000E+00 0. -1.
         11    1    4    4    0    0 -0.80385409615E+01  0.24348757526E+01  0.87361345790E+01  0.12118861678E+02  0.51100000000E-03 0. -1.
        -11    1    4    4    0    0  0.15032512997E+01 -0.49898208775E+01  0.29509388218E+02  0.29966015252E+02  0.51100000000E-03 0.  1.
         12    1    4    4    0    0  0.17225099533E+01 -0.11307514293E+02 -0.44749702345E+01  0.12282193559E+02  0.00000000000E+00 0. -1.
</event>
<event>
 8    1  0.1248739E-006  0.9118800E+02  0.7816164E-02  0.1184000E+00
        -11   -1    0    0    0    0  0.00000000000E+00  0.00000000000E+00  0.45593999997E+02  0.45594000000E+02  0.51100000000E-03 0. -1.
         11   -1    0    0    0    0 -0.00000000000E+00 -0.00000000000E+00 -0.45593999997E+02  0.45594000000E+02  0.51100000000E-03 0.  1.
         23    2    1    2    0    0  0.00000000000E+00  0.00000000000E+00  0.00000000000E+00  0.91188000000E+02  0.91188000000E+02 0.  0.
    9900012    2    3    3    0    0 -0.60414971549E+01 -0.35172560850E+02  0.90648484652E+01  0.54367079285E+02  0.39999988846E+02 0.  0.
        -12    1    3    3    0    0  0.60414971549E+01  0.35172560850E+02 -0.90648484652E+01  0.36820920715E+02  0.00000000000E+00 0.  1.
         11    1    4    4    0    0 -0.43002110085E+01 -0.23617441483E+01  0.15671800031E+02  0.16421783295E+02  0.51100000000E-03 0.  1.
        -11    1    4    4    0    0 -0.67221076652E+00 -0.29075064690E+02  0.13246878995E+01  0.29112987692E+02  0.51100000000E-03 0. -1.
        -12    1    4    4    0    0 -0.10690753798E+01 -0.37357520113E+01 -0.79316394650E+01  0.88323082974E+01  0.00000000000E+00 0.  1.
</event>
<event>
 8    1  0.1248739E-006  0.9118800E+02  0.7816164E-02  0.1184000E+00
        -11   -1    0    0    0    0  0.00000000000E+00  0.00000000000E+00  0.45593999997E+02  0.45594000000E+02  0.51100000000E-03 0. -1.
         11   -1    0    0    0    0 -0.00000000000E+00 -0.00000000000E+00 -0.45593999997E+02  0.45594000000E+02  0.51100000000E-03 0.  1.
         23    2    1    2    0    0 -0.17763568394E-14  0.22204460493E-15 -0.71054273576E-14  0.91188000000E+02  0.91188000000E+02 0.  0.
    9900012    2    3    3    0    0  0.97662705086E+01  0.16458279658E+01  0.35463940009E+02  0.54367084336E+02  0.40000000362E+02 0.  0.
        -12    1    3    3    0    0 -0.97662705086E+01 -0.16458279658E+01 -0.35463940009E+02  0.36820915664E+02  0.00000000000E+00 0.  1.
         11    1    4    4    0    0  0.16787417628E+01 -0.27008940521E+01 -0.28276514666E+01  0.42554219138E+01  0.51100000000E-03 0. -1.
        -11    1    4    4    0    0 -0.13701488022E+01 -0.12027055571E+02  0.83727472077E+01  0.14718365042E+02  0.51100000000E-03 0.  1.
         12    1    4    4    0    0  0.94576775480E+01  0.16373777589E+02  0.29918844268E+02  0.35393297381E+02  0.00000000000E+00 0. -1.
</event>
<event>
 8    1  0.1248739E-006  0.9118800E+02  0.7816164E-02  0.1184000E+00
        -11   -1    0    0    0    0  0.00000000000E+00  0.00000000000E+00  0.45593999997E+02  0.45594000000E+02  0.51100000000E-03 0. -1.
         11   -1    0    0    0    0 -0.00000000000E+00 -0.00000000000E+00 -0.45593999997E+02  0.45594000000E+02  0.51100000000E-03 0.  1.
         23    2    1    2    0    0  0.00000000000E+00  0.35527136788E-14  0.00000000000E+00  0.91188000000E+02  0.91188000000E+02 0.  0.
    9900012    2    3    3    0    0  0.91998376838E+01  0.31056537910E+02 -0.17511148054E+02  0.54367002369E+02  0.39999813500E+02 0.  0.
         12    1    3    3    0    0 -0.91998376838E+01 -0.31056537910E+02  0.17511148054E+02  0.36820997631E+02  0.00000000000E+00 0. -1.
         11    1    4    4    0    0  0.78467051513E+01  0.63562078467E+01  0.14346962792E+01  0.10199534970E+02  0.51100000000E-03 0.  1.
        -11    1    4    4    0    0 -0.62355670808E+01 -0.56944641845E+01 -0.54895389903E+01  0.10071954019E+02  0.51100000000E-03 0. -1.
        -12    1    4    4    0    0  0.75886996133E+01  0.30394794248E+02 -0.13456305343E+02  0.34095513381E+02  0.00000000000E+00 0.  1.
</event>
<event>
 8    1  0.1248739E-006  0.9118800E+02  0.7816164E-02  0.1184000E+00
        -11   -1    0    0    0    0  0.00000000000E+00  0.00000000000E+00  0.45593999997E+02  0.45594000000E+02  0.51100000000E-03 0.  1.
         11   -1    0    0    0    0 -0.00000000000E+00 -0.00000000000E+00 -0.45593999997E+02  0.45594000000E+02  0.51100000000E-03 0. -1.
         23    2    1    2    0    0 -0.35527136788E-14  0.00000000000E+00 -0.17763568394E-14  0.91188000000E+02  0.91188000000E+02 0.  0.
    9900012    2    3    3    0    0 -0.16510480493E+02  0.31305432463E+02 -0.10156390989E+02  0.54367104495E+02  0.40000046318E+02 0.  0.
        -12    1    3    3    0    0  0.16510480493E+02 -0.31305432463E+02  0.10156390989E+02  0.36820895505E+02  0.00000000000E+00 0.  1.
         11    1    4    4    0    0  0.99215295729E+01  0.45220955381E+01 -0.56579067721E+00  0.10918159940E+02  0.51100000000E-03 0. -1.
        -11    1    4    4    0    0 -0.23172260758E+01 -0.63440728027E+00  0.38515846916E+01  0.45394618824E+01  0.51100000000E-03 0.  1.
         12    1    4    4    0    0 -0.24114783990E+02  0.27417744206E+02 -0.13442185003E+02  0.38909482673E+02  0.00000000000E+00 0. -1.
</event>
<event>
 8    1  0.1248739E-006  0.9118800E+02  0.7816164E-02  0.1184000E+00
        -11   -1    0    0    0    0  0.00000000000E+00  0.00000000000E+00  0.45593999997E+02  0.45594000000E+02  0.51100000000E-03 0. -1.
         11   -1    0    0    0    0 -0.00000000000E+00 -0.00000000000E+00 -0.45593999997E+02  0.45594000000E+02  0.51100000000E-03 0.  1.
         23    2    1    2    0    0  0.44408920985E-15  0.71054273576E-14  0.88817841970E-15  0.91188000000E+02  0.91188000000E+02 0.  0.
    9900012    2    3    3    0    0 -0.32202272843E+01 -0.36543557965E+02  0.31588151132E+01  0.54367087391E+02  0.40000007324E+02 0.  0.
         12    1    3    3    0    0  0.32202272843E+01  0.36543557965E+02 -0.31588151132E+01  0.36820912609E+02  0.00000000000E+00 0. -1.
         11    1    4    4    0    0 -0.38746851425E+01 -0.34561067392E+01  0.15192499740E+02  0.16055214335E+02  0.51100000000E-03 0. -1.
        -11    1    4    4    0    0  0.33662661830E+01 -0.24462306478E+02 -0.19520865966E+01  0.24769877443E+02  0.51100000000E-03 0.  1.
         12    1    4    4    0    0 -0.27118083248E+01 -0.86251447477E+01 -0.10081598030E+02  0.13541995612E+02  0.00000000000E+00 0. -1.
</event>
<event>
 8    1  0.1248739E-006  0.9118800E+02  0.7816164E-02  0.1184000E+00
        -11   -1    0    0    0    0  0.00000000000E+00  0.00000000000E+00  0.45593999997E+02  0.45594000000E+02  0.51100000000E-03 0. -1.
         11   -1    0    0    0    0 -0.00000000000E+00 -0.00000000000E+00 -0.45593999997E+02  0.45594000000E+02  0.51100000000E-03 0.  1.
         23    2    1    2    0    0  0.00000000000E+00  0.00000000000E+00  0.00000000000E+00  0.91188000000E+02  0.91188000000E+02 0.  0.
    9900012    2    3    3    0    0  0.21730382416E+02 -0.17846135391E+02 -0.23771523629E+02  0.54367090126E+02  0.40000013559E+02 0.  0.
         12    1    3    3    0    0 -0.21730382416E+02  0.17846135391E+02  0.23771523629E+02  0.36820909874E+02  0.00000000000E+00 0. -1.
         11    1    4    4    0    0  0.14882525852E+01 -0.14771827546E+01  0.12681423320E+01  0.24505407329E+01  0.51100000000E-03 0. -1.
        -11    1    4    4    0    0  0.25584376329E+02 -0.19114463588E+02 -0.67176313787E+01  0.32635097702E+02  0.51100000000E-03 0.  1.
        -12    1    4    4    0    0 -0.53422464991E+01  0.27455109520E+01 -0.18322034583E+02  0.19281451691E+02  0.00000000000E+00 0.  1.
</event>
<event>
 8    1  0.1248739E-006  0.9118800E+02  0.7816164E-02  0.1184000E+00
        -11   -1    0    0    0    0  0.00000000000E+00  0.00000000000E+00  0.45593999997E+02  0.45594000000E+02  0.51100000000E-03 0.  1.
         11   -1    0    0    0    0 -0.00000000000E+00 -0.00000000000E+00 -0.45593999997E+02  0.45594000000E+02  0.51100000000E-03 0. -1.
         23    2    1    2    0    0 -0.35527136788E-14  0.88817841970E-15  0.35527136788E-14  0.91188000000E+02  0.91188000000E+02 0.  0.
    9900012    2    3    3    0    0  0.31066924057E+02 -0.71495141776E+01 -0.18425817232E+02  0.54367081163E+02  0.39999993126E+02 0.  0.
        -12    1    3    3    0    0 -0.31066924057E+02  0.71495141776E+01  0.18425817232E+02  0.36820918837E+02  0.00000000000E+00 0.  1.
         11    1    4    4    0    0  0.15483024452E+02  0.86846494445E+01 -0.66329166561E+01  0.18951062392E+02  0.51100000000E-03 0. -1.
        -11    1    4    4    0    0  0.42661610386E+00 -0.16594569757E+02 -0.69457949736E+00  0.16614577565E+02  0.51100000000E-03 0.  1.
        -12    1    4    4    0    0  0.15157283501E+02  0.76040613528E+00 -0.11098321079E+02  0.18801441205E+02  0.00000000000E+00 0.  1.
</event>
<event>
 8    1  0.1248739E-006  0.9118800E+02  0.7816164E-02  0.1184000E+00
        -11   -1    0    0    0    0  0.00000000000E+00  0.00000000000E+00  0.45593999997E+02  0.45594000000E+02  0.51100000000E-03 0.  1.
         11   -1    0    0    0    0 -0.00000000000E+00 -0.00000000000E+00 -0.45593999997E+02  0.45594000000E+02  0.51100000000E-03 0. -1.
         23    2    1    2    0    0 -0.17763568394E-14  0.71054273576E-14 -0.22204460493E-15  0.91188000000E+02  0.91188000000E+02 0.  0.
    9900012    2    3    3    0    0  0.11432265304E+02  0.34945623621E+02 -0.19698576689E+01  0.54367168403E+02  0.40000192008E+02 0.  0.
        -12    1    3    3    0    0 -0.11432265304E+02 -0.34945623621E+02  0.19698576689E+01  0.36820831597E+02  0.00000000000E+00 0.  1.
         11    1    4    4    0    0  0.20426820941E+02  0.27450293365E+02 -0.13487548569E+02  0.36778901373E+02  0.51100000000E-03 0. -1.
        -11    1    4    4    0    0 -0.99899572334E+00 -0.86025139617E+00  0.28358705218E+01  0.31273290197E+01  0.51100000000E-03 0.  1.
        -12    1    4    4    0    0 -0.79955599127E+01  0.83555816524E+01  0.86818203778E+01  0.14460938010E+02  0.00000000000E+00 0.  1.
</event>
<event>
 8    1  0.1248739E-006  0.9118800E+02  0.7816164E-02  0.1184000E+00
        -11   -1    0    0    0    0  0.00000000000E+00  0.00000000000E+00  0.45593999997E+02  0.45594000000E+02  0.51100000000E-03 0.  1.
         11   -1    0    0    0    0 -0.00000000000E+00 -0.00000000000E+00 -0.45593999997E+02  0.45594000000E+02  0.51100000000E-03 0. -1.
         23    2    1    2    0    0  0.00000000000E+00  0.00000000000E+00  0.35527136788E-14  0.91188000000E+02  0.91188000000E+02 0.  0.
    9900012    2    3    3    0    0  0.26490455128E+02 -0.21528878237E+02  0.13803693097E+02  0.54367098950E+02  0.40000033677E+02 0.  0.
        -12    1    3    3    0    0 -0.26490455128E+02  0.21528878237E+02 -0.13803693097E+02  0.36820901050E+02  0.00000000000E+00 0.  1.
         11    1    4    4    0    0 -0.18197347111E+01 -0.11568311776E+02 -0.34704766627E+01  0.12213987076E+02  0.51100000000E-03 0. -1.
        -11    1    4    4    0    0  0.99277511151E+01 -0.83224801834E+01  0.19659832652E+02  0.23544276136E+02  0.51100000000E-03 0.  1.
         12    1    4    4    0    0  0.18382438724E+02 -0.16380862768E+01 -0.23856628926E+01  0.18608835738E+02  0.00000000000E+00 0. -1.
</event>
<event>
 8    1  0.1248739E-006  0.9118800E+02  0.7816164E-02  0.1184000E+00
        -11   -1    0    0    0    0  0.00000000000E+00  0.00000000000E+00  0.45593999997E+02  0.45594000000E+02  0.51100000000E-03 0.  1.
         11   -1    0    0    0    0 -0.00000000000E+00 -0.00000000000E+00 -0.45593999997E+02  0.45594000000E+02  0.51100000000E-03 0. -1.
         23    2    1    2    0    0  0.35527136788E-14 -0.17763568394E-14  0.00000000000E+00  0.91188000000E+02  0.91188000000E+02 0.  0.
    9900012    2    3    3    0    0  0.30560683702E+02  0.50541726881E+01  0.19906766217E+02  0.54367090300E+02  0.40000013957E+02 0.  0.
         12    1    3    3    0    0 -0.30560683702E+02 -0.50541726881E+01 -0.19906766217E+02  0.36820909700E+02  0.00000000000E+00 0. -1.
         11    1    4    4    0    0  0.12830442493E+02  0.55998956291E+01  0.25538391367E+01  0.14230290940E+02  0.51100000000E-03 0. -1.
        -11    1    4    4    0    0  0.12176729825E+02  0.14500391994E+02  0.14494308623E+02  0.23845735466E+02  0.51100000000E-03 0.  1.
        -12    1    4    4    0    0  0.55535113836E+01 -0.15046114935E+02  0.28586184574E+01  0.16291063894E+02  0.00000000000E+00 0.  1.
</event>
<event>
 8    1  0.1248739E-006  0.9118800E+02  0.7816164E-02  0.1184000E+00
        -11   -1    0    0    0    0  0.00000000000E+00  0.00000000000E+00  0.45593999997E+02  0.45594000000E+02  0.51100000000E-03 0.  1.
         11   -1    0    0    0    0 -0.00000000000E+00 -0.00000000000E+00 -0.45593999997E+02  0.45594000000E+02  0.51100000000E-03 0. -1.
         23    2    1    2    0    0 -0.71054273576E-14  0.35527136788E-14  0.00000000000E+00  0.91188000000E+02  0.91188000000E+02 0.  0.
    9900012    2    3    3    0    0 -0.23990248716E+02  0.17561265096E+02  0.21722085197E+02  0.54367094925E+02  0.40000024501E+02 0.  0.
         12    1    3    3    0    0  0.23990248716E+02 -0.17561265096E+02 -0.21722085197E+02  0.36820905075E+02  0.00000000000E+00 0. -1.
         11    1    4    4    0    0  0.17388367359E+01  0.47976688545E+01  0.67590253691E+01  0.84690969904E+01  0.51100000000E-03 0. -1.
        -11    1    4    4    0    0 -0.32452472029E+02  0.15573240449E+02  0.11206199649E+02  0.37699703841E+02  0.51100000000E-03 0.  1.
         12    1    4    4    0    0  0.67233865767E+01 -0.28096442085E+01  0.37568601793E+01  0.81982940936E+01  0.00000000000E+00 0. -1.
</event>
<event>
 8    1  0.1248739E-006  0.9118800E+02  0.7816164E-02  0.1184000E+00
        -11   -1    0    0    0    0  0.00000000000E+00  0.00000000000E+00  0.45593999997E+02  0.45594000000E+02  0.51100000000E-03 0.  1.
         11   -1    0    0    0    0 -0.00000000000E+00 -0.00000000000E+00 -0.45593999997E+02  0.45594000000E+02  0.51100000000E-03 0. -1.
         23    2    1    2    0    0  0.22204460493E-15 -0.71054273576E-14  0.35527136788E-14  0.91188000000E+02  0.91188000000E+02 0.  0.
    9900012    2    3    3    0    0  0.18219614273E+01  0.29114341885E+02  0.22468121573E+02  0.54367069351E+02  0.39999966200E+02 0.  0.
         12    1    3    3    0    0 -0.18219614273E+01 -0.29114341885E+02 -0.22468121573E+02  0.36820930649E+02  0.00000000000E+00 0. -1.
         11    1    4    4    0    0 -0.20540554268E+01 -0.79496779711E+01  0.36350718107E+01  0.89794359996E+01  0.51100000000E-03 0.  1.
        -11    1    4    4    0    0  0.22784257236E+01  0.13794536489E+00 -0.19345471086E+01  0.29921105391E+01  0.51100000000E-03 0. -1.
        -12    1    4    4    0    0  0.15975911304E+01  0.36926074491E+02  0.20767596871E+02  0.42395522812E+02  0.00000000000E+00 0.  1.
</event>
<event>
 8    1  0.1248739E-006  0.9118800E+02  0.7816164E-02  0.1184000E+00
        -11   -1    0    0    0    0  0.00000000000E+00  0.00000000000E+00  0.45593999997E+02  0.45594000000E+02  0.51100000000E-03 0.  1.
         11   -1    0    0    0    0 -0.00000000000E+00 -0.00000000000E+00 -0.45593999997E+02  0.45594000000E+02  0.51100000000E-03 0. -1.
         23    2    1    2    0    0  0.35527136788E-14  0.00000000000E+00  0.17763568394E-14  0.91188000000E+02  0.91188000000E+02 0.  0.
    9900012    2    3    3    0    0 -0.16462662197E+02  0.31499337573E+02 -0.96203282238E+01  0.54367106077E+02  0.40000049923E+02 0.  0.
        -12    1    3    3    0    0  0.16462662197E+02 -0.31499337573E+02  0.96203282238E+01  0.36820893923E+02  0.00000000000E+00 0.  1.
         11    1    4    4    0    0  0.78214201579E+01  0.67756887551E+01 -0.10684806383E+02  0.14874463321E+02  0.51100000000E-03 0. -1.
        -11    1    4    4    0    0  0.31723431724E+00  0.89373180498E+01 -0.40510610243E+01  0.98177078394E+01  0.51100000000E-03 0.  1.
        -12    1    4    4    0    0 -0.24601316672E+02  0.15786330768E+02  0.51155391839E+01  0.29674934916E+02  0.00000000000E+00 0.  1.
</event>
<event>
 8    1  0.1248739E-006  0.9118800E+02  0.7816164E-02  0.1184000E+00
        -11   -1    0    0    0    0  0.00000000000E+00  0.00000000000E+00  0.45593999997E+02  0.45594000000E+02  0.51100000000E-03 0. -1.
         11   -1    0    0    0    0 -0.00000000000E+00 -0.00000000000E+00 -0.45593999997E+02  0.45594000000E+02  0.51100000000E-03 0.  1.
         23    2    1    2    0    0  0.44408920985E-15  0.00000000000E+00  0.00000000000E+00  0.91188000000E+02  0.91188000000E+02 0.  0.
    9900012    2    3    3    0    0 -0.23141838432E+01 -0.26375152813E+02 -0.25588598899E+02  0.54367074884E+02  0.39999978813E+02 0.  0.
         12    1    3    3    0    0  0.23141838432E+01  0.26375152813E+02  0.25588598899E+02  0.36820925116E+02  0.00000000000E+00 0. -1.
         11    1    4    4    0    0  0.13365906984E+02 -0.13639176061E+01 -0.11898445671E+00  0.13435843789E+02  0.51100000000E-03 0. -1.
        -11    1    4    4    0    0 -0.77313176461E+01 -0.84437882770E+01 -0.17476234205E+02  0.20892333409E+02  0.51100000000E-03 0.  1.
        -12    1    4    4    0    0 -0.79487731813E+01 -0.16567446930E+02 -0.79933802369E+01  0.20038897686E+02  0.00000000000E+00 0.  1.
</event>
<event>
 8    1  0.1248739E-006  0.9118800E+02  0.7816164E-02  0.1184000E+00
        -11   -1    0    0    0    0  0.00000000000E+00  0.00000000000E+00  0.45593999997E+02  0.45594000000E+02  0.51100000000E-03 0.  1.
         11   -1    0    0    0    0 -0.00000000000E+00 -0.00000000000E+00 -0.45593999997E+02  0.45594000000E+02  0.51100000000E-03 0. -1.
         23    2    1    2    0    0 -0.35527136788E-14 -0.35527136788E-14 -0.77715611724E-15  0.91188000000E+02  0.91188000000E+02 0.  0.
    9900012    2    3    3    0    0  0.19101144554E+02  0.31474106081E+02 -0.55391601136E+00  0.54367083392E+02  0.39999998209E+02 0.  0.
         12    1    3    3    0    0 -0.19101144554E+02 -0.31474106081E+02  0.55391601136E+00  0.36820916608E+02  0.00000000000E+00 0. -1.
         11    1    4    4    0    0  0.10386009178E+02  0.17700321010E+02 -0.15243343975E+01  0.20578973398E+02  0.51100000000E-03 0. -1.
        -11    1    4    4    0    0  0.95873594986E+01  0.13178900344E+02  0.13531586147E+02  0.21182650928E+02  0.51100000000E-03 0.  1.
         12    1    4    4    0    0 -0.87222412229E+00  0.59488472774E+00 -0.12561167761E+02  0.12605459066E+02  0.00000000000E+00 0. -1.
</event>
<event>
 8    1  0.1248739E-006  0.9118800E+02  0.7816164E-02  0.1184000E+00
        -11   -1    0    0    0    0  0.00000000000E+00  0.00000000000E+00  0.45593999997E+02  0.45594000000E+02  0.51100000000E-03 0.  1.
         11   -1    0    0    0    0 -0.00000000000E+00 -0.00000000000E+00 -0.45593999997E+02  0.45594000000E+02  0.51100000000E-03 0. -1.
         23    2    1    2    0    0  0.55511151231E-15  0.00000000000E+00  0.00000000000E+00  0.91188000000E+02  0.91188000000E+02 0.  0.
    9900012    2    3    3    0    0  0.51719602800E+00 -0.23697489959E+02 -0.28176976529E+02  0.54367074857E+02  0.39999978751E+02 0.  0.
        -12    1    3    3    0    0 -0.51719602800E+00  0.23697489959E+02  0.28176976529E+02  0.36820925143E+02  0.00000000000E+00 0.  1.
         11    1    4    4    0    0 -0.98299934625E+01  0.38651635426E+01 -0.54606863890E+01  0.11890641563E+02  0.51100000000E-03 0. -1.
        -11    1    4    4    0    0  0.93979554495E+01 -0.27023618289E+02 -0.10911387488E+02  0.30621167339E+02  0.51100000000E-03 0.  1.
        -12    1    4    4    0    0  0.94923404101E+00 -0.53903521257E+00 -0.11804902652E+02  0.11855265954E+02  0.00000000000E+00 0.  1.
</event>
<event>
 8    1  0.1248739E-006  0.9118800E+02  0.7816164E-02  0.1184000E+00
        -11   -1    0    0    0    0  0.00000000000E+00  0.00000000000E+00  0.45593999997E+02  0.45594000000E+02  0.51100000000E-03 0.  1.
         11   -1    0    0    0    0 -0.00000000000E+00 -0.00000000000E+00 -0.45593999997E+02  0.45594000000E+02  0.51100000000E-03 0. -1.
         23    2    1    2    0    0  0.00000000000E+00  0.00000000000E+00  0.00000000000E+00  0.91188000000E+02  0.91188000000E+02 0.  0.
    9900012    2    3    3    0    0 -0.50354183552E+01 -0.35665674587E+02  0.76409212400E+01  0.54367089377E+02  0.40000011852E+02 0.  0.
         12    1    3    3    0    0  0.50354183552E+01  0.35665674587E+02 -0.76409212400E+01  0.36820910623E+02  0.00000000000E+00 0. -1.
         11    1    4    4    0    0  0.16155230889E+00  0.14903734340E+01 -0.41880380189E+01  0.44482552569E+01  0.51100000000E-03 0. -1.
        -11    1    4    4    0    0  0.11804524589E+02 -0.24810540746E+02  0.72160018621E+01  0.28407400726E+02  0.51100000000E-03 0.  1.
        -12    1    4    4    0    0 -0.17001495253E+02 -0.12345507275E+02  0.46129573968E+01  0.21511433394E+02  0.00000000000E+00 0.  1.
</event>
<event>
 8    1  0.1248739E-006  0.9118800E+02  0.7816164E-02  0.1184000E+00
        -11   -1    0    0    0    0  0.00000000000E+00  0.00000000000E+00  0.45593999997E+02  0.45594000000E+02  0.51100000000E-03 0.  1.
         11   -1    0    0    0    0 -0.00000000000E+00 -0.00000000000E+00 -0.45593999997E+02  0.45594000000E+02  0.51100000000E-03 0. -1.
         23    2    1    2    0    0 -0.17763568394E-14  0.00000000000E+00  0.17763568394E-14  0.91188000000E+02  0.91188000000E+02 0.  0.
    9900012    2    3    3    0    0 -0.78017618138E+01  0.34176404130E+02 -0.11264355253E+02  0.54367084939E+02  0.40000001736E+02 0.  0.
        -12    1    3    3    0    0  0.78017618138E+01 -0.34176404130E+02  0.11264355253E+02  0.36820915061E+02  0.00000000000E+00 0.  1.
         11    1    4    4    0    0  0.80776411815E+01  0.11226553607E+02 -0.12127705250E+02  0.18394701080E+02  0.51100000000E-03 0. -1.
        -11    1    4    4    0    0 -0.20816548093E+02  0.17218740743E+02  0.48105223831E+01  0.27440022470E+02  0.51100000000E-03 0.  1.
        -12    1    4    4    0    0  0.49371450976E+01  0.57311097798E+01 -0.39471723868E+01  0.85323613891E+01  0.00000000000E+00 0.  1.
</event>
<event>
 8    1  0.1248739E-006  0.9118800E+02  0.7816164E-02  0.1184000E+00
        -11   -1    0    0    0    0  0.00000000000E+00  0.00000000000E+00  0.45593999997E+02  0.45594000000E+02  0.51100000000E-03 0.  1.
         11   -1    0    0    0    0 -0.00000000000E+00 -0.00000000000E+00 -0.45593999997E+02  0.45594000000E+02  0.51100000000E-03 0. -1.
         23    2    1    2    0    0  0.71054273576E-14 -0.35527136788E-14 -0.35527136788E-14  0.91188000000E+02  0.91188000000E+02 0.  0.
    9900012    2    3    3    0    0  0.24807624038E+02 -0.19323040670E+02 -0.19156750497E+02  0.54367092886E+02  0.40000019851E+02 0.  0.
         12    1    3    3    0    0 -0.24807624038E+02  0.19323040670E+02  0.19156750497E+02  0.36820907114E+02  0.00000000000E+00 0. -1.
         11    1    4    4    0    0  0.38778650497E+01 -0.66805629800E+01  0.27030024709E+01  0.81837632964E+01  0.51100000000E-03 0. -1.
        -11    1    4    4    0    0  0.13963265277E+02 -0.18808511248E+02 -0.11191671068E+01  0.23451767691E+02  0.51100000000E-03 0.  1.
         12    1    4    4    0    0  0.69664937114E+01  0.61660335586E+01 -0.20740585861E+02  0.22731561898E+02  0.00000000000E+00 0. -1.
</event>
<event>
 8    1  0.1248739E-006  0.9118800E+02  0.7816164E-02  0.1184000E+00
        -11   -1    0    0    0    0  0.00000000000E+00  0.00000000000E+00  0.45593999997E+02  0.45594000000E+02  0.51100000000E-03 0. -1.
         11   -1    0    0    0    0 -0.00000000000E+00 -0.00000000000E+00 -0.45593999997E+02  0.45594000000E+02  0.51100000000E-03 0.  1.
         23    2    1    2    0    0  0.00000000000E+00  0.35527136788E-14 -0.17763568394E-14  0.91188000000E+02  0.91188000000E+02 0.  0.
    9900012    2    3    3    0    0 -0.32749884452E+02  0.12352897664E+02 -0.11429374267E+02  0.54367087349E+02  0.40000007229E+02 0.  0.
         12    1    3    3    0    0  0.32749884452E+02 -0.12352897664E+02  0.11429374267E+02  0.36820912651E+02  0.00000000000E+00 0. -1.
         11    1    4    4    0    0 -0.11607307330E+01  0.16324714178E+02 -0.81960694991E+01  0.18303528193E+02  0.51100000000E-03 0. -1.
        -11    1    4    4    0    0 -0.21460554162E+02  0.51324314878E+01 -0.39900535285E+01  0.22423598403E+02  0.51100000000E-03 0.  1.
        -12    1    4    4    0    0 -0.10128599557E+02 -0.91042480011E+01  0.75674876076E+00  0.13639960753E+02  0.00000000000E+00 0.  1.
</event>
<event>
 8    1  0.1248739E-006  0.9118800E+02  0.7816164E-02  0.1184000E+00
        -11   -1    0    0    0    0  0.00000000000E+00  0.00000000000E+00  0.45593999997E+02  0.45594000000E+02  0.51100000000E-03 0. -1.
         11   -1    0    0    0    0 -0.00000000000E+00 -0.00000000000E+00 -0.45593999997E+02  0.45594000000E+02  0.51100000000E-03 0.  1.
         23    2    1    2    0    0 -0.88817841970E-15  0.00000000000E+00  0.00000000000E+00  0.91188000000E+02  0.91188000000E+02 0.  0.
    9900012    2    3    3    0    0  0.57863181514E+01 -0.13451986591E+02  0.33783813848E+02  0.54367034516E+02  0.39999886787E+02 0.  0.
        -12    1    3    3    0    0 -0.57863181514E+01  0.13451986591E+02 -0.33783813848E+02  0.36820965484E+02  0.00000000000E+00 0.  1.
         11    1    4    4    0    0  0.16752134937E+02 -0.37291180174E+01  0.17116039317E+02  0.24238381718E+02  0.51100000000E-03 0. -1.
        -11    1    4    4    0    0 -0.36153148815E+01 -0.95152838282E+01 -0.17216294588E+01  0.10323523443E+02  0.51100000000E-03 0.  1.
         12    1    4    4    0    0 -0.73505019042E+01 -0.20758474585E+00  0.18389403990E+02  0.19805129355E+02  0.00000000000E+00 0. -1.
</event>
<event>
 8    1  0.1248739E-006  0.9118800E+02  0.7816164E-02  0.1184000E+00
        -11   -1    0    0    0    0  0.00000000000E+00  0.00000000000E+00  0.45593999997E+02  0.45594000000E+02  0.51100000000E-03 0.  1.
         11   -1    0    0    0    0 -0.00000000000E+00 -0.00000000000E+00 -0.45593999997E+02  0.45594000000E+02  0.51100000000E-03 0. -1.
         23    2    1    2    0    0  0.35527136788E-14  0.00000000000E+00  0.00000000000E+00  0.91188000000E+02  0.91188000000E+02 0.  0.
    9900012    2    3    3    0    0  0.21501785384E+02  0.29696360302E+02  0.34028588768E+01  0.54367081511E+02  0.39999993920E+02 0.  0.
        -12    1    3    3    0    0 -0.21501785384E+02 -0.29696360302E+02 -0.34028588768E+01  0.36820918489E+02  0.00000000000E+00 0.  1.
         11    1    4    4    0    0  0.17583072544E+02  0.11963794866E+02 -0.20998562913E+00  0.21268307923E+02  0.51100000000E-03 0. -1.
        -11    1    4    4    0    0 -0.61986801233E+01  0.92218535008E+01  0.12836959188E+02  0.16978036951E+02  0.51100000000E-03 0.  1.
        -12    1    4    4    0    0  0.10117392963E+02  0.85107119348E+01 -0.92241146824E+01  0.16120736636E+02  0.00000000000E+00 0.  1.
</event>
<event>
 8    1  0.1248739E-006  0.9118800E+02  0.7816164E-02  0.1184000E+00
        -11   -1    0    0    0    0  0.00000000000E+00  0.00000000000E+00  0.45593999997E+02  0.45594000000E+02  0.51100000000E-03 0.  1.
         11   -1    0    0    0    0 -0.00000000000E+00 -0.00000000000E+00 -0.45593999997E+02  0.45594000000E+02  0.51100000000E-03 0. -1.
         23    2    1    2    0    0  0.00000000000E+00  0.35527136788E-14  0.00000000000E+00  0.91188000000E+02  0.91188000000E+02 0.  0.
    9900012    2    3    3    0    0 -0.22822140821E+02 -0.20936924776E+02  0.19914171112E+02  0.54367093686E+02  0.40000021675E+02 0.  0.
         12    1    3    3    0    0  0.22822140821E+02  0.20936924776E+02 -0.19914171112E+02  0.36820906314E+02  0.00000000000E+00 0. -1.
         11    1    4    4    0    0 -0.58535020426E+01  0.40025058497E+01  0.11699203428E+02  0.13680456876E+02  0.51100000000E-03 0.  1.
        -11    1    4    4    0    0  0.14054671911E+01 -0.18803824829E+02  0.97992205764E+01  0.21250503298E+02  0.51100000000E-03 0. -1.
         12    1    4    4    0    0 -0.18374105969E+02 -0.61356057960E+01 -0.15842528920E+01  0.19436133512E+02  0.00000000000E+00 0. -1.
</event>
<event>
 8    1  0.1248739E-006  0.9118800E+02  0.7816164E-02  0.1184000E+00
        -11   -1    0    0    0    0  0.00000000000E+00  0.00000000000E+00  0.45593999997E+02  0.45594000000E+02  0.51100000000E-03 0.  1.
         11   -1    0    0    0    0 -0.00000000000E+00 -0.00000000000E+00 -0.45593999997E+02  0.45594000000E+02  0.51100000000E-03 0. -1.
         23    2    1    2    0    0  0.00000000000E+00  0.00000000000E+00 -0.71054273576E-14  0.91188000000E+02  0.91188000000E+02 0.  0.
    9900012    2    3    3    0    0  0.71584241660E+01 -0.40428681238E+01 -0.35891352879E+02  0.54367122353E+02  0.40000087028E+02 0.  0.
        -12    1    3    3    0    0 -0.71584241660E+01  0.40428681238E+01  0.35891352879E+02  0.36820877647E+02  0.00000000000E+00 0.  1.
         11    1    4    4    0    0  0.51543118002E+01  0.11601851329E+02 -0.59522139944E+01  0.14021367126E+02  0.51100000000E-03 0. -1.
        -11    1    4    4    0    0  0.44115203999E+01 -0.97327340926E+01 -0.10244698692E+01  0.10734857425E+02  0.51100000000E-03 0.  1.
        -12    1    4    4    0    0 -0.24074080341E+01 -0.59119853601E+01 -0.28914669016E+02  0.29610897802E+02  0.00000000000E+00 0.  1.
</event>
<event>
 8    1  0.1248739E-006  0.9118800E+02  0.7816164E-02  0.1184000E+00
        -11   -1    0    0    0    0  0.00000000000E+00  0.00000000000E+00  0.45593999997E+02  0.45594000000E+02  0.51100000000E-03 0.  1.
         11   -1    0    0    0    0 -0.00000000000E+00 -0.00000000000E+00 -0.45593999997E+02  0.45594000000E+02  0.51100000000E-03 0. -1.
         23    2    1    2    0    0 -0.22204460493E-15  0.11102230246E-14  0.00000000000E+00  0.91188000000E+02  0.91188000000E+02 0.  0.
    9900012    2    3    3    0    0  0.19142844027E+01 -0.60605270356E+00 -0.36766079335E+02  0.54367131267E+02  0.40000107348E+02 0.  0.
        -12    1    3    3    0    0 -0.19142844027E+01  0.60605270356E+00  0.36766079335E+02  0.36820868733E+02  0.00000000000E+00 0.  1.
         11    1    4    4    0    0  0.85937279401E+01  0.52142792309E+01 -0.59078906726E+01  0.11659504289E+02  0.51100000000E-03 0. -1.
        -11    1    4    4    0    0 -0.88712166393E+01  0.20747306679E+01  0.15835263009E+01  0.92471913472E+01  0.51100000000E-03 0.  1.
        -12    1    4    4    0    0  0.21917731018E+01 -0.78950626024E+01 -0.32441714963E+02  0.33460435630E+02  0.00000000000E+00 0.  1.
</event>
<event>
 8    1  0.1248739E-006  0.9118800E+02  0.7816164E-02  0.1184000E+00
        -11   -1    0    0    0    0  0.00000000000E+00  0.00000000000E+00  0.45593999997E+02  0.45594000000E+02  0.51100000000E-03 0.  1.
         11   -1    0    0    0    0 -0.00000000000E+00 -0.00000000000E+00 -0.45593999997E+02  0.45594000000E+02  0.51100000000E-03 0. -1.
         23    2    1    2    0    0  0.00000000000E+00 -0.35527136788E-14 -0.35527136788E-14  0.91188000000E+02  0.91188000000E+02 0.  0.
    9900012    2    3    3    0    0 -0.24366251844E+02 -0.60838821364E+01 -0.26926619137E+02  0.54367208742E+02  0.40000283967E+02 0.  0.
         12    1    3    3    0    0  0.24366251844E+02  0.60838821364E+01  0.26926619137E+02  0.36820791258E+02  0.00000000000E+00 0. -1.
         11    1    4    4    0    0 -0.88486669597E+01 -0.88105000018E+01 -0.21850199853E+02  0.25166546269E+02  0.51100000000E-03 0. -1.
        -11    1    4    4    0    0 -0.12502678513E+02  0.12044648351E+02  0.14666036087E+01  0.17422440997E+02  0.51100000000E-03 0.  1.
        -12    1    4    4    0    0 -0.30149063712E+01 -0.93180304853E+01 -0.65430228930E+01  0.11778221476E+02  0.00000000000E+00 0.  1.
</event>
<event>
 8    1  0.1248739E-006  0.9118800E+02  0.7816164E-02  0.1184000E+00
        -11   -1    0    0    0    0  0.00000000000E+00  0.00000000000E+00  0.45593999997E+02  0.45594000000E+02  0.51100000000E-03 0. -1.
         11   -1    0    0    0    0 -0.00000000000E+00 -0.00000000000E+00 -0.45593999997E+02  0.45594000000E+02  0.51100000000E-03 0.  1.
         23    2    1    2    0    0  0.00000000000E+00  0.00000000000E+00  0.44408920985E-15  0.91188000000E+02  0.91188000000E+02 0.  0.
    9900012    2    3    3    0    0  0.58776521887E+01  0.36238536821E+02 -0.28286446141E+01  0.54367087783E+02  0.40000008218E+02 0.  0.
        -12    1    3    3    0    0 -0.58776521887E+01 -0.36238536821E+02  0.28286446141E+01  0.36820912217E+02  0.00000000000E+00 0.  1.
         11    1    4    4    0    0 -0.45564916543E+01  0.29472637873E+02 -0.90471904707E+01  0.31164878551E+02  0.51100000000E-03 0. -1.
        -11    1    4    4    0    0  0.64902813708E+01  0.74943351800E+01 -0.51322445314E+01  0.11163724569E+02  0.51100000000E-03 0.  1.
         12    1    4    4    0    0  0.39438624722E+01 -0.72843623251E+00  0.11350790388E+02  0.12038484663E+02  0.00000000000E+00 0. -1.
</event>
<event>
 8    1  0.1248739E-006  0.9118800E+02  0.7816164E-02  0.1184000E+00
        -11   -1    0    0    0    0  0.00000000000E+00  0.00000000000E+00  0.45593999997E+02  0.45594000000E+02  0.51100000000E-03 0.  1.
         11   -1    0    0    0    0 -0.00000000000E+00 -0.00000000000E+00 -0.45593999997E+02  0.45594000000E+02  0.51100000000E-03 0. -1.
         23    2    1    2    0    0 -0.33306690739E-15  0.35527136788E-14  0.71054273576E-14  0.91188000000E+02  0.91188000000E+02 0.  0.
    9900012    2    3    3    0    0  0.84844629910E+00 -0.30008001916E+02 -0.21320906774E+02  0.54367067016E+02  0.39999960877E+02 0.  0.
        -12    1    3    3    0    0 -0.84844629910E+00  0.30008001916E+02  0.21320906774E+02  0.36820932984E+02  0.00000000000E+00 0.  1.
         11    1    4    4    0    0 -0.28059238026E+01 -0.12827150855E+02  0.14596680368E+01  0.13211345067E+02  0.51100000000E-03 0. -1.
        -11    1    4    4    0    0  0.26317472511E+01 -0.14247977152E+02  0.33253293583E+01  0.14865690771E+02  0.51100000000E-03 0.  1.
         12    1    4    4    0    0  0.10226228506E+01 -0.29328739095E+01 -0.26105904169E+02  0.26290031178E+02  0.00000000000E+00 0. -1.
</event>
<event>
 8    1  0.1248739E-006  0.9118800E+02  0.7816164E-02  0.1184000E+00
        -11   -1    0    0    0    0  0.00000000000E+00  0.00000000000E+00  0.45593999997E+02  0.45594000000E+02  0.51100000000E-03 0.  1.
         11   -1    0    0    0    0 -0.00000000000E+00 -0.00000000000E+00 -0.45593999997E+02  0.45594000000E+02  0.51100000000E-03 0. -1.
         23    2    1    2    0    0  0.00000000000E+00 -0.17763568394E-14  0.00000000000E+00  0.91188000000E+02  0.91188000000E+02 0.  0.
    9900012    2    3    3    0    0 -0.84519581392E+01  0.13930346803E+02 -0.33019511891E+02  0.54367104792E+02  0.40000046993E+02 0.  0.
        -12    1    3    3    0    0  0.84519581392E+01 -0.13930346803E+02  0.33019511891E+02  0.36820895208E+02  0.00000000000E+00 0.  1.
         11    1    4    4    0    0 -0.50824447509E+01  0.62339239537E+01 -0.25340859725E+02  0.26586692618E+02  0.51100000000E-03 0. -1.
        -11    1    4    4    0    0  0.12527498587E+01 -0.12237960324E+01 -0.15155832299E+02  0.15256680893E+02  0.51100000000E-03 0.  1.
        -12    1    4    4    0    0 -0.46222632470E+01  0.89202188821E+01  0.74771801335E+01  0.12523731280E+02  0.00000000000E+00 0.  1.
</event>
<event>
 8    1  0.1248739E-006  0.9118800E+02  0.7816164E-02  0.1184000E+00
        -11   -1    0    0    0    0  0.00000000000E+00  0.00000000000E+00  0.45593999997E+02  0.45594000000E+02  0.51100000000E-03 0. -1.
         11   -1    0    0    0    0 -0.00000000000E+00 -0.00000000000E+00 -0.45593999997E+02  0.45594000000E+02  0.51100000000E-03 0.  1.
         23    2    1    2    0    0  0.00000000000E+00  0.00000000000E+00 -0.35527136788E-14  0.91188000000E+02  0.91188000000E+02 0.  0.
    9900012    2    3    3    0    0  0.18677211038E+02 -0.47027232454E+01  0.31381934070E+02  0.54367087409E+02  0.40000007366E+02 0.  0.
        -12    1    3    3    0    0 -0.18677211038E+02  0.47027232454E+01 -0.31381934070E+02  0.36820912591E+02  0.00000000000E+00 0.  1.
         11    1    4    4    0    0  0.20063091498E+02 -0.65055319735E+01  0.98591744623E+01  0.23282029724E+02  0.51100000000E-03 0. -1.
        -11    1    4    4    0    0  0.10401575382E+02  0.18057575994E+01  0.11516770023E+02  0.15623364650E+02  0.51100000000E-03 0.  1.
        -12    1    4    4    0    0 -0.11787455843E+02 -0.29488712756E-02  0.10005989584E+02  0.15461693035E+02  0.00000000000E+00 0.  1.
</event>
<event>
 8    1  0.1248739E-006  0.9118800E+02  0.7816164E-02  0.1184000E+00
        -11   -1    0    0    0    0  0.00000000000E+00  0.00000000000E+00  0.45593999997E+02  0.45594000000E+02  0.51100000000E-03 0.  1.
         11   -1    0    0    0    0 -0.00000000000E+00 -0.00000000000E+00 -0.45593999997E+02  0.45594000000E+02  0.51100000000E-03 0. -1.
         23    2    1    2    0    0 -0.35527136788E-14  0.35527136788E-14  0.88817841970E-15  0.91188000000E+02  0.91188000000E+02 0.  0.
    9900012    2    3    3    0    0 -0.28222221952E+02  0.22516712325E+02 -0.72307411304E+01  0.54367085248E+02  0.40000002440E+02 0.  0.
        -12    1    3    3    0    0  0.28222221952E+02 -0.22516712325E+02  0.72307411304E+01  0.36820914752E+02  0.00000000000E+00 0.  1.
         11    1    4    4    0    0  0.16811995886E+01 -0.24541404432E+01 -0.40188457986E+01  0.50000359185E+01  0.51100000000E-03 0. -1.
        -11    1    4    4    0    0 -0.44451346857E+00  0.12319915572E+02  0.87824879379E+01  0.15136380233E+02  0.51100000000E-03 0.  1.
         12    1    4    4    0    0 -0.29458908073E+02  0.12650937197E+02 -0.11994383270E+02  0.34230669097E+02  0.00000000000E+00 0. -1.
</event>
<event>
 8    1  0.1248739E-006  0.9118800E+02  0.7816164E-02  0.1184000E+00
        -11   -1    0    0    0    0  0.00000000000E+00  0.00000000000E+00  0.45593999997E+02  0.45594000000E+02  0.51100000000E-03 0. -1.
         11   -1    0    0    0    0 -0.00000000000E+00 -0.00000000000E+00 -0.45593999997E+02  0.45594000000E+02  0.51100000000E-03 0.  1.
         23    2    1    2    0    0  0.00000000000E+00  0.00000000000E+00  0.00000000000E+00  0.91188000000E+02  0.91188000000E+02 0.  0.
    9900012    2    3    3    0    0 -0.11145890421E+02  0.13694263969E+02  0.32311244524E+02  0.54367078480E+02  0.39999987010E+02 0.  0.
        -12    1    3    3    0    0  0.11145890421E+02 -0.13694263969E+02 -0.32311244524E+02  0.36820921520E+02  0.00000000000E+00 0.  1.
         11    1    4    4    0    0  0.14122476326E+01  0.63625552066E+01  0.27451036144E+02  0.28214108843E+02  0.51100000000E-03 0. -1.
        -11    1    4    4    0    0 -0.89171326624E+01 -0.52569917552E+01 -0.31179363596E+01  0.10810769845E+02  0.51100000000E-03 0.  1.
         12    1    4    4    0    0 -0.36410053913E+01  0.12588700518E+02  0.79781447391E+01  0.15342199792E+02  0.00000000000E+00 0. -1.
</event>
<event>
 8    1  0.1248739E-006  0.9118800E+02  0.7816164E-02  0.1184000E+00
        -11   -1    0    0    0    0  0.00000000000E+00  0.00000000000E+00  0.45593999997E+02  0.45594000000E+02  0.51100000000E-03 0.  1.
         11   -1    0    0    0    0 -0.00000000000E+00 -0.00000000000E+00 -0.45593999997E+02  0.45594000000E+02  0.51100000000E-03 0. -1.
         23    2    1    2    0    0  0.00000000000E+00  0.00000000000E+00  0.00000000000E+00  0.91188000000E+02  0.91188000000E+02 0.  0.
    9900012    2    3    3    0    0 -0.32665168679E+02 -0.48652311441E+01 -0.16281250308E+02  0.54367315181E+02  0.40000526615E+02 0.  0.
         12    1    3    3    0    0  0.32665168679E+02  0.48652311441E+01  0.16281250308E+02  0.36820684819E+02  0.00000000000E+00 0. -1.
         11    1    4    4    0    0 -0.16419321682E+02 -0.15462139026E+02  0.27923423365E+00  0.22555483585E+02  0.51100000000E-03 0. -1.
        -11    1    4    4    0    0 -0.16168834094E+02  0.13586348200E+02 -0.18640680946E+02  0.28169043998E+02  0.51100000000E-03 0.  1.
        -12    1    4    4    0    0 -0.77012903527E-01 -0.29894403182E+01  0.20801964042E+01  0.36427875979E+01  0.00000000000E+00 0.  1.
</event>
<event>
 8    1  0.1248739E-006  0.9118800E+02  0.7816164E-02  0.1184000E+00
        -11   -1    0    0    0    0  0.00000000000E+00  0.00000000000E+00  0.45593999997E+02  0.45594000000E+02  0.51100000000E-03 0.  1.
         11   -1    0    0    0    0 -0.00000000000E+00 -0.00000000000E+00 -0.45593999997E+02  0.45594000000E+02  0.51100000000E-03 0. -1.
         23    2    1    2    0    0  0.00000000000E+00  0.44408920985E-15  0.35527136788E-14  0.91188000000E+02  0.91188000000E+02 0.  0.
    9900012    2    3    3    0    0  0.22758174127E+02  0.39534198977E+01 -0.28674331032E+02  0.54367064669E+02  0.39999955527E+02 0.  0.
        -12    1    3    3    0    0 -0.22758174127E+02 -0.39534198977E+01  0.28674331032E+02  0.36820935331E+02  0.00000000000E+00 0.  1.
         11    1    4    4    0    0  0.11018446469E+02 -0.13976081638E+02 -0.21939444478E+02  0.28250243270E+02  0.51100000000E-03 0. -1.
        -11    1    4    4    0    0  0.52048650681E+00 -0.15480154402E+01  0.14612724291E+01  0.21914778986E+01  0.51100000000E-03 0.  1.
         12    1    4    4    0    0  0.11219241150E+02  0.19477516976E+02 -0.81961589838E+01  0.23925343501E+02  0.00000000000E+00 0. -1.
</event>
<event>
 8    1  0.1248739E-006  0.9118800E+02  0.7816164E-02  0.1184000E+00
        -11   -1    0    0    0    0  0.00000000000E+00  0.00000000000E+00  0.45593999997E+02  0.45594000000E+02  0.51100000000E-03 0.  1.
         11   -1    0    0    0    0 -0.00000000000E+00 -0.00000000000E+00 -0.45593999997E+02  0.45594000000E+02  0.51100000000E-03 0. -1.
         23    2    1    2    0    0  0.00000000000E+00  0.00000000000E+00 -0.22204460493E-15  0.91188000000E+02  0.91188000000E+02 0.  0.
    9900012    2    3    3    0    0  0.82071803299E+01  0.35868480890E+02  0.13677102677E+01  0.54367131438E+02  0.40000107738E+02 0.  0.
        -12    1    3    3    0    0 -0.82071803299E+01 -0.35868480890E+02 -0.13677102677E+01  0.36820868562E+02  0.00000000000E+00 0.  1.
         11    1    4    4    0    0  0.54076592228E+01 -0.33719320385E+01  0.34795115671E+01  0.72608336263E+01  0.51100000000E-03 0. -1.
        -11    1    4    4    0    0 -0.10363317711E+02  0.23591003169E+02  0.32365376068E+01  0.25969385061E+02  0.51100000000E-03 0.  1.
        -12    1    4    4    0    0  0.13162838818E+02  0.15649409759E+02 -0.53483389063E+01  0.21136912750E+02  0.00000000000E+00 0.  1.
</event>
<event>
 8    1  0.1248739E-006  0.9118800E+02  0.7816164E-02  0.1184000E+00
        -11   -1    0    0    0    0  0.00000000000E+00  0.00000000000E+00  0.45593999997E+02  0.45594000000E+02  0.51100000000E-03 0.  1.
         11   -1    0    0    0    0 -0.00000000000E+00 -0.00000000000E+00 -0.45593999997E+02  0.45594000000E+02  0.51100000000E-03 0. -1.
         23    2    1    2    0    0 -0.44408920985E-15  0.00000000000E+00 -0.71054273576E-14  0.91188000000E+02  0.91188000000E+02 0.  0.
    9900012    2    3    3    0    0 -0.19378005618E+01 -0.46663746160E+01  0.36472564041E+02  0.54367108501E+02  0.40000055449E+02 0.  0.
         12    1    3    3    0    0  0.19378005618E+01  0.46663746160E+01 -0.36472564041E+02  0.36820891499E+02  0.00000000000E+00 0. -1.
         11    1    4    4    0    0  0.38028043240E+00  0.83151660460E+01 -0.38932261760E+01  0.91893313086E+01  0.51100000000E-03 0. -1.
        -11    1    4    4    0    0 -0.81816841229E+01 -0.42291206785E+01  0.24083381699E+02  0.25784388516E+02  0.51100000000E-03 0.  1.
        -12    1    4    4    0    0  0.58636031288E+01 -0.87524199835E+01  0.16282408518E+02  0.19393388677E+02  0.00000000000E+00 0.  1.
</event>
<event>
 8    1  0.1248739E-006  0.9118800E+02  0.7816164E-02  0.1184000E+00
        -11   -1    0    0    0    0  0.00000000000E+00  0.00000000000E+00  0.45593999997E+02  0.45594000000E+02  0.51100000000E-03 0.  1.
         11   -1    0    0    0    0 -0.00000000000E+00 -0.00000000000E+00 -0.45593999997E+02  0.45594000000E+02  0.51100000000E-03 0. -1.
         23    2    1    2    0    0  0.44408920985E-15 -0.71054273576E-14 -0.35527136788E-14  0.91188000000E+02  0.91188000000E+02 0.  0.
    9900012    2    3    3    0    0 -0.26760771463E+01  0.30460215037E+02  0.20513207253E+02  0.54367112439E+02  0.40000064428E+02 0.  0.
         12    1    3    3    0    0  0.26760771463E+01 -0.30460215037E+02 -0.20513207253E+02  0.36820887561E+02  0.00000000000E+00 0. -1.
         11    1    4    4    0    0 -0.40913790807E+01  0.14622668190E+02  0.71217894600E+01  0.16771454711E+02  0.51100000000E-03 0. -1.
        -11    1    4    4    0    0  0.71111188299E+00  0.20323846595E+02  0.20682680566E+02  0.29005821764E+02  0.51100000000E-03 0.  1.
         12    1    4    4    0    0  0.70419005142E+00 -0.44862997481E+01 -0.72912627733E+01  0.85898359639E+01  0.00000000000E+00 0. -1.
</event>
<event>
 8    1  0.1248739E-006  0.9118800E+02  0.7816164E-02  0.1184000E+00
        -11   -1    0    0    0    0  0.00000000000E+00  0.00000000000E+00  0.45593999997E+02  0.45594000000E+02  0.51100000000E-03 0.  1.
         11   -1    0    0    0    0 -0.00000000000E+00 -0.00000000000E+00 -0.45593999997E+02  0.45594000000E+02  0.51100000000E-03 0. -1.
         23    2    1    2    0    0 -0.17763568394E-14  0.00000000000E+00  0.00000000000E+00  0.91188000000E+02  0.91188000000E+02 0.  0.
    9900012    2    3    3    0    0 -0.13853815644E+02 -0.19709212631E+02  0.27845982423E+02  0.54367081930E+02  0.39999994876E+02 0.  0.
        -12    1    3    3    0    0  0.13853815644E+02  0.19709212631E+02 -0.27845982423E+02  0.36820918070E+02  0.00000000000E+00 0.  1.
         11    1    4    4    0    0 -0.11743058420E+02 -0.15206235453E+02 -0.13318328966E+01  0.19258836850E+02  0.51100000000E-03 0. -1.
        -11    1    4    4    0    0 -0.18465353325E+01 -0.65679877226E+01  0.31359239967E+02  0.32092835447E+02  0.51100000000E-03 0.  1.
        -12    1    4    4    0    0 -0.26422189150E+00  0.20650105444E+01 -0.21814246479E+01  0.30154096324E+01  0.00000000000E+00 0.  1.
</event>
<event>
 8    1  0.1248739E-006  0.9118800E+02  0.7816164E-02  0.1184000E+00
        -11   -1    0    0    0    0  0.00000000000E+00  0.00000000000E+00  0.45593999997E+02  0.45594000000E+02  0.51100000000E-03 0.  1.
         11   -1    0    0    0    0 -0.00000000000E+00 -0.00000000000E+00 -0.45593999997E+02  0.45594000000E+02  0.51100000000E-03 0. -1.
         23    2    1    2    0    0  0.00000000000E+00 -0.35527136788E-14  0.35527136788E-14  0.91188000000E+02  0.91188000000E+02 0.  0.
    9900012    2    3    3    0    0  0.17242830211E+02  0.86398363432E+01  0.31365873341E+02  0.54367082356E+02  0.39999995846E+02 0.  0.
         12    1    3    3    0    0 -0.17242830211E+02 -0.86398363432E+01 -0.31365873341E+02  0.36820917644E+02  0.00000000000E+00 0. -1.
         11    1    4    4    0    0  0.12408570635E+01 -0.60572709279E+01  0.14951782184E+01  0.63612746767E+01  0.51100000000E-03 0. -1.
        -11    1    4    4    0    0  0.64589234971E+01 -0.58273182589E+01 -0.19896577590E+01  0.89237923044E+01  0.51100000000E-03 0.  1.
        -12    1    4    4    0    0  0.95430496499E+01  0.20524425530E+02  0.31860352882E+02  0.39082015374E+02  0.00000000000E+00 0.  1.
</event>
<event>
 8    1  0.1248739E-006  0.9118800E+02  0.7816164E-02  0.1184000E+00
        -11   -1    0    0    0    0  0.00000000000E+00  0.00000000000E+00  0.45593999997E+02  0.45594000000E+02  0.51100000000E-03 0. -1.
         11   -1    0    0    0    0 -0.00000000000E+00 -0.00000000000E+00 -0.45593999997E+02  0.45594000000E+02  0.51100000000E-03 0.  1.
         23    2    1    2    0    0  0.00000000000E+00 -0.17763568394E-14  0.12767564783E-14  0.91188000000E+02  0.91188000000E+02 0.  0.
    9900012    2    3    3    0    0 -0.35226346139E+02  0.10712856305E+02  0.34425763692E+00  0.54367092001E+02  0.40000017836E+02 0.  0.
        -12    1    3    3    0    0  0.35226346139E+02 -0.10712856305E+02 -0.34425763692E+00  0.36820907999E+02  0.00000000000E+00 0.  1.
         11    1    4    4    0    0 -0.66351717917E+01 -0.51253683441E+01  0.76826686285E+01  0.11371820562E+02  0.51100000000E-03 0. -1.
        -11    1    4    4    0    0 -0.24793240763E+02  0.93042027669E+00 -0.11065185881E+02  0.27166317533E+02  0.51100000000E-03 0.  1.
         12    1    4    4    0    0 -0.37979335842E+01  0.14907804372E+02  0.37267748899E+01  0.15828953907E+02  0.00000000000E+00 0. -1.
</event>
<event>
 8    1  0.1248739E-006  0.9118800E+02  0.7816164E-02  0.1184000E+00
        -11   -1    0    0    0    0  0.00000000000E+00  0.00000000000E+00  0.45593999997E+02  0.45594000000E+02  0.51100000000E-03 0. -1.
         11   -1    0    0    0    0 -0.00000000000E+00 -0.00000000000E+00 -0.45593999997E+02  0.45594000000E+02  0.51100000000E-03 0.  1.
         23    2    1    2    0    0 -0.35527136788E-14  0.00000000000E+00  0.35527136788E-14  0.91188000000E+02  0.91188000000E+02 0.  0.
    9900012    2    3    3    0    0  0.29945556575E+02  0.28883244915E+01  0.21229787846E+02  0.54367045790E+02  0.39999912487E+02 0.  0.
        -12    1    3    3    0    0 -0.29945556575E+02 -0.28883244915E+01 -0.21229787846E+02  0.36820954210E+02  0.00000000000E+00 0.  1.
         11    1    4    4    0    0 -0.12354016746E+01 -0.29719772573E+01  0.18065796249E+02  0.18350255053E+02  0.51100000000E-03 0.  1.
        -11    1    4    4    0    0  0.17918378465E+02  0.80803511745E+01  0.86736731302E+01  0.21484714747E+02  0.51100000000E-03 0. -1.
        -12    1    4    4    0    0  0.13262579784E+02 -0.22200494257E+01 -0.55096815332E+01  0.14532075990E+02  0.00000000000E+00 0.  1.
</event>
<event>
 8    1  0.1248739E-006  0.9118800E+02  0.7816164E-02  0.1184000E+00
        -11   -1    0    0    0    0  0.00000000000E+00  0.00000000000E+00  0.45593999997E+02  0.45594000000E+02  0.51100000000E-03 0. -1.
         11   -1    0    0    0    0 -0.00000000000E+00 -0.00000000000E+00 -0.45593999997E+02  0.45594000000E+02  0.51100000000E-03 0.  1.
         23    2    1    2    0    0 -0.35527136788E-14  0.00000000000E+00  0.00000000000E+00  0.91188000000E+02  0.91188000000E+02 0.  0.
    9900012    2    3    3    0    0 -0.24257896138E+02  0.21935131338E+02 -0.16917148715E+02  0.54367008263E+02  0.39999826937E+02 0.  0.
         12    1    3    3    0    0  0.24257896138E+02 -0.21935131338E+02  0.16917148715E+02  0.36820991737E+02  0.00000000000E+00 0. -1.
         11    1    4    4    0    0 -0.48781050375E+01 -0.58015000410E+01  0.72973148794E+01  0.10521602359E+02  0.51100000000E-03 0. -1.
        -11    1    4    4    0    0 -0.79229866482E+01  0.28952705626E+01 -0.97781510034E+01  0.12913889668E+02  0.51100000000E-03 0.  1.
        -12    1    4    4    0    0 -0.11456804452E+02  0.24841360816E+02 -0.14436312590E+02  0.30931516236E+02  0.00000000000E+00 0.  1.
</event>
<event>
 8    1  0.1248739E-006  0.9118800E+02  0.7816164E-02  0.1184000E+00
        -11   -1    0    0    0    0  0.00000000000E+00  0.00000000000E+00  0.45593999997E+02  0.45594000000E+02  0.51100000000E-03 0. -1.
         11   -1    0    0    0    0 -0.00000000000E+00 -0.00000000000E+00 -0.45593999997E+02  0.45594000000E+02  0.51100000000E-03 0.  1.
         23    2    1    2    0    0 -0.44408920985E-15  0.71054273576E-14 -0.10599160438E-14  0.91188000000E+02  0.91188000000E+02 0.  0.
    9900012    2    3    3    0    0 -0.29677871799E+01  0.36701122499E+02  0.11656985952E-01  0.54367078103E+02  0.39999986152E+02 0.  0.
        -12    1    3    3    0    0  0.29677871799E+01 -0.36701122499E+02 -0.11656985952E-01  0.36820921897E+02  0.00000000000E+00 0.  1.
         11    1    4    4    0    0  0.68568997343E+01  0.25708290842E+02  0.11915764992E+02  0.29153365973E+02  0.51100000000E-03 0. -1.
        -11    1    4    4    0    0  0.19059498751E+01 -0.45647202080E+00  0.26479850337E+01  0.32943643745E+01  0.51100000000E-03 0.  1.
        -12    1    4    4    0    0 -0.11730636789E+02  0.11449303678E+02 -0.14552093039E+02  0.21919347755E+02  0.00000000000E+00 0.  1.
</event>
<event>
 8    1  0.1248739E-006  0.9118800E+02  0.7816164E-02  0.1184000E+00
        -11   -1    0    0    0    0  0.00000000000E+00  0.00000000000E+00  0.45593999997E+02  0.45594000000E+02  0.51100000000E-03 0. -1.
         11   -1    0    0    0    0 -0.00000000000E+00 -0.00000000000E+00 -0.45593999997E+02  0.45594000000E+02  0.51100000000E-03 0.  1.
         23    2    1    2    0    0 -0.30531133177E-15  0.00000000000E+00  0.71054273576E-14  0.91188000000E+02  0.91188000000E+02 0.  0.
    9900012    2    3    3    0    0 -0.13052369569E+00  0.25351329232E+02  0.26703415046E+02  0.54367091464E+02  0.40000016611E+02 0.  0.
        -12    1    3    3    0    0  0.13052369569E+00 -0.25351329232E+02 -0.26703415046E+02  0.36820908536E+02  0.00000000000E+00 0.  1.
         11    1    4    4    0    0 -0.29293233899E+01  0.30036747880E+02  0.24889775238E+02  0.39118896589E+02  0.51100000000E-03 0. -1.
        -11    1    4    4    0    0  0.70338775500E+01  0.13387789950E+01  0.30473960405E+01  0.77816698384E+01  0.51100000000E-03 0.  1.
         12    1    4    4    0    0 -0.42350778557E+01 -0.60241976422E+01 -0.12337562325E+01  0.74665250362E+01  0.00000000000E+00 0. -1.
</event>
<event>
 8    1  0.1248739E-006  0.9118800E+02  0.7816164E-02  0.1184000E+00
        -11   -1    0    0    0    0  0.00000000000E+00  0.00000000000E+00  0.45593999997E+02  0.45594000000E+02  0.51100000000E-03 0. -1.
         11   -1    0    0    0    0 -0.00000000000E+00 -0.00000000000E+00 -0.45593999997E+02  0.45594000000E+02  0.51100000000E-03 0.  1.
         23    2    1    2    0    0  0.00000000000E+00  0.00000000000E+00  0.00000000000E+00  0.91188000000E+02  0.91188000000E+02 0.  0.
    9900012    2    3    3    0    0 -0.21094917349E+02  0.16855433391E+02 -0.25033530829E+02  0.54367097804E+02  0.40000031063E+02 0.  0.
         12    1    3    3    0    0  0.21094917349E+02 -0.16855433391E+02  0.25033530829E+02  0.36820902196E+02  0.00000000000E+00 0. -1.
         11    1    4    4    0    0  0.48994373704E+01 -0.46552205145E+01 -0.54848095081E+01  0.87039473911E+01  0.51100000000E-03 0.  1.
        -11    1    4    4    0    0 -0.89080238584E+01 -0.46102523632E+01 -0.40938554175E+01  0.10833603664E+02  0.51100000000E-03 0. -1.
        -12    1    4    4    0    0 -0.17086330861E+02  0.26120906269E+02 -0.15454865904E+02  0.34829546748E+02  0.00000000000E+00 0.  1.
</event>
<event>
 8    1  0.1248739E-006  0.9118800E+02  0.7816164E-02  0.1184000E+00
        -11   -1    0    0    0    0  0.00000000000E+00  0.00000000000E+00  0.45593999997E+02  0.45594000000E+02  0.51100000000E-03 0. -1.
         11   -1    0    0    0    0 -0.00000000000E+00 -0.00000000000E+00 -0.45593999997E+02  0.45594000000E+02  0.51100000000E-03 0.  1.
         23    2    1    2    0    0 -0.71054273576E-14 -0.88817841970E-15  0.00000000000E+00  0.91188000000E+02  0.91188000000E+02 0.  0.
    9900012    2    3    3    0    0  0.35405728904E+02  0.67436916137E+01 -0.75324971106E+01  0.54367061276E+02  0.39999947791E+02 0.  0.
        -12    1    3    3    0    0 -0.35405728904E+02 -0.67436916137E+01  0.75324971106E+01  0.36820938724E+02  0.00000000000E+00 0.  1.
         11    1    4    4    0    0 -0.64125443415E+00 -0.76821667347E+01  0.71901131550E+01  0.10541566318E+02  0.51100000000E-03 0. -1.
        -11    1    4    4    0    0  0.15964831720E+02  0.12094466590E+01 -0.11173557581E+02  0.19524010919E+02  0.51100000000E-03 0.  1.
         12    1    4    4    0    0  0.20082151618E+02  0.13216411689E+02 -0.35490526844E+01  0.24301484039E+02  0.00000000000E+00 0. -1.
</event>
<event>
 8    1  0.1248739E-006  0.9118800E+02  0.7816164E-02  0.1184000E+00
        -11   -1    0    0    0    0  0.00000000000E+00  0.00000000000E+00  0.45593999997E+02  0.45594000000E+02  0.51100000000E-03 0.  1.
         11   -1    0    0    0    0 -0.00000000000E+00 -0.00000000000E+00 -0.45593999997E+02  0.45594000000E+02  0.51100000000E-03 0. -1.
         23    2    1    2    0    0 -0.11102230246E-14  0.00000000000E+00  0.00000000000E+00  0.91188000000E+02  0.91188000000E+02 0.  0.
    9900012    2    3    3    0    0  0.17895190348E+01  0.32427745439E+02  0.17349818482E+02  0.54367119321E+02  0.40000080115E+02 0.  0.
         12    1    3    3    0    0 -0.17895190348E+01 -0.32427745439E+02 -0.17349818482E+02  0.36820880679E+02  0.00000000000E+00 0. -1.
         11    1    4    4    0    0  0.12122596104E+02 -0.17529242983E+01  0.21957043509E+01  0.12443922121E+02  0.51100000000E-03 0. -1.
        -11    1    4    4    0    0 -0.12600930965E+02  0.34265139290E+02  0.12889678439E+02  0.38717270594E+02  0.51100000000E-03 0.  1.
        -12    1    4    4    0    0  0.22678538952E+01 -0.84469552293E-01  0.22644356921E+01  0.32059266053E+01  0.00000000000E+00 0.  1.
</event>
<event>
 8    1  0.1248739E-006  0.9118800E+02  0.7816164E-02  0.1184000E+00
        -11   -1    0    0    0    0  0.00000000000E+00  0.00000000000E+00  0.45593999997E+02  0.45594000000E+02  0.51100000000E-03 0. -1.
         11   -1    0    0    0    0 -0.00000000000E+00 -0.00000000000E+00 -0.45593999997E+02  0.45594000000E+02  0.51100000000E-03 0.  1.
         23    2    1    2    0    0  0.00000000000E+00 -0.44408920985E-15 -0.88817841970E-15  0.91188000000E+02  0.91188000000E+02 0.  0.
    9900012    2    3    3    0    0 -0.36433483615E+02  0.32571551081E+01 -0.42157565224E+01  0.54367076726E+02  0.39999983012E+02 0.  0.
         12    1    3    3    0    0  0.36433483615E+02 -0.32571551081E+01  0.42157565224E+01  0.36820923274E+02  0.00000000000E+00 0. -1.
         11    1    4    4    0    0 -0.16887413740E+02 -0.51330135389E+01  0.97795473423E+01  0.20178506320E+02  0.51100000000E-03 0. -1.
        -11    1    4    4    0    0 -0.14073233410E+02  0.41641471179E+01 -0.20152262694E+02  0.24930096506E+02  0.51100000000E-03 0.  1.
         12    1    4    4    0    0 -0.54728364648E+01  0.42260215291E+01  0.61569588294E+01  0.92584739002E+01  0.00000000000E+00 0. -1.
</event>
<event>
 8    1  0.1248739E-006  0.9118800E+02  0.7816164E-02  0.1184000E+00
        -11   -1    0    0    0    0  0.00000000000E+00  0.00000000000E+00  0.45593999997E+02  0.45594000000E+02  0.51100000000E-03 0.  1.
         11   -1    0    0    0    0 -0.00000000000E+00 -0.00000000000E+00 -0.45593999997E+02  0.45594000000E+02  0.51100000000E-03 0. -1.
         23    2    1    2    0    0  0.88817841970E-15 -0.44408920985E-15  0.71054273576E-14  0.91188000000E+02  0.91188000000E+02 0.  0.
    9900012    2    3    3    0    0  0.53367552608E+01 -0.12117421869E+01 -0.36411970036E+02  0.54367070656E+02  0.39999969175E+02 0.  0.
        -12    1    3    3    0    0 -0.53367552608E+01  0.12117421869E+01  0.36411970036E+02  0.36820929344E+02  0.00000000000E+00 0.  1.
         11    1    4    4    0    0 -0.43985882122E+01  0.22355890718E+01 -0.32410336495E+01  0.59033665088E+01  0.51100000000E-03 0. -1.
        -11    1    4    4    0    0  0.68614838020E+01  0.27293080156E+01  0.54935108129E+01  0.92036809768E+01  0.51100000000E-03 0.  1.
         12    1    4    4    0    0  0.28738596709E+01 -0.61766392743E+01 -0.38664447199E+02  0.39260023171E+02  0.00000000000E+00 0. -1.
</event>
<event>
 8    1  0.1248739E-006  0.9118800E+02  0.7816164E-02  0.1184000E+00
        -11   -1    0    0    0    0  0.00000000000E+00  0.00000000000E+00  0.45593999997E+02  0.45594000000E+02  0.51100000000E-03 0.  1.
         11   -1    0    0    0    0 -0.00000000000E+00 -0.00000000000E+00 -0.45593999997E+02  0.45594000000E+02  0.51100000000E-03 0. -1.
         23    2    1    2    0    0  0.00000000000E+00  0.00000000000E+00  0.35527136788E-14  0.91188000000E+02  0.91188000000E+02 0.  0.
    9900012    2    3    3    0    0 -0.19431360453E+02  0.17172868758E+02  0.26139907051E+02  0.54367082968E+02  0.39999997242E+02 0.  0.
         12    1    3    3    0    0  0.19431360453E+02 -0.17172868758E+02 -0.26139907051E+02  0.36820917032E+02  0.00000000000E+00 0. -1.
         11    1    4    4    0    0  0.68834441564E+01 -0.70271304227E+01  0.49047767625E+01  0.10991778782E+02  0.51100000000E-03 0. -1.
        -11    1    4    4    0    0 -0.17331814034E+02  0.20408717729E+02  0.20259955790E+02  0.33576380775E+02  0.51100000000E-03 0.  1.
        -12    1    4    4    0    0 -0.89829905756E+01  0.37912814511E+01  0.97517449897E+00  0.97989234115E+01  0.00000000000E+00 0.  1.
</event>
<event>
 8    1  0.1248739E-006  0.9118800E+02  0.7816164E-02  0.1184000E+00
        -11   -1    0    0    0    0  0.00000000000E+00  0.00000000000E+00  0.45593999997E+02  0.45594000000E+02  0.51100000000E-03 0. -1.
         11   -1    0    0    0    0 -0.00000000000E+00 -0.00000000000E+00 -0.45593999997E+02  0.45594000000E+02  0.51100000000E-03 0.  1.
         23    2    1    2    0    0  0.19984014443E-14  0.35527136788E-14  0.00000000000E+00  0.91188000000E+02  0.91188000000E+02 0.  0.
    9900012    2    3    3    0    0 -0.13909320412E+01  0.12245278602E+02 -0.34697227063E+02  0.54367094174E+02  0.40000022788E+02 0.  0.
         12    1    3    3    0    0  0.13909320412E+01 -0.12245278602E+02  0.34697227063E+02  0.36820905826E+02  0.00000000000E+00 0. -1.
         11    1    4    4    0    0 -0.74973053012E+01 -0.81567707972E+01 -0.10001134488E+02  0.14925320362E+02  0.51100000000E-03 0. -1.
        -11    1    4    4    0    0 -0.58857728395E+01  0.17405583723E+02 -0.14089994906E+02  0.23154365105E+02  0.51100000000E-03 0.  1.
         12    1    4    4    0    0  0.11992146100E+02  0.29964656755E+01 -0.10606097669E+02  0.16287408707E+02  0.00000000000E+00 0. -1.
</event>
<event>
 8    1  0.1248739E-006  0.9118800E+02  0.7816164E-02  0.1184000E+00
        -11   -1    0    0    0    0  0.00000000000E+00  0.00000000000E+00  0.45593999997E+02  0.45594000000E+02  0.51100000000E-03 0.  1.
         11   -1    0    0    0    0 -0.00000000000E+00 -0.00000000000E+00 -0.45593999997E+02  0.45594000000E+02  0.51100000000E-03 0. -1.
         23    2    1    2    0    0  0.35527136788E-14 -0.35527136788E-14  0.17763568394E-14  0.91188000000E+02  0.91188000000E+02 0.  0.
    9900012    2    3    3    0    0  0.31806808928E+02 -0.16157693614E+02  0.91123531956E+01  0.54367093740E+02  0.40000021798E+02 0.  0.
         12    1    3    3    0    0 -0.31806808928E+02  0.16157693614E+02 -0.91123531956E+01  0.36820906260E+02  0.00000000000E+00 0. -1.
         11    1    4    4    0    0  0.23021330509E+02 -0.12264038619E+02 -0.74437762736E+01  0.27125598742E+02  0.51100000000E-03 0. -1.
        -11    1    4    4    0    0  0.10176091169E+02 -0.70092465591E+01  0.22821913109E+01  0.12565459253E+02  0.51100000000E-03 0.  1.
        -12    1    4    4    0    0 -0.13906127502E+01  0.31155915643E+01  0.14273938158E+02  0.14676035744E+02  0.00000000000E+00 0.  1.
</event>
<event>
 8    1  0.1248739E-006  0.9118800E+02  0.7816164E-02  0.1184000E+00
        -11   -1    0    0    0    0  0.00000000000E+00  0.00000000000E+00  0.45593999997E+02  0.45594000000E+02  0.51100000000E-03 0.  1.
         11   -1    0    0    0    0 -0.00000000000E+00 -0.00000000000E+00 -0.45593999997E+02  0.45594000000E+02  0.51100000000E-03 0. -1.
         23    2    1    2    0    0  0.00000000000E+00 -0.17763568394E-14  0.00000000000E+00  0.91188000000E+02  0.91188000000E+02 0.  0.
    9900012    2    3    3    0    0 -0.15874613821E+02  0.15915362329E+02 -0.29162951485E+02  0.54367083915E+02  0.39999999401E+02 0.  0.
        -12    1    3    3    0    0  0.15874613821E+02 -0.15915362329E+02  0.29162951485E+02  0.36820916085E+02  0.00000000000E+00 0.  1.
         11    1    4    4    0    0 -0.75809814287E+01  0.18146628494E+02 -0.24316573155E+02  0.31274064900E+02  0.51100000000E-03 0. -1.
        -11    1    4    4    0    0 -0.13794476362E+02 -0.17224972436E+01 -0.86616979791E+01  0.16379242565E+02  0.51100000000E-03 0.  1.
        -12    1    4    4    0    0  0.55008439704E+01 -0.50876892165E+00  0.38153196485E+01  0.67137764501E+01  0.00000000000E+00 0.  1.
</event>
<event>
 8    1  0.1248739E-006  0.9118800E+02  0.7816164E-02  0.1184000E+00
        -11   -1    0    0    0    0  0.00000000000E+00  0.00000000000E+00  0.45593999997E+02  0.45594000000E+02  0.51100000000E-03 0.  1.
         11   -1    0    0    0    0 -0.00000000000E+00 -0.00000000000E+00 -0.45593999997E+02  0.45594000000E+02  0.51100000000E-03 0. -1.
         23    2    1    2    0    0  0.00000000000E+00  0.00000000000E+00  0.00000000000E+00  0.91188000000E+02  0.91188000000E+02 0.  0.
    9900012    2    3    3    0    0 -0.42203369537E+01 -0.23521742348E+02  0.28012438898E+02  0.54367077414E+02  0.39999984580E+02 0.  0.
         12    1    3    3    0    0  0.42203369537E+01  0.23521742348E+02 -0.28012438898E+02  0.36820922586E+02  0.00000000000E+00 0. -1.
         11    1    4    4    0    0  0.21749794527E+01 -0.73064018581E+01 -0.71093299198E+01  0.10423848421E+02  0.51100000000E-03 0. -1.
        -11    1    4    4    0    0  0.28636453794E+01 -0.63101943008E+01  0.27561175096E+02  0.28418961802E+02  0.51100000000E-03 0.  1.
         12    1    4    4    0    0 -0.92589617858E+01 -0.99051461893E+01  0.75605937222E+01  0.15524267191E+02  0.00000000000E+00 0. -1.
</event>
<event>
 8    1  0.1248739E-006  0.9118800E+02  0.7816164E-02  0.1184000E+00
        -11   -1    0    0    0    0  0.00000000000E+00  0.00000000000E+00  0.45593999997E+02  0.45594000000E+02  0.51100000000E-03 0. -1.
         11   -1    0    0    0    0 -0.00000000000E+00 -0.00000000000E+00 -0.45593999997E+02  0.45594000000E+02  0.51100000000E-03 0.  1.
         23    2    1    2    0    0 -0.17763568394E-14  0.71054273576E-14  0.88817841970E-15  0.91188000000E+02  0.91188000000E+02 0.  0.
    9900012    2    3    3    0    0  0.11204292081E+02 -0.34161415619E+02 -0.79527147127E+01  0.54367025686E+02  0.39999866657E+02 0.  0.
         12    1    3    3    0    0 -0.11204292081E+02  0.34161415619E+02  0.79527147127E+01  0.36820974314E+02  0.00000000000E+00 0. -1.
         11    1    4    4    0    0  0.54672424412E+01  0.13798097960E+01 -0.13840936405E+01  0.58060598043E+01  0.51100000000E-03 0. -1.
        -11    1    4    4    0    0  0.72316446345E+01 -0.23299265945E+02  0.11270858118E+02  0.26873494761E+02  0.51100000000E-03 0.  1.
         12    1    4    4    0    0 -0.14945949947E+01 -0.12241959470E+02 -0.17839479190E+02  0.21687471121E+02  0.00000000000E+00 0. -1.
</event>
<event>
 8    1  0.1248739E-006  0.9118800E+02  0.7816164E-02  0.1184000E+00
        -11   -1    0    0    0    0  0.00000000000E+00  0.00000000000E+00  0.45593999997E+02  0.45594000000E+02  0.51100000000E-03 0. -1.
         11   -1    0    0    0    0 -0.00000000000E+00 -0.00000000000E+00 -0.45593999997E+02  0.45594000000E+02  0.51100000000E-03 0.  1.
         23    2    1    2    0    0  0.00000000000E+00 -0.44408920985E-15  0.00000000000E+00  0.91188000000E+02  0.91188000000E+02 0.  0.
    9900012    2    3    3    0    0 -0.21413231854E+02  0.31945807591E+01  0.29783347169E+02  0.54367087284E+02  0.40000007081E+02 0.  0.
        -12    1    3    3    0    0  0.21413231854E+02 -0.31945807591E+01 -0.29783347169E+02  0.36820912716E+02  0.00000000000E+00 0.  1.
         11    1    4    4    0    0 -0.11438341073E+02 -0.80696604530E+01  0.31244448124E+02  0.34236977161E+02  0.51100000000E-03 0. -1.
        -11    1    4    4    0    0 -0.96281447948E+01  0.14084871671E+02 -0.21767938172E+01  0.17199512021E+02  0.51100000000E-03 0.  1.
        -12    1    4    4    0    0 -0.34674598623E+00 -0.28206304585E+01  0.71569286258E+00  0.29305981021E+01  0.00000000000E+00 0.  1.
</event>
<event>
 8    1  0.1248739E-006  0.9118800E+02  0.7816164E-02  0.1184000E+00
        -11   -1    0    0    0    0  0.00000000000E+00  0.00000000000E+00  0.45593999997E+02  0.45594000000E+02  0.51100000000E-03 0. -1.
         11   -1    0    0    0    0 -0.00000000000E+00 -0.00000000000E+00 -0.45593999997E+02  0.45594000000E+02  0.51100000000E-03 0.  1.
         23    2    1    2    0    0 -0.44408920985E-15 -0.15265566589E-15  0.00000000000E+00  0.91188000000E+02  0.91188000000E+02 0.  0.
    9900012    2    3    3    0    0  0.27706075380E+01 -0.12298014625E+00 -0.36716322641E+02  0.54367085583E+02  0.40000003203E+02 0.  0.
         12    1    3    3    0    0 -0.27706075380E+01  0.12298014625E+00  0.36716322641E+02  0.36820914417E+02  0.00000000000E+00 0. -1.
         11    1    4    4    0    0 -0.84341707289E+01 -0.30233936560E+01 -0.48611899892E+01  0.10193493683E+02  0.51100000000E-03 0. -1.
        -11    1    4    4    0    0 -0.79367190529E+01 -0.22216054865E+01 -0.22397439052E+01  0.85406962998E+01  0.51100000000E-03 0.  1.
        -12    1    4    4    0    0  0.19141497320E+02  0.51220189963E+01 -0.29615388747E+02  0.35632895600E+02  0.00000000000E+00 0.  1.
</event>
<event>
 8    1  0.1248739E-006  0.9118800E+02  0.7816164E-02  0.1184000E+00
        -11   -1    0    0    0    0  0.00000000000E+00  0.00000000000E+00  0.45593999997E+02  0.45594000000E+02  0.51100000000E-03 0. -1.
         11   -1    0    0    0    0 -0.00000000000E+00 -0.00000000000E+00 -0.45593999997E+02  0.45594000000E+02  0.51100000000E-03 0.  1.
         23    2    1    2    0    0  0.00000000000E+00 -0.17763568394E-14  0.00000000000E+00  0.91188000000E+02  0.91188000000E+02 0.  0.
    9900012    2    3    3    0    0  0.25523939379E+02 -0.84056972021E+01 -0.25172422869E+02  0.54367107833E+02  0.40000053927E+02 0.  0.
         12    1    3    3    0    0 -0.25523939379E+02  0.84056972021E+01  0.25172422869E+02  0.36820892167E+02  0.00000000000E+00 0. -1.
         11    1    4    4    0    0  0.24596237997E+02  0.36982844650E+01 -0.21151899103E+02  0.32650498733E+02  0.51100000000E-03 0. -1.
        -11    1    4    4    0    0  0.75362678365E+01 -0.75315825320E+01 -0.74275809535E+01  0.12988034009E+02  0.51100000000E-03 0.  1.
         12    1    4    4    0    0 -0.66085664540E+01 -0.45723991351E+01  0.34070571885E+01  0.87285750907E+01  0.00000000000E+00 0. -1.
</event>
<event>
 8    1  0.1248739E-006  0.9118800E+02  0.7816164E-02  0.1184000E+00
        -11   -1    0    0    0    0  0.00000000000E+00  0.00000000000E+00  0.45593999997E+02  0.45594000000E+02  0.51100000000E-03 0. -1.
         11   -1    0    0    0    0 -0.00000000000E+00 -0.00000000000E+00 -0.45593999997E+02  0.45594000000E+02  0.51100000000E-03 0.  1.
         23    2    1    2    0    0  0.00000000000E+00 -0.17763568394E-14 -0.88817841970E-15  0.91188000000E+02  0.91188000000E+02 0.  0.
    9900012    2    3    3    0    0  0.32721529525E+02 -0.15865540201E+02  0.57762682099E+01  0.54367093782E+02  0.40000021894E+02 0.  0.
        -12    1    3    3    0    0 -0.32721529525E+02  0.15865540201E+02 -0.57762682099E+01  0.36820906218E+02  0.00000000000E+00 0.  1.
         11    1    4    4    0    0  0.34572649435E+02 -0.10830854489E+02 -0.13632084138E+01  0.36255121505E+02  0.51100000000E-03 0. -1.
        -11    1    4    4    0    0  0.30455925069E+01  0.47263762540E+01  0.14899531938E+01  0.58167196076E+01  0.51100000000E-03 0.  1.
         12    1    4    4    0    0 -0.48967124172E+01 -0.97610619667E+01  0.56495234298E+01  0.12295252669E+02  0.00000000000E+00 0. -1.
</event>
<event>
 8    1  0.1248739E-006  0.9118800E+02  0.7816164E-02  0.1184000E+00
        -11   -1    0    0    0    0  0.00000000000E+00  0.00000000000E+00  0.45593999997E+02  0.45594000000E+02  0.51100000000E-03 0.  1.
         11   -1    0    0    0    0 -0.00000000000E+00 -0.00000000000E+00 -0.45593999997E+02  0.45594000000E+02  0.51100000000E-03 0. -1.
         23    2    1    2    0    0 -0.35527136788E-14  0.00000000000E+00  0.00000000000E+00  0.91188000000E+02  0.91188000000E+02 0.  0.
    9900012    2    3    3    0    0 -0.88972656197E+01 -0.18075365892E+02 -0.30820467039E+02  0.54367063345E+02  0.39999952508E+02 0.  0.
        -12    1    3    3    0    0  0.88972656197E+01  0.18075365892E+02  0.30820467039E+02  0.36820936655E+02  0.00000000000E+00 0.  1.
         11    1    4    4    0    0 -0.16028275760E+02 -0.12132062561E+02 -0.99109322380E+01  0.22412477415E+02  0.51100000000E-03 0. -1.
        -11    1    4    4    0    0  0.47880130721E+01 -0.96385303865E+01 -0.17527178816E+00  0.10763691637E+02  0.51100000000E-03 0.  1.
        -12    1    4    4    0    0  0.23429970680E+01  0.36952270548E+01 -0.20734263013E+02  0.21190894293E+02  0.00000000000E+00 0.  1.
</event>
<event>
 8    1  0.1248739E-006  0.9118800E+02  0.7816164E-02  0.1184000E+00
        -11   -1    0    0    0    0  0.00000000000E+00  0.00000000000E+00  0.45593999997E+02  0.45594000000E+02  0.51100000000E-03 0. -1.
         11   -1    0    0    0    0 -0.00000000000E+00 -0.00000000000E+00 -0.45593999997E+02  0.45594000000E+02  0.51100000000E-03 0.  1.
         23    2    1    2    0    0  0.00000000000E+00  0.00000000000E+00  0.71054273576E-14  0.91188000000E+02  0.91188000000E+02 0.  0.
    9900012    2    3    3    0    0 -0.10541819081E+02  0.11365860075E+02 -0.33398585218E+02  0.54367106212E+02  0.40000050231E+02 0.  0.
         12    1    3    3    0    0  0.10541819081E+02 -0.11365860075E+02  0.33398585218E+02  0.36820893788E+02  0.00000000000E+00 0. -1.
         11    1    4    4    0    0  0.92696113824E+01  0.49532120217E+01 -0.73909016789E+01  0.12848557600E+02  0.51100000000E-03 0. -1.
        -11    1    4    4    0    0 -0.10123694338E+02 -0.92270665351E+00 -0.27459317576E+02  0.29280619813E+02  0.51100000000E-03 0.  1.
        -12    1    4    4    0    0 -0.96877361253E+01  0.73353547064E+01  0.14516340369E+01  0.12237928799E+02  0.00000000000E+00 0.  1.
</event>
<event>
 8    1  0.1248739E-006  0.9118800E+02  0.7816164E-02  0.1184000E+00
        -11   -1    0    0    0    0  0.00000000000E+00  0.00000000000E+00  0.45593999997E+02  0.45594000000E+02  0.51100000000E-03 0.  1.
         11   -1    0    0    0    0 -0.00000000000E+00 -0.00000000000E+00 -0.45593999997E+02  0.45594000000E+02  0.51100000000E-03 0. -1.
         23    2    1    2    0    0  0.00000000000E+00  0.35527136788E-14  0.88817841970E-15  0.91188000000E+02  0.91188000000E+02 0.  0.
    9900012    2    3    3    0    0 -0.25685467253E+02  0.25551589138E+02 -0.65690862057E+01  0.54367084353E+02  0.40000000400E+02 0.  0.
         12    1    3    3    0    0  0.25685467253E+02 -0.25551589138E+02  0.65690862057E+01  0.36820915647E+02  0.00000000000E+00 0. -1.
         11    1    4    4    0    0 -0.36267941351E+02  0.18139574860E+02 -0.27830640433E+01  0.40646687340E+02  0.51100000000E-03 0. -1.
        -11    1    4    4    0    0  0.57867303996E+01  0.24465360021E+01 -0.19161696241E+01  0.65683706820E+01  0.51100000000E-03 0.  1.
         12    1    4    4    0    0  0.47957436985E+01  0.49654782755E+01 -0.18698525383E+01  0.71520263311E+01  0.00000000000E+00 0. -1.
</event>
<event>
 8    1  0.1248739E-006  0.9118800E+02  0.7816164E-02  0.1184000E+00
        -11   -1    0    0    0    0  0.00000000000E+00  0.00000000000E+00  0.45593999997E+02  0.45594000000E+02  0.51100000000E-03 0.  1.
         11   -1    0    0    0    0 -0.00000000000E+00 -0.00000000000E+00 -0.45593999997E+02  0.45594000000E+02  0.51100000000E-03 0. -1.
         23    2    1    2    0    0  0.00000000000E+00  0.00000000000E+00 -0.71054273576E-14  0.91188000000E+02  0.91188000000E+02 0.  0.
    9900012    2    3    3    0    0  0.22091264563E+02  0.21989685766E+01 -0.29375519819E+02  0.54367073919E+02  0.39999976614E+02 0.  0.
        -12    1    3    3    0    0 -0.22091264563E+02 -0.21989685766E+01  0.29375519819E+02  0.36820926081E+02  0.00000000000E+00 0.  1.
         11    1    4    4    0    0  0.23435034844E+01  0.20132798467E+01 -0.23710983192E+02  0.23911420462E+02  0.51100000000E-03 0. -1.
        -11    1    4    4    0    0  0.23117769522E+02  0.52907774866E+01 -0.35295479222E+01  0.23976682483E+02  0.51100000000E-03 0.  1.
        -12    1    4    4    0    0 -0.33700084436E+01 -0.51050887566E+01 -0.21349887057E+01  0.64789709751E+01  0.00000000000E+00 0.  1.
</event>
<event>
 8    1  0.1248739E-006  0.9118800E+02  0.7816164E-02  0.1184000E+00
        -11   -1    0    0    0    0  0.00000000000E+00  0.00000000000E+00  0.45593999997E+02  0.45594000000E+02  0.51100000000E-03 0.  1.
         11   -1    0    0    0    0 -0.00000000000E+00 -0.00000000000E+00 -0.45593999997E+02  0.45594000000E+02  0.51100000000E-03 0. -1.
         23    2    1    2    0    0  0.00000000000E+00  0.35527136788E-14 -0.17763568394E-14  0.91188000000E+02  0.91188000000E+02 0.  0.
    9900012    2    3    3    0    0 -0.33521403316E+02 -0.12220073497E+02  0.90974706790E+01  0.54367100374E+02  0.40000036922E+02 0.  0.
         12    1    3    3    0    0  0.33521403316E+02  0.12220073497E+02 -0.90974706790E+01  0.36820899626E+02  0.00000000000E+00 0. -1.
         11    1    4    4    0    0 -0.10547323148E+01 -0.41364513895E+01 -0.90626415342E+01  0.10017692458E+02  0.51100000000E-03 0. -1.
        -11    1    4    4    0    0 -0.31253001006E+02 -0.10998775093E+02  0.85264793651E+01  0.34211459719E+02  0.51100000000E-03 0.  1.
         12    1    4    4    0    0 -0.12136699946E+01  0.29151529861E+01  0.96336328481E+01  0.10137948197E+02  0.00000000000E+00 0. -1.
</event>
<event>
 8    1  0.1248739E-006  0.9118800E+02  0.7816164E-02  0.1184000E+00
        -11   -1    0    0    0    0  0.00000000000E+00  0.00000000000E+00  0.45593999997E+02  0.45594000000E+02  0.51100000000E-03 0. -1.
         11   -1    0    0    0    0 -0.00000000000E+00 -0.00000000000E+00 -0.45593999997E+02  0.45594000000E+02  0.51100000000E-03 0.  1.
         23    2    1    2    0    0 -0.71054273576E-14  0.11379786002E-14  0.00000000000E+00  0.91188000000E+02  0.91188000000E+02 0.  0.
    9900012    2    3    3    0    0  0.35236210000E+02 -0.70120699206E-01  0.10685708450E+02  0.54367085058E+02  0.40000002006E+02 0.  0.
        -12    1    3    3    0    0 -0.35236210000E+02  0.70120699206E-01 -0.10685708450E+02  0.36820914942E+02  0.00000000000E+00 0.  1.
         11    1    4    4    0    0  0.26727142289E+02  0.11653894259E+02  0.10522517000E+01  0.29176370923E+02  0.51100000000E-03 0. -1.
        -11    1    4    4    0    0  0.45185559109E+01  0.40662907357E+01 -0.34785050760E+00  0.60887657292E+01  0.51100000000E-03 0.  1.
        -12    1    4    4    0    0  0.39905118002E+01 -0.15790305694E+02  0.99813072574E+01  0.19101948406E+02  0.00000000000E+00 0.  1.
</event>
<event>
 8    1  0.1248739E-006  0.9118800E+02  0.7816164E-02  0.1184000E+00
        -11   -1    0    0    0    0  0.00000000000E+00  0.00000000000E+00  0.45593999997E+02  0.45594000000E+02  0.51100000000E-03 0.  1.
         11   -1    0    0    0    0 -0.00000000000E+00 -0.00000000000E+00 -0.45593999997E+02  0.45594000000E+02  0.51100000000E-03 0. -1.
         23    2    1    2    0    0  0.00000000000E+00  0.00000000000E+00  0.00000000000E+00  0.91188000000E+02  0.91188000000E+02 0.  0.
    9900012    2    3    3    0    0  0.22578295092E+02  0.27242030578E+02 -0.10191841764E+02  0.54367064681E+02  0.39999955553E+02 0.  0.
        -12    1    3    3    0    0 -0.22578295092E+02 -0.27242030578E+02  0.10191841764E+02  0.36820935319E+02  0.00000000000E+00 0.  1.
         11    1    4    4    0    0  0.20123624610E+01  0.23414292918E+01 -0.15135947311E+01  0.34384390461E+01  0.51100000000E-03 0. -1.
        -11    1    4    4    0    0 -0.73820534971E+01  0.13377544265E+02 -0.13411141121E+02  0.20330078967E+02  0.51100000000E-03 0.  1.
        -12    1    4    4    0    0  0.27947986128E+02  0.11523057021E+02  0.47328940876E+01  0.30598546667E+02  0.00000000000E+00 0.  1.
</event>
<event>
 8    1  0.1248739E-006  0.9118800E+02  0.7816164E-02  0.1184000E+00
        -11   -1    0    0    0    0  0.00000000000E+00  0.00000000000E+00  0.45593999997E+02  0.45594000000E+02  0.51100000000E-03 0.  1.
         11   -1    0    0    0    0 -0.00000000000E+00 -0.00000000000E+00 -0.45593999997E+02  0.45594000000E+02  0.51100000000E-03 0. -1.
         23    2    1    2    0    0  0.35527136788E-14 -0.17763568394E-14  0.00000000000E+00  0.91188000000E+02  0.91188000000E+02 0.  0.
    9900012    2    3    3    0    0 -0.14039670166E+02  0.24430810005E+01 -0.33951413382E+02  0.54367089450E+02  0.40000012018E+02 0.  0.
        -12    1    3    3    0    0  0.14039670166E+02 -0.24430810005E+01  0.33951413382E+02  0.36820910550E+02  0.00000000000E+00 0.  1.
         11    1    4    4    0    0 -0.11927577931E+01  0.22514775525E+00 -0.24392736978E+02  0.24422919158E+02  0.51100000000E-03 0. -1.
        -11    1    4    4    0    0  0.42489926735E+01  0.88019890307E+01 -0.53682512884E+01  0.11151101820E+02  0.51100000000E-03 0.  1.
         12    1    4    4    0    0 -0.17095905046E+02 -0.65840557854E+01 -0.41904251151E+01  0.18793068472E+02  0.00000000000E+00 0. -1.
</event>
<event>
 8    1  0.1248739E-006  0.9118800E+02  0.7816164E-02  0.1184000E+00
        -11   -1    0    0    0    0  0.00000000000E+00  0.00000000000E+00  0.45593999997E+02  0.45594000000E+02  0.51100000000E-03 0. -1.
         11   -1    0    0    0    0 -0.00000000000E+00 -0.00000000000E+00 -0.45593999997E+02  0.45594000000E+02  0.51100000000E-03 0.  1.
         23    2    1    2    0    0 -0.35527136788E-14  0.00000000000E+00  0.00000000000E+00  0.91188000000E+02  0.91188000000E+02 0.  0.
    9900012    2    3    3    0    0  0.26894591217E+02  0.19993511256E+02  0.15255169146E+02  0.54367085905E+02  0.40000003939E+02 0.  0.
        -12    1    3    3    0    0 -0.26894591217E+02 -0.19993511256E+02 -0.15255169146E+02  0.36820914095E+02  0.00000000000E+00 0.  1.
         11    1    4    4    0    0  0.21396746130E+02  0.16229840615E+02  0.10362133211E+02  0.28785452512E+02  0.51100000000E-03 0. -1.
        -11    1    4    4    0    0  0.14846734326E+02  0.60784184618E+00  0.74443505940E+00  0.14877808161E+02  0.51100000000E-03 0.  1.
         12    1    4    4    0    0 -0.93488892392E+01  0.31558287948E+01  0.41486008756E+01  0.10703825233E+02  0.00000000000E+00 0. -1.
</event>
<event>
 8    1  0.1248739E-006  0.9118800E+02  0.7816164E-02  0.1184000E+00
        -11   -1    0    0    0    0  0.00000000000E+00  0.00000000000E+00  0.45593999997E+02  0.45594000000E+02  0.51100000000E-03 0. -1.
         11   -1    0    0    0    0 -0.00000000000E+00 -0.00000000000E+00 -0.45593999997E+02  0.45594000000E+02  0.51100000000E-03 0.  1.
         23    2    1    2    0    0 -0.17763568394E-14  0.00000000000E+00  0.00000000000E+00  0.91188000000E+02  0.91188000000E+02 0.  0.
    9900012    2    3    3    0    0 -0.14680536033E+02 -0.29363666978E+02  0.16674427139E+02  0.54367087504E+02  0.40000007583E+02 0.  0.
        -12    1    3    3    0    0  0.14680536033E+02  0.29363666978E+02 -0.16674427139E+02  0.36820912496E+02  0.00000000000E+00 0.  1.
         11    1    4    4    0    0  0.30206248885E+01 -0.97711994721E+01 -0.98217848907E+01  0.14179843883E+02  0.51100000000E-03 0. -1.
        -11    1    4    4    0    0 -0.79407150155E+01  0.18519376639E+00  0.92328973022E+01  0.12179312154E+02  0.51100000000E-03 0.  1.
         12    1    4    4    0    0 -0.97604459062E+01 -0.19777661272E+02  0.17263314727E+02  0.28007931467E+02  0.00000000000E+00 0. -1.
</event>
<event>
 8    1  0.1248739E-006  0.9118800E+02  0.7816164E-02  0.1184000E+00
        -11   -1    0    0    0    0  0.00000000000E+00  0.00000000000E+00  0.45593999997E+02  0.45594000000E+02  0.51100000000E-03 0. -1.
         11   -1    0    0    0    0 -0.00000000000E+00 -0.00000000000E+00 -0.45593999997E+02  0.45594000000E+02  0.51100000000E-03 0.  1.
         23    2    1    2    0    0  0.88817841970E-15  0.17763568394E-14 -0.71054273576E-14  0.91188000000E+02  0.91188000000E+02 0.  0.
    9900012    2    3    3    0    0 -0.57913811587E+01 -0.14988318727E+02  0.33129895121E+02  0.54367085499E+02  0.40000003011E+02 0.  0.
        -12    1    3    3    0    0  0.57913811587E+01  0.14988318727E+02 -0.33129895121E+02  0.36820914501E+02  0.00000000000E+00 0.  1.
         11    1    4    4    0    0  0.15982970646E+01  0.61057120703E+01  0.77429175900E+01  0.99893466482E+01  0.51100000000E-03 0. -1.
        -11    1    4    4    0    0 -0.15427175785E+02 -0.22395935310E+01  0.81154514619E+01  0.17574813927E+02  0.51100000000E-03 0.  1.
         12    1    4    4    0    0  0.80374975617E+01 -0.18854437266E+02  0.17271526069E+02  0.26802924923E+02  0.00000000000E+00 0. -1.
</event>
<event>
 8    1  0.1248739E-006  0.9118800E+02  0.7816164E-02  0.1184000E+00
        -11   -1    0    0    0    0  0.00000000000E+00  0.00000000000E+00  0.45593999997E+02  0.45594000000E+02  0.51100000000E-03 0.  1.
         11   -1    0    0    0    0 -0.00000000000E+00 -0.00000000000E+00 -0.45593999997E+02  0.45594000000E+02  0.51100000000E-03 0. -1.
         23    2    1    2    0    0  0.00000000000E+00  0.00000000000E+00  0.00000000000E+00  0.91188000000E+02  0.91188000000E+02 0.  0.
    9900012    2    3    3    0    0 -0.97256400553E+01 -0.27795453568E+02  0.22104403246E+02  0.54367082624E+02  0.39999996458E+02 0.  0.
         12    1    3    3    0    0  0.97256400553E+01  0.27795453568E+02 -0.22104403246E+02  0.36820917376E+02  0.00000000000E+00 0. -1.
         11    1    4    4    0    0  0.48406561477E+01 -0.16321412541E+02  0.18186435798E+02  0.24911180353E+02  0.51100000000E-03 0.  1.
        -11    1    4    4    0    0 -0.87908879617E+01  0.91286903661E+00  0.10961317806E+02  0.14080608273E+02  0.51100000000E-03 0. -1.
         12    1    4    4    0    0 -0.57754082413E+01 -0.12386910063E+02 -0.70433503577E+01  0.15375293998E+02  0.00000000000E+00 0. -1.
</event>
<event>
 8    1  0.1248739E-006  0.9118800E+02  0.7816164E-02  0.1184000E+00
        -11   -1    0    0    0    0  0.00000000000E+00  0.00000000000E+00  0.45593999997E+02  0.45594000000E+02  0.51100000000E-03 0. -1.
         11   -1    0    0    0    0 -0.00000000000E+00 -0.00000000000E+00 -0.45593999997E+02  0.45594000000E+02  0.51100000000E-03 0.  1.
         23    2    1    2    0    0 -0.88817841970E-15 -0.35527136788E-14  0.35527136788E-14  0.91188000000E+02  0.91188000000E+02 0.  0.
    9900012    2    3    3    0    0 -0.46108559445E+01  0.27781353088E+02 -0.23721640735E+02  0.54367084597E+02  0.40000000955E+02 0.  0.
         12    1    3    3    0    0  0.46108559445E+01 -0.27781353088E+02  0.23721640735E+02  0.36820915403E+02  0.00000000000E+00 0. -1.
         11    1    4    4    0    0 -0.47481465610E+01  0.92013419595E+01 -0.13117544408E+02  0.16711659439E+02  0.51100000000E-03 0.  1.
        -11    1    4    4    0    0  0.15209284840E+02  0.64685512445E+01 -0.26088698587E+01  0.16732325085E+02  0.51100000000E-03 0. -1.
         12    1    4    4    0    0 -0.15071994224E+02  0.12111459884E+02 -0.79952264679E+01  0.20923100073E+02  0.00000000000E+00 0. -1.
</event>
<event>
 8    1  0.1248739E-006  0.9118800E+02  0.7816164E-02  0.1184000E+00
        -11   -1    0    0    0    0  0.00000000000E+00  0.00000000000E+00  0.45593999997E+02  0.45594000000E+02  0.51100000000E-03 0.  1.
         11   -1    0    0    0    0 -0.00000000000E+00 -0.00000000000E+00 -0.45593999997E+02  0.45594000000E+02  0.51100000000E-03 0. -1.
         23    2    1    2    0    0  0.00000000000E+00 -0.88817841970E-15  0.26645352591E-14  0.91188000000E+02  0.91188000000E+02 0.  0.
    9900012    2    3    3    0    0 -0.36097556709E+02  0.71332863320E+01  0.13646133398E+01  0.54367088227E+02  0.40000009231E+02 0.  0.
         12    1    3    3    0    0  0.36097556709E+02 -0.71332863320E+01 -0.13646133398E+01  0.36820911773E+02  0.00000000000E+00 0. -1.
         11    1    4    4    0    0 -0.23736436051E+02  0.24170449765E+01  0.17320493771E+02  0.29483215692E+02  0.51100000000E-03 0. -1.
        -11    1    4    4    0    0 -0.12337798674E+02 -0.18940790179E+01 -0.10249437807E+02  0.16151154357E+02  0.51100000000E-03 0.  1.
         12    1    4    4    0    0 -0.23321984590E-01  0.66103203734E+01 -0.57064426244E+01  0.87327181782E+01  0.00000000000E+00 0. -1.
</event>
<event>
 8    1  0.1248739E-006  0.9118800E+02  0.7816164E-02  0.1184000E+00
        -11   -1    0    0    0    0  0.00000000000E+00  0.00000000000E+00  0.45593999997E+02  0.45594000000E+02  0.51100000000E-03 0.  1.
         11   -1    0    0    0    0 -0.00000000000E+00 -0.00000000000E+00 -0.45593999997E+02  0.45594000000E+02  0.51100000000E-03 0. -1.
         23    2    1    2    0    0  0.00000000000E+00  0.17763568394E-14 -0.35527136788E-14  0.91188000000E+02  0.91188000000E+02 0.  0.
    9900012    2    3    3    0    0 -0.13694978561E+02 -0.14262637391E+02 -0.31061197065E+02  0.54367174014E+02  0.40000204800E+02 0.  0.
        -12    1    3    3    0    0  0.13694978561E+02  0.14262637391E+02  0.31061197065E+02  0.36820825986E+02  0.00000000000E+00 0.  1.
         11    1    4    4    0    0 -0.48219324820E-01 -0.12651058941E+02 -0.50740880134E+01  0.13630773524E+02  0.51100000000E-03 0. -1.
        -11    1    4    4    0    0  0.65219211126E+01 -0.26915454163E+01 -0.17424506674E+02  0.18798758066E+02  0.51100000000E-03 0.  1.
         12    1    4    4    0    0 -0.20168680348E+02  0.10799669662E+01 -0.85626023774E+01  0.21937642424E+02  0.00000000000E+00 0. -1.
</event>
<event>
 8    1  0.1248739E-006  0.9118800E+02  0.7816164E-02  0.1184000E+00
        -11   -1    0    0    0    0  0.00000000000E+00  0.00000000000E+00  0.45593999997E+02  0.45594000000E+02  0.51100000000E-03 0.  1.
         11   -1    0    0    0    0 -0.00000000000E+00 -0.00000000000E+00 -0.45593999997E+02  0.45594000000E+02  0.51100000000E-03 0. -1.
         23    2    1    2    0    0 -0.17763568394E-14  0.00000000000E+00  0.17763568394E-14  0.91188000000E+02  0.91188000000E+02 0.  0.
    9900012    2    3    3    0    0  0.14074686445E+02  0.32745031925E+02  0.92433729868E+01  0.54367165429E+02  0.40000185229E+02 0.  0.
         12    1    3    3    0    0 -0.14074686445E+02 -0.32745031925E+02 -0.92433729868E+01  0.36820834571E+02  0.00000000000E+00 0. -1.
         11    1    4    4    0    0  0.13314347244E+02  0.26909459183E+02  0.20633885827E+02  0.36430043654E+02  0.51100000000E-03 0.  1.
        -11    1    4    4    0    0  0.42041507527E+01 -0.25283071717E+00  0.39699389719E+00  0.42304150314E+01  0.51100000000E-03 0. -1.
        -12    1    4    4    0    0 -0.34438115514E+01  0.60884034596E+01 -0.11787506737E+02  0.13706706744E+02  0.00000000000E+00 0.  1.
</event>
<event>
 8    1  0.1248739E-006  0.9118800E+02  0.7816164E-02  0.1184000E+00
        -11   -1    0    0    0    0  0.00000000000E+00  0.00000000000E+00  0.45593999997E+02  0.45594000000E+02  0.51100000000E-03 0.  1.
         11   -1    0    0    0    0 -0.00000000000E+00 -0.00000000000E+00 -0.45593999997E+02  0.45594000000E+02  0.51100000000E-03 0. -1.
         23    2    1    2    0    0  0.17763568394E-14  0.00000000000E+00  0.00000000000E+00  0.91188000000E+02  0.91188000000E+02 0.  0.
    9900012    2    3    3    0    0 -0.11567360140E+02 -0.56403792995E+01 -0.34498719299E+02  0.54367091096E+02  0.40000015771E+02 0.  0.
        -12    1    3    3    0    0  0.11567360140E+02  0.56403792995E+01  0.34498719299E+02  0.36820908904E+02  0.00000000000E+00 0.  1.
         11    1    4    4    0    0 -0.63644031823E+01 -0.51690530999E+01  0.65406218857E+01  0.10488301708E+02  0.51100000000E-03 0. -1.
        -11    1    4    4    0    0 -0.31630072347E+01  0.70380250603E+01 -0.21806601828E+02  0.23131500060E+02  0.51100000000E-03 0.  1.
         12    1    4    4    0    0 -0.20399497236E+01 -0.75093512599E+01 -0.19232739357E+02  0.20747289327E+02  0.00000000000E+00 0. -1.
</event>
<event>
 8    1  0.1248739E-006  0.9118800E+02  0.7816164E-02  0.1184000E+00
        -11   -1    0    0    0    0  0.00000000000E+00  0.00000000000E+00  0.45593999997E+02  0.45594000000E+02  0.51100000000E-03 0.  1.
         11   -1    0    0    0    0 -0.00000000000E+00 -0.00000000000E+00 -0.45593999997E+02  0.45594000000E+02  0.51100000000E-03 0. -1.
         23    2    1    2    0    0  0.00000000000E+00  0.71054273576E-14  0.88817841970E-15  0.91188000000E+02  0.91188000000E+02 0.  0.
    9900012    2    3    3    0    0  0.45846191777E+01 -0.35956197816E+02 -0.64739469750E+01  0.54367097189E+02  0.40000029663E+02 0.  0.
        -12    1    3    3    0    0 -0.45846191777E+01  0.35956197816E+02  0.64739469750E+01  0.36820902811E+02  0.00000000000E+00 0.  1.
         11    1    4    4    0    0  0.60074203437E+01 -0.34457224892E+02 -0.96076044403E+01  0.36272517280E+02  0.51100000000E-03 0. -1.
        -11    1    4    4    0    0  0.51968721719E+01  0.52120683040E+01  0.44128100346E+01  0.85817264603E+01  0.51100000000E-03 0.  1.
         12    1    4    4    0    0 -0.66196733379E+01 -0.67110412274E+01 -0.12791525693E+01  0.95128534495E+01  0.00000000000E+00 0. -1.
</event>
<event>
 8    1  0.1248739E-006  0.9118800E+02  0.7816164E-02  0.1184000E+00
        -11   -1    0    0    0    0  0.00000000000E+00  0.00000000000E+00  0.45593999997E+02  0.45594000000E+02  0.51100000000E-03 0. -1.
         11   -1    0    0    0    0 -0.00000000000E+00 -0.00000000000E+00 -0.45593999997E+02  0.45594000000E+02  0.51100000000E-03 0.  1.
         23    2    1    2    0    0  0.88817841970E-15  0.00000000000E+00  0.00000000000E+00  0.91188000000E+02  0.91188000000E+02 0.  0.
    9900012    2    3    3    0    0 -0.53486113853E+01 -0.32740014080E+02 -0.15977037966E+02  0.54367056124E+02  0.39999936046E+02 0.  0.
        -12    1    3    3    0    0  0.53486113853E+01  0.32740014080E+02  0.15977037966E+02  0.36820943876E+02  0.00000000000E+00 0.  1.
         11    1    4    4    0    0  0.65440386057E+01 -0.13998058730E+02 -0.95896818491E+01  0.18186041012E+02  0.51100000000E-03 0. -1.
        -11    1    4    4    0    0  0.30371309656E+01 -0.12933600042E+02 -0.13240670981E+02  0.18756799910E+02  0.51100000000E-03 0.  1.
         12    1    4    4    0    0 -0.14929780957E+02 -0.58083553084E+01  0.68533148638E+01  0.17424215202E+02  0.00000000000E+00 0. -1.
</event>
<event>
 8    1  0.1248739E-006  0.9118800E+02  0.7816164E-02  0.1184000E+00
        -11   -1    0    0    0    0  0.00000000000E+00  0.00000000000E+00  0.45593999997E+02  0.45594000000E+02  0.51100000000E-03 0. -1.
         11   -1    0    0    0    0 -0.00000000000E+00 -0.00000000000E+00 -0.45593999997E+02  0.45594000000E+02  0.51100000000E-03 0.  1.
         23    2    1    2    0    0  0.00000000000E+00  0.00000000000E+00  0.00000000000E+00  0.91188000000E+02  0.91188000000E+02 0.  0.
    9900012    2    3    3    0    0  0.85437017325E+01  0.34943815945E+02 -0.78558898007E+01  0.54367080448E+02  0.39999991498E+02 0.  0.
         12    1    3    3    0    0 -0.85437017325E+01 -0.34943815945E+02  0.78558898007E+01  0.36820919552E+02  0.00000000000E+00 0. -1.
         11    1    4    4    0    0 -0.17530459003E+01 -0.71584083398E+01  0.52855322804E+01  0.90693346854E+01  0.51100000000E-03 0. -1.
        -11    1    4    4    0    0  0.50372625537E+01  0.22007483859E+02 -0.70239643255E+01  0.23644014781E+02  0.51100000000E-03 0.  1.
         12    1    4    4    0    0  0.52594850792E+01  0.20094740425E+02 -0.61174577556E+01  0.21653730982E+02  0.00000000000E+00 0. -1.
</event>
<event>
 8    1  0.1248739E-006  0.9118800E+02  0.7816164E-02  0.1184000E+00
        -11   -1    0    0    0    0  0.00000000000E+00  0.00000000000E+00  0.45593999997E+02  0.45594000000E+02  0.51100000000E-03 0.  1.
         11   -1    0    0    0    0 -0.00000000000E+00 -0.00000000000E+00 -0.45593999997E+02  0.45594000000E+02  0.51100000000E-03 0. -1.
         23    2    1    2    0    0  0.00000000000E+00  0.00000000000E+00 -0.88817841970E-15  0.91188000000E+02  0.91188000000E+02 0.  0.
    9900012    2    3    3    0    0  0.26600176561E+02 -0.25341246442E+02  0.24563031196E+01  0.54367060451E+02  0.39999945909E+02 0.  0.
         12    1    3    3    0    0 -0.26600176561E+02  0.25341246442E+02 -0.24563031196E+01  0.36820939549E+02  0.00000000000E+00 0. -1.
         11    1    4    4    0    0  0.61682895621E+01  0.24236323044E+01 -0.19104873015E+01  0.68972278242E+01  0.51100000000E-03 0. -1.
        -11    1    4    4    0    0  0.16533522500E+01  0.62061606108E+01 -0.42599629162E+01  0.77069635719E+01  0.51100000000E-03 0.  1.
        -12    1    4    4    0    0  0.18778534748E+02 -0.33971039357E+02  0.86267533373E+01  0.39762869055E+02  0.00000000000E+00 0.  1.
</event>
<event>
 8    1  0.1248739E-006  0.9118800E+02  0.7816164E-02  0.1184000E+00
        -11   -1    0    0    0    0  0.00000000000E+00  0.00000000000E+00  0.45593999997E+02  0.45594000000E+02  0.51100000000E-03 0.  1.
         11   -1    0    0    0    0 -0.00000000000E+00 -0.00000000000E+00 -0.45593999997E+02  0.45594000000E+02  0.51100000000E-03 0. -1.
         23    2    1    2    0    0  0.17763568394E-14  0.00000000000E+00  0.00000000000E+00  0.91188000000E+02  0.91188000000E+02 0.  0.
    9900012    2    3    3    0    0 -0.73367039054E+01  0.16783944163E+02 -0.31941377212E+02  0.54367087680E+02  0.40000007985E+02 0.  0.
        -12    1    3    3    0    0  0.73367039054E+01 -0.16783944163E+02  0.31941377212E+02  0.36820912320E+02  0.00000000000E+00 0.  1.
         11    1    4    4    0    0 -0.16341162459E+02  0.15155152299E+02 -0.20662525096E+02  0.30391646473E+02  0.51100000000E-03 0. -1.
        -11    1    4    4    0    0 -0.53308134787E+01 -0.23962946512E+01 -0.11216659198E+01  0.59512969256E+01  0.51100000000E-03 0.  1.
         12    1    4    4    0    0  0.14335272032E+02  0.40250865145E+01 -0.10157186196E+02  0.18024144282E+02  0.00000000000E+00 0. -1.
</event>
<event>
 8    1  0.1248739E-006  0.9118800E+02  0.7816164E-02  0.1184000E+00
        -11   -1    0    0    0    0  0.00000000000E+00  0.00000000000E+00  0.45593999997E+02  0.45594000000E+02  0.51100000000E-03 0.  1.
         11   -1    0    0    0    0 -0.00000000000E+00 -0.00000000000E+00 -0.45593999997E+02  0.45594000000E+02  0.51100000000E-03 0. -1.
         23    2    1    2    0    0  0.00000000000E+00  0.44408920985E-15 -0.17763568394E-14  0.91188000000E+02  0.91188000000E+02 0.  0.
    9900012    2    3    3    0    0  0.35182653336E+02 -0.39278008635E+01  0.10125856918E+02  0.54367086191E+02  0.40000004590E+02 0.  0.
         12    1    3    3    0    0 -0.35182653336E+02  0.39278008635E+01 -0.10125856918E+02  0.36820913809E+02  0.00000000000E+00 0. -1.
         11    1    4    4    0    0  0.31059412704E+01  0.69469945603E+01 -0.41083817586E+01  0.86479133629E+01  0.51100000000E-03 0. -1.
        -11    1    4    4    0    0  0.15198679177E+02 -0.84523761897E+01 -0.67727407988E+01  0.18663132914E+02  0.51100000000E-03 0.  1.
        -12    1    4    4    0    0  0.16878032889E+02 -0.24224192341E+01  0.21006979476E+02  0.27056039915E+02  0.00000000000E+00 0.  1.
</event>
<event>
 8    1  0.1248739E-006  0.9118800E+02  0.7816164E-02  0.1184000E+00
        -11   -1    0    0    0    0  0.00000000000E+00  0.00000000000E+00  0.45593999997E+02  0.45594000000E+02  0.51100000000E-03 0.  1.
         11   -1    0    0    0    0 -0.00000000000E+00 -0.00000000000E+00 -0.45593999997E+02  0.45594000000E+02  0.51100000000E-03 0. -1.
         23    2    1    2    0    0  0.00000000000E+00  0.00000000000E+00  0.00000000000E+00  0.91188000000E+02  0.91188000000E+02 0.  0.
    9900012    2    3    3    0    0  0.17802870438E+02  0.19417587483E+02  0.25725376818E+02  0.54367083229E+02  0.39999997836E+02 0.  0.
         12    1    3    3    0    0 -0.17802870438E+02 -0.19417587483E+02 -0.25725376818E+02  0.36820916771E+02  0.00000000000E+00 0. -1.
         11    1    4    4    0    0 -0.15204200691E+00 -0.20611795837E+01  0.43276847986E+00  0.21116029140E+01  0.51100000000E-03 0. -1.
        -11    1    4    4    0    0  0.14028060790E+02 -0.61042790333E+01  0.17665532823E+02  0.23369205426E+02  0.51100000000E-03 0.  1.
        -12    1    4    4    0    0  0.39268516541E+01  0.27583046100E+02  0.76270755154E+01  0.28886274889E+02  0.00000000000E+00 0.  1.
</event>
<event>
 8    1  0.1248739E-006  0.9118800E+02  0.7816164E-02  0.1184000E+00
        -11   -1    0    0    0    0  0.00000000000E+00  0.00000000000E+00  0.45593999997E+02  0.45594000000E+02  0.51100000000E-03 0. -1.
         11   -1    0    0    0    0 -0.00000000000E+00 -0.00000000000E+00 -0.45593999997E+02  0.45594000000E+02  0.51100000000E-03 0.  1.
         23    2    1    2    0    0  0.88817841970E-15  0.35527136788E-14  0.00000000000E+00  0.91188000000E+02  0.91188000000E+02 0.  0.
    9900012    2    3    3    0    0 -0.54213764655E+01 -0.25507938486E+02 -0.25994893002E+02  0.54367072380E+02  0.39999973105E+02 0.  0.
         12    1    3    3    0    0  0.54213764655E+01  0.25507938486E+02  0.25994893002E+02  0.36820927620E+02  0.00000000000E+00 0. -1.
         11    1    4    4    0    0 -0.16624770607E+02 -0.11536841708E+02 -0.20914462851E+02  0.29101485717E+02  0.51100000000E-03 0. -1.
        -11    1    4    4    0    0 -0.55004518160E+00 -0.12857575745E+02 -0.16729524773E+01  0.12977618194E+02  0.51100000000E-03 0.  1.
        -12    1    4    4    0    0  0.11753439323E+02 -0.11135210339E+01 -0.34074776737E+01  0.12287968470E+02  0.00000000000E+00 0.  1.
</event>
<event>
 8    1  0.1248739E-006  0.9118800E+02  0.7816164E-02  0.1184000E+00
        -11   -1    0    0    0    0  0.00000000000E+00  0.00000000000E+00  0.45593999997E+02  0.45594000000E+02  0.51100000000E-03 0.  1.
         11   -1    0    0    0    0 -0.00000000000E+00 -0.00000000000E+00 -0.45593999997E+02  0.45594000000E+02  0.51100000000E-03 0. -1.
         23    2    1    2    0    0 -0.88817841970E-15  0.00000000000E+00 -0.35527136788E-14  0.91188000000E+02  0.91188000000E+02 0.  0.
    9900012    2    3    3    0    0  0.77229414737E+01  0.19031600632E+02 -0.30560312968E+02  0.54367104080E+02  0.40000045372E+02 0.  0.
        -12    1    3    3    0    0 -0.77229414737E+01 -0.19031600632E+02  0.30560312968E+02  0.36820895920E+02  0.00000000000E+00 0.  1.
         11    1    4    4    0    0  0.88416883003E+01  0.58720594137E+01 -0.27579596358E+02  0.29551491828E+02  0.51100000000E-03 0. -1.
        -11    1    4    4    0    0 -0.32567456696E+01  0.18517160210E+02 -0.30475682668E+01  0.19046765794E+02  0.51100000000E-03 0.  1.
         12    1    4    4    0    0  0.21379988430E+01 -0.53576189919E+01  0.66851656528E-01  0.57688464583E+01  0.00000000000E+00 0. -1.
</event>
<event>
 8    1  0.1248739E-006  0.9118800E+02  0.7816164E-02  0.1184000E+00
        -11   -1    0    0    0    0  0.00000000000E+00  0.00000000000E+00  0.45593999997E+02  0.45594000000E+02  0.51100000000E-03 0. -1.
         11   -1    0    0    0    0 -0.00000000000E+00 -0.00000000000E+00 -0.45593999997E+02  0.45594000000E+02  0.51100000000E-03 0.  1.
         23    2    1    2    0    0  0.53290705182E-14  0.00000000000E+00  0.35527136788E-14  0.91188000000E+02  0.91188000000E+02 0.  0.
    9900012    2    3    3    0    0  0.15180419561E+02  0.22136235506E+02  0.25205593504E+02  0.54367081973E+02  0.39999994975E+02 0.  0.
        -12    1    3    3    0    0 -0.15180419561E+02 -0.22136235506E+02 -0.25205593504E+02  0.36820918027E+02  0.00000000000E+00 0.  1.
         11    1    4    4    0    0  0.15091688629E+02  0.22128267969E+02  0.49555773375E-01  0.26784730072E+02  0.51100000000E-03 0.  1.
        -11    1    4    4    0    0 -0.24838947523E+01  0.42889032543E+00  0.24192888902E+00  0.25322341717E+01  0.51100000000E-03 0. -1.
        -12    1    4    4    0    0  0.25726256843E+01 -0.42092278820E+00  0.24914108842E+02  0.25050117730E+02  0.00000000000E+00 0.  1.
</event>
<event>
 8    1  0.1248739E-006  0.9118800E+02  0.7816164E-02  0.1184000E+00
        -11   -1    0    0    0    0  0.00000000000E+00  0.00000000000E+00  0.45593999997E+02  0.45594000000E+02  0.51100000000E-03 0. -1.
         11   -1    0    0    0    0 -0.00000000000E+00 -0.00000000000E+00 -0.45593999997E+02  0.45594000000E+02  0.51100000000E-03 0.  1.
         23    2    1    2    0    0  0.00000000000E+00  0.00000000000E+00  0.35527136788E-14  0.91188000000E+02  0.91188000000E+02 0.  0.
    9900012    2    3    3    0    0 -0.41847323147E+01 -0.21508558995E+02  0.29591355068E+02  0.54367103904E+02  0.40000044969E+02 0.  0.
        -12    1    3    3    0    0  0.41847323147E+01  0.21508558995E+02 -0.29591355068E+02  0.36820896096E+02  0.00000000000E+00 0.  1.
         11    1    4    4    0    0  0.12560055827E+02 -0.38172074707E+01  0.24515968558E+02  0.27809329187E+02  0.51100000000E-03 0. -1.
        -11    1    4    4    0    0 -0.13024015892E+02 -0.10448381439E+02  0.71363587079E+01  0.18158229003E+02  0.51100000000E-03 0.  1.
        -12    1    4    4    0    0 -0.37207722497E+01 -0.72429700854E+01 -0.20609721981E+01  0.83995457135E+01  0.00000000000E+00 0.  1.
</event>
<event>
 8    1  0.1248739E-006  0.9118800E+02  0.7816164E-02  0.1184000E+00
        -11   -1    0    0    0    0  0.00000000000E+00  0.00000000000E+00  0.45593999997E+02  0.45594000000E+02  0.51100000000E-03 0. -1.
         11   -1    0    0    0    0 -0.00000000000E+00 -0.00000000000E+00 -0.45593999997E+02  0.45594000000E+02  0.51100000000E-03 0.  1.
         23    2    1    2    0    0  0.17763568394E-14  0.00000000000E+00 -0.35527136788E-14  0.91188000000E+02  0.91188000000E+02 0.  0.
    9900012    2    3    3    0    0  0.13949673866E+02  0.19081612566E+02  0.28232617969E+02  0.54367054107E+02  0.39999931447E+02 0.  0.
        -12    1    3    3    0    0 -0.13949673866E+02 -0.19081612566E+02 -0.28232617969E+02  0.36820945893E+02  0.00000000000E+00 0.  1.
         11    1    4    4    0    0 -0.52196590634E+00  0.11450258801E+02  0.15917639080E+02  0.19615099010E+02  0.51100000000E-03 0.  1.
        -11    1    4    4    0    0  0.12444424708E+02  0.14930243942E+02 -0.96822126800E+00  0.19460558655E+02  0.51100000000E-03 0. -1.
        -12    1    4    4    0    0  0.20272150644E+01 -0.72988901772E+01  0.13283200157E+02  0.15291396442E+02  0.00000000000E+00 0.  1.
</event>
<event>
 8    1  0.1248739E-006  0.9118800E+02  0.7816164E-02  0.1184000E+00
        -11   -1    0    0    0    0  0.00000000000E+00  0.00000000000E+00  0.45593999997E+02  0.45594000000E+02  0.51100000000E-03 0.  1.
         11   -1    0    0    0    0 -0.00000000000E+00 -0.00000000000E+00 -0.45593999997E+02  0.45594000000E+02  0.51100000000E-03 0. -1.
         23    2    1    2    0    0 -0.11102230246E-14  0.26645352591E-14  0.71054273576E-14  0.91188000000E+02  0.91188000000E+02 0.  0.
    9900012    2    3    3    0    0 -0.11870602252E+01 -0.76493150280E+01 -0.35998027317E+02  0.54367094211E+02  0.40000022874E+02 0.  0.
        -12    1    3    3    0    0  0.11870602252E+01  0.76493150280E+01  0.35998027317E+02  0.36820905789E+02  0.00000000000E+00 0.  1.
         11    1    4    4    0    0 -0.12115618432E+02 -0.14791376178E+01 -0.41874942880E+00  0.12212756013E+02  0.51100000000E-03 0. -1.
        -11    1    4    4    0    0  0.10743780080E+02  0.47024016226E+01 -0.18931585546E+02  0.22269852334E+02  0.51100000000E-03 0.  1.
         12    1    4    4    0    0  0.18477812664E+00 -0.10872579033E+02 -0.16647692342E+02  0.19884485864E+02  0.00000000000E+00 0. -1.
</event>
<event>
 8    1  0.1248739E-006  0.9118800E+02  0.7816164E-02  0.1184000E+00
        -11   -1    0    0    0    0  0.00000000000E+00  0.00000000000E+00  0.45593999997E+02  0.45594000000E+02  0.51100000000E-03 0.  1.
         11   -1    0    0    0    0 -0.00000000000E+00 -0.00000000000E+00 -0.45593999997E+02  0.45594000000E+02  0.51100000000E-03 0. -1.
         23    2    1    2    0    0  0.35527136788E-14  0.66613381478E-15 -0.35527136788E-14  0.91188000000E+02  0.91188000000E+02 0.  0.
    9900012    2    3    3    0    0  0.25206297025E+02 -0.18981555903E+01 -0.26773482155E+02  0.54367085413E+02  0.40000002815E+02 0.  0.
        -12    1    3    3    0    0 -0.25206297025E+02  0.18981555903E+01  0.26773482155E+02  0.36820914587E+02  0.00000000000E+00 0.  1.
         11    1    4    4    0    0  0.14036510056E+02  0.81798621381E+01 -0.12165287009E+02  0.20296008658E+02  0.51100000000E-03 0. -1.
        -11    1    4    4    0    0  0.19145712760E+02 -0.27009099590E+01 -0.12442601758E+02  0.22992859119E+02  0.51100000000E-03 0.  1.
        -12    1    4    4    0    0 -0.79759257914E+01 -0.73771077694E+01 -0.21655933886E+01  0.11078217636E+02  0.00000000000E+00 0.  1.
</event>
<event>
 8    1  0.1248739E-006  0.9118800E+02  0.7816164E-02  0.1184000E+00
        -11   -1    0    0    0    0  0.00000000000E+00  0.00000000000E+00  0.45593999997E+02  0.45594000000E+02  0.51100000000E-03 0.  1.
         11   -1    0    0    0    0 -0.00000000000E+00 -0.00000000000E+00 -0.45593999997E+02  0.45594000000E+02  0.51100000000E-03 0. -1.
         23    2    1    2    0    0 -0.35527136788E-14 -0.27755575616E-15  0.00000000000E+00  0.91188000000E+02  0.91188000000E+02 0.  0.
    9900012    2    3    3    0    0  0.30559261555E+02  0.25597551128E+00 -0.20538870444E+02  0.54367093040E+02  0.40000020203E+02 0.  0.
        -12    1    3    3    0    0 -0.30559261555E+02 -0.25597551128E+00  0.20538870444E+02  0.36820906960E+02  0.00000000000E+00 0.  1.
         11    1    4    4    0    0  0.15458319590E+02  0.12625766563E+02 -0.95329097043E+01  0.22118905794E+02  0.51100000000E-03 0. -1.
        -11    1    4    4    0    0  0.42698147574E+01 -0.73643693517E+00  0.69985885665E+01  0.82312756974E+01  0.51100000000E-03 0.  1.
         12    1    4    4    0    0  0.10831127208E+02 -0.11633354117E+02 -0.18004549306E+02  0.24016911548E+02  0.00000000000E+00 0. -1.
</event>
<event>
 8    1  0.1248739E-006  0.9118800E+02  0.7816164E-02  0.1184000E+00
        -11   -1    0    0    0    0  0.00000000000E+00  0.00000000000E+00  0.45593999997E+02  0.45594000000E+02  0.51100000000E-03 0.  1.
         11   -1    0    0    0    0 -0.00000000000E+00 -0.00000000000E+00 -0.45593999997E+02  0.45594000000E+02  0.51100000000E-03 0. -1.
         23    2    1    2    0    0  0.71054273576E-14  0.00000000000E+00  0.44408920985E-15  0.91188000000E+02  0.91188000000E+02 0.  0.
    9900012    2    3    3    0    0  0.31452342819E+02 -0.19007257296E+02  0.22918373686E+01  0.54367106240E+02  0.40000050295E+02 0.  0.
        -12    1    3    3    0    0 -0.31452342819E+02  0.19007257296E+02 -0.22918373686E+01  0.36820893760E+02  0.00000000000E+00 0.  1.
         11    1    4    4    0    0  0.73661436254E+01 -0.79605337119E+01  0.42295326544E+01  0.11641267784E+02  0.51100000000E-03 0.  1.
        -11    1    4    4    0    0  0.20179003652E+02  0.73445716333E+01  0.60313458088E+01  0.22304978220E+02  0.51100000000E-03 0. -1.
         12    1    4    4    0    0  0.39071955415E+01 -0.18391295218E+02 -0.79690410946E+01  0.20420860235E+02  0.00000000000E+00 0. -1.
</event>
<event>
 8    1  0.1248739E-006  0.9118800E+02  0.7816164E-02  0.1184000E+00
        -11   -1    0    0    0    0  0.00000000000E+00  0.00000000000E+00  0.45593999997E+02  0.45594000000E+02  0.51100000000E-03 0.  1.
         11   -1    0    0    0    0 -0.00000000000E+00 -0.00000000000E+00 -0.45593999997E+02  0.45594000000E+02  0.51100000000E-03 0. -1.
         23    2    1    2    0    0  0.35527136788E-14  0.00000000000E+00  0.00000000000E+00  0.91188000000E+02  0.91188000000E+02 0.  0.
    9900012    2    3    3    0    0 -0.28742848030E+02 -0.86209391377E+01 -0.21337970025E+02  0.54367070228E+02  0.39999968198E+02 0.  0.
        -12    1    3    3    0    0  0.28742848030E+02  0.86209391377E+01  0.21337970025E+02  0.36820929772E+02  0.00000000000E+00 0.  1.
         11    1    4    4    0    0  0.17772731286E+01 -0.10808137806E+02 -0.66282569176E+01  0.12802668966E+02  0.51100000000E-03 0. -1.
        -11    1    4    4    0    0 -0.21747768464E+02  0.11715802919E+02 -0.14432142718E+02  0.28609652478E+02  0.51100000000E-03 0.  1.
        -12    1    4    4    0    0 -0.87723526943E+01 -0.95286042502E+01 -0.27757039004E+00  0.12954748785E+02  0.00000000000E+00 0.  1.
</event>
<event>
 8    1  0.1248739E-006  0.9118800E+02  0.7816164E-02  0.1184000E+00
        -11   -1    0    0    0    0  0.00000000000E+00  0.00000000000E+00  0.45593999997E+02  0.45594000000E+02  0.51100000000E-03 0.  1.
         11   -1    0    0    0    0 -0.00000000000E+00 -0.00000000000E+00 -0.45593999997E+02  0.45594000000E+02  0.51100000000E-03 0. -1.
         23    2    1    2    0    0 -0.17763568394E-14  0.00000000000E+00  0.15543122345E-14  0.91188000000E+02  0.91188000000E+02 0.  0.
    9900012    2    3    3    0    0 -0.15058099003E+02 -0.33547230226E+02 -0.19015154075E+01  0.54367098839E+02  0.40000033424E+02 0.  0.
        -12    1    3    3    0    0  0.15058099003E+02  0.33547230226E+02  0.19015154075E+01  0.36820901161E+02  0.00000000000E+00 0.  1.
         11    1    4    4    0    0 -0.16378187901E+02 -0.15262434461E+02  0.11556207677E+02  0.25193905626E+02  0.51100000000E-03 0. -1.
        -11    1    4    4    0    0  0.64711295236E+00 -0.21712054335E+02 -0.90055722008E+01  0.23514514444E+02  0.51100000000E-03 0.  1.
         12    1    4    4    0    0  0.67297594566E+00  0.34272585690E+01 -0.44521508837E+01  0.56586787693E+01  0.00000000000E+00 0. -1.
</event>
<event>
 8    1  0.1248739E-006  0.9118800E+02  0.7816164E-02  0.1184000E+00
        -11   -1    0    0    0    0  0.00000000000E+00  0.00000000000E+00  0.45593999997E+02  0.45594000000E+02  0.51100000000E-03 0.  1.
         11   -1    0    0    0    0 -0.00000000000E+00 -0.00000000000E+00 -0.45593999997E+02  0.45594000000E+02  0.51100000000E-03 0. -1.
         23    2    1    2    0    0 -0.35527136788E-14  0.00000000000E+00  0.00000000000E+00  0.91188000000E+02  0.91188000000E+02 0.  0.
    9900012    2    3    3    0    0 -0.20956780539E+02 -0.13675643615E+02 -0.27010553043E+02  0.54367084008E+02  0.39999999612E+02 0.  0.
        -12    1    3    3    0    0  0.20956780539E+02  0.13675643615E+02  0.27010553043E+02  0.36820915992E+02  0.00000000000E+00 0.  1.
         11    1    4    4    0    0 -0.11596909951E+02  0.70547863525E+01 -0.11207361265E+02  0.17602933780E+02  0.51100000000E-03 0. -1.
        -11    1    4    4    0    0 -0.16624932620E+02 -0.13555009335E+02 -0.15648396896E+02  0.26551817045E+02  0.51100000000E-03 0.  1.
        -12    1    4    4    0    0  0.72650620318E+01 -0.71754206326E+01 -0.15479488160E+00  0.10212333183E+02  0.00000000000E+00 0.  1.
</event>
<event>
 8    1  0.1248739E-006  0.9118800E+02  0.7816164E-02  0.1184000E+00
        -11   -1    0    0    0    0  0.00000000000E+00  0.00000000000E+00  0.45593999997E+02  0.45594000000E+02  0.51100000000E-03 0.  1.
         11   -1    0    0    0    0 -0.00000000000E+00 -0.00000000000E+00 -0.45593999997E+02  0.45594000000E+02  0.51100000000E-03 0. -1.
         23    2    1    2    0    0  0.00000000000E+00  0.00000000000E+00  0.00000000000E+00  0.91188000000E+02  0.91188000000E+02 0.  0.
    9900012    2    3    3    0    0 -0.15213826161E+02 -0.18468202319E+02  0.27986539135E+02  0.54367063346E+02  0.39999952510E+02 0.  0.
         12    1    3    3    0    0  0.15213826161E+02  0.18468202319E+02 -0.27986539135E+02  0.36820936654E+02  0.00000000000E+00 0. -1.
         11    1    4    4    0    0  0.76812623856E+01 -0.25877996565E+01  0.40933952096E-01  0.81055644312E+01  0.51100000000E-03 0. -1.
        -11    1    4    4    0    0 -0.16910835427E+02 -0.13677183650E+02  0.32009665750E+02  0.38699617687E+02  0.51100000000E-03 0.  1.
         12    1    4    4    0    0 -0.59842531195E+01 -0.22032190127E+01 -0.40640605674E+01  0.75618812284E+01  0.00000000000E+00 0. -1.
</event>
<event>
 8    1  0.1248739E-006  0.9118800E+02  0.7816164E-02  0.1184000E+00
        -11   -1    0    0    0    0  0.00000000000E+00  0.00000000000E+00  0.45593999997E+02  0.45594000000E+02  0.51100000000E-03 0. -1.
         11   -1    0    0    0    0 -0.00000000000E+00 -0.00000000000E+00 -0.45593999997E+02  0.45594000000E+02  0.51100000000E-03 0.  1.
         23    2    1    2    0    0 -0.17763568394E-14 -0.44408920985E-15  0.00000000000E+00  0.91188000000E+02  0.91188000000E+02 0.  0.
    9900012    2    3    3    0    0  0.11260047487E+02 -0.21304602325E+01  0.34992169978E+02  0.54367088958E+02  0.40000010896E+02 0.  0.
        -12    1    3    3    0    0 -0.11260047487E+02  0.21304602325E+01 -0.34992169978E+02  0.36820911042E+02  0.00000000000E+00 0.  1.
         11    1    4    4    0    0  0.11931425297E+02 -0.85177589293E+01  0.34458386056E+01  0.15059380159E+02  0.51100000000E-03 0. -1.
        -11    1    4    4    0    0  0.61862318134E+01  0.11946998104E+02  0.12722607207E+02  0.18516613140E+02  0.51100000000E-03 0.  1.
        -12    1    4    4    0    0 -0.68576096236E+01 -0.55596994076E+01  0.18823724166E+02  0.20791095659E+02  0.00000000000E+00 0.  1.
</event>
<event>
 8    1  0.1248739E-006  0.9118800E+02  0.7816164E-02  0.1184000E+00
        -11   -1    0    0    0    0  0.00000000000E+00  0.00000000000E+00  0.45593999997E+02  0.45594000000E+02  0.51100000000E-03 0. -1.
         11   -1    0    0    0    0 -0.00000000000E+00 -0.00000000000E+00 -0.45593999997E+02  0.45594000000E+02  0.51100000000E-03 0.  1.
         23    2    1    2    0    0  0.00000000000E+00 -0.88817841970E-15  0.00000000000E+00  0.91188000000E+02  0.91188000000E+02 0.  0.
    9900012    2    3    3    0    0 -0.16544613358E+02 -0.26158727107E+01  0.32790448822E+02  0.54367074493E+02  0.39999977922E+02 0.  0.
        -12    1    3    3    0    0  0.16544613358E+02  0.26158727107E+01 -0.32790448822E+02  0.36820925507E+02  0.00000000000E+00 0.  1.
         11    1    4    4    0    0 -0.10535708896E+02 -0.35460803947E+01  0.78558496238E+01  0.13612135089E+02  0.51100000000E-03 0. -1.
        -11    1    4    4    0    0 -0.96652776241E+01 -0.69025844212E+01 -0.23730889197E+01  0.12111763477E+02  0.51100000000E-03 0.  1.
        -12    1    4    4    0    0  0.36563731613E+01  0.78327921051E+01  0.27307688118E+02  0.28643175928E+02  0.00000000000E+00 0.  1.
</event>
<event>
 8    1  0.1248739E-006  0.9118800E+02  0.7816164E-02  0.1184000E+00
        -11   -1    0    0    0    0  0.00000000000E+00  0.00000000000E+00  0.45593999997E+02  0.45594000000E+02  0.51100000000E-03 0.  1.
         11   -1    0    0    0    0 -0.00000000000E+00 -0.00000000000E+00 -0.45593999997E+02  0.45594000000E+02  0.51100000000E-03 0. -1.
         23    2    1    2    0    0  0.00000000000E+00 -0.88817841970E-15  0.00000000000E+00  0.91188000000E+02  0.91188000000E+02 0.  0.
    9900012    2    3    3    0    0 -0.28962262560E+02 -0.40645376640E+01  0.22370660461E+02  0.54367087892E+02  0.40000008467E+02 0.  0.
         12    1    3    3    0    0  0.28962262560E+02  0.40645376640E+01 -0.22370660461E+02  0.36820912108E+02  0.00000000000E+00 0. -1.
         11    1    4    4    0    0  0.67102855947E+01 -0.17137695577E+00  0.69943062559E+01  0.96942056449E+01  0.51100000000E-03 0. -1.
        -11    1    4    4    0    0  0.19789009955E+01  0.68681016240E+00  0.48918834511E+01  0.53214923949E+01  0.51100000000E-03 0.  1.
        -12    1    4    4    0    0 -0.37651449150E+02 -0.45799708707E+01  0.10484470754E+02  0.39351389852E+02  0.00000000000E+00 0.  1.
</event>
<event>
 8    1  0.1248739E-006  0.9118800E+02  0.7816164E-02  0.1184000E+00
        -11   -1    0    0    0    0  0.00000000000E+00  0.00000000000E+00  0.45593999997E+02  0.45594000000E+02  0.51100000000E-03 0.  1.
         11   -1    0    0    0    0 -0.00000000000E+00 -0.00000000000E+00 -0.45593999997E+02  0.45594000000E+02  0.51100000000E-03 0. -1.
         23    2    1    2    0    0  0.35527136788E-14  0.88817841970E-15  0.00000000000E+00  0.91188000000E+02  0.91188000000E+02 0.  0.
    9900012    2    3    3    0    0 -0.30660103440E+02 -0.69471439244E+01  0.19169637619E+02  0.54367085317E+02  0.40000002596E+02 0.  0.
        -12    1    3    3    0    0  0.30660103440E+02  0.69471439244E+01 -0.19169637619E+02  0.36820914683E+02  0.00000000000E+00 0.  1.
         11    1    4    4    0    0 -0.50427067554E+01  0.17497103289E+01  0.17128100065E+02  0.17940518101E+02  0.51100000000E-03 0. -1.
        -11    1    4    4    0    0 -0.21496610155E+02 -0.11365869984E+02  0.10626436569E+02  0.26536925275E+02  0.51100000000E-03 0.  1.
         12    1    4    4    0    0 -0.41207865303E+01  0.26690157306E+01 -0.85848990153E+01  0.98896419400E+01  0.00000000000E+00 0. -1.
</event>
<event>
 8    1  0.1248739E-006  0.9118800E+02  0.7816164E-02  0.1184000E+00
        -11   -1    0    0    0    0  0.00000000000E+00  0.00000000000E+00  0.45593999997E+02  0.45594000000E+02  0.51100000000E-03 0. -1.
         11   -1    0    0    0    0 -0.00000000000E+00 -0.00000000000E+00 -0.45593999997E+02  0.45594000000E+02  0.51100000000E-03 0.  1.
         23    2    1    2    0    0 -0.17763568394E-14 -0.88817841970E-15  0.00000000000E+00  0.91188000000E+02  0.91188000000E+02 0.  0.
    9900012    2    3    3    0    0 -0.15297768880E+02  0.29963510413E+01 -0.33358279647E+02  0.54367154365E+02  0.40000160006E+02 0.  0.
         12    1    3    3    0    0  0.15297768880E+02 -0.29963510413E+01  0.33358279647E+02  0.36820845635E+02  0.00000000000E+00 0. -1.
         11    1    4    4    0    0 -0.12061952268E+02  0.79543880161E+01  0.22434362763E+01  0.14621764182E+02  0.51100000000E-03 0. -1.
        -11    1    4    4    0    0  0.61614394372E+01 -0.18929754481E+01 -0.22043718842E+02  0.22966763652E+02  0.51100000000E-03 0.  1.
        -12    1    4    4    0    0 -0.93972560497E+01 -0.30650615267E+01 -0.13557997080E+02  0.16778626531E+02  0.00000000000E+00 0.  1.
</event>
<event>
 8    1  0.1248739E-006  0.9118800E+02  0.7816164E-02  0.1184000E+00
        -11   -1    0    0    0    0  0.00000000000E+00  0.00000000000E+00  0.45593999997E+02  0.45594000000E+02  0.51100000000E-03 0. -1.
         11   -1    0    0    0    0 -0.00000000000E+00 -0.00000000000E+00 -0.45593999997E+02  0.45594000000E+02  0.51100000000E-03 0.  1.
         23    2    1    2    0    0  0.17763568394E-14 -0.71054273576E-14  0.35527136788E-14  0.91188000000E+02  0.91188000000E+02 0.  0.
    9900012    2    3    3    0    0  0.99998168424E+01 -0.32182334092E+02  0.14835086737E+02  0.54367098830E+02  0.40000033402E+02 0.  0.
        -12    1    3    3    0    0 -0.99998168424E+01  0.32182334092E+02 -0.14835086737E+02  0.36820901170E+02  0.00000000000E+00 0.  1.
         11    1    4    4    0    0 -0.10960240443E+02 -0.89990412113E+01  0.17909430903E+01  0.14293952942E+02  0.51100000000E-03 0. -1.
        -11    1    4    4    0    0  0.45786971488E+01 -0.21704636954E+01 -0.56014190897E+01  0.75532295287E+01  0.51100000000E-03 0.  1.
         12    1    4    4    0    0  0.16381360136E+02 -0.21012829185E+02  0.18645562736E+02  0.32519916360E+02  0.00000000000E+00 0. -1.
</event>
<event>
 8    1  0.1248739E-006  0.9118800E+02  0.7816164E-02  0.1184000E+00
        -11   -1    0    0    0    0  0.00000000000E+00  0.00000000000E+00  0.45593999997E+02  0.45594000000E+02  0.51100000000E-03 0. -1.
         11   -1    0    0    0    0 -0.00000000000E+00 -0.00000000000E+00 -0.45593999997E+02  0.45594000000E+02  0.51100000000E-03 0.  1.
         23    2    1    2    0    0  0.00000000000E+00  0.00000000000E+00  0.00000000000E+00  0.91188000000E+02  0.91188000000E+02 0.  0.
    9900012    2    3    3    0    0  0.19334740622E+02 -0.26218150690E+02  0.17162697753E+02  0.54367057390E+02  0.39999938932E+02 0.  0.
         12    1    3    3    0    0 -0.19334740622E+02  0.26218150690E+02 -0.17162697753E+02  0.36820942610E+02  0.00000000000E+00 0. -1.
         11    1    4    4    0    0  0.50817109084E+01 -0.91322492667E+01 -0.51902564339E+01  0.11668784193E+02  0.51100000000E-03 0. -1.
        -11    1    4    4    0    0 -0.35166252871E+01 -0.16889111574E+02  0.52454816327E+01  0.18031190227E+02  0.51100000000E-03 0.  1.
         12    1    4    4    0    0  0.17769655001E+02 -0.19678984955E+00  0.17107472554E+02  0.24667082970E+02  0.00000000000E+00 0. -1.
</event>
<event>
 8    1  0.1248739E-006  0.9118800E+02  0.7816164E-02  0.1184000E+00
        -11   -1    0    0    0    0  0.00000000000E+00  0.00000000000E+00  0.45593999997E+02  0.45594000000E+02  0.51100000000E-03 0.  1.
         11   -1    0    0    0    0 -0.00000000000E+00 -0.00000000000E+00 -0.45593999997E+02  0.45594000000E+02  0.51100000000E-03 0. -1.
         23    2    1    2    0    0  0.17763568394E-14  0.00000000000E+00  0.00000000000E+00  0.91188000000E+02  0.91188000000E+02 0.  0.
    9900012    2    3    3    0    0 -0.89767877879E+01 -0.34179416843E+02  0.10342779335E+02  0.54366968794E+02  0.39999736958E+02 0.  0.
         12    1    3    3    0    0  0.89767877879E+01  0.34179416843E+02 -0.10342779335E+02  0.36821031206E+02  0.00000000000E+00 0. -1.
         11    1    4    4    0    0 -0.79240277208E+01  0.40102394009E+01 -0.61728426978E+01  0.10815554660E+02  0.51100000000E-03 0. -1.
        -11    1    4    4    0    0 -0.51373667250E+01 -0.22699107745E+02  0.14461316779E+02  0.27400213732E+02  0.51100000000E-03 0.  1.
        -12    1    4    4    0    0  0.40846066580E+01 -0.15490548499E+02  0.20543052538E+01  0.16151200402E+02  0.00000000000E+00 0.  1.
</event>
<event>
 8    1  0.1248739E-006  0.9118800E+02  0.7816164E-02  0.1184000E+00
        -11   -1    0    0    0    0  0.00000000000E+00  0.00000000000E+00  0.45593999997E+02  0.45594000000E+02  0.51100000000E-03 0.  1.
         11   -1    0    0    0    0 -0.00000000000E+00 -0.00000000000E+00 -0.45593999997E+02  0.45594000000E+02  0.51100000000E-03 0. -1.
         23    2    1    2    0    0  0.00000000000E+00  0.00000000000E+00  0.00000000000E+00  0.91188000000E+02  0.91188000000E+02 0.  0.
    9900012    2    3    3    0    0 -0.27948959490E+02 -0.10001032811E+02  0.21785647614E+02  0.54367089694E+02  0.40000012574E+02 0.  0.
         12    1    3    3    0    0  0.27948959490E+02  0.10001032811E+02 -0.21785647614E+02  0.36820910306E+02  0.00000000000E+00 0. -1.
         11    1    4    4    0    0  0.20022894716E+01 -0.29910796595E+01  0.26786799114E+01  0.44867635313E+01  0.51100000000E-03 0.  1.
        -11    1    4    4    0    0 -0.51460371009E+01 -0.12367830331E+02 -0.55474122851E+01  0.14498920935E+02  0.51100000000E-03 0. -1.
        -12    1    4    4    0    0 -0.24805211860E+02  0.53578771797E+01  0.24654379988E+02  0.35381405228E+02  0.00000000000E+00 0.  1.
</event>
<event>
 8    1  0.1248739E-006  0.9118800E+02  0.7816164E-02  0.1184000E+00
        -11   -1    0    0    0    0  0.00000000000E+00  0.00000000000E+00  0.45593999997E+02  0.45594000000E+02  0.51100000000E-03 0. -1.
         11   -1    0    0    0    0 -0.00000000000E+00 -0.00000000000E+00 -0.45593999997E+02  0.45594000000E+02  0.51100000000E-03 0.  1.
         23    2    1    2    0    0  0.17763568394E-14  0.00000000000E+00 -0.35527136788E-14  0.91188000000E+02  0.91188000000E+02 0.  0.
    9900012    2    3    3    0    0 -0.12712319278E+02 -0.14904233182E+02  0.31177555154E+02  0.54367093254E+02  0.40000020692E+02 0.  0.
        -12    1    3    3    0    0  0.12712319278E+02  0.14904233182E+02 -0.31177555154E+02  0.36820906746E+02  0.00000000000E+00 0.  1.
         11    1    4    4    0    0  0.17453757018E+01 -0.91017837037E+01  0.23138304302E+02  0.24925286942E+02  0.51100000000E-03 0. -1.
        -11    1    4    4    0    0  0.28159480938E+01  0.65215823664E+01  0.19898642833E+01  0.73770021252E+01  0.51100000000E-03 0.  1.
        -12    1    4    4    0    0 -0.17273643073E+02 -0.12324031845E+02  0.60493865689E+01  0.22064804187E+02  0.00000000000E+00 0.  1.
</event>
<event>
 8    1  0.1248739E-006  0.9118800E+02  0.7816164E-02  0.1184000E+00
        -11   -1    0    0    0    0  0.00000000000E+00  0.00000000000E+00  0.45593999997E+02  0.45594000000E+02  0.51100000000E-03 0.  1.
         11   -1    0    0    0    0 -0.00000000000E+00 -0.00000000000E+00 -0.45593999997E+02  0.45594000000E+02  0.51100000000E-03 0. -1.
         23    2    1    2    0    0  0.00000000000E+00  0.00000000000E+00 -0.71054273576E-14  0.91188000000E+02  0.91188000000E+02 0.  0.
    9900012    2    3    3    0    0 -0.15816224883E+01  0.10931935292E+02 -0.35125088710E+02  0.54367073941E+02  0.39999976664E+02 0.  0.
        -12    1    3    3    0    0  0.15816224883E+01 -0.10931935292E+02  0.35125088710E+02  0.36820926059E+02  0.00000000000E+00 0.  1.
         11    1    4    4    0    0  0.25215176810E+01 -0.86342497250E+00 -0.21101350085E+02  0.21269003968E+02  0.51100000000E-03 0. -1.
        -11    1    4    4    0    0 -0.11115341473E+02 -0.18860371011E+01 -0.13671173005E+02  0.17720296939E+02  0.51100000000E-03 0.  1.
        -12    1    4    4    0    0  0.70122013035E+01  0.13681397365E+02 -0.35256561943E+00  0.15377773035E+02  0.00000000000E+00 0.  1.
</event>
<event>
 8    1  0.1248739E-006  0.9118800E+02  0.7816164E-02  0.1184000E+00
        -11   -1    0    0    0    0  0.00000000000E+00  0.00000000000E+00  0.45593999997E+02  0.45594000000E+02  0.51100000000E-03 0.  1.
         11   -1    0    0    0    0 -0.00000000000E+00 -0.00000000000E+00 -0.45593999997E+02  0.45594000000E+02  0.51100000000E-03 0. -1.
         23    2    1    2    0    0 -0.17763568394E-14  0.17763568394E-14  0.71054273576E-14  0.91188000000E+02  0.91188000000E+02 0.  0.
    9900012    2    3    3    0    0 -0.30142182269E+01 -0.79942216991E+01 -0.35816008346E+02  0.54367088198E+02  0.40000009165E+02 0.  0.
        -12    1    3    3    0    0  0.30142182269E+01  0.79942216991E+01  0.35816008346E+02  0.36820911802E+02  0.00000000000E+00 0.  1.
         11    1    4    4    0    0  0.11482626457E+02 -0.11673550046E+02 -0.81841345787E+01  0.18305806185E+02  0.51100000000E-03 0. -1.
        -11    1    4    4    0    0  0.26354598315E+01 -0.98304384036E+00  0.43852922328E+00  0.28468108220E+01  0.51100000000E-03 0.  1.
         12    1    4    4    0    0 -0.17132304515E+02  0.46623721873E+01 -0.28070402991E+02  0.33214471191E+02  0.00000000000E+00 0. -1.
</event>
<event>
 8    1  0.1248739E-006  0.9118800E+02  0.7816164E-02  0.1184000E+00
        -11   -1    0    0    0    0  0.00000000000E+00  0.00000000000E+00  0.45593999997E+02  0.45594000000E+02  0.51100000000E-03 0.  1.
         11   -1    0    0    0    0 -0.00000000000E+00 -0.00000000000E+00 -0.45593999997E+02  0.45594000000E+02  0.51100000000E-03 0. -1.
         23    2    1    2    0    0 -0.35527136788E-14 -0.44408920985E-15  0.00000000000E+00  0.91188000000E+02  0.91188000000E+02 0.  0.
    9900012    2    3    3    0    0  0.20255951366E+02  0.16451795865E+01 -0.30704552050E+02  0.54367086130E+02  0.40000004451E+02 0.  0.
        -12    1    3    3    0    0 -0.20255951366E+02 -0.16451795865E+01  0.30704552050E+02  0.36820913870E+02  0.00000000000E+00 0.  1.
         11    1    4    4    0    0  0.63612259201E+01 -0.70850917965E+01 -0.30789109350E+02  0.32227829213E+02  0.51100000000E-03 0. -1.
        -11    1    4    4    0    0 -0.15152288201E+01  0.43558601666E+01 -0.34199792646E+01  0.57415759683E+01  0.51100000000E-03 0.  1.
        -12    1    4    4    0    0  0.15409954266E+02  0.43744112163E+01  0.35045365648E+01  0.16397680949E+02  0.00000000000E+00 0.  1.
</event>
<event>
 8    1  0.1248739E-006  0.9118800E+02  0.7816164E-02  0.1184000E+00
        -11   -1    0    0    0    0  0.00000000000E+00  0.00000000000E+00  0.45593999997E+02  0.45594000000E+02  0.51100000000E-03 0.  1.
         11   -1    0    0    0    0 -0.00000000000E+00 -0.00000000000E+00 -0.45593999997E+02  0.45594000000E+02  0.51100000000E-03 0. -1.
         23    2    1    2    0    0  0.00000000000E+00  0.35527136788E-14  0.17763568394E-14  0.91188000000E+02  0.91188000000E+02 0.  0.
    9900012    2    3    3    0    0  0.22282703177E+02 -0.25885805234E+02 -0.13754482473E+02  0.54367087985E+02  0.40000008679E+02 0.  0.
        -12    1    3    3    0    0 -0.22282703177E+02  0.25885805234E+02  0.13754482473E+02  0.36820912015E+02  0.00000000000E+00 0.  1.
         11    1    4    4    0    0  0.10216344178E+02 -0.71198074666E+01 -0.13416423266E+01  0.12524589858E+02  0.51100000000E-03 0. -1.
        -11    1    4    4    0    0  0.18364354499E+02 -0.58355162940E-01 -0.12299730261E+02  0.22102856970E+02  0.51100000000E-03 0.  1.
        -12    1    4    4    0    0 -0.62979954993E+01 -0.18707642605E+02 -0.11310988506E+00  0.19739641156E+02  0.00000000000E+00 0.  1.
</event>
<event>
 8    1  0.1248739E-006  0.9118800E+02  0.7816164E-02  0.1184000E+00
        -11   -1    0    0    0    0  0.00000000000E+00  0.00000000000E+00  0.45593999997E+02  0.45594000000E+02  0.51100000000E-03 0.  1.
         11   -1    0    0    0    0 -0.00000000000E+00 -0.00000000000E+00 -0.45593999997E+02  0.45594000000E+02  0.51100000000E-03 0. -1.
         23    2    1    2    0    0  0.00000000000E+00  0.00000000000E+00  0.00000000000E+00  0.91188000000E+02  0.91188000000E+02 0.  0.
    9900012    2    3    3    0    0 -0.69031676911E+01  0.88759270025E+01  0.35061978927E+02  0.54367106874E+02  0.40000051741E+02 0.  0.
         12    1    3    3    0    0  0.69031676911E+01 -0.88759270025E+01 -0.35061978927E+02  0.36820893126E+02  0.00000000000E+00 0. -1.
         11    1    4    4    0    0 -0.13325414672E+01 -0.82943475086E+01 -0.73079729876E+00  0.84324333562E+01  0.51100000000E-03 0. -1.
        -11    1    4    4    0    0  0.43059200841E+01  0.75971600996E+01  0.29579816140E+02  0.30841908379E+02  0.51100000000E-03 0.  1.
        -12    1    4    4    0    0 -0.98765463080E+01  0.95731144114E+01  0.62129600853E+01  0.15092765139E+02  0.00000000000E+00 0.  1.
</event>
<event>
 8    1  0.1248739E-006  0.9118800E+02  0.7816164E-02  0.1184000E+00
        -11   -1    0    0    0    0  0.00000000000E+00  0.00000000000E+00  0.45593999997E+02  0.45594000000E+02  0.51100000000E-03 0. -1.
         11   -1    0    0    0    0 -0.00000000000E+00 -0.00000000000E+00 -0.45593999997E+02  0.45594000000E+02  0.51100000000E-03 0.  1.
         23    2    1    2    0    0  0.00000000000E+00 -0.11102230246E-15  0.00000000000E+00  0.91188000000E+02  0.91188000000E+02 0.  0.
    9900012    2    3    3    0    0  0.29328545320E+02 -0.52009647884E+00  0.22256367134E+02  0.54367082726E+02  0.39999996689E+02 0.  0.
        -12    1    3    3    0    0 -0.29328545320E+02  0.52009647884E+00 -0.22256367134E+02  0.36820917274E+02  0.00000000000E+00 0.  1.
         11    1    4    4    0    0  0.87950280238E+01 -0.76819916376E+01  0.15078001582E+02  0.19071225588E+02  0.51100000000E-03 0. -1.
        -11    1    4    4    0    0  0.49789216774E+01  0.98030198215E+01 -0.78475602982E+01  0.13508259014E+02  0.51100000000E-03 0.  1.
         12    1    4    4    0    0  0.15554595619E+02 -0.26411246627E+01  0.15025925850E+02  0.21787598124E+02  0.00000000000E+00 0. -1.
</event>
<event>
 8    1  0.1248739E-006  0.9118800E+02  0.7816164E-02  0.1184000E+00
        -11   -1    0    0    0    0  0.00000000000E+00  0.00000000000E+00  0.45593999997E+02  0.45594000000E+02  0.51100000000E-03 0. -1.
         11   -1    0    0    0    0 -0.00000000000E+00 -0.00000000000E+00 -0.45593999997E+02  0.45594000000E+02  0.51100000000E-03 0.  1.
         23    2    1    2    0    0  0.17763568394E-14  0.00000000000E+00  0.00000000000E+00  0.91188000000E+02  0.91188000000E+02 0.  0.
    9900012    2    3    3    0    0 -0.93242469450E+01 -0.28598915454E+02 -0.21235344545E+02  0.54367090123E+02  0.40000013553E+02 0.  0.
         12    1    3    3    0    0  0.93242469450E+01  0.28598915454E+02  0.21235344545E+02  0.36820909877E+02  0.00000000000E+00 0. -1.
         11    1    4    4    0    0 -0.39280925882E+01 -0.23197616766E+02  0.24772490627E+00  0.23529145818E+02  0.51100000000E-03 0. -1.
        -11    1    4    4    0    0 -0.13140955978E+02 -0.12198920356E+01 -0.11261495237E+02  0.17349182570E+02  0.51100000000E-03 0.  1.
        -12    1    4    4    0    0  0.77448016215E+01 -0.41814066521E+01 -0.10221574214E+02  0.13488761735E+02  0.00000000000E+00 0.  1.
</event>
<event>
 8    1  0.1248739E-006  0.9118800E+02  0.7816164E-02  0.1184000E+00
        -11   -1    0    0    0    0  0.00000000000E+00  0.00000000000E+00  0.45593999997E+02  0.45594000000E+02  0.51100000000E-03 0.  1.
         11   -1    0    0    0    0 -0.00000000000E+00 -0.00000000000E+00 -0.45593999997E+02  0.45594000000E+02  0.51100000000E-03 0. -1.
         23    2    1    2    0    0  0.88817841970E-15  0.00000000000E+00  0.35527136788E-14  0.91188000000E+02  0.91188000000E+02 0.  0.
    9900012    2    3    3    0    0  0.63314614399E+01  0.28201419794E+02 -0.22811669580E+02  0.54367085408E+02  0.40000002805E+02 0.  0.
        -12    1    3    3    0    0 -0.63314614399E+01 -0.28201419794E+02  0.22811669580E+02  0.36820914592E+02  0.00000000000E+00 0.  1.
         11    1    4    4    0    0  0.15058517628E+02  0.13332678760E+02 -0.56055102986E+00  0.20120474492E+02  0.51100000000E-03 0. -1.
        -11    1    4    4    0    0  0.83237329191E+00 -0.30269745587E+01  0.10871838377E+01  0.33222566479E+01  0.51100000000E-03 0.  1.
         12    1    4    4    0    0 -0.95594294798E+01  0.17895715593E+02 -0.23338302388E+02  0.30924354268E+02  0.00000000000E+00 0. -1.
</event>
<event>
 8    1  0.1248739E-006  0.9118800E+02  0.7816164E-02  0.1184000E+00
        -11   -1    0    0    0    0  0.00000000000E+00  0.00000000000E+00  0.45593999997E+02  0.45594000000E+02  0.51100000000E-03 0.  1.
         11   -1    0    0    0    0 -0.00000000000E+00 -0.00000000000E+00 -0.45593999997E+02  0.45594000000E+02  0.51100000000E-03 0. -1.
         23    2    1    2    0    0  0.00000000000E+00 -0.35527136788E-14  0.00000000000E+00  0.91188000000E+02  0.91188000000E+02 0.  0.
    9900012    2    3    3    0    0 -0.22969481271E+02 -0.27592544155E+02 -0.81752020328E+01  0.54367088943E+02  0.40000010863E+02 0.  0.
        -12    1    3    3    0    0  0.22969481271E+02  0.27592544155E+02  0.81752020328E+01  0.36820911057E+02  0.00000000000E+00 0.  1.
         11    1    4    4    0    0 -0.21318500982E+02 -0.19545930189E+02 -0.26095080356E+01  0.29040168793E+02  0.51100000000E-03 0. -1.
        -11    1    4    4    0    0  0.69327613190E+01 -0.86918083849E+01  0.45775025019E+01  0.12023487095E+02  0.51100000000E-03 0.  1.
         12    1    4    4    0    0 -0.85837416075E+01  0.64519441884E+00 -0.10143196499E+02  0.13303433055E+02  0.00000000000E+00 0. -1.
</event>
<event>
 8    1  0.1248739E-006  0.9118800E+02  0.7816164E-02  0.1184000E+00
        -11   -1    0    0    0    0  0.00000000000E+00  0.00000000000E+00  0.45593999997E+02  0.45594000000E+02  0.51100000000E-03 0.  1.
         11   -1    0    0    0    0 -0.00000000000E+00 -0.00000000000E+00 -0.45593999997E+02  0.45594000000E+02  0.51100000000E-03 0. -1.
         23    2    1    2    0    0 -0.35527136788E-14  0.00000000000E+00 -0.88817841970E-15  0.91188000000E+02  0.91188000000E+02 0.  0.
    9900012    2    3    3    0    0  0.19562996468E+02 -0.30322604917E+02 -0.73217686414E+01  0.54367088879E+02  0.40000010717E+02 0.  0.
        -12    1    3    3    0    0 -0.19562996468E+02  0.30322604917E+02  0.73217686414E+01  0.36820911121E+02  0.00000000000E+00 0.  1.
         11    1    4    4    0    0  0.27100521973E+02 -0.12624616130E+02 -0.65958111103E+01  0.30615746734E+02  0.51100000000E-03 0. -1.
        -11    1    4    4    0    0 -0.89673990172E+01 -0.12378653663E+02  0.47278792015E+01  0.15999942301E+02  0.51100000000E-03 0.  1.
        -12    1    4    4    0    0  0.14298735120E+01 -0.53193351246E+01 -0.54538367326E+01  0.77513998435E+01  0.00000000000E+00 0.  1.
</event>
<event>
 8    1  0.1248739E-006  0.9118800E+02  0.7816164E-02  0.1184000E+00
        -11   -1    0    0    0    0  0.00000000000E+00  0.00000000000E+00  0.45593999997E+02  0.45594000000E+02  0.51100000000E-03 0. -1.
         11   -1    0    0    0    0 -0.00000000000E+00 -0.00000000000E+00 -0.45593999997E+02  0.45594000000E+02  0.51100000000E-03 0.  1.
         23    2    1    2    0    0  0.71054273576E-14  0.88817841970E-15 -0.44408920985E-15  0.91188000000E+02  0.91188000000E+02 0.  0.
    9900012    2    3    3    0    0  0.35917840980E+02  0.73718363347E+01  0.33686685439E+01  0.54367038587E+02  0.39999896066E+02 0.  0.
        -12    1    3    3    0    0 -0.35917840980E+02 -0.73718363347E+01 -0.33686685439E+01  0.36820961413E+02  0.00000000000E+00 0.  1.
         11    1    4    4    0    0  0.33724906174E+02  0.13312534688E+02 -0.55266431305E+01  0.36676104767E+02  0.51100000000E-03 0. -1.
        -11    1    4    4    0    0 -0.31643778281E+00  0.89448413964E+00  0.10242284542E+02  0.10286137644E+02  0.51100000000E-03 0.  1.
         12    1    4    4    0    0  0.25093725888E+01 -0.68351824930E+01 -0.13469728672E+01  0.74047961759E+01  0.00000000000E+00 0. -1.
</event>
<event>
 8    1  0.1248739E-006  0.9118800E+02  0.7816164E-02  0.1184000E+00
        -11   -1    0    0    0    0  0.00000000000E+00  0.00000000000E+00  0.45593999997E+02  0.45594000000E+02  0.51100000000E-03 0. -1.
         11   -1    0    0    0    0 -0.00000000000E+00 -0.00000000000E+00 -0.45593999997E+02  0.45594000000E+02  0.51100000000E-03 0.  1.
         23    2    1    2    0    0  0.35527136788E-14  0.44408920985E-15  0.00000000000E+00  0.91188000000E+02  0.91188000000E+02 0.  0.
    9900012    2    3    3    0    0 -0.29721539743E+02 -0.64368235541E+00 -0.21725461884E+02  0.54367082769E+02  0.39999996787E+02 0.  0.
         12    1    3    3    0    0  0.29721539743E+02  0.64368235541E+00  0.21725461884E+02  0.36820917231E+02  0.00000000000E+00 0. -1.
         11    1    4    4    0    0  0.21788810135E+01 -0.73568138709E+01  0.15483624416E+01  0.78273660521E+01  0.51100000000E-03 0. -1.
        -11    1    4    4    0    0 -0.81239869245E+01  0.18634680144E+01  0.46508798487E+01  0.95447556396E+01  0.51100000000E-03 0.  1.
        -12    1    4    4    0    0 -0.23776433832E+02  0.48496635010E+01 -0.27924704174E+02  0.36994961077E+02  0.00000000000E+00 0.  1.
</event>
<event>
 8    1  0.1248739E-006  0.9118800E+02  0.7816164E-02  0.1184000E+00
        -11   -1    0    0    0    0  0.00000000000E+00  0.00000000000E+00  0.45593999997E+02  0.45594000000E+02  0.51100000000E-03 0. -1.
         11   -1    0    0    0    0 -0.00000000000E+00 -0.00000000000E+00 -0.45593999997E+02  0.45594000000E+02  0.51100000000E-03 0.  1.
         23    2    1    2    0    0 -0.88817841970E-15  0.00000000000E+00  0.00000000000E+00  0.91188000000E+02  0.91188000000E+02 0.  0.
    9900012    2    3    3    0    0 -0.76448766711E+01  0.31543559324E+02  0.17387912739E+02  0.54367084971E+02  0.40000001807E+02 0.  0.
        -12    1    3    3    0    0  0.76448766711E+01 -0.31543559324E+02 -0.17387912739E+02  0.36820915029E+02  0.00000000000E+00 0.  1.
         11    1    4    4    0    0 -0.75837994346E+00  0.21213380618E+02  0.12022975315E+02  0.24395380568E+02  0.51100000000E-03 0. -1.
        -11    1    4    4    0    0 -0.48429690857E+01  0.16303782828E+02  0.11998308874E+02  0.20814108200E+02  0.51100000000E-03 0.  1.
        -12    1    4    4    0    0 -0.20435276419E+01 -0.59736041215E+01 -0.66333714492E+01  0.91575962024E+01  0.00000000000E+00 0.  1.
</event>
<event>
 8    1  0.1248739E-006  0.9118800E+02  0.7816164E-02  0.1184000E+00
        -11   -1    0    0    0    0  0.00000000000E+00  0.00000000000E+00  0.45593999997E+02  0.45594000000E+02  0.51100000000E-03 0. -1.
         11   -1    0    0    0    0 -0.00000000000E+00 -0.00000000000E+00 -0.45593999997E+02  0.45594000000E+02  0.51100000000E-03 0.  1.
         23    2    1    2    0    0 -0.44408920985E-15 -0.35527136788E-14  0.00000000000E+00  0.91188000000E+02  0.91188000000E+02 0.  0.
    9900012    2    3    3    0    0  0.26914772251E+01 -0.16952961182E+02 -0.32575028354E+02  0.54367089980E+02  0.40000013227E+02 0.  0.
         12    1    3    3    0    0 -0.26914772251E+01  0.16952961182E+02  0.32575028354E+02  0.36820910020E+02  0.00000000000E+00 0. -1.
         11    1    4    4    0    0  0.31059458117E+01  0.24362733307E+01  0.43809485529E+01  0.58970363414E+01  0.51100000000E-03 0. -1.
        -11    1    4    4    0    0  0.51968768107E+01 -0.67606311816E+01  0.50427410509E+00  0.85421282590E+01  0.51100000000E-03 0.  1.
        -12    1    4    4    0    0 -0.56113453973E+01 -0.12628603331E+02 -0.37460251012E+02  0.39927925379E+02  0.00000000000E+00 0.  1.
</event>
<event>
 8    1  0.1248739E-006  0.9118800E+02  0.7816164E-02  0.1184000E+00
        -11   -1    0    0    0    0  0.00000000000E+00  0.00000000000E+00  0.45593999997E+02  0.45594000000E+02  0.51100000000E-03 0. -1.
         11   -1    0    0    0    0 -0.00000000000E+00 -0.00000000000E+00 -0.45593999997E+02  0.45594000000E+02  0.51100000000E-03 0.  1.
         23    2    1    2    0    0 -0.35527136788E-14  0.00000000000E+00  0.35527136788E-14  0.91188000000E+02  0.91188000000E+02 0.  0.
    9900012    2    3    3    0    0  0.21156290792E+02  0.22857152473E+02 -0.19640621093E+02  0.54366918319E+02  0.39999621891E+02 0.  0.
         12    1    3    3    0    0 -0.21156290792E+02 -0.22857152473E+02  0.19640621093E+02  0.36821081681E+02  0.00000000000E+00 0. -1.
         11    1    4    4    0    0  0.13678516404E+02  0.70854311854E+01 -0.30350005385E+01  0.15700839934E+02  0.51100000000E-03 0. -1.
        -11    1    4    4    0    0  0.11061590509E+02 -0.43167348557E+01  0.72205503753E+00  0.11895980335E+02  0.51100000000E-03 0.  1.
        -12    1    4    4    0    0 -0.35838161215E+01  0.20088456143E+02 -0.17327675592E+02  0.26770098050E+02  0.00000000000E+00 0.  1.
</event>
<event>
 8    1  0.1248739E-006  0.9118800E+02  0.7816164E-02  0.1184000E+00
        -11   -1    0    0    0    0  0.00000000000E+00  0.00000000000E+00  0.45593999997E+02  0.45594000000E+02  0.51100000000E-03 0.  1.
         11   -1    0    0    0    0 -0.00000000000E+00 -0.00000000000E+00 -0.45593999997E+02  0.45594000000E+02  0.51100000000E-03 0. -1.
         23    2    1    2    0    0  0.00000000000E+00  0.00000000000E+00 -0.17763568394E-14  0.91188000000E+02  0.91188000000E+02 0.  0.
    9900012    2    3    3    0    0 -0.34156060875E+02  0.12817196371E+02 -0.49860815896E+01  0.54367108825E+02  0.40000056188E+02 0.  0.
        -12    1    3    3    0    0  0.34156060875E+02 -0.12817196371E+02  0.49860815896E+01  0.36820891175E+02  0.00000000000E+00 0.  1.
         11    1    4    4    0    0 -0.19814575314E+02  0.52969760759E+01 -0.13655600930E+02  0.24640429937E+02  0.51100000000E-03 0. -1.
        -11    1    4    4    0    0 -0.10702870389E+02 -0.68777228060E+01  0.39915171937E+00  0.12728465261E+02  0.51100000000E-03 0.  1.
        -12    1    4    4    0    0 -0.36386151723E+01  0.14397943101E+02  0.82703676213E+01  0.16998213627E+02  0.00000000000E+00 0.  1.
</event>
<event>
 8    1  0.1248739E-006  0.9118800E+02  0.7816164E-02  0.1184000E+00
        -11   -1    0    0    0    0  0.00000000000E+00  0.00000000000E+00  0.45593999997E+02  0.45594000000E+02  0.51100000000E-03 0.  1.
         11   -1    0    0    0    0 -0.00000000000E+00 -0.00000000000E+00 -0.45593999997E+02  0.45594000000E+02  0.51100000000E-03 0. -1.
         23    2    1    2    0    0 -0.35527136788E-14 -0.17763568394E-14 -0.35527136788E-14  0.91188000000E+02  0.91188000000E+02 0.  0.
    9900012    2    3    3    0    0 -0.26134293461E+02  0.14689243101E+02  0.21377658859E+02  0.54367089421E+02  0.40000011954E+02 0.  0.
         12    1    3    3    0    0  0.26134293461E+02 -0.14689243101E+02 -0.21377658859E+02  0.36820910579E+02  0.00000000000E+00 0. -1.
         11    1    4    4    0    0 -0.11205430950E+02  0.75544162716E+01  0.44371382515E+01  0.14223891314E+02  0.51100000000E-03 0. -1.
        -11    1    4    4    0    0 -0.12441686480E+02  0.16181808597E+02  0.21555965078E+02  0.29686800478E+02  0.51100000000E-03 0.  1.
         12    1    4    4    0    0 -0.24871760302E+01 -0.90469817679E+01 -0.46154444708E+01  0.10456397629E+02  0.00000000000E+00 0. -1.
</event>
<event>
 8    1  0.1248739E-006  0.9118800E+02  0.7816164E-02  0.1184000E+00
        -11   -1    0    0    0    0  0.00000000000E+00  0.00000000000E+00  0.45593999997E+02  0.45594000000E+02  0.51100000000E-03 0. -1.
         11   -1    0    0    0    0 -0.00000000000E+00 -0.00000000000E+00 -0.45593999997E+02  0.45594000000E+02  0.51100000000E-03 0.  1.
         23    2    1    2    0    0  0.00000000000E+00 -0.35527136788E-14  0.00000000000E+00  0.91188000000E+02  0.91188000000E+02 0.  0.
    9900012    2    3    3    0    0 -0.15445258536E+02 -0.26851064758E+02 -0.19905880301E+02  0.54367085285E+02  0.40000002524E+02 0.  0.
         12    1    3    3    0    0  0.15445258536E+02  0.26851064758E+02  0.19905880301E+02  0.36820914715E+02  0.00000000000E+00 0. -1.
         11    1    4    4    0    0 -0.71841688473E+01 -0.45309962470E+01  0.26282035403E+01  0.88909877476E+01  0.51100000000E-03 0. -1.
        -11    1    4    4    0    0 -0.55587674926E+01 -0.53279637020E+01 -0.26687645053E+02  0.27776203700E+02  0.51100000000E-03 0.  1.
        -12    1    4    4    0    0 -0.27023221964E+01 -0.16992104809E+02  0.41535612117E+01  0.17699893837E+02  0.00000000000E+00 0.  1.
</event>
<event>
 8    1  0.1248739E-006  0.9118800E+02  0.7816164E-02  0.1184000E+00
        -11   -1    0    0    0    0  0.00000000000E+00  0.00000000000E+00  0.45593999997E+02  0.45594000000E+02  0.51100000000E-03 0.  1.
         11   -1    0    0    0    0 -0.00000000000E+00 -0.00000000000E+00 -0.45593999997E+02  0.45594000000E+02  0.51100000000E-03 0. -1.
         23    2    1    2    0    0  0.00000000000E+00 -0.17763568394E-14  0.00000000000E+00  0.91188000000E+02  0.91188000000E+02 0.  0.
    9900012    2    3    3    0    0  0.30612720281E+02  0.92539541727E+01 -0.18248518276E+02  0.54367044959E+02  0.39999910594E+02 0.  0.
        -12    1    3    3    0    0 -0.30612720281E+02 -0.92539541727E+01  0.18248518276E+02  0.36820955041E+02  0.00000000000E+00 0.  1.
         11    1    4    4    0    0  0.77076800052E+01  0.29511870395E+01 -0.44317381002E+01  0.93679314075E+01  0.51100000000E-03 0.  1.
        -11    1    4    4    0    0  0.23640756091E+02  0.18637368884E+02 -0.12415085221E+02  0.32563341487E+02  0.51100000000E-03 0. -1.
         12    1    4    4    0    0 -0.73571581557E+00 -0.12334601751E+02 -0.14016949544E+01  0.12435772065E+02  0.00000000000E+00 0. -1.
</event>
<event>
 8    1  0.1248739E-006  0.9118800E+02  0.7816164E-02  0.1184000E+00
        -11   -1    0    0    0    0  0.00000000000E+00  0.00000000000E+00  0.45593999997E+02  0.45594000000E+02  0.51100000000E-03 0. -1.
         11   -1    0    0    0    0 -0.00000000000E+00 -0.00000000000E+00 -0.45593999997E+02  0.45594000000E+02  0.51100000000E-03 0.  1.
         23    2    1    2    0    0  0.35527136788E-14  0.00000000000E+00 -0.35527136788E-14  0.91188000000E+02  0.91188000000E+02 0.  0.
    9900012    2    3    3    0    0  0.31027120908E+02  0.62929856269E+01 -0.18801487834E+02  0.54367084141E+02  0.39999999916E+02 0.  0.
         12    1    3    3    0    0 -0.31027120908E+02 -0.62929856269E+01  0.18801487834E+02  0.36820915859E+02  0.00000000000E+00 0. -1.
         11    1    4    4    0    0 -0.45603648859E+01 -0.50232619872E+01  0.14340752974E+01  0.69344546364E+01  0.51100000000E-03 0. -1.
        -11    1    4    4    0    0  0.71637445592E+01  0.12118304378E+02 -0.97579032361E+01  0.17128608027E+02  0.51100000000E-03 0.  1.
        -12    1    4    4    0    0  0.28423741235E+02 -0.80205676425E+00 -0.10477659895E+02  0.30304021478E+02  0.00000000000E+00 0.  1.
</event>
<event>
 8    1  0.1248739E-006  0.9118800E+02  0.7816164E-02  0.1184000E+00
        -11   -1    0    0    0    0  0.00000000000E+00  0.00000000000E+00  0.45593999997E+02  0.45594000000E+02  0.51100000000E-03 0.  1.
         11   -1    0    0    0    0 -0.00000000000E+00 -0.00000000000E+00 -0.45593999997E+02  0.45594000000E+02  0.51100000000E-03 0. -1.
         23    2    1    2    0    0  0.00000000000E+00  0.35527136788E-14 -0.35527136788E-14  0.91188000000E+02  0.91188000000E+02 0.  0.
    9900012    2    3    3    0    0 -0.24491653260E+02  0.20486876318E+02  0.18336515601E+02  0.54367068656E+02  0.39999964615E+02 0.  0.
         12    1    3    3    0    0  0.24491653260E+02 -0.20486876318E+02 -0.18336515601E+02  0.36820931344E+02  0.00000000000E+00 0. -1.
         11    1    4    4    0    0 -0.17857628124E+02  0.94857663827E+01  0.18879644904E+02  0.27664338742E+02  0.51100000000E-03 0.  1.
        -11    1    4    4    0    0 -0.65600049765E+01  0.10114521635E+02  0.10279771418E+02  0.15843323953E+02  0.51100000000E-03 0. -1.
         12    1    4    4    0    0 -0.74020159098E-01  0.88658830038E+00 -0.10822900721E+02  0.10859405961E+02  0.00000000000E+00 0. -1.
</event>
<event>
 8    1  0.1248739E-006  0.9118800E+02  0.7816164E-02  0.1184000E+00
        -11   -1    0    0    0    0  0.00000000000E+00  0.00000000000E+00  0.45593999997E+02  0.45594000000E+02  0.51100000000E-03 0.  1.
         11   -1    0    0    0    0 -0.00000000000E+00 -0.00000000000E+00 -0.45593999997E+02  0.45594000000E+02  0.51100000000E-03 0. -1.
         23    2    1    2    0    0  0.00000000000E+00  0.71054273576E-14  0.00000000000E+00  0.91188000000E+02  0.91188000000E+02 0.  0.
    9900012    2    3    3    0    0 -0.79069163433E+01  0.32792635474E+02  0.14761543732E+02  0.54367089626E+02  0.40000012421E+02 0.  0.
         12    1    3    3    0    0  0.79069163433E+01 -0.32792635474E+02 -0.14761543732E+02  0.36820910374E+02  0.00000000000E+00 0. -1.
         11    1    4    4    0    0 -0.11976702931E+02  0.20746344078E+02 -0.50618046954E+01  0.24484159629E+02  0.51100000000E-03 0. -1.
        -11    1    4    4    0    0 -0.11737434837E+01 -0.10766313260E+01  0.14799215197E+02  0.14884675995E+02  0.51100000000E-03 0.  1.
        -12    1    4    4    0    0  0.52435300713E+01  0.13122922722E+02  0.50241332300E+01  0.14998254001E+02  0.00000000000E+00 0.  1.
</event>
<event>
 8    1  0.1248739E-006  0.9118800E+02  0.7816164E-02  0.1184000E+00
        -11   -1    0    0    0    0  0.00000000000E+00  0.00000000000E+00  0.45593999997E+02  0.45594000000E+02  0.51100000000E-03 0.  1.
         11   -1    0    0    0    0 -0.00000000000E+00 -0.00000000000E+00 -0.45593999997E+02  0.45594000000E+02  0.51100000000E-03 0. -1.
         23    2    1    2    0    0  0.35527136788E-14  0.00000000000E+00 -0.35527136788E-14  0.91188000000E+02  0.91188000000E+02 0.  0.
    9900012    2    3    3    0    0  0.30222218654E+02  0.45657219625E+01 -0.20531723775E+02  0.54367082051E+02  0.39999995152E+02 0.  0.
        -12    1    3    3    0    0 -0.30222218654E+02 -0.45657219625E+01  0.20531723775E+02  0.36820917949E+02  0.00000000000E+00 0.  1.
         11    1    4    4    0    0  0.24532502449E+02  0.29166494501E+01 -0.21952017330E+02  0.33049078437E+02  0.51100000000E-03 0. -1.
        -11    1    4    4    0    0  0.37605763827E+01  0.10690985164E+02 -0.19063363242E+01  0.11492311210E+02  0.51100000000E-03 0.  1.
        -12    1    4    4    0    0  0.19291398228E+01 -0.90419126518E+01  0.33266298796E+01  0.98256924039E+01  0.00000000000E+00 0.  1.
</event>
<event>
 8    1  0.1248739E-006  0.9118800E+02  0.7816164E-02  0.1184000E+00
        -11   -1    0    0    0    0  0.00000000000E+00  0.00000000000E+00  0.45593999997E+02  0.45594000000E+02  0.51100000000E-03 0.  1.
         11   -1    0    0    0    0 -0.00000000000E+00 -0.00000000000E+00 -0.45593999997E+02  0.45594000000E+02  0.51100000000E-03 0. -1.
         23    2    1    2    0    0  0.00000000000E+00 -0.35527136788E-14  0.35527136788E-14  0.91188000000E+02  0.91188000000E+02 0.  0.
    9900012    2    3    3    0    0 -0.86269977827E+01  0.29114267012E+02 -0.20825786083E+02  0.54367095606E+02  0.40000026054E+02 0.  0.
        -12    1    3    3    0    0  0.86269977827E+01 -0.29114267012E+02  0.20825786083E+02  0.36820904394E+02  0.00000000000E+00 0.  1.
         11    1    4    4    0    0 -0.83627349446E+01  0.18791237505E+02  0.29021179850E+01  0.20771813397E+02  0.51100000000E-03 0. -1.
        -11    1    4    4    0    0 -0.90443897604E+01  0.65356885731E+01 -0.20784285036E+02  0.23590309789E+02  0.51100000000E-03 0.  1.
         12    1    4    4    0    0  0.87801269223E+01  0.37873409332E+01 -0.29436190327E+01  0.10004972420E+02  0.00000000000E+00 0. -1.
</event>
<event>
 8    1  0.1248739E-006  0.9118800E+02  0.7816164E-02  0.1184000E+00
        -11   -1    0    0    0    0  0.00000000000E+00  0.00000000000E+00  0.45593999997E+02  0.45594000000E+02  0.51100000000E-03 0.  1.
         11   -1    0    0    0    0 -0.00000000000E+00 -0.00000000000E+00 -0.45593999997E+02  0.45594000000E+02  0.51100000000E-03 0. -1.
         23    2    1    2    0    0 -0.88817841970E-15  0.00000000000E+00  0.00000000000E+00  0.91188000000E+02  0.91188000000E+02 0.  0.
    9900012    2    3    3    0    0  0.45850613657E+01 -0.33236280955E+02 -0.15169375772E+02  0.54367039655E+02  0.39999898500E+02 0.  0.
        -12    1    3    3    0    0 -0.45850613657E+01  0.33236280955E+02  0.15169375772E+02  0.36820960345E+02  0.00000000000E+00 0.  1.
         11    1    4    4    0    0 -0.14102333873E+02 -0.20039199435E+01 -0.65955699579E+01  0.15696912408E+02  0.51100000000E-03 0.  1.
        -11    1    4    4    0    0  0.15925199320E+02 -0.26090121290E+02 -0.10806609194E+02  0.32420505931E+02  0.51100000000E-03 0. -1.
        -12    1    4    4    0    0  0.27621959190E+01 -0.51422397219E+01  0.22328033805E+01  0.62496213156E+01  0.00000000000E+00 0.  1.
</event>
<event>
 8    1  0.1248739E-006  0.9118800E+02  0.7816164E-02  0.1184000E+00
        -11   -1    0    0    0    0  0.00000000000E+00  0.00000000000E+00  0.45593999997E+02  0.45594000000E+02  0.51100000000E-03 0.  1.
         11   -1    0    0    0    0 -0.00000000000E+00 -0.00000000000E+00 -0.45593999997E+02  0.45594000000E+02  0.51100000000E-03 0. -1.
         23    2    1    2    0    0  0.18318679906E-14  0.00000000000E+00 -0.35527136788E-14  0.91188000000E+02  0.91188000000E+02 0.  0.
    9900012    2    3    3    0    0 -0.33111394599E+00 -0.24686340174E+02  0.27317650977E+02  0.54367094491E+02  0.40000023510E+02 0.  0.
         12    1    3    3    0    0  0.33111394599E+00  0.24686340174E+02 -0.27317650977E+02  0.36820905509E+02  0.00000000000E+00 0. -1.
         11    1    4    4    0    0  0.66526491897E+01  0.39030475334E+00  0.13467280615E+02  0.15025901852E+02  0.51100000000E-03 0. -1.
        -11    1    4    4    0    0 -0.12966762076E+02 -0.21772706807E+02  0.16974037595E+01  0.25398205847E+02  0.51100000000E-03 0.  1.
        -12    1    4    4    0    0  0.59829989407E+01 -0.33039381201E+01  0.12152966603E+02  0.13942986792E+02  0.00000000000E+00 0.  1.
</event>
<event>
 8    1  0.1248739E-006  0.9118800E+02  0.7816164E-02  0.1184000E+00
        -11   -1    0    0    0    0  0.00000000000E+00  0.00000000000E+00  0.45593999997E+02  0.45594000000E+02  0.51100000000E-03 0. -1.
         11   -1    0    0    0    0 -0.00000000000E+00 -0.00000000000E+00 -0.45593999997E+02  0.45594000000E+02  0.51100000000E-03 0.  1.
         23    2    1    2    0    0 -0.35527136788E-14  0.00000000000E+00  0.35527136788E-14  0.91188000000E+02  0.91188000000E+02 0.  0.
    9900012    2    3    3    0    0 -0.18519859705E+02  0.13308676309E+02  0.28908052678E+02  0.54367060601E+02  0.39999946253E+02 0.  0.
        -12    1    3    3    0    0  0.18519859705E+02 -0.13308676309E+02 -0.28908052678E+02  0.36820939399E+02  0.00000000000E+00 0.  1.
         11    1    4    4    0    0  0.11099842964E+02  0.25721377199E+01  0.58877291302E+01  0.12825278198E+02  0.51100000000E-03 0.  1.
        -11    1    4    4    0    0 -0.32069044876E+01 -0.11053273493E+01 -0.14010814867E+01  0.36700156042E+01  0.51100000000E-03 0. -1.
         12    1    4    4    0    0 -0.26412798181E+02  0.11841865939E+02  0.24421405034E+02  0.37871766799E+02  0.00000000000E+00 0. -1.
</event>
<event>
 8    1  0.1248739E-006  0.9118800E+02  0.7816164E-02  0.1184000E+00
        -11   -1    0    0    0    0  0.00000000000E+00  0.00000000000E+00  0.45593999997E+02  0.45594000000E+02  0.51100000000E-03 0.  1.
         11   -1    0    0    0    0 -0.00000000000E+00 -0.00000000000E+00 -0.45593999997E+02  0.45594000000E+02  0.51100000000E-03 0. -1.
         23    2    1    2    0    0  0.35527136788E-14  0.00000000000E+00 -0.35527136788E-14  0.91188000000E+02  0.91188000000E+02 0.  0.
    9900012    2    3    3    0    0  0.16084762157E+02  0.27315542319E+02 -0.18732903381E+02  0.54367080743E+02  0.39999992169E+02 0.  0.
        -12    1    3    3    0    0 -0.16084762157E+02 -0.27315542319E+02  0.18732903381E+02  0.36820919257E+02  0.00000000000E+00 0.  1.
         11    1    4    4    0    0  0.10660235913E+02 -0.45339470205E+01  0.14913365310E+01  0.11679956773E+02  0.51100000000E-03 0. -1.
        -11    1    4    4    0    0 -0.32757777405E+01  0.12238290262E+02  0.73980626678E+00  0.12690696668E+02  0.51100000000E-03 0.  1.
         12    1    4    4    0    0  0.87003039847E+01  0.19611199078E+02 -0.20964046179E+02  0.29996427302E+02  0.00000000000E+00 0. -1.
</event>
<event>
 8    1  0.1248739E-006  0.9118800E+02  0.7816164E-02  0.1184000E+00
        -11   -1    0    0    0    0  0.00000000000E+00  0.00000000000E+00  0.45593999997E+02  0.45594000000E+02  0.51100000000E-03 0. -1.
         11   -1    0    0    0    0 -0.00000000000E+00 -0.00000000000E+00 -0.45593999997E+02  0.45594000000E+02  0.51100000000E-03 0.  1.
         23    2    1    2    0    0 -0.71054273576E-14  0.00000000000E+00  0.44408920985E-15  0.91188000000E+02  0.91188000000E+02 0.  0.
    9900012    2    3    3    0    0  0.33702239007E+02  0.14824533200E+02  0.41276907809E+00  0.54367108145E+02  0.40000054638E+02 0.  0.
         12    1    3    3    0    0 -0.33702239007E+02 -0.14824533200E+02 -0.41276907809E+00  0.36820891855E+02  0.00000000000E+00 0. -1.
         11    1    4    4    0    0  0.15771323677E+02 -0.25974374148E+01  0.64398833791E+01  0.17232336749E+02  0.51100000000E-03 0. -1.
        -11    1    4    4    0    0  0.19450640166E+02  0.11455536144E+02  0.62307687958E+01  0.23417497545E+02  0.51100000000E-03 0.  1.
         12    1    4    4    0    0 -0.15197248362E+01  0.59664344711E+01 -0.12257883097E+02  0.13717273851E+02  0.00000000000E+00 0. -1.
</event>
<event>
 8    1  0.1248739E-006  0.9118800E+02  0.7816164E-02  0.1184000E+00
        -11   -1    0    0    0    0  0.00000000000E+00  0.00000000000E+00  0.45593999997E+02  0.45594000000E+02  0.51100000000E-03 0.  1.
         11   -1    0    0    0    0 -0.00000000000E+00 -0.00000000000E+00 -0.45593999997E+02  0.45594000000E+02  0.51100000000E-03 0. -1.
         23    2    1    2    0    0  0.00000000000E+00  0.00000000000E+00  0.71054273576E-14  0.91188000000E+02  0.91188000000E+02 0.  0.
    9900012    2    3    3    0    0 -0.48051292717E+01 -0.14407163951E+02  0.33542745438E+02  0.54367198652E+02  0.40000260966E+02 0.  0.
         12    1    3    3    0    0  0.48051292717E+01  0.14407163951E+02 -0.33542745438E+02  0.36820801348E+02  0.00000000000E+00 0. -1.
         11    1    4    4    0    0  0.11938057740E+02 -0.26357645753E+01  0.44665968222E+00  0.12233723172E+02  0.51100000000E-03 0. -1.
        -11    1    4    4    0    0 -0.35037760481E+01  0.24458429296E+01  0.65870422671E+00  0.43234807449E+01  0.51100000000E-03 0.  1.
         12    1    4    4    0    0 -0.13239410964E+02 -0.14217242306E+02  0.32437381529E+02  0.37809994735E+02  0.00000000000E+00 0. -1.
</event>
<event>
 8    1  0.1248739E-006  0.9118800E+02  0.7816164E-02  0.1184000E+00
        -11   -1    0    0    0    0  0.00000000000E+00  0.00000000000E+00  0.45593999997E+02  0.45594000000E+02  0.51100000000E-03 0. -1.
         11   -1    0    0    0    0 -0.00000000000E+00 -0.00000000000E+00 -0.45593999997E+02  0.45594000000E+02  0.51100000000E-03 0.  1.
         23    2    1    2    0    0  0.88817841970E-15 -0.71054273576E-14  0.00000000000E+00  0.91188000000E+02  0.91188000000E+02 0.  0.
    9900012    2    3    3    0    0  0.77353182460E+01  0.34685595085E+02 -0.96361080990E+01  0.54367078853E+02  0.39999987862E+02 0.  0.
         12    1    3    3    0    0 -0.77353182460E+01 -0.34685595085E+02  0.96361080990E+01  0.36820921147E+02  0.00000000000E+00 0. -1.
         11    1    4    4    0    0  0.10884197636E+02  0.18382402770E+01 -0.57485463807E+01  0.12445508075E+02  0.51100000000E-03 0. -1.
        -11    1    4    4    0    0 -0.37200195052E+01  0.17802658305E+01 -0.94907645626E+01  0.10348067636E+02  0.51100000000E-03 0.  1.
         12    1    4    4    0    0  0.57114011555E+00  0.31067088978E+02  0.56032028444E+01  0.31573503143E+02  0.00000000000E+00 0. -1.
</event>
<event>
 8    1  0.1248739E-006  0.9118800E+02  0.7816164E-02  0.1184000E+00
        -11   -1    0    0    0    0  0.00000000000E+00  0.00000000000E+00  0.45593999997E+02  0.45594000000E+02  0.51100000000E-03 0.  1.
         11   -1    0    0    0    0 -0.00000000000E+00 -0.00000000000E+00 -0.45593999997E+02  0.45594000000E+02  0.51100000000E-03 0. -1.
         23    2    1    2    0    0 -0.17763568394E-14  0.17763568394E-14  0.35527136788E-14  0.91188000000E+02  0.91188000000E+02 0.  0.
    9900012    2    3    3    0    0 -0.11979858593E+02  0.15972362776E+02  0.30937901318E+02  0.54366985314E+02  0.39999774619E+02 0.  0.
         12    1    3    3    0    0  0.11979858593E+02 -0.15972362776E+02 -0.30937901318E+02  0.36821014686E+02  0.00000000000E+00 0. -1.
         11    1    4    4    0    0 -0.56182163937E+01 -0.36147400402E+01  0.31312586307E+00  0.66879555226E+01  0.51100000000E-03 0. -1.
        -11    1    4    4    0    0  0.42044164884E+01  0.16829561813E+02  0.32268932254E+02  0.36635983103E+02  0.51100000000E-03 0.  1.
        -12    1    4    4    0    0 -0.10566058688E+02  0.27575410028E+01 -0.16441567991E+01  0.11043046688E+02  0.00000000000E+00 0.  1.
</event>
<event>
 8    1  0.1248739E-006  0.9118800E+02  0.7816164E-02  0.1184000E+00
        -11   -1    0    0    0    0  0.00000000000E+00  0.00000000000E+00  0.45593999997E+02  0.45594000000E+02  0.51100000000E-03 0.  1.
         11   -1    0    0    0    0 -0.00000000000E+00 -0.00000000000E+00 -0.45593999997E+02  0.45594000000E+02  0.51100000000E-03 0. -1.
         23    2    1    2    0    0  0.00000000000E+00  0.00000000000E+00  0.00000000000E+00  0.91188000000E+02  0.91188000000E+02 0.  0.
    9900012    2    3    3    0    0 -0.27181302834E+02 -0.22195346077E+02  0.11150023458E+02  0.54367086998E+02  0.40000006429E+02 0.  0.
        -12    1    3    3    0    0  0.27181302834E+02  0.22195346077E+02 -0.11150023458E+02  0.36820913002E+02  0.00000000000E+00 0.  1.
         11    1    4    4    0    0 -0.26425567928E+02 -0.31899537670E+02  0.14213871810E+02  0.43794123989E+02  0.51100000000E-03 0. -1.
        -11    1    4    4    0    0  0.52975511770E+00  0.50012704022E+01 -0.47185861708E+00  0.50513361536E+01  0.51100000000E-03 0.  1.
         12    1    4    4    0    0 -0.12854900236E+01  0.47029211914E+01 -0.25919897354E+01  0.55216268546E+01  0.00000000000E+00 0. -1.
</event>
<event>
 8    1  0.1248739E-006  0.9118800E+02  0.7816164E-02  0.1184000E+00
        -11   -1    0    0    0    0  0.00000000000E+00  0.00000000000E+00  0.45593999997E+02  0.45594000000E+02  0.51100000000E-03 0.  1.
         11   -1    0    0    0    0 -0.00000000000E+00 -0.00000000000E+00 -0.45593999997E+02  0.45594000000E+02  0.51100000000E-03 0. -1.
         23    2    1    2    0    0  0.00000000000E+00  0.00000000000E+00  0.00000000000E+00  0.91188000000E+02  0.91188000000E+02 0.  0.
    9900012    2    3    3    0    0 -0.22270047163E+02 -0.26990777467E+02 -0.11459613596E+02  0.54367084576E+02  0.40000000907E+02 0.  0.
         12    1    3    3    0    0  0.22270047163E+02  0.26990777467E+02  0.11459613596E+02  0.36820915424E+02  0.00000000000E+00 0. -1.
         11    1    4    4    0    0 -0.28979175099E+02 -0.11684090598E+02 -0.76423099973E+01  0.32166993408E+02  0.51100000000E-03 0. -1.
        -11    1    4    4    0    0  0.28835209936E+01 -0.14302803671E+02 -0.78359407400E+01  0.16561607824E+02  0.51100000000E-03 0.  1.
         12    1    4    4    0    0  0.38256069421E+01 -0.10038831981E+01  0.40186371417E+01  0.56384833446E+01  0.00000000000E+00 0. -1.
</event>
<event>
 8    1  0.1248739E-006  0.9118800E+02  0.7816164E-02  0.1184000E+00
        -11   -1    0    0    0    0  0.00000000000E+00  0.00000000000E+00  0.45593999997E+02  0.45594000000E+02  0.51100000000E-03 0.  1.
         11   -1    0    0    0    0 -0.00000000000E+00 -0.00000000000E+00 -0.45593999997E+02  0.45594000000E+02  0.51100000000E-03 0. -1.
         23    2    1    2    0    0 -0.44408920985E-15  0.35527136788E-14  0.00000000000E+00  0.91188000000E+02  0.91188000000E+02 0.  0.
    9900012    2    3    3    0    0 -0.13202687278E+01  0.23635480275E+02 -0.28202878476E+02  0.54367063134E+02  0.39999952026E+02 0.  0.
        -12    1    3    3    0    0  0.13202687278E+01 -0.23635480275E+02  0.28202878476E+02  0.36820936866E+02  0.00000000000E+00 0.  1.
         11    1    4    4    0    0 -0.11355382156E+01 -0.46668361566E+01 -0.12951191233E+02  0.13813115557E+02  0.51100000000E-03 0. -1.
        -11    1    4    4    0    0 -0.52924169027E+01  0.21914080373E+01  0.46095067820E+01  0.73525165007E+01  0.51100000000E-03 0.  1.
         12    1    4    4    0    0  0.51076863905E+01  0.26110908394E+02 -0.19861194025E+02  0.33201431077E+02  0.00000000000E+00 0. -1.
</event>
<event>
 8    1  0.1248739E-006  0.9118800E+02  0.7816164E-02  0.1184000E+00
        -11   -1    0    0    0    0  0.00000000000E+00  0.00000000000E+00  0.45593999997E+02  0.45594000000E+02  0.51100000000E-03 0. -1.
         11   -1    0    0    0    0 -0.00000000000E+00 -0.00000000000E+00 -0.45593999997E+02  0.45594000000E+02  0.51100000000E-03 0.  1.
         23    2    1    2    0    0 -0.35527136788E-14  0.00000000000E+00 -0.35527136788E-14  0.91188000000E+02  0.91188000000E+02 0.  0.
    9900012    2    3    3    0    0 -0.23822202161E+02  0.19923650203E+02 -0.19782076423E+02  0.54367086095E+02  0.40000004370E+02 0.  0.
         12    1    3    3    0    0  0.23822202161E+02 -0.19923650203E+02  0.19782076423E+02  0.36820913905E+02  0.00000000000E+00 0. -1.
         11    1    4    4    0    0 -0.13456965272E+01  0.14986364557E+02  0.36687406238E+01  0.15487468476E+02  0.51100000000E-03 0. -1.
        -11    1    4    4    0    0 -0.22878001852E+02  0.10400195212E+02 -0.16645451714E+02  0.30143624404E+02  0.51100000000E-03 0.  1.
        -12    1    4    4    0    0  0.40149621846E+00 -0.54629095650E+01 -0.68053653328E+01  0.87359932144E+01  0.00000000000E+00 0.  1.
</event>
<event>
 8    1  0.1248739E-006  0.9118800E+02  0.7816164E-02  0.1184000E+00
        -11   -1    0    0    0    0  0.00000000000E+00  0.00000000000E+00  0.45593999997E+02  0.45594000000E+02  0.51100000000E-03 0.  1.
         11   -1    0    0    0    0 -0.00000000000E+00 -0.00000000000E+00 -0.45593999997E+02  0.45594000000E+02  0.51100000000E-03 0. -1.
         23    2    1    2    0    0  0.00000000000E+00  0.00000000000E+00  0.44408920985E-15  0.91188000000E+02  0.91188000000E+02 0.  0.
    9900012    2    3    3    0    0  0.33590898585E+02  0.14547945403E+02 -0.39734756971E+01  0.54367086211E+02  0.40000004634E+02 0.  0.
         12    1    3    3    0    0 -0.33590898585E+02 -0.14547945403E+02  0.39734756971E+01  0.36820913789E+02  0.00000000000E+00 0. -1.
         11    1    4    4    0    0  0.40501128418E+00  0.37668735938E+00 -0.62544064691E+01  0.62788158159E+01  0.51100000000E-03 0. -1.
        -11    1    4    4    0    0  0.29358613661E+02  0.14980734222E+02 -0.10603175649E+02  0.34623372569E+02  0.51100000000E-03 0.  1.
        -12    1    4    4    0    0  0.38272736390E+01 -0.80947617810E+00  0.12884106421E+02  0.13464897826E+02  0.00000000000E+00 0.  1.
</event>
<event>
 8    1  0.1248739E-006  0.9118800E+02  0.7816164E-02  0.1184000E+00
        -11   -1    0    0    0    0  0.00000000000E+00  0.00000000000E+00  0.45593999997E+02  0.45594000000E+02  0.51100000000E-03 0.  1.
         11   -1    0    0    0    0 -0.00000000000E+00 -0.00000000000E+00 -0.45593999997E+02  0.45594000000E+02  0.51100000000E-03 0. -1.
         23    2    1    2    0    0  0.35527136788E-14  0.00000000000E+00  0.00000000000E+00  0.91188000000E+02  0.91188000000E+02 0.  0.
    9900012    2    3    3    0    0  0.17808846831E+02 -0.20778308783E+02 -0.24635103347E+02  0.54367062230E+02  0.39999949967E+02 0.  0.
        -12    1    3    3    0    0 -0.17808846831E+02  0.20778308783E+02  0.24635103347E+02  0.36820937770E+02  0.00000000000E+00 0.  1.
         11    1    4    4    0    0 -0.24638757235E+01  0.10588943622E+02 -0.36272100260E+01  0.11460936412E+02  0.51100000000E-03 0. -1.
        -11    1    4    4    0    0  0.15605934190E+02 -0.22378169456E+02 -0.15211305386E+02  0.31236380424E+02  0.51100000000E-03 0.  1.
         12    1    4    4    0    0  0.46667883645E+01 -0.89890829483E+01 -0.57965879350E+01  0.11669745395E+02  0.00000000000E+00 0. -1.
</event>
<event>
 8    1  0.1248739E-006  0.9118800E+02  0.7816164E-02  0.1184000E+00
        -11   -1    0    0    0    0  0.00000000000E+00  0.00000000000E+00  0.45593999997E+02  0.45594000000E+02  0.51100000000E-03 0.  1.
         11   -1    0    0    0    0 -0.00000000000E+00 -0.00000000000E+00 -0.45593999997E+02  0.45594000000E+02  0.51100000000E-03 0. -1.
         23    2    1    2    0    0  0.00000000000E+00 -0.35527136788E-14  0.00000000000E+00  0.91188000000E+02  0.91188000000E+02 0.  0.
    9900012    2    3    3    0    0  0.23295381042E+02  0.20566473490E+02  0.19751569287E+02  0.54367094267E+02  0.40000023000E+02 0.  0.
         12    1    3    3    0    0 -0.23295381042E+02 -0.20566473490E+02 -0.19751569287E+02  0.36820905733E+02  0.00000000000E+00 0. -1.
         11    1    4    4    0    0  0.17231934570E+02  0.15278732896E+02  0.24936359828E+02  0.33944090644E+02  0.51100000000E-03 0. -1.
        -11    1    4    4    0    0  0.12561976516E+01  0.27276591416E+01  0.67040940984E+01  0.73459536396E+01  0.51100000000E-03 0.  1.
         12    1    4    4    0    0  0.48072488207E+01  0.25600814531E+01 -0.11888884640E+02  0.13077049983E+02  0.00000000000E+00 0. -1.
</event>
<event>
 8    1  0.1248739E-006  0.9118800E+02  0.7816164E-02  0.1184000E+00
        -11   -1    0    0    0    0  0.00000000000E+00  0.00000000000E+00  0.45593999997E+02  0.45594000000E+02  0.51100000000E-03 0.  1.
         11   -1    0    0    0    0 -0.00000000000E+00 -0.00000000000E+00 -0.45593999997E+02  0.45594000000E+02  0.51100000000E-03 0. -1.
         23    2    1    2    0    0  0.17763568394E-14  0.00000000000E+00  0.00000000000E+00  0.91188000000E+02  0.91188000000E+02 0.  0.
    9900012    2    3    3    0    0  0.86430678246E+01  0.33137402495E+02 -0.13527347058E+02  0.54367093114E+02  0.40000020371E+02 0.  0.
        -12    1    3    3    0    0 -0.86430678246E+01 -0.33137402495E+02  0.13527347058E+02  0.36820906886E+02  0.00000000000E+00 0.  1.
         11    1    4    4    0    0 -0.43353321582E+01  0.93221892108E+01 -0.16506998788E+02  0.19446833311E+02  0.51100000000E-03 0. -1.
        -11    1    4    4    0    0 -0.40737959609E+01  0.10914717572E+02  0.63589271668E+01  0.13272634561E+02  0.51100000000E-03 0.  1.
        -12    1    4    4    0    0  0.17052195944E+02  0.12900495712E+02 -0.33792754374E+01  0.21647625241E+02  0.00000000000E+00 0.  1.
</event>
<event>
 8    1  0.1248739E-006  0.9118800E+02  0.7816164E-02  0.1184000E+00
        -11   -1    0    0    0    0  0.00000000000E+00  0.00000000000E+00  0.45593999997E+02  0.45594000000E+02  0.51100000000E-03 0. -1.
         11   -1    0    0    0    0 -0.00000000000E+00 -0.00000000000E+00 -0.45593999997E+02  0.45594000000E+02  0.51100000000E-03 0.  1.
         23    2    1    2    0    0  0.35527136788E-14  0.00000000000E+00 -0.35527136788E-14  0.91188000000E+02  0.91188000000E+02 0.  0.
    9900012    2    3    3    0    0 -0.17134157462E+02  0.23800447898E+02 -0.22265247039E+02  0.54367056262E+02  0.39999936360E+02 0.  0.
         12    1    3    3    0    0  0.17134157462E+02 -0.23800447898E+02  0.22265247039E+02  0.36820943738E+02  0.00000000000E+00 0. -1.
         11    1    4    4    0    0  0.26770819102E+01  0.48674069761E+01 -0.14089351669E+02  0.15144908350E+02  0.51100000000E-03 0. -1.
        -11    1    4    4    0    0  0.31065818248E+01 -0.21750674543E+01 -0.70963669648E+01  0.80461290957E+01  0.51100000000E-03 0.  1.
        -12    1    4    4    0    0 -0.22917821197E+02  0.21108108376E+02 -0.10795284057E+01  0.31176018816E+02  0.00000000000E+00 0.  1.
</event>
<event>
 8    1  0.1248739E-006  0.9118800E+02  0.7816164E-02  0.1184000E+00
        -11   -1    0    0    0    0  0.00000000000E+00  0.00000000000E+00  0.45593999997E+02  0.45594000000E+02  0.51100000000E-03 0. -1.
         11   -1    0    0    0    0 -0.00000000000E+00 -0.00000000000E+00 -0.45593999997E+02  0.45594000000E+02  0.51100000000E-03 0.  1.
         23    2    1    2    0    0  0.00000000000E+00  0.00000000000E+00 -0.35527136788E-14  0.91188000000E+02  0.91188000000E+02 0.  0.
    9900012    2    3    3    0    0 -0.34175112688E+01  0.19660869546E+02 -0.30944316973E+02  0.54367083016E+02  0.39999997353E+02 0.  0.
         12    1    3    3    0    0  0.34175112688E+01 -0.19660869546E+02  0.30944316973E+02  0.36820916984E+02  0.00000000000E+00 0. -1.
         11    1    4    4    0    0 -0.45869021677E+01 -0.25562637172E+01 -0.10515198407E+02  0.11753448578E+02  0.51100000000E-03 0. -1.
        -11    1    4    4    0    0  0.78070599906E+01  0.23793569935E+01 -0.20098283482E+02  0.21692222675E+02  0.51100000000E-03 0.  1.
         12    1    4    4    0    0 -0.66376690917E+01  0.19837776270E+02 -0.33083508415E+00  0.20921411763E+02  0.00000000000E+00 0. -1.
</event>
<event>
 8    1  0.1248739E-006  0.9118800E+02  0.7816164E-02  0.1184000E+00
        -11   -1    0    0    0    0  0.00000000000E+00  0.00000000000E+00  0.45593999997E+02  0.45594000000E+02  0.51100000000E-03 0. -1.
         11   -1    0    0    0    0 -0.00000000000E+00 -0.00000000000E+00 -0.45593999997E+02  0.45594000000E+02  0.51100000000E-03 0.  1.
         23    2    1    2    0    0  0.00000000000E+00  0.00000000000E+00  0.00000000000E+00  0.91188000000E+02  0.91188000000E+02 0.  0.
    9900012    2    3    3    0    0 -0.15327247808E+02 -0.33418823390E+01 -0.33312022980E+02  0.54367033446E+02  0.39999884347E+02 0.  0.
         12    1    3    3    0    0  0.15327247808E+02  0.33418823390E+01  0.33312022980E+02  0.36820966554E+02  0.00000000000E+00 0. -1.
         11    1    4    4    0    0 -0.15855483016E+02 -0.90595182443E+01 -0.73935336529E+01  0.19701156124E+02  0.51100000000E-03 0. -1.
        -11    1    4    4    0    0 -0.25333304709E+01  0.10972696161E+02 -0.40500686337E+01  0.11967492658E+02  0.51100000000E-03 0.  1.
         12    1    4    4    0    0  0.30615656793E+01 -0.52550602560E+01 -0.21868420694E+02  0.22698384664E+02  0.00000000000E+00 0. -1.
</event>
<event>
 8    1  0.1248739E-006  0.9118800E+02  0.7816164E-02  0.1184000E+00
        -11   -1    0    0    0    0  0.00000000000E+00  0.00000000000E+00  0.45593999997E+02  0.45594000000E+02  0.51100000000E-03 0.  1.
         11   -1    0    0    0    0 -0.00000000000E+00 -0.00000000000E+00 -0.45593999997E+02  0.45594000000E+02  0.51100000000E-03 0. -1.
         23    2    1    2    0    0  0.00000000000E+00 -0.17763568394E-14  0.00000000000E+00  0.91188000000E+02  0.91188000000E+02 0.  0.
    9900012    2    3    3    0    0 -0.87922647160E+01 -0.13756735949E+02 -0.33003474946E+02  0.54367067620E+02  0.39999962254E+02 0.  0.
        -12    1    3    3    0    0  0.87922647160E+01  0.13756735949E+02  0.33003474946E+02  0.36820932380E+02  0.00000000000E+00 0.  1.
         11    1    4    4    0    0 -0.53097555065E+00  0.31924213875E+01 -0.25271051661E+02  0.25477432007E+02  0.51100000000E-03 0. -1.
        -11    1    4    4    0    0 -0.83029129302E+01  0.21191638006E+01 -0.82490450957E+00  0.86086982786E+01  0.51100000000E-03 0.  1.
        -12    1    4    4    0    0  0.41623764868E-01 -0.19068321137E+02 -0.69075187752E+01  0.20280937334E+02  0.00000000000E+00 0.  1.
</event>
<event>
 8    1  0.1248739E-006  0.9118800E+02  0.7816164E-02  0.1184000E+00
        -11   -1    0    0    0    0  0.00000000000E+00  0.00000000000E+00  0.45593999997E+02  0.45594000000E+02  0.51100000000E-03 0. -1.
         11   -1    0    0    0    0 -0.00000000000E+00 -0.00000000000E+00 -0.45593999997E+02  0.45594000000E+02  0.51100000000E-03 0.  1.
         23    2    1    2    0    0  0.22204460493E-15  0.35527136788E-14  0.00000000000E+00  0.91188000000E+02  0.91188000000E+02 0.  0.
    9900012    2    3    3    0    0 -0.17429870499E+01  0.25291500967E+02  0.26703591675E+02  0.54367084295E+02  0.40000000267E+02 0.  0.
        -12    1    3    3    0    0  0.17429870499E+01 -0.25291500967E+02 -0.26703591675E+02  0.36820915705E+02  0.00000000000E+00 0.  1.
         11    1    4    4    0    0 -0.68663447080E+01  0.19302365497E+02  0.36816558174E+01  0.20815441221E+02  0.51100000000E-03 0. -1.
        -11    1    4    4    0    0 -0.16736198793E+01 -0.15369614042E+01 -0.40493036938E+01  0.46432870387E+01  0.51100000000E-03 0.  1.
         12    1    4    4    0    0  0.67969775374E+01  0.75260968746E+01  0.27071239551E+02  0.28908356035E+02  0.00000000000E+00 0. -1.
</event>
<event>
 8    1  0.1248739E-006  0.9118800E+02  0.7816164E-02  0.1184000E+00
        -11   -1    0    0    0    0  0.00000000000E+00  0.00000000000E+00  0.45593999997E+02  0.45594000000E+02  0.51100000000E-03 0.  1.
         11   -1    0    0    0    0 -0.00000000000E+00 -0.00000000000E+00 -0.45593999997E+02  0.45594000000E+02  0.51100000000E-03 0. -1.
         23    2    1    2    0    0  0.00000000000E+00 -0.33306690739E-15  0.00000000000E+00  0.91188000000E+02  0.91188000000E+02 0.  0.
    9900012    2    3    3    0    0 -0.24396192361E+02 -0.78589654235E+00 -0.27567846635E+02  0.54367109147E+02  0.40000056923E+02 0.  0.
        -12    1    3    3    0    0  0.24396192361E+02  0.78589654235E+00  0.27567846635E+02  0.36820890853E+02  0.00000000000E+00 0.  1.
         11    1    4    4    0    0 -0.10222629585E+02  0.19331989458E+01 -0.53389140030E+01  0.11693734082E+02  0.51100000000E-03 0. -1.
        -11    1    4    4    0    0 -0.10373108100E+02  0.55454685110E+01 -0.29025468147E+02  0.31318227825E+02  0.51100000000E-03 0.  1.
         12    1    4    4    0    0 -0.38004546760E+01 -0.82645639992E+01  0.67965355153E+01  0.11355147240E+02  0.00000000000E+00 0. -1.
</event>
<event>
 8    1  0.1248739E-006  0.9118800E+02  0.7816164E-02  0.1184000E+00
        -11   -1    0    0    0    0  0.00000000000E+00  0.00000000000E+00  0.45593999997E+02  0.45594000000E+02  0.51100000000E-03 0. -1.
         11   -1    0    0    0    0 -0.00000000000E+00 -0.00000000000E+00 -0.45593999997E+02  0.45594000000E+02  0.51100000000E-03 0.  1.
         23    2    1    2    0    0  0.00000000000E+00 -0.17763568394E-14  0.00000000000E+00  0.91188000000E+02  0.91188000000E+02 0.  0.
    9900012    2    3    3    0    0  0.14917907710E+02 -0.15441630098E+02  0.29913029269E+02  0.54367119639E+02  0.40000080842E+02 0.  0.
         12    1    3    3    0    0 -0.14917907710E+02  0.15441630098E+02 -0.29913029269E+02  0.36820880361E+02  0.00000000000E+00 0. -1.
         11    1    4    4    0    0  0.92118473153E+01 -0.65530961889E+01  0.99771770236E+00  0.11348860802E+02  0.51100000000E-03 0.  1.
        -11    1    4    4    0    0  0.59094701602E+01  0.10078380598E+02  0.55827992665E+01  0.12948484118E+02  0.51100000000E-03 0. -1.
         12    1    4    4    0    0 -0.20340976575E+00 -0.18966914507E+02  0.23332512300E+02  0.30069774719E+02  0.00000000000E+00 0. -1.
</event>
<event>
 8    1  0.1248739E-006  0.9118800E+02  0.7816164E-02  0.1184000E+00
        -11   -1    0    0    0    0  0.00000000000E+00  0.00000000000E+00  0.45593999997E+02  0.45594000000E+02  0.51100000000E-03 0. -1.
         11   -1    0    0    0    0 -0.00000000000E+00 -0.00000000000E+00 -0.45593999997E+02  0.45594000000E+02  0.51100000000E-03 0.  1.
         23    2    1    2    0    0  0.00000000000E+00  0.00000000000E+00 -0.35527136788E-14  0.91188000000E+02  0.91188000000E+02 0.  0.
    9900012    2    3    3    0    0 -0.25992925278E+02 -0.16644015497E+02 -0.20077948882E+02  0.54367089532E+02  0.40000012207E+02 0.  0.
         12    1    3    3    0    0  0.25992925278E+02  0.16644015497E+02  0.20077948882E+02  0.36820910468E+02  0.00000000000E+00 0. -1.
         11    1    4    4    0    0 -0.16199536842E+02 -0.65997464084E+01 -0.22747047052E+02  0.28695117989E+02  0.51100000000E-03 0. -1.
        -11    1    4    4    0    0  0.54077631821E+01  0.16310800242E+01 -0.19147228114E+01  0.59640999644E+01  0.51100000000E-03 0.  1.
         12    1    4    4    0    0 -0.15201151617E+02 -0.11675349113E+02  0.45838209811E+01  0.19707871579E+02  0.00000000000E+00 0. -1.
</event>
<event>
 8    1  0.1248739E-006  0.9118800E+02  0.7816164E-02  0.1184000E+00
        -11   -1    0    0    0    0  0.00000000000E+00  0.00000000000E+00  0.45593999997E+02  0.45594000000E+02  0.51100000000E-03 0.  1.
         11   -1    0    0    0    0 -0.00000000000E+00 -0.00000000000E+00 -0.45593999997E+02  0.45594000000E+02  0.51100000000E-03 0. -1.
         23    2    1    2    0    0 -0.35527136788E-14 -0.88817841970E-15  0.00000000000E+00  0.91188000000E+02  0.91188000000E+02 0.  0.
    9900012    2    3    3    0    0  0.29332563132E+02 -0.54817246665E+01  0.21571553116E+02  0.54367075663E+02  0.39999980588E+02 0.  0.
         12    1    3    3    0    0 -0.29332563132E+02  0.54817246665E+01 -0.21571553116E+02  0.36820924337E+02  0.00000000000E+00 0. -1.
         11    1    4    4    0    0  0.13150736190E+01 -0.12067920179E+02  0.14819409665E+02  0.19156696457E+02  0.51100000000E-03 0. -1.
        -11    1    4    4    0    0  0.15910574462E+02 -0.29369700586E+01  0.10588658112E+02  0.19336283348E+02  0.51100000000E-03 0.  1.
         12    1    4    4    0    0  0.12106915051E+02  0.95231655708E+01 -0.38365146619E+01  0.15874095857E+02  0.00000000000E+00 0. -1.
</event>
<event>
 8    1  0.1248739E-006  0.9118800E+02  0.7816164E-02  0.1184000E+00
        -11   -1    0    0    0    0  0.00000000000E+00  0.00000000000E+00  0.45593999997E+02  0.45594000000E+02  0.51100000000E-03 0.  1.
         11   -1    0    0    0    0 -0.00000000000E+00 -0.00000000000E+00 -0.45593999997E+02  0.45594000000E+02  0.51100000000E-03 0. -1.
         23    2    1    2    0    0 -0.35527136788E-14 -0.35527136788E-14  0.35527136788E-14  0.91188000000E+02  0.91188000000E+02 0.  0.
    9900012    2    3    3    0    0  0.25561961663E+02  0.24452094616E+02 -0.10220498360E+02  0.54367117312E+02  0.40000075537E+02 0.  0.
        -12    1    3    3    0    0 -0.25561961663E+02 -0.24452094616E+02  0.10220498360E+02  0.36820882688E+02  0.00000000000E+00 0.  1.
         11    1    4    4    0    0  0.19807378182E+01  0.11427537519E+02 -0.42197850833E+00  0.11605602189E+02  0.51100000000E-03 0. -1.
        -11    1    4    4    0    0  0.98346535333E+01  0.83281152896E+01  0.11304042843E+02  0.17142324791E+02  0.51100000000E-03 0.  1.
         12    1    4    4    0    0  0.13746570311E+02  0.46964418078E+01 -0.21102562695E+02  0.25619190332E+02  0.00000000000E+00 0. -1.
</event>
<event>
 8    1  0.1248739E-006  0.9118800E+02  0.7816164E-02  0.1184000E+00
        -11   -1    0    0    0    0  0.00000000000E+00  0.00000000000E+00  0.45593999997E+02  0.45594000000E+02  0.51100000000E-03 0.  1.
         11   -1    0    0    0    0 -0.00000000000E+00 -0.00000000000E+00 -0.45593999997E+02  0.45594000000E+02  0.51100000000E-03 0. -1.
         23    2    1    2    0    0  0.35527136788E-14  0.00000000000E+00  0.00000000000E+00  0.91188000000E+02  0.91188000000E+02 0.  0.
    9900012    2    3    3    0    0  0.18692461035E+02  0.86145764301E+01 -0.30531317548E+02  0.54367076901E+02  0.39999983411E+02 0.  0.
        -12    1    3    3    0    0 -0.18692461035E+02 -0.86145764301E+01  0.30531317548E+02  0.36820923099E+02  0.00000000000E+00 0.  1.
         11    1    4    4    0    0 -0.31570322682E+01  0.12121310393E+02 -0.89951376816E+01  0.15420944218E+02  0.51100000000E-03 0. -1.
        -11    1    4    4    0    0  0.67819845201E+00 -0.58332320222E+01  0.28841989217E+01  0.65425646842E+01  0.51100000000E-03 0.  1.
        -12    1    4    4    0    0  0.21171294852E+02  0.23264980590E+01 -0.24420378788E+02  0.32403567999E+02  0.00000000000E+00 0.  1.
</event>
<event>
 8    1  0.1248739E-006  0.9118800E+02  0.7816164E-02  0.1184000E+00
        -11   -1    0    0    0    0  0.00000000000E+00  0.00000000000E+00  0.45593999997E+02  0.45594000000E+02  0.51100000000E-03 0.  1.
         11   -1    0    0    0    0 -0.00000000000E+00 -0.00000000000E+00 -0.45593999997E+02  0.45594000000E+02  0.51100000000E-03 0. -1.
         23    2    1    2    0    0  0.00000000000E+00  0.00000000000E+00  0.00000000000E+00  0.91188000000E+02  0.91188000000E+02 0.  0.
    9900012    2    3    3    0    0  0.18761239718E+02 -0.82525792995E+01  0.30589060185E+02  0.54367084968E+02  0.40000001801E+02 0.  0.
         12    1    3    3    0    0 -0.18761239718E+02  0.82525792995E+01 -0.30589060185E+02  0.36820915032E+02  0.00000000000E+00 0. -1.
         11    1    4    4    0    0  0.11036420642E+02  0.93531820994E+01 -0.27224978274E+01  0.14720617876E+02  0.51100000000E-03 0. -1.
        -11    1    4    4    0    0 -0.12329578234E+01 -0.52744910605E+01  0.14223012080E+02  0.15219543811E+02  0.51100000000E-03 0.  1.
        -12    1    4    4    0    0  0.89577768996E+01 -0.12331270338E+02  0.19088545933E+02  0.24426923281E+02  0.00000000000E+00 0.  1.
</event>
<event>
 8    1  0.1248739E-006  0.9118800E+02  0.7816164E-02  0.1184000E+00
        -11   -1    0    0    0    0  0.00000000000E+00  0.00000000000E+00  0.45593999997E+02  0.45594000000E+02  0.51100000000E-03 0. -1.
         11   -1    0    0    0    0 -0.00000000000E+00 -0.00000000000E+00 -0.45593999997E+02  0.45594000000E+02  0.51100000000E-03 0.  1.
         23    2    1    2    0    0  0.00000000000E+00  0.00000000000E+00  0.16653345369E-15  0.91188000000E+02  0.91188000000E+02 0.  0.
    9900012    2    3    3    0    0  0.34151937457E+02  0.13761710937E+02 -0.20163982012E+00  0.54367079607E+02  0.39999989580E+02 0.  0.
         12    1    3    3    0    0 -0.34151937457E+02 -0.13761710937E+02  0.20163982012E+00  0.36820920393E+02  0.00000000000E+00 0. -1.
         11    1    4    4    0    0  0.31535822833E+01  0.91920227887E+01  0.13013455231E+02  0.16241563393E+02  0.51100000000E-03 0. -1.
        -11    1    4    4    0    0  0.11765395419E+02 -0.16368045560E+01 -0.13410559034E+02  0.17914986809E+02  0.51100000000E-03 0.  1.
         12    1    4    4    0    0  0.19232959755E+02  0.62064927047E+01  0.19546398320E+00  0.20210529404E+02  0.00000000000E+00 0. -1.
</event>
<event>
 8    1  0.1248739E-006  0.9118800E+02  0.7816164E-02  0.1184000E+00
        -11   -1    0    0    0    0  0.00000000000E+00  0.00000000000E+00  0.45593999997E+02  0.45594000000E+02  0.51100000000E-03 0. -1.
         11   -1    0    0    0    0 -0.00000000000E+00 -0.00000000000E+00 -0.45593999997E+02  0.45594000000E+02  0.51100000000E-03 0.  1.
         23    2    1    2    0    0 -0.35527136788E-14  0.00000000000E+00  0.00000000000E+00  0.91188000000E+02  0.91188000000E+02 0.  0.
    9900012    2    3    3    0    0  0.30653962680E+02  0.18625553991E+02 -0.83188391132E+01  0.54367085106E+02  0.40000002115E+02 0.  0.
         12    1    3    3    0    0 -0.30653962680E+02 -0.18625553991E+02  0.83188391132E+01  0.36820914894E+02  0.00000000000E+00 0. -1.
         11    1    4    4    0    0 -0.80960856652E+01  0.24537428612E+01  0.33468276807E+01  0.90977311959E+01  0.51100000000E-03 0. -1.
        -11    1    4    4    0    0  0.19452503262E+02  0.61429847965E+01 -0.11709781209E+02  0.23521375844E+02  0.51100000000E-03 0.  1.
        -12    1    4    4    0    0  0.19297545084E+02  0.10028826333E+02  0.44114415012E-01  0.21747978066E+02  0.00000000000E+00 0.  1.
</event>
<event>
 8    1  0.1248739E-006  0.9118800E+02  0.7816164E-02  0.1184000E+00
        -11   -1    0    0    0    0  0.00000000000E+00  0.00000000000E+00  0.45593999997E+02  0.45594000000E+02  0.51100000000E-03 0.  1.
         11   -1    0    0    0    0 -0.00000000000E+00 -0.00000000000E+00 -0.45593999997E+02  0.45594000000E+02  0.51100000000E-03 0. -1.
         23    2    1    2    0    0  0.00000000000E+00  0.00000000000E+00  0.35527136788E-14  0.91188000000E+02  0.91188000000E+02 0.  0.
    9900012    2    3    3    0    0 -0.29739087782E+02 -0.53169451495E+01 -0.21049847606E+02  0.54367091102E+02  0.40000015786E+02 0.  0.
        -12    1    3    3    0    0  0.29739087782E+02  0.53169451495E+01  0.21049847606E+02  0.36820908898E+02  0.00000000000E+00 0.  1.
         11    1    4    4    0    0 -0.35688977875E+01  0.76545070997E+01 -0.17121306040E+02  0.19091035360E+02  0.51100000000E-03 0. -1.
        -11    1    4    4    0    0 -0.10894624865E+02 -0.11417588440E+02  0.61191987909E+01  0.16926274571E+02  0.51100000000E-03 0.  1.
        -12    1    4    4    0    0 -0.15275565129E+02 -0.15538638090E+01 -0.10047740357E+02  0.18349781171E+02  0.00000000000E+00 0.  1.
</event>
<event>
 8    1  0.1248739E-006  0.9118800E+02  0.7816164E-02  0.1184000E+00
        -11   -1    0    0    0    0  0.00000000000E+00  0.00000000000E+00  0.45593999997E+02  0.45594000000E+02  0.51100000000E-03 0.  1.
         11   -1    0    0    0    0 -0.00000000000E+00 -0.00000000000E+00 -0.45593999997E+02  0.45594000000E+02  0.51100000000E-03 0. -1.
         23    2    1    2    0    0  0.00000000000E+00  0.00000000000E+00  0.00000000000E+00  0.91188000000E+02  0.91188000000E+02 0.  0.
    9900012    2    3    3    0    0  0.32554446842E+02 -0.13408483952E+02  0.10779711928E+02  0.54367059757E+02  0.39999944328E+02 0.  0.
         12    1    3    3    0    0 -0.32554446842E+02  0.13408483952E+02 -0.10779711928E+02  0.36820940243E+02  0.00000000000E+00 0. -1.
         11    1    4    4    0    0  0.78774095600E+01  0.19862326373E+01  0.15678974573E+01  0.82738747974E+01  0.51100000000E-03 0. -1.
        -11    1    4    4    0    0  0.72811966407E+01 -0.24281137475E+02  0.26552487127E+01  0.25488032635E+02  0.51100000000E-03 0.  1.
        -12    1    4    4    0    0  0.17395840642E+02  0.88864208856E+01  0.65565657583E+01  0.20605152325E+02  0.00000000000E+00 0.  1.
</event>
<event>
 8    1  0.1248739E-006  0.9118800E+02  0.7816164E-02  0.1184000E+00
        -11   -1    0    0    0    0  0.00000000000E+00  0.00000000000E+00  0.45593999997E+02  0.45594000000E+02  0.51100000000E-03 0.  1.
         11   -1    0    0    0    0 -0.00000000000E+00 -0.00000000000E+00 -0.45593999997E+02  0.45594000000E+02  0.51100000000E-03 0. -1.
         23    2    1    2    0    0 -0.17763568394E-14 -0.44408920985E-14  0.00000000000E+00  0.91188000000E+02  0.91188000000E+02 0.  0.
    9900012    2    3    3    0    0  0.89014641925E+01  0.66127563374E+01 -0.35111476709E+02  0.54367076494E+02  0.39999982483E+02 0.  0.
        -12    1    3    3    0    0 -0.89014641925E+01 -0.66127563374E+01  0.35111476709E+02  0.36820923506E+02  0.00000000000E+00 0.  1.
         11    1    4    4    0    0  0.38670831379E+01 -0.57578396022E+01 -0.15794439007E+02  0.17250256598E+02  0.51100000000E-03 0. -1.
        -11    1    4    4    0    0 -0.20880882052E+01 -0.88617635579E+01 -0.37698774385E+01  0.98540824977E+01  0.51100000000E-03 0.  1.
         12    1    4    4    0    0  0.71224692598E+01  0.21232359497E+02 -0.15547160264E+02  0.27262737398E+02  0.00000000000E+00 0. -1.
</event>
<event>
 8    1  0.1248739E-006  0.9118800E+02  0.7816164E-02  0.1184000E+00
        -11   -1    0    0    0    0  0.00000000000E+00  0.00000000000E+00  0.45593999997E+02  0.45594000000E+02  0.51100000000E-03 0. -1.
         11   -1    0    0    0    0 -0.00000000000E+00 -0.00000000000E+00 -0.45593999997E+02  0.45594000000E+02  0.51100000000E-03 0.  1.
         23    2    1    2    0    0  0.17763568394E-14 -0.71054273576E-14  0.51347814889E-15  0.91188000000E+02  0.91188000000E+02 0.  0.
    9900012    2    3    3    0    0 -0.12537779454E+02  0.34620469794E+02 -0.82067834070E-01  0.54367087769E+02  0.40000008187E+02 0.  0.
        -12    1    3    3    0    0  0.12537779454E+02 -0.34620469794E+02  0.82067834070E-01  0.36820912231E+02  0.00000000000E+00 0.  1.
         11    1    4    4    0    0 -0.15279491148E+01 -0.18860958860E+01 -0.19843146670E+01  0.31352019309E+01  0.51100000000E-03 0. -1.
        -11    1    4    4    0    0 -0.13201534649E+02  0.52624395011E+01  0.11706455217E+02  0.18412356736E+02  0.51100000000E-03 0.  1.
         12    1    4    4    0    0  0.21917043088E+01  0.31244126179E+02 -0.98042083839E+01  0.32819529102E+02  0.00000000000E+00 0. -1.
</event>
<event>
 8    1  0.1248739E-006  0.9118800E+02  0.7816164E-02  0.1184000E+00
        -11   -1    0    0    0    0  0.00000000000E+00  0.00000000000E+00  0.45593999997E+02  0.45594000000E+02  0.51100000000E-03 0.  1.
         11   -1    0    0    0    0 -0.00000000000E+00 -0.00000000000E+00 -0.45593999997E+02  0.45594000000E+02  0.51100000000E-03 0. -1.
         23    2    1    2    0    0  0.00000000000E+00  0.00000000000E+00  0.88817841970E-15  0.91188000000E+02  0.91188000000E+02 0.  0.
    9900012    2    3    3    0    0  0.36051652358E+02 -0.41733626419E+01  0.62162727482E+01  0.54367073336E+02  0.39999975285E+02 0.  0.
         12    1    3    3    0    0 -0.36051652358E+02  0.41733626419E+01 -0.62162727482E+01  0.36820926664E+02  0.00000000000E+00 0. -1.
         11    1    4    4    0    0  0.91912225893E+01 -0.22130340860E+00 -0.16301477178E+02  0.18715386887E+02  0.51100000000E-03 0. -1.
        -11    1    4    4    0    0  0.73982781512E+01  0.84530707469E+00  0.78019096253E+01  0.10785122054E+02  0.51100000000E-03 0.  1.
         12    1    4    4    0    0  0.19462151618E+02 -0.47973663080E+01  0.14715840301E+02  0.24866564396E+02  0.00000000000E+00 0. -1.
</event>
<event>
 8    1  0.1248739E-006  0.9118800E+02  0.7816164E-02  0.1184000E+00
        -11   -1    0    0    0    0  0.00000000000E+00  0.00000000000E+00  0.45593999997E+02  0.45594000000E+02  0.51100000000E-03 0.  1.
         11   -1    0    0    0    0 -0.00000000000E+00 -0.00000000000E+00 -0.45593999997E+02  0.45594000000E+02  0.51100000000E-03 0. -1.
         23    2    1    2    0    0  0.00000000000E+00 -0.13322676296E-14  0.00000000000E+00  0.91188000000E+02  0.91188000000E+02 0.  0.
    9900012    2    3    3    0    0 -0.19943909562E+02 -0.23409836106E+01  0.30863175957E+02  0.54367144999E+02  0.40000138653E+02 0.  0.
         12    1    3    3    0    0  0.19943909562E+02  0.23409836106E+01 -0.30863175957E+02  0.36820855001E+02  0.00000000000E+00 0. -1.
         11    1    4    4    0    0 -0.39743743618E+01  0.11171879945E+02 -0.31299058465E+00  0.11861893460E+02  0.51100000000E-03 0. -1.
        -11    1    4    4    0    0 -0.13027603529E+02 -0.54704343277E+01  0.30854161787E+02  0.33935577280E+02  0.51100000000E-03 0.  1.
         12    1    4    4    0    0 -0.29419316710E+01 -0.80424292282E+01  0.32200475431E+00  0.85696742592E+01  0.00000000000E+00 0. -1.
</event>
<event>
 8    1  0.1248739E-006  0.9118800E+02  0.7816164E-02  0.1184000E+00
        -11   -1    0    0    0    0  0.00000000000E+00  0.00000000000E+00  0.45593999997E+02  0.45594000000E+02  0.51100000000E-03 0.  1.
         11   -1    0    0    0    0 -0.00000000000E+00 -0.00000000000E+00 -0.45593999997E+02  0.45594000000E+02  0.51100000000E-03 0. -1.
         23    2    1    2    0    0 -0.35527136788E-14  0.00000000000E+00  0.35527136788E-14  0.91188000000E+02  0.91188000000E+02 0.  0.
    9900012    2    3    3    0    0 -0.26051071473E+02 -0.13884558414E+02  0.22007710226E+02  0.54367101089E+02  0.40000038552E+02 0.  0.
         12    1    3    3    0    0  0.26051071473E+02  0.13884558414E+02 -0.22007710226E+02  0.36820898911E+02  0.00000000000E+00 0. -1.
         11    1    4    4    0    0 -0.75790306010E+01 -0.22614214329E+02  0.25491985973E+01  0.23986304599E+02  0.51100000000E-03 0. -1.
        -11    1    4    4    0    0 -0.11198355460E+02  0.34688031715E+00  0.53092371909E+01  0.12398043828E+02  0.51100000000E-03 0.  1.
        -12    1    4    4    0    0 -0.72736854117E+01  0.83827755971E+01  0.14149274438E+02  0.17982752662E+02  0.00000000000E+00 0.  1.
</event>
<event>
 8    1  0.1248739E-006  0.9118800E+02  0.7816164E-02  0.1184000E+00
        -11   -1    0    0    0    0  0.00000000000E+00  0.00000000000E+00  0.45593999997E+02  0.45594000000E+02  0.51100000000E-03 0. -1.
         11   -1    0    0    0    0 -0.00000000000E+00 -0.00000000000E+00 -0.45593999997E+02  0.45594000000E+02  0.51100000000E-03 0.  1.
         23    2    1    2    0    0 -0.17763568394E-14  0.14988010832E-14  0.00000000000E+00  0.91188000000E+02  0.91188000000E+02 0.  0.
    9900012    2    3    3    0    0  0.15837651416E+02 -0.41904146929E+00  0.33238121914E+02  0.54367088190E+02  0.40000009147E+02 0.  0.
        -12    1    3    3    0    0 -0.15837651416E+02  0.41904146929E+00 -0.33238121914E+02  0.36820911810E+02  0.00000000000E+00 0.  1.
         11    1    4    4    0    0 -0.56742967625E+01 -0.83761442069E+01  0.23449582972E+02  0.25538997188E+02  0.51100000000E-03 0. -1.
        -11    1    4    4    0    0  0.12935724633E+02  0.94142667917E+01  0.11824083809E+02  0.19893977711E+02  0.51100000000E-03 0.  1.
        -12    1    4    4    0    0  0.85762235458E+01 -0.14571640541E+01 -0.20355448670E+01  0.89341132909E+01  0.00000000000E+00 0.  1.
</event>
<event>
 8    1  0.1248739E-006  0.9118800E+02  0.7816164E-02  0.1184000E+00
        -11   -1    0    0    0    0  0.00000000000E+00  0.00000000000E+00  0.45593999997E+02  0.45594000000E+02  0.51100000000E-03 0. -1.
         11   -1    0    0    0    0 -0.00000000000E+00 -0.00000000000E+00 -0.45593999997E+02  0.45594000000E+02  0.51100000000E-03 0.  1.
         23    2    1    2    0    0  0.13322676296E-14  0.00000000000E+00  0.00000000000E+00  0.91188000000E+02  0.91188000000E+02 0.  0.
    9900012    2    3    3    0    0  0.38664696357E+01  0.73561958585E+01 -0.35870822869E+02  0.54367093734E+02  0.40000021786E+02 0.  0.
         12    1    3    3    0    0 -0.38664696357E+01 -0.73561958585E+01  0.35870822869E+02  0.36820906266E+02  0.00000000000E+00 0. -1.
         11    1    4    4    0    0 -0.26888556540E+01  0.69433571928E+01 -0.53484625689E-01  0.74460066278E+01  0.51100000000E-03 0. -1.
        -11    1    4    4    0    0  0.12060804810E+02 -0.11808943702E+02 -0.20929045164E+02  0.26887526769E+02  0.51100000000E-03 0.  1.
        -12    1    4    4    0    0 -0.55054795204E+01  0.12221782367E+02 -0.14888293079E+02  0.20033560338E+02  0.00000000000E+00 0.  1.
</event>
<event>
 8    1  0.1248739E-006  0.9118800E+02  0.7816164E-02  0.1184000E+00
        -11   -1    0    0    0    0  0.00000000000E+00  0.00000000000E+00  0.45593999997E+02  0.45594000000E+02  0.51100000000E-03 0.  1.
         11   -1    0    0    0    0 -0.00000000000E+00 -0.00000000000E+00 -0.45593999997E+02  0.45594000000E+02  0.51100000000E-03 0. -1.
         23    2    1    2    0    0  0.00000000000E+00  0.35527136788E-14  0.35527136788E-14  0.91188000000E+02  0.91188000000E+02 0.  0.
    9900012    2    3    3    0    0  0.99030647950E+01 -0.24585965880E+02 -0.25558535685E+02  0.54367093480E+02  0.40000021207E+02 0.  0.
        -12    1    3    3    0    0 -0.99030647950E+01  0.24585965880E+02  0.25558535685E+02  0.36820906520E+02  0.00000000000E+00 0.  1.
         11    1    4    4    0    0 -0.34570220375E+01 -0.15219316646E+02 -0.49760931697E+01  0.16381089830E+02  0.51100000000E-03 0. -1.
        -11    1    4    4    0    0  0.93210235840E+01  0.81892925219E+01 -0.14240953288E+02  0.18887846449E+02  0.51100000000E-03 0.  1.
        -12    1    4    4    0    0  0.40390632484E+01 -0.17555941756E+02 -0.63414892267E+01  0.19098157201E+02  0.00000000000E+00 0.  1.
</event>
<event>
 8    1  0.1248739E-006  0.9118800E+02  0.7816164E-02  0.1184000E+00
        -11   -1    0    0    0    0  0.00000000000E+00  0.00000000000E+00  0.45593999997E+02  0.45594000000E+02  0.51100000000E-03 0. -1.
         11   -1    0    0    0    0 -0.00000000000E+00 -0.00000000000E+00 -0.45593999997E+02  0.45594000000E+02  0.51100000000E-03 0.  1.
         23    2    1    2    0    0 -0.17763568394E-14  0.71054273576E-14 -0.44408920985E-15  0.91188000000E+02  0.91188000000E+02 0.  0.
    9900012    2    3    3    0    0 -0.13454383994E+02 -0.34214173683E+02 -0.20373450519E+01  0.54367069752E+02  0.39999967115E+02 0.  0.
        -12    1    3    3    0    0  0.13454383994E+02  0.34214173683E+02  0.20373450519E+01  0.36820930248E+02  0.00000000000E+00 0.  1.
         11    1    4    4    0    0  0.22360741822E+01 -0.36054219048E+01  0.43102116557E+01  0.60478938184E+01  0.51100000000E-03 0. -1.
        -11    1    4    4    0    0  0.75154096310E+01 -0.16749760346E+00  0.42051040716E+01  0.86134974246E+01  0.51100000000E-03 0.  1.
        -12    1    4    4    0    0 -0.23205867807E+02 -0.30441254174E+02 -0.10552660779E+02  0.39705678510E+02  0.00000000000E+00 0.  1.
</event>
<event>
 8    1  0.1248739E-006  0.9118800E+02  0.7816164E-02  0.1184000E+00
        -11   -1    0    0    0    0  0.00000000000E+00  0.00000000000E+00  0.45593999997E+02  0.45594000000E+02  0.51100000000E-03 0.  1.
         11   -1    0    0    0    0 -0.00000000000E+00 -0.00000000000E+00 -0.45593999997E+02  0.45594000000E+02  0.51100000000E-03 0. -1.
         23    2    1    2    0    0 -0.44408920985E-15  0.00000000000E+00  0.00000000000E+00  0.91188000000E+02  0.91188000000E+02 0.  0.
    9900012    2    3    3    0    0  0.30457934029E+01 -0.16287399659E+02 -0.32881943827E+02  0.54367102741E+02  0.40000042319E+02 0.  0.
        -12    1    3    3    0    0 -0.30457934029E+01  0.16287399659E+02  0.32881943827E+02  0.36820897259E+02  0.00000000000E+00 0.  1.
         11    1    4    4    0    0  0.78420546239E+01  0.53664718132E+01 -0.30622924107E+01  0.99837105084E+01  0.51100000000E-03 0. -1.
        -11    1    4    4    0    0  0.99615490254E+00  0.44880535995E+00 -0.19123484313E+02  0.19154670537E+02  0.51100000000E-03 0.  1.
        -12    1    4    4    0    0 -0.57924161235E+01 -0.22102676832E+02 -0.10696167104E+02  0.25228721696E+02  0.00000000000E+00 0.  1.
</event>
<event>
 8    1  0.1248739E-006  0.9118800E+02  0.7816164E-02  0.1184000E+00
        -11   -1    0    0    0    0  0.00000000000E+00  0.00000000000E+00  0.45593999997E+02  0.45594000000E+02  0.51100000000E-03 0.  1.
         11   -1    0    0    0    0 -0.00000000000E+00 -0.00000000000E+00 -0.45593999997E+02  0.45594000000E+02  0.51100000000E-03 0. -1.
         23    2    1    2    0    0  0.13322676296E-14  0.00000000000E+00  0.88817841970E-15  0.91188000000E+02  0.91188000000E+02 0.  0.
    9900012    2    3    3    0    0  0.20579047055E+01 -0.36343390943E+02 -0.55410842568E+01  0.54367073182E+02  0.39999974933E+02 0.  0.
        -12    1    3    3    0    0 -0.20579047055E+01  0.36343390943E+02  0.55410842568E+01  0.36820926818E+02  0.00000000000E+00 0.  1.
         11    1    4    4    0    0 -0.10014617766E+02 -0.81202185820E+01 -0.10051693029E+02  0.16348304250E+02  0.51100000000E-03 0. -1.
        -11    1    4    4    0    0  0.15202467303E+02 -0.11991774944E+02  0.82883772393E+01  0.21062166934E+02  0.51100000000E-03 0.  1.
        -12    1    4    4    0    0 -0.31299448313E+01 -0.16231397417E+02 -0.37777684667E+01  0.16956601998E+02  0.00000000000E+00 0.  1.
</event>
<event>
 8    1  0.1248739E-006  0.9118800E+02  0.7816164E-02  0.1184000E+00
        -11   -1    0    0    0    0  0.00000000000E+00  0.00000000000E+00  0.45593999997E+02  0.45594000000E+02  0.51100000000E-03 0. -1.
         11   -1    0    0    0    0 -0.00000000000E+00 -0.00000000000E+00 -0.45593999997E+02  0.45594000000E+02  0.51100000000E-03 0.  1.
         23    2    1    2    0    0 -0.17763568394E-14  0.00000000000E+00  0.00000000000E+00  0.91188000000E+02  0.91188000000E+02 0.  0.
    9900012    2    3    3    0    0 -0.13082918262E+02  0.64453930901E+01  0.33809387442E+02  0.54367074950E+02  0.39999978963E+02 0.  0.
        -12    1    3    3    0    0  0.13082918262E+02 -0.64453930901E+01 -0.33809387442E+02  0.36820925050E+02  0.00000000000E+00 0.  1.
         11    1    4    4    0    0  0.48163231281E+01  0.91105156754E+01  0.34587698655E+02  0.36090266872E+02  0.51100000000E-03 0. -1.
        -11    1    4    4    0    0 -0.14059244961E+02 -0.27679943567E+01 -0.13522203468E+01  0.14392798955E+02  0.51100000000E-03 0.  1.
         12    1    4    4    0    0 -0.38399964291E+01  0.10287177148E+00  0.57390913425E+00  0.38840091235E+01  0.00000000000E+00 0. -1.
</event>
<event>
 8    1  0.1248739E-006  0.9118800E+02  0.7816164E-02  0.1184000E+00
        -11   -1    0    0    0    0  0.00000000000E+00  0.00000000000E+00  0.45593999997E+02  0.45594000000E+02  0.51100000000E-03 0.  1.
         11   -1    0    0    0    0 -0.00000000000E+00 -0.00000000000E+00 -0.45593999997E+02  0.45594000000E+02  0.51100000000E-03 0. -1.
         23    2    1    2    0    0  0.00000000000E+00  0.00000000000E+00  0.00000000000E+00  0.91188000000E+02  0.91188000000E+02 0.  0.
    9900012    2    3    3    0    0  0.72539951751E+01 -0.29940041243E+02  0.20168048486E+02  0.54367126907E+02  0.40000097409E+02 0.  0.
        -12    1    3    3    0    0 -0.72539951751E+01  0.29940041243E+02 -0.20168048486E+02  0.36820873093E+02  0.00000000000E+00 0.  1.
         11    1    4    4    0    0  0.13333053206E+01 -0.19410482852E+02  0.34270258474E+01  0.19755734712E+02  0.51100000000E-03 0. -1.
        -11    1    4    4    0    0  0.48467736107E+01 -0.19982805698E+02  0.13327096456E+02  0.24503371977E+02  0.51100000000E-03 0.  1.
        -12    1    4    4    0    0  0.10739162437E+01  0.94532473070E+01  0.34139261823E+01  0.10108020218E+02  0.00000000000E+00 0.  1.
</event>
<event>
 8    1  0.1248739E-006  0.9118800E+02  0.7816164E-02  0.1184000E+00
        -11   -1    0    0    0    0  0.00000000000E+00  0.00000000000E+00  0.45593999997E+02  0.45594000000E+02  0.51100000000E-03 0. -1.
         11   -1    0    0    0    0 -0.00000000000E+00 -0.00000000000E+00 -0.45593999997E+02  0.45594000000E+02  0.51100000000E-03 0.  1.
         23    2    1    2    0    0  0.00000000000E+00  0.00000000000E+00  0.00000000000E+00  0.91188000000E+02  0.91188000000E+02 0.  0.
    9900012    2    3    3    0    0  0.19417436407E+02 -0.19913799620E+02  0.24128456902E+02  0.54367099897E+02  0.40000035835E+02 0.  0.
        -12    1    3    3    0    0 -0.19417436407E+02  0.19913799620E+02 -0.24128456902E+02  0.36820900103E+02  0.00000000000E+00 0.  1.
         11    1    4    4    0    0  0.88680651838E+01 -0.92335954277E+01  0.23720500342E+02  0.26954851166E+02  0.51100000000E-03 0. -1.
        -11    1    4    4    0    0  0.10138150354E+02  0.65017821536E+00  0.86924013567E+01  0.13370215627E+02  0.51100000000E-03 0.  1.
        -12    1    4    4    0    0  0.41122086890E+00 -0.11330382408E+02 -0.82844447967E+01  0.14042033104E+02  0.00000000000E+00 0.  1.
</event>
<event>
 8    1  0.1248739E-006  0.9118800E+02  0.7816164E-02  0.1184000E+00
        -11   -1    0    0    0    0  0.00000000000E+00  0.00000000000E+00  0.45593999997E+02  0.45594000000E+02  0.51100000000E-03 0.  1.
         11   -1    0    0    0    0 -0.00000000000E+00 -0.00000000000E+00 -0.45593999997E+02  0.45594000000E+02  0.51100000000E-03 0. -1.
         23    2    1    2    0    0  0.00000000000E+00  0.00000000000E+00 -0.17763568394E-14  0.91188000000E+02  0.91188000000E+02 0.  0.
    9900012    2    3    3    0    0 -0.14589143926E+02 -0.30792434721E+02  0.13955740727E+02  0.54367083991E+02  0.39999999574E+02 0.  0.
         12    1    3    3    0    0  0.14589143926E+02  0.30792434721E+02 -0.13955740727E+02  0.36820916009E+02  0.00000000000E+00 0. -1.
         11    1    4    4    0    0  0.79737240802E+01 -0.22558796727E+01 -0.56622750363E+01  0.10036464898E+02  0.51100000000E-03 0. -1.
        -11    1    4    4    0    0 -0.35312469777E+01 -0.11620272751E+02  0.13468421245E+02  0.18135567681E+02  0.51100000000E-03 0.  1.
        -12    1    4    4    0    0 -0.19031621028E+02 -0.16916282297E+02  0.61495945180E+01  0.26195051411E+02  0.00000000000E+00 0.  1.
</event>
<event>
 8    1  0.1248739E-006  0.9118800E+02  0.7816164E-02  0.1184000E+00
        -11   -1    0    0    0    0  0.00000000000E+00  0.00000000000E+00  0.45593999997E+02  0.45594000000E+02  0.51100000000E-03 0.  1.
         11   -1    0    0    0    0 -0.00000000000E+00 -0.00000000000E+00 -0.45593999997E+02  0.45594000000E+02  0.51100000000E-03 0. -1.
         23    2    1    2    0    0  0.00000000000E+00 -0.17763568394E-14  0.00000000000E+00  0.91188000000E+02  0.91188000000E+02 0.  0.
    9900012    2    3    3    0    0  0.35490264910E+02  0.95651366379E+01 -0.21751430253E+01  0.54367055017E+02  0.39999933522E+02 0.  0.
         12    1    3    3    0    0 -0.35490264910E+02 -0.95651366379E+01  0.21751430253E+01  0.36820944983E+02  0.00000000000E+00 0. -1.
         11    1    4    4    0    0  0.17600239433E+02 -0.12218130312E+02  0.53903178196E+01  0.22093136103E+02  0.51100000000E-03 0. -1.
        -11    1    4    4    0    0  0.98059354506E+01  0.30016762650E+01 -0.57221669510E+01  0.11743492893E+02  0.51100000000E-03 0.  1.
        -12    1    4    4    0    0  0.80840900259E+01  0.18781590685E+02 -0.18432938939E+01  0.20530426020E+02  0.00000000000E+00 0.  1.
</event>
<event>
 8    1  0.1248739E-006  0.9118800E+02  0.7816164E-02  0.1184000E+00
        -11   -1    0    0    0    0  0.00000000000E+00  0.00000000000E+00  0.45593999997E+02  0.45594000000E+02  0.51100000000E-03 0.  1.
         11   -1    0    0    0    0 -0.00000000000E+00 -0.00000000000E+00 -0.45593999997E+02  0.45594000000E+02  0.51100000000E-03 0. -1.
         23    2    1    2    0    0  0.00000000000E+00  0.00000000000E+00  0.00000000000E+00  0.91188000000E+02  0.91188000000E+02 0.  0.
    9900012    2    3    3    0    0  0.15218972652E+02  0.32233891228E+02  0.92269910777E+01  0.54367105978E+02  0.40000049697E+02 0.  0.
         12    1    3    3    0    0 -0.15218972652E+02 -0.32233891228E+02 -0.92269910777E+01  0.36820894022E+02  0.00000000000E+00 0. -1.
         11    1    4    4    0    0 -0.49560592760E+01 -0.29422992089E+00  0.90437702502E+01  0.10316921798E+02  0.51100000000E-03 0. -1.
        -11    1    4    4    0    0  0.32456286154E+01  0.10169797250E+02  0.97110070491E+01  0.14431304147E+02  0.51100000000E-03 0.  1.
         12    1    4    4    0    0  0.16929403312E+02  0.22358323898E+02 -0.95277862217E+01  0.29618880032E+02  0.00000000000E+00 0. -1.
</event>
<event>
 8    1  0.1248739E-006  0.9118800E+02  0.7816164E-02  0.1184000E+00
        -11   -1    0    0    0    0  0.00000000000E+00  0.00000000000E+00  0.45593999997E+02  0.45594000000E+02  0.51100000000E-03 0.  1.
         11   -1    0    0    0    0 -0.00000000000E+00 -0.00000000000E+00 -0.45593999997E+02  0.45594000000E+02  0.51100000000E-03 0. -1.
         23    2    1    2    0    0  0.00000000000E+00  0.35527136788E-14 -0.17763568394E-14  0.91188000000E+02  0.91188000000E+02 0.  0.
    9900012    2    3    3    0    0  0.33011616410E+02  0.16017337214E+02 -0.30756143544E+01  0.54367064201E+02  0.39999954460E+02 0.  0.
         12    1    3    3    0    0 -0.33011616410E+02 -0.16017337214E+02  0.30756143544E+01  0.36820935799E+02  0.00000000000E+00 0. -1.
         11    1    4    4    0    0 -0.12282283751E+01  0.47375126540E+00 -0.73202286359E+00  0.15062678835E+01  0.51100000000E-03 0. -1.
        -11    1    4    4    0    0  0.12018536268E+02  0.12392814127E+02 -0.18426247607E+02  0.25249824893E+02  0.51100000000E-03 0.  1.
        -12    1    4    4    0    0  0.22221308517E+02  0.31507718220E+01  0.16082656116E+02  0.27610971425E+02  0.00000000000E+00 0.  1.
</event>
<event>
 8    1  0.1248739E-006  0.9118800E+02  0.7816164E-02  0.1184000E+00
        -11   -1    0    0    0    0  0.00000000000E+00  0.00000000000E+00  0.45593999997E+02  0.45594000000E+02  0.51100000000E-03 0.  1.
         11   -1    0    0    0    0 -0.00000000000E+00 -0.00000000000E+00 -0.45593999997E+02  0.45594000000E+02  0.51100000000E-03 0. -1.
         23    2    1    2    0    0 -0.17763568394E-14 -0.13322676296E-14 -0.71054273576E-14  0.91188000000E+02  0.91188000000E+02 0.  0.
    9900012    2    3    3    0    0  0.15784275588E+02  0.32016097128E+01  0.33111729778E+02  0.54367077829E+02  0.39999985527E+02 0.  0.
         12    1    3    3    0    0 -0.15784275588E+02 -0.32016097128E+01 -0.33111729778E+02  0.36820922171E+02  0.00000000000E+00 0. -1.
         11    1    4    4    0    0 -0.36020092689E+01 -0.72369456665E+01 -0.19596717607E+01  0.83179424754E+01  0.51100000000E-03 0. -1.
        -11    1    4    4    0    0  0.56707814855E+01 -0.33023206452E+01  0.73399312024E+00  0.66031682139E+01  0.51100000000E-03 0.  1.
        -12    1    4    4    0    0  0.13715503372E+02  0.13740876024E+02  0.34337408419E+02  0.39445967140E+02  0.00000000000E+00 0.  1.
</event>
<event>
 8    1  0.1248739E-006  0.9118800E+02  0.7816164E-02  0.1184000E+00
        -11   -1    0    0    0    0  0.00000000000E+00  0.00000000000E+00  0.45593999997E+02  0.45594000000E+02  0.51100000000E-03 0.  1.
         11   -1    0    0    0    0 -0.00000000000E+00 -0.00000000000E+00 -0.45593999997E+02  0.45594000000E+02  0.51100000000E-03 0. -1.
         23    2    1    2    0    0  0.88817841970E-15  0.71054273576E-14  0.00000000000E+00  0.91188000000E+02  0.91188000000E+02 0.  0.
    9900012    2    3    3    0    0 -0.19923652188E+01  0.31949618359E+02  0.18194301622E+02  0.54367078719E+02  0.39999987556E+02 0.  0.
         12    1    3    3    0    0  0.19923652188E+01 -0.31949618359E+02 -0.18194301622E+02  0.36820921281E+02  0.00000000000E+00 0. -1.
         11    1    4    4    0    0 -0.81827514834E+00  0.58264580002E+01  0.20191625068E+01  0.62204665852E+01  0.51100000000E-03 0. -1.
        -11    1    4    4    0    0  0.10867768933E+02  0.24779733683E+02  0.21838724501E+02  0.34771734082E+02  0.51100000000E-03 0.  1.
         12    1    4    4    0    0 -0.12041859003E+02  0.13434266761E+01 -0.56635853858E+01  0.13374878052E+02  0.00000000000E+00 0. -1.
</event>
<event>
 8    1  0.1248739E-006  0.9118800E+02  0.7816164E-02  0.1184000E+00
        -11   -1    0    0    0    0  0.00000000000E+00  0.00000000000E+00  0.45593999997E+02  0.45594000000E+02  0.51100000000E-03 0.  1.
         11   -1    0    0    0    0 -0.00000000000E+00 -0.00000000000E+00 -0.45593999997E+02  0.45594000000E+02  0.51100000000E-03 0. -1.
         23    2    1    2    0    0  0.00000000000E+00 -0.35527136788E-14 -0.35527136788E-14  0.91188000000E+02  0.91188000000E+02 0.  0.
    9900012    2    3    3    0    0  0.71127016653E+01 -0.20438721453E+02 -0.29790067748E+02  0.54367082085E+02  0.39999995230E+02 0.  0.
        -12    1    3    3    0    0 -0.71127016653E+01  0.20438721453E+02  0.29790067748E+02  0.36820917915E+02  0.00000000000E+00 0.  1.
         11    1    4    4    0    0 -0.55058999886E+01 -0.13393318159E+02 -0.74064722062E+01  0.16265046474E+02  0.51100000000E-03 0. -1.
        -11    1    4    4    0    0  0.60750690695E+00 -0.38294350237E+01  0.59832271199E+01  0.71297015556E+01  0.51100000000E-03 0.  1.
        -12    1    4    4    0    0  0.12011094747E+02 -0.32159682710E+01 -0.28366822662E+02  0.30972334056E+02  0.00000000000E+00 0.  1.
</event>
<event>
 8    1  0.1248739E-006  0.9118800E+02  0.7816164E-02  0.1184000E+00
        -11   -1    0    0    0    0  0.00000000000E+00  0.00000000000E+00  0.45593999997E+02  0.45594000000E+02  0.51100000000E-03 0. -1.
         11   -1    0    0    0    0 -0.00000000000E+00 -0.00000000000E+00 -0.45593999997E+02  0.45594000000E+02  0.51100000000E-03 0.  1.
         23    2    1    2    0    0  0.26645352591E-14  0.44408920985E-15  0.00000000000E+00  0.91188000000E+02  0.91188000000E+02 0.  0.
    9900012    2    3    3    0    0  0.64955371122E+01  0.14860300295E+01  0.36212978006E+02  0.54367081167E+02  0.39999993138E+02 0.  0.
        -12    1    3    3    0    0 -0.64955371122E+01 -0.14860300295E+01 -0.36212978006E+02  0.36820918833E+02  0.00000000000E+00 0.  1.
         11    1    4    4    0    0 -0.77342337624E+01  0.51745205212E+01  0.70479997963E+01  0.11673402927E+02  0.51100000000E-03 0. -1.
        -11    1    4    4    0    0 -0.68708858897E+01  0.34428984154E+01  0.27990124813E+01  0.81790643438E+01  0.51100000000E-03 0.  1.
         12    1    4    4    0    0  0.21100656764E+02 -0.71313889071E+01  0.26365965728E+02  0.34514613896E+02  0.00000000000E+00 0. -1.
</event>
<event>
 8    1  0.1248739E-006  0.9118800E+02  0.7816164E-02  0.1184000E+00
        -11   -1    0    0    0    0  0.00000000000E+00  0.00000000000E+00  0.45593999997E+02  0.45594000000E+02  0.51100000000E-03 0. -1.
         11   -1    0    0    0    0 -0.00000000000E+00 -0.00000000000E+00 -0.45593999997E+02  0.45594000000E+02  0.51100000000E-03 0.  1.
         23    2    1    2    0    0 -0.44408920985E-15 -0.17763568394E-14  0.00000000000E+00  0.91188000000E+02  0.91188000000E+02 0.  0.
    9900012    2    3    3    0    0 -0.33015546470E+01 -0.12096169908E+02  0.34620244394E+02  0.54367096814E+02  0.40000028806E+02 0.  0.
        -12    1    3    3    0    0  0.33015546470E+01  0.12096169908E+02 -0.34620244394E+02  0.36820903186E+02  0.00000000000E+00 0.  1.
         11    1    4    4    0    0 -0.72364893176E+00 -0.95284301401E+01  0.31375819704E+02  0.32798730327E+02  0.51100000000E-03 0. -1.
        -11    1    4    4    0    0  0.66911892337E+01  0.57072926610E+01  0.30474906496E+00  0.87998906319E+01  0.51100000000E-03 0.  1.
        -12    1    4    4    0    0 -0.92690949489E+01 -0.82750324289E+01  0.29396756255E+01  0.12768475855E+02  0.00000000000E+00 0.  1.
</event>
<event>
 8    1  0.1248739E-006  0.9118800E+02  0.7816164E-02  0.1184000E+00
        -11   -1    0    0    0    0  0.00000000000E+00  0.00000000000E+00  0.45593999997E+02  0.45594000000E+02  0.51100000000E-03 0.  1.
         11   -1    0    0    0    0 -0.00000000000E+00 -0.00000000000E+00 -0.45593999997E+02  0.45594000000E+02  0.51100000000E-03 0. -1.
         23    2    1    2    0    0  0.35527136788E-14 -0.35527136788E-14  0.35527136788E-14  0.91188000000E+02  0.91188000000E+02 0.  0.
    9900012    2    3    3    0    0  0.23211219124E+02 -0.21644165151E+02  0.18669451007E+02  0.54367095894E+02  0.40000026710E+02 0.  0.
         12    1    3    3    0    0 -0.23211219124E+02  0.21644165151E+02 -0.18669451007E+02  0.36820904106E+02  0.00000000000E+00 0. -1.
         11    1    4    4    0    0 -0.91124948125E+01 -0.15350560316E+01  0.92415170922E+00  0.92869809611E+01  0.51100000000E-03 0. -1.
        -11    1    4    4    0    0 -0.16187259054E+01  0.53771849891E+00  0.57994092636E+00  0.18015955373E+01  0.51100000000E-03 0.  1.
        -12    1    4    4    0    0  0.33942439842E+02 -0.20646827618E+02  0.17165358371E+02  0.43278519396E+02  0.00000000000E+00 0.  1.
</event>
<event>
 8    1  0.1248739E-006  0.9118800E+02  0.7816164E-02  0.1184000E+00
        -11   -1    0    0    0    0  0.00000000000E+00  0.00000000000E+00  0.45593999997E+02  0.45594000000E+02  0.51100000000E-03 0.  1.
         11   -1    0    0    0    0 -0.00000000000E+00 -0.00000000000E+00 -0.45593999997E+02  0.45594000000E+02  0.51100000000E-03 0. -1.
         23    2    1    2    0    0  0.00000000000E+00 -0.17763568394E-14 -0.88817841970E-15  0.91188000000E+02  0.91188000000E+02 0.  0.
    9900012    2    3    3    0    0  0.33619832882E+02 -0.14117248340E+02 -0.51175378215E+01  0.54367094837E+02  0.40000024299E+02 0.  0.
        -12    1    3    3    0    0 -0.33619832882E+02  0.14117248340E+02  0.51175378215E+01  0.36820905163E+02  0.00000000000E+00 0.  1.
         11    1    4    4    0    0  0.20265401714E+02 -0.11712657572E+02  0.13443672284E+01  0.23445259170E+02  0.51100000000E-03 0. -1.
        -11    1    4    4    0    0 -0.24244910241E+00  0.55059543285E+01  0.78924769400E+01  0.96262924921E+01  0.51100000000E-03 0.  1.
         12    1    4    4    0    0  0.13596880270E+02 -0.79105450965E+01 -0.14354381990E+02  0.21295543175E+02  0.00000000000E+00 0. -1.
</event>
<event>
 8    1  0.1248739E-006  0.9118800E+02  0.7816164E-02  0.1184000E+00
        -11   -1    0    0    0    0  0.00000000000E+00  0.00000000000E+00  0.45593999997E+02  0.45594000000E+02  0.51100000000E-03 0. -1.
         11   -1    0    0    0    0 -0.00000000000E+00 -0.00000000000E+00 -0.45593999997E+02  0.45594000000E+02  0.51100000000E-03 0.  1.
         23    2    1    2    0    0  0.00000000000E+00 -0.66613381478E-15  0.00000000000E+00  0.91188000000E+02  0.91188000000E+02 0.  0.
    9900012    2    3    3    0    0  0.36437532836E+02 -0.18095061313E+01 -0.49812621412E+01  0.54367067311E+02  0.39999961548E+02 0.  0.
         12    1    3    3    0    0 -0.36437532836E+02  0.18095061313E+01  0.49812621412E+01  0.36820932689E+02  0.00000000000E+00 0. -1.
         11    1    4    4    0    0  0.18229484490E+02  0.81997894410E+01  0.90471827331E+00  0.20009227048E+02  0.51100000000E-03 0. -1.
        -11    1    4    4    0    0  0.19192884515E+02 -0.49327348395E+01  0.65649353821E+01  0.20875753060E+02  0.51100000000E-03 0.  1.
        -12    1    4    4    0    0 -0.98483616920E+00 -0.50765607328E+01 -0.12450915797E+02  0.13482087202E+02  0.00000000000E+00 0.  1.
</event>
<event>
 8    1  0.1248739E-006  0.9118800E+02  0.7816164E-02  0.1184000E+00
        -11   -1    0    0    0    0  0.00000000000E+00  0.00000000000E+00  0.45593999997E+02  0.45594000000E+02  0.51100000000E-03 0.  1.
         11   -1    0    0    0    0 -0.00000000000E+00 -0.00000000000E+00 -0.45593999997E+02  0.45594000000E+02  0.51100000000E-03 0. -1.
         23    2    1    2    0    0 -0.22204460493E-15  0.00000000000E+00  0.00000000000E+00  0.91188000000E+02  0.91188000000E+02 0.  0.
    9900012    2    3    3    0    0  0.29423592910E+00 -0.12756993666E+02  0.34539231485E+02  0.54367000913E+02  0.39999810181E+02 0.  0.
         12    1    3    3    0    0 -0.29423592910E+00  0.12756993666E+02 -0.34539231485E+02  0.36820999087E+02  0.00000000000E+00 0. -1.
         11    1    4    4    0    0 -0.15838614636E+01 -0.23127519075E+01  0.67933153176E+01  0.73489163682E+01  0.51100000000E-03 0.  1.
        -11    1    4    4    0    0  0.12122330536E+02 -0.19506647475E+02  0.11202962825E+02  0.25553210555E+02  0.51100000000E-03 0. -1.
         12    1    4    4    0    0 -0.10244233144E+02  0.90624057166E+01  0.16542953343E+02  0.21464873990E+02  0.00000000000E+00 0. -1.
</event>
<event>
 8    1  0.1248739E-006  0.9118800E+02  0.7816164E-02  0.1184000E+00
        -11   -1    0    0    0    0  0.00000000000E+00  0.00000000000E+00  0.45593999997E+02  0.45594000000E+02  0.51100000000E-03 0. -1.
         11   -1    0    0    0    0 -0.00000000000E+00 -0.00000000000E+00 -0.45593999997E+02  0.45594000000E+02  0.51100000000E-03 0.  1.
         23    2    1    2    0    0  0.00000000000E+00  0.00000000000E+00 -0.17763568394E-14  0.91188000000E+02  0.91188000000E+02 0.  0.
    9900012    2    3    3    0    0 -0.14251837983E+02 -0.31364383123E+02 -0.12997722327E+02  0.54367079312E+02  0.39999988908E+02 0.  0.
        -12    1    3    3    0    0  0.14251837983E+02  0.31364383123E+02  0.12997722327E+02  0.36820920688E+02  0.00000000000E+00 0.  1.
         11    1    4    4    0    0 -0.13066407068E+02 -0.31330638742E+02 -0.88564413620E+01  0.35082423968E+02  0.51100000000E-03 0. -1.
        -11    1    4    4    0    0  0.65049775023E+01  0.61598294840E+01 -0.20995470378E+01  0.92014308454E+01  0.51100000000E-03 0.  1.
         12    1    4    4    0    0 -0.76904084175E+01 -0.61935738655E+01 -0.20417339275E+01  0.10083224498E+02  0.00000000000E+00 0. -1.
</event>
<event>
 8    1  0.1248739E-006  0.9118800E+02  0.7816164E-02  0.1184000E+00
        -11   -1    0    0    0    0  0.00000000000E+00  0.00000000000E+00  0.45593999997E+02  0.45594000000E+02  0.51100000000E-03 0.  1.
         11   -1    0    0    0    0 -0.00000000000E+00 -0.00000000000E+00 -0.45593999997E+02  0.45594000000E+02  0.51100000000E-03 0. -1.
         23    2    1    2    0    0  0.00000000000E+00  0.00000000000E+00  0.17763568394E-14  0.91188000000E+02  0.91188000000E+02 0.  0.
    9900012    2    3    3    0    0  0.29538744286E+02  0.20946764757E+02 -0.66689609157E+01  0.54367090078E+02  0.40000013450E+02 0.  0.
        -12    1    3    3    0    0 -0.29538744286E+02 -0.20946764757E+02  0.66689609157E+01  0.36820909922E+02  0.00000000000E+00 0.  1.
         11    1    4    4    0    0  0.14705098167E+02  0.15178670312E+02  0.57632804503E+01  0.21905418196E+02  0.51100000000E-03 0. -1.
        -11    1    4    4    0    0  0.16899556334E+02  0.40045386394E+01  0.22658311183E+01  0.17514717381E+02  0.51100000000E-03 0.  1.
         12    1    4    4    0    0 -0.20659102150E+01  0.17635558060E+01 -0.14698072484E+02  0.14946954501E+02  0.00000000000E+00 0. -1.
</event>
<event>
 8    1  0.1248739E-006  0.9118800E+02  0.7816164E-02  0.1184000E+00
        -11   -1    0    0    0    0  0.00000000000E+00  0.00000000000E+00  0.45593999997E+02  0.45594000000E+02  0.51100000000E-03 0.  1.
         11   -1    0    0    0    0 -0.00000000000E+00 -0.00000000000E+00 -0.45593999997E+02  0.45594000000E+02  0.51100000000E-03 0. -1.
         23    2    1    2    0    0 -0.35527136788E-14  0.00000000000E+00 -0.22204460493E-15  0.91188000000E+02  0.91188000000E+02 0.  0.
    9900012    2    3    3    0    0 -0.23069178864E+02  0.28686310904E+02  0.83135450228E+00  0.54367046766E+02  0.39999914712E+02 0.  0.
        -12    1    3    3    0    0  0.23069178864E+02 -0.28686310904E+02 -0.83135450228E+00  0.36820953234E+02  0.00000000000E+00 0.  1.
         11    1    4    4    0    0 -0.27285889897E+01  0.16949914911E+02  0.35799836941E+01  0.17537419903E+02  0.51100000000E-03 0. -1.
        -11    1    4    4    0    0 -0.12389124748E+02  0.12167995306E+02  0.11273807230E+02  0.20703846298E+02  0.51100000000E-03 0.  1.
         12    1    4    4    0    0 -0.79514651261E+01 -0.43159931211E+00 -0.14022436422E+02  0.16125780565E+02  0.00000000000E+00 0. -1.
</event>
<event>
 8    1  0.1248739E-006  0.9118800E+02  0.7816164E-02  0.1184000E+00
        -11   -1    0    0    0    0  0.00000000000E+00  0.00000000000E+00  0.45593999997E+02  0.45594000000E+02  0.51100000000E-03 0. -1.
         11   -1    0    0    0    0 -0.00000000000E+00 -0.00000000000E+00 -0.45593999997E+02  0.45594000000E+02  0.51100000000E-03 0.  1.
         23    2    1    2    0    0 -0.10658141036E-13 -0.35527136788E-14 -0.88817841970E-15  0.91188000000E+02  0.91188000000E+02 0.  0.
    9900012    2    3    3    0    0 -0.23525212908E+02 -0.27415290651E+02 -0.71238419665E+01  0.54367042270E+02  0.39999904462E+02 0.  0.
         12    1    3    3    0    0  0.23525212908E+02  0.27415290651E+02  0.71238419665E+01  0.36820957730E+02  0.00000000000E+00 0. -1.
         11    1    4    4    0    0  0.48680075431E+01  0.16251756050E+01 -0.67921977892E+01  0.85130866468E+01  0.51100000000E-03 0. -1.
        -11    1    4    4    0    0 -0.24751942880E+02 -0.11010784501E+02  0.26513045336E+01  0.27219946136E+02  0.51100000000E-03 0.  1.
         12    1    4    4    0    0 -0.36412775706E+01 -0.18029681755E+02 -0.29829487108E+01  0.18634009487E+02  0.00000000000E+00 0. -1.
</event>
<event>
 8    1  0.1248739E-006  0.9118800E+02  0.7816164E-02  0.1184000E+00
        -11   -1    0    0    0    0  0.00000000000E+00  0.00000000000E+00  0.45593999997E+02  0.45594000000E+02  0.51100000000E-03 0.  1.
         11   -1    0    0    0    0 -0.00000000000E+00 -0.00000000000E+00 -0.45593999997E+02  0.45594000000E+02  0.51100000000E-03 0. -1.
         23    2    1    2    0    0  0.24424906542E-14  0.00000000000E+00  0.00000000000E+00  0.91188000000E+02  0.91188000000E+02 0.  0.
    9900012    2    3    3    0    0 -0.16027072692E+01  0.34792024156E+02  0.11946793102E+02  0.54367089081E+02  0.40000011178E+02 0.  0.
         12    1    3    3    0    0  0.16027072692E+01 -0.34792024156E+02 -0.11946793102E+02  0.36820910919E+02  0.00000000000E+00 0. -1.
         11    1    4    4    0    0  0.16107975413E+02  0.23358390201E+02 -0.12285720449E+01  0.28400539681E+02  0.51100000000E-03 0. -1.
        -11    1    4    4    0    0 -0.55241856041E+00  0.33253675941E+01  0.24564688612E+01  0.41710281021E+01  0.51100000000E-03 0.  1.
         12    1    4    4    0    0 -0.17158264121E+02  0.81082663615E+01  0.10718896286E+02  0.21795521297E+02  0.00000000000E+00 0. -1.
</event>
<event>
 8    1  0.1248739E-006  0.9118800E+02  0.7816164E-02  0.1184000E+00
        -11   -1    0    0    0    0  0.00000000000E+00  0.00000000000E+00  0.45593999997E+02  0.45594000000E+02  0.51100000000E-03 0.  1.
         11   -1    0    0    0    0 -0.00000000000E+00 -0.00000000000E+00 -0.45593999997E+02  0.45594000000E+02  0.51100000000E-03 0. -1.
         23    2    1    2    0    0  0.00000000000E+00  0.35527136788E-14 -0.17763568394E-14  0.91188000000E+02  0.91188000000E+02 0.  0.
    9900012    2    3    3    0    0 -0.25373427445E+02  0.24113613482E+02 -0.11423785502E+02  0.54367081345E+02  0.39999993541E+02 0.  0.
        -12    1    3    3    0    0  0.25373427445E+02 -0.24113613482E+02  0.11423785502E+02  0.36820918655E+02  0.00000000000E+00 0.  1.
         11    1    4    4    0    0 -0.77596424577E+01 -0.66925223876E+01 -0.53808585556E+01  0.11573916625E+02  0.51100000000E-03 0. -1.
        -11    1    4    4    0    0 -0.15679427134E+02  0.94560644703E+01  0.45708558789E+01  0.18872051140E+02  0.51100000000E-03 0.  1.
        -12    1    4    4    0    0 -0.19343578534E+01  0.21350071399E+02 -0.10613782825E+02  0.23921113580E+02  0.00000000000E+00 0.  1.
</event>
<event>
 8    1  0.1248739E-006  0.9118800E+02  0.7816164E-02  0.1184000E+00
        -11   -1    0    0    0    0  0.00000000000E+00  0.00000000000E+00  0.45593999997E+02  0.45594000000E+02  0.51100000000E-03 0. -1.
         11   -1    0    0    0    0 -0.00000000000E+00 -0.00000000000E+00 -0.45593999997E+02  0.45594000000E+02  0.51100000000E-03 0.  1.
         23    2    1    2    0    0  0.00000000000E+00  0.00000000000E+00  0.00000000000E+00  0.91188000000E+02  0.91188000000E+02 0.  0.
    9900012    2    3    3    0    0 -0.32975095684E+02  0.62015043027E+01 -0.15164556831E+02  0.54367090521E+02  0.40000014461E+02 0.  0.
         12    1    3    3    0    0  0.32975095684E+02 -0.62015043027E+01  0.15164556831E+02  0.36820909479E+02  0.00000000000E+00 0. -1.
         11    1    4    4    0    0 -0.11913368378E+01 -0.60931451939E+01 -0.99384598749E+01  0.11718305627E+02  0.51100000000E-03 0. -1.
        -11    1    4    4    0    0 -0.33456960904E+02  0.38725644227E+01 -0.50767441323E+01  0.34060803270E+02  0.51100000000E-03 0.  1.
        -12    1    4    4    0    0  0.16732020581E+01  0.84220850739E+01 -0.14935282429E+00  0.85879816247E+01  0.00000000000E+00 0.  1.
</event>
<event>
 8    1  0.1248739E-006  0.9118800E+02  0.7816164E-02  0.1184000E+00
        -11   -1    0    0    0    0  0.00000000000E+00  0.00000000000E+00  0.45593999997E+02  0.45594000000E+02  0.51100000000E-03 0. -1.
         11   -1    0    0    0    0 -0.00000000000E+00 -0.00000000000E+00 -0.45593999997E+02  0.45594000000E+02  0.51100000000E-03 0.  1.
         23    2    1    2    0    0  0.35527136788E-14 -0.35527136788E-14  0.00000000000E+00  0.91188000000E+02  0.91188000000E+02 0.  0.
    9900012    2    3    3    0    0 -0.19619114903E+02  0.26689573450E+02 -0.16079083358E+02  0.54367083089E+02  0.39999997519E+02 0.  0.
         12    1    3    3    0    0  0.19619114903E+02 -0.26689573450E+02  0.16079083358E+02  0.36820916911E+02  0.00000000000E+00 0. -1.
         11    1    4    4    0    0 -0.12248776814E+02  0.16166931854E+02 -0.11517693640E+02  0.23325082766E+02  0.51100000000E-03 0. -1.
        -11    1    4    4    0    0 -0.63096354870E+01  0.37516246120E+01 -0.16058690575E+02  0.17656945672E+02  0.51100000000E-03 0.  1.
         12    1    4    4    0    0 -0.10607026024E+01  0.67710169844E+01  0.11497300858E+02  0.13385054652E+02  0.00000000000E+00 0. -1.
</event>
<event>
 8    1  0.1248739E-006  0.9118800E+02  0.7816164E-02  0.1184000E+00
        -11   -1    0    0    0    0  0.00000000000E+00  0.00000000000E+00  0.45593999997E+02  0.45594000000E+02  0.51100000000E-03 0. -1.
         11   -1    0    0    0    0 -0.00000000000E+00 -0.00000000000E+00 -0.45593999997E+02  0.45594000000E+02  0.51100000000E-03 0.  1.
         23    2    1    2    0    0  0.71054273576E-14  0.00000000000E+00  0.35527136788E-14  0.91188000000E+02  0.91188000000E+02 0.  0.
    9900012    2    3    3    0    0  0.34350376144E+02  0.60062894123E+01  0.11821866446E+02  0.54367076872E+02  0.39999983346E+02 0.  0.
        -12    1    3    3    0    0 -0.34350376144E+02 -0.60062894123E+01 -0.11821866446E+02  0.36820923128E+02  0.00000000000E+00 0.  1.
         11    1    4    4    0    0  0.33810623704E+02  0.51482389325E+00  0.21774535066E+02  0.40218822664E+02  0.51100000000E-03 0. -1.
        -11    1    4    4    0    0  0.28146479051E+01  0.57624596847E+01 -0.35109879922E+01  0.73113077756E+01  0.51100000000E-03 0.  1.
         12    1    4    4    0    0 -0.22748954652E+01 -0.27099416566E+00 -0.64416806276E+01  0.68369464327E+01  0.00000000000E+00 0. -1.
</event>
<event>
 8    1  0.1248739E-006  0.9118800E+02  0.7816164E-02  0.1184000E+00
        -11   -1    0    0    0    0  0.00000000000E+00  0.00000000000E+00  0.45593999997E+02  0.45594000000E+02  0.51100000000E-03 0.  1.
         11   -1    0    0    0    0 -0.00000000000E+00 -0.00000000000E+00 -0.45593999997E+02  0.45594000000E+02  0.51100000000E-03 0. -1.
         23    2    1    2    0    0  0.35527136788E-14  0.35527136788E-14  0.00000000000E+00  0.91188000000E+02  0.91188000000E+02 0.  0.
    9900012    2    3    3    0    0  0.26212265616E+02 -0.20244896642E+02  0.16088528632E+02  0.54367089333E+02  0.40000011754E+02 0.  0.
         12    1    3    3    0    0 -0.26212265616E+02  0.20244896642E+02 -0.16088528632E+02  0.36820910667E+02  0.00000000000E+00 0. -1.
         11    1    4    4    0    0  0.12515109592E+02 -0.99536564627E+00 -0.33397290959E+01  0.12991247499E+02  0.51100000000E-03 0.  1.
        -11    1    4    4    0    0  0.11310191336E+02 -0.12885759405E+02 -0.34675753850E+01  0.17492492756E+02  0.51100000000E-03 0. -1.
         12    1    4    4    0    0  0.23869646876E+01 -0.63637715902E+01  0.22895833113E+02  0.23883349079E+02  0.00000000000E+00 0. -1.
</event>
<event>
 8    1  0.1248739E-006  0.9118800E+02  0.7816164E-02  0.1184000E+00
        -11   -1    0    0    0    0  0.00000000000E+00  0.00000000000E+00  0.45593999997E+02  0.45594000000E+02  0.51100000000E-03 0.  1.
         11   -1    0    0    0    0 -0.00000000000E+00 -0.00000000000E+00 -0.45593999997E+02  0.45594000000E+02  0.51100000000E-03 0. -1.
         23    2    1    2    0    0  0.00000000000E+00  0.00000000000E+00 -0.22204460493E-15  0.91188000000E+02  0.91188000000E+02 0.  0.
    9900012    2    3    3    0    0 -0.18160431502E+02 -0.32025840152E+02  0.57102113228E+00  0.54367057930E+02  0.39999940164E+02 0.  0.
         12    1    3    3    0    0  0.18160431502E+02  0.32025840152E+02 -0.57102113228E+00  0.36820942070E+02  0.00000000000E+00 0. -1.
         11    1    4    4    0    0 -0.85504364726E+00 -0.11114942026E+02  0.14242259197E+02  0.18086320333E+02  0.51100000000E-03 0. -1.
        -11    1    4    4    0    0 -0.14980794484E+02 -0.13244561511E+02  0.49954026231E+00  0.20002303710E+02  0.51100000000E-03 0.  1.
        -12    1    4    4    0    0 -0.23245933709E+01 -0.76663366151E+01 -0.14170778327E+02  0.16278433888E+02  0.00000000000E+00 0.  1.
</event>
<event>
 8    1  0.1248739E-006  0.9118800E+02  0.7816164E-02  0.1184000E+00
        -11   -1    0    0    0    0  0.00000000000E+00  0.00000000000E+00  0.45593999997E+02  0.45594000000E+02  0.51100000000E-03 0.  1.
         11   -1    0    0    0    0 -0.00000000000E+00 -0.00000000000E+00 -0.45593999997E+02  0.45594000000E+02  0.51100000000E-03 0. -1.
         23    2    1    2    0    0  0.00000000000E+00  0.00000000000E+00 -0.17763568394E-14  0.91188000000E+02  0.91188000000E+02 0.  0.
    9900012    2    3    3    0    0  0.32165460978E+02  0.10910735029E+02  0.14216862128E+02  0.54367079486E+02  0.39999989303E+02 0.  0.
         12    1    3    3    0    0 -0.32165460978E+02 -0.10910735029E+02 -0.14216862128E+02  0.36820920514E+02  0.00000000000E+00 0. -1.
         11    1    4    4    0    0  0.95370959109E+01  0.78106513832E+01 -0.10626443816E+02  0.16275250593E+02  0.51100000000E-03 0. -1.
        -11    1    4    4    0    0  0.25293244108E+02  0.12650783725E+01  0.23627608041E+02  0.34635422370E+02  0.51100000000E-03 0.  1.
        -12    1    4    4    0    0 -0.26648790408E+01  0.18350052735E+01  0.12156979027E+01  0.34564065222E+01  0.00000000000E+00 0.  1.
</event>
<event>
 8    1  0.1248739E-006  0.9118800E+02  0.7816164E-02  0.1184000E+00
        -11   -1    0    0    0    0  0.00000000000E+00  0.00000000000E+00  0.45593999997E+02  0.45594000000E+02  0.51100000000E-03 0. -1.
         11   -1    0    0    0    0 -0.00000000000E+00 -0.00000000000E+00 -0.45593999997E+02  0.45594000000E+02  0.51100000000E-03 0.  1.
         23    2    1    2    0    0  0.17763568394E-14 -0.35527136788E-14  0.00000000000E+00  0.91188000000E+02  0.91188000000E+02 0.  0.
    9900012    2    3    3    0    0 -0.77818414944E+01  0.23326814568E+02  0.27405855905E+02  0.54367105485E+02  0.40000048575E+02 0.  0.
        -12    1    3    3    0    0  0.77818414944E+01 -0.23326814568E+02 -0.27405855905E+02  0.36820894515E+02  0.00000000000E+00 0.  1.
         11    1    4    4    0    0  0.12783797567E+02  0.75230461336E+01  0.10505905023E+02  0.18176791356E+02  0.51100000000E-03 0. -1.
        -11    1    4    4    0    0  0.24644816241E+01  0.62420945355E+01  0.59000666463E+01  0.89357820339E+01  0.51100000000E-03 0.  1.
        -12    1    4    4    0    0 -0.23030120686E+02  0.95616738991E+01  0.10999884236E+02  0.27254532096E+02  0.00000000000E+00 0.  1.
</event>
<event>
 8    1  0.1248739E-006  0.9118800E+02  0.7816164E-02  0.1184000E+00
        -11   -1    0    0    0    0  0.00000000000E+00  0.00000000000E+00  0.45593999997E+02  0.45594000000E+02  0.51100000000E-03 0. -1.
         11   -1    0    0    0    0 -0.00000000000E+00 -0.00000000000E+00 -0.45593999997E+02  0.45594000000E+02  0.51100000000E-03 0.  1.
         23    2    1    2    0    0  0.17763568394E-14  0.00000000000E+00 -0.22204460493E-15  0.91188000000E+02  0.91188000000E+02 0.  0.
    9900012    2    3    3    0    0 -0.15550042721E+02  0.33316882487E+02  0.19903503776E+01  0.54367082278E+02  0.39999995670E+02 0.  0.
        -12    1    3    3    0    0  0.15550042721E+02 -0.33316882487E+02 -0.19903503776E+01  0.36820917722E+02  0.00000000000E+00 0.  1.
         11    1    4    4    0    0 -0.61402531020E+00  0.11777189070E+02  0.12669180760E+01  0.11861040897E+02  0.51100000000E-03 0. -1.
        -11    1    4    4    0    0 -0.72809449759E+01 -0.86352793147E+01 -0.91481375399E+00  0.11332126590E+02  0.51100000000E-03 0.  1.
        -12    1    4    4    0    0 -0.76550724350E+01  0.30174972731E+02  0.16382460556E+01  0.31173914792E+02  0.00000000000E+00 0.  1.
</event>
<event>
 8    1  0.1248739E-006  0.9118800E+02  0.7816164E-02  0.1184000E+00
        -11   -1    0    0    0    0  0.00000000000E+00  0.00000000000E+00  0.45593999997E+02  0.45594000000E+02  0.51100000000E-03 0.  1.
         11   -1    0    0    0    0 -0.00000000000E+00 -0.00000000000E+00 -0.45593999997E+02  0.45594000000E+02  0.51100000000E-03 0. -1.
         23    2    1    2    0    0  0.00000000000E+00 -0.35527136788E-14  0.00000000000E+00  0.91188000000E+02  0.91188000000E+02 0.  0.
    9900012    2    3    3    0    0  0.16886775247E+02  0.19393010836E+02  0.26353899097E+02  0.54367081419E+02  0.39999993712E+02 0.  0.
         12    1    3    3    0    0 -0.16886775247E+02 -0.19393010836E+02 -0.26353899097E+02  0.36820918581E+02  0.00000000000E+00 0. -1.
         11    1    4    4    0    0  0.26679594385E+02  0.14835372886E+02  0.10684794755E+02  0.32342756290E+02  0.51100000000E-03 0. -1.
        -11    1    4    4    0    0 -0.78347615108E+01  0.73065415010E+01  0.72005259856E+01  0.12908005708E+02  0.51100000000E-03 0.  1.
         12    1    4    4    0    0 -0.19580576279E+01 -0.27489035507E+01  0.84685783564E+01  0.91163194208E+01  0.00000000000E+00 0. -1.
</event>
<event>
 8    1  0.1248739E-006  0.9118800E+02  0.7816164E-02  0.1184000E+00
        -11   -1    0    0    0    0  0.00000000000E+00  0.00000000000E+00  0.45593999997E+02  0.45594000000E+02  0.51100000000E-03 0. -1.
         11   -1    0    0    0    0 -0.00000000000E+00 -0.00000000000E+00 -0.45593999997E+02  0.45594000000E+02  0.51100000000E-03 0.  1.
         23    2    1    2    0    0 -0.22204460493E-15 -0.17763568394E-14  0.00000000000E+00  0.91188000000E+02  0.91188000000E+02 0.  0.
    9900012    2    3    3    0    0 -0.84582533994E+00 -0.15004233164E+02 -0.33614472048E+02  0.54367147696E+02  0.40000144802E+02 0.  0.
         12    1    3    3    0    0  0.84582533994E+00  0.15004233164E+02  0.33614472048E+02  0.36820852304E+02  0.00000000000E+00 0. -1.
         11    1    4    4    0    0  0.10100742794E+02  0.89981388376E+01 -0.16516997639E+02  0.21349536735E+02  0.51100000000E-03 0. -1.
        -11    1    4    4    0    0  0.19443577209E+01 -0.24119815201E+01 -0.19978604555E+01  0.36864113255E+01  0.51100000000E-03 0.  1.
        -12    1    4    4    0    0 -0.12890925855E+02 -0.21590390481E+02 -0.15099613954E+02  0.29331199636E+02  0.00000000000E+00 0.  1.
</event>
<event>
 8    1  0.1248739E-006  0.9118800E+02  0.7816164E-02  0.1184000E+00
        -11   -1    0    0    0    0  0.00000000000E+00  0.00000000000E+00  0.45593999997E+02  0.45594000000E+02  0.51100000000E-03 0.  1.
         11   -1    0    0    0    0 -0.00000000000E+00 -0.00000000000E+00 -0.45593999997E+02  0.45594000000E+02  0.51100000000E-03 0. -1.
         23    2    1    2    0    0 -0.35527136788E-14  0.00000000000E+00  0.00000000000E+00  0.91188000000E+02  0.91188000000E+02 0.  0.
    9900012    2    3    3    0    0 -0.24631473873E+02 -0.10024207617E+02  0.25467388233E+02  0.54367053422E+02  0.39999929885E+02 0.  0.
         12    1    3    3    0    0  0.24631473873E+02  0.10024207617E+02 -0.25467388233E+02  0.36820946578E+02  0.00000000000E+00 0. -1.
         11    1    4    4    0    0 -0.42896769888E+01  0.30354427829E+01  0.70584679973E+00  0.53022128892E+01  0.51100000000E-03 0. -1.
        -11    1    4    4    0    0 -0.18085217663E+02 -0.23949565173E+02  0.22987000576E+02  0.37802896260E+02  0.51100000000E-03 0.  1.
         12    1    4    4    0    0 -0.22565792219E+01  0.10889914773E+02  0.17745408569E+01  0.11261944273E+02  0.00000000000E+00 0. -1.
</event>
<event>
 8    1  0.1248739E-006  0.9118800E+02  0.7816164E-02  0.1184000E+00
        -11   -1    0    0    0    0  0.00000000000E+00  0.00000000000E+00  0.45593999997E+02  0.45594000000E+02  0.51100000000E-03 0.  1.
         11   -1    0    0    0    0 -0.00000000000E+00 -0.00000000000E+00 -0.45593999997E+02  0.45594000000E+02  0.51100000000E-03 0. -1.
         23    2    1    2    0    0 -0.17763568394E-14 -0.17763568394E-14  0.00000000000E+00  0.91188000000E+02  0.91188000000E+02 0.  0.
    9900012    2    3    3    0    0  0.71888920608E+01  0.75341098848E+01  0.35317664731E+02  0.54367076290E+02  0.39999982018E+02 0.  0.
        -12    1    3    3    0    0 -0.71888920608E+01 -0.75341098848E+01 -0.35317664731E+02  0.36820923710E+02  0.00000000000E+00 0.  1.
         11    1    4    4    0    0  0.18501863934E+02  0.14880289398E+02  0.16515871272E+02  0.28922586083E+02  0.51100000000E-03 0. -1.
        -11    1    4    4    0    0 -0.13555119658E+01 -0.21937738249E+01 -0.93711808222E+00  0.27437650857E+01  0.51100000000E-03 0.  1.
         12    1    4    4    0    0 -0.99574599073E+01 -0.51524056885E+01  0.19738911541E+02  0.22700725121E+02  0.00000000000E+00 0. -1.
</event>
<event>
 8    1  0.1248739E-006  0.9118800E+02  0.7816164E-02  0.1184000E+00
        -11   -1    0    0    0    0  0.00000000000E+00  0.00000000000E+00  0.45593999997E+02  0.45594000000E+02  0.51100000000E-03 0. -1.
         11   -1    0    0    0    0 -0.00000000000E+00 -0.00000000000E+00 -0.45593999997E+02  0.45594000000E+02  0.51100000000E-03 0.  1.
         23    2    1    2    0    0  0.66613381478E-15  0.00000000000E+00  0.35527136788E-14  0.91188000000E+02  0.91188000000E+02 0.  0.
    9900012    2    3    3    0    0  0.11003520591E+01 -0.20589081716E+02 -0.30506705692E+02  0.54367079958E+02  0.39999990381E+02 0.  0.
         12    1    3    3    0    0 -0.11003520591E+01  0.20589081716E+02  0.30506705692E+02  0.36820920042E+02  0.00000000000E+00 0. -1.
         11    1    4    4    0    0  0.38722373251E+01  0.18206960208E+01 -0.58102120179E+01  0.72157965504E+01  0.51100000000E-03 0. -1.
        -11    1    4    4    0    0  0.71184745898E+01 -0.23866585664E+02 -0.27164860728E+02  0.36853985542E+02  0.51100000000E-03 0.  1.
         12    1    4    4    0    0 -0.98903598558E+01  0.14568079268E+01  0.24683670541E+01  0.10297297865E+02  0.00000000000E+00 0. -1.
</event>
<event>
 8    1  0.1248739E-006  0.9118800E+02  0.7816164E-02  0.1184000E+00
        -11   -1    0    0    0    0  0.00000000000E+00  0.00000000000E+00  0.45593999997E+02  0.45594000000E+02  0.51100000000E-03 0.  1.
         11   -1    0    0    0    0 -0.00000000000E+00 -0.00000000000E+00 -0.45593999997E+02  0.45594000000E+02  0.51100000000E-03 0. -1.
         23    2    1    2    0    0  0.00000000000E+00 -0.17763568394E-14  0.71054273576E-14  0.91188000000E+02  0.91188000000E+02 0.  0.
    9900012    2    3    3    0    0  0.40682413259E+01  0.52072409969E+01  0.36223115350E+02  0.54367081598E+02  0.39999994119E+02 0.  0.
         12    1    3    3    0    0 -0.40682413259E+01 -0.52072409969E+01 -0.36223115350E+02  0.36820918402E+02  0.00000000000E+00 0. -1.
         11    1    4    4    0    0  0.54789905423E+01  0.20948650434E+01  0.13095254927E+01  0.60102124912E+01  0.51100000000E-03 0. -1.
        -11    1    4    4    0    0 -0.37252824328E+01 -0.14615089242E+02  0.11880227651E+02  0.19199436764E+02  0.51100000000E-03 0.  1.
        -12    1    4    4    0    0  0.23145332164E+01  0.17727465196E+02  0.23033362207E+02  0.29157432343E+02  0.00000000000E+00 0.  1.
</event>
<event>
 8    1  0.1248739E-006  0.9118800E+02  0.7816164E-02  0.1184000E+00
        -11   -1    0    0    0    0  0.00000000000E+00  0.00000000000E+00  0.45593999997E+02  0.45594000000E+02  0.51100000000E-03 0.  1.
         11   -1    0    0    0    0 -0.00000000000E+00 -0.00000000000E+00 -0.45593999997E+02  0.45594000000E+02  0.51100000000E-03 0. -1.
         23    2    1    2    0    0  0.35527136788E-14 -0.33306690739E-15  0.00000000000E+00  0.91188000000E+02  0.91188000000E+02 0.  0.
    9900012    2    3    3    0    0  0.18673026791E+02  0.90529034150E+00 -0.31721938903E+02  0.54367042816E+02  0.39999905708E+02 0.  0.
        -12    1    3    3    0    0 -0.18673026791E+02 -0.90529034150E+00  0.31721938903E+02  0.36820957184E+02  0.00000000000E+00 0.  1.
         11    1    4    4    0    0  0.26269000806E+01 -0.69897931749E+01 -0.28621645818E+02  0.29579662308E+02  0.51100000000E-03 0. -1.
        -11    1    4    4    0    0 -0.33448367665E+01 -0.54855388813E+00 -0.99902156595E+00  0.35336792035E+01  0.51100000000E-03 0.  1.
        -12    1    4    4    0    0  0.19390963476E+02  0.84436374045E+01 -0.21012715198E+01  0.21253701305E+02  0.00000000000E+00 0.  1.
</event>
<event>
 8    1  0.1248739E-006  0.9118800E+02  0.7816164E-02  0.1184000E+00
        -11   -1    0    0    0    0  0.00000000000E+00  0.00000000000E+00  0.45593999997E+02  0.45594000000E+02  0.51100000000E-03 0. -1.
         11   -1    0    0    0    0 -0.00000000000E+00 -0.00000000000E+00 -0.45593999997E+02  0.45594000000E+02  0.51100000000E-03 0.  1.
         23    2    1    2    0    0  0.00000000000E+00  0.00000000000E+00  0.00000000000E+00  0.91188000000E+02  0.91188000000E+02 0.  0.
    9900012    2    3    3    0    0 -0.13278280106E+02 -0.14038751270E+01  0.34314659611E+02  0.54367089471E+02  0.40000012068E+02 0.  0.
        -12    1    3    3    0    0  0.13278280106E+02  0.14038751270E+01 -0.34314659611E+02  0.36820910529E+02  0.00000000000E+00 0.  1.
         11    1    4    4    0    0 -0.76250273928E+01 -0.73310584272E+01 -0.12424139501E+00  0.10578322012E+02  0.51100000000E-03 0. -1.
        -11    1    4    4    0    0  0.27554790085E+01 -0.91981664153E+01  0.10228567741E+02  0.14029345255E+02  0.51100000000E-03 0.  1.
         12    1    4    4    0    0 -0.84087317212E+01  0.15125349716E+02  0.24210333265E+02  0.29759422205E+02  0.00000000000E+00 0. -1.
</event>
<event>
 8    1  0.1248739E-006  0.9118800E+02  0.7816164E-02  0.1184000E+00
        -11   -1    0    0    0    0  0.00000000000E+00  0.00000000000E+00  0.45593999997E+02  0.45594000000E+02  0.51100000000E-03 0.  1.
         11   -1    0    0    0    0 -0.00000000000E+00 -0.00000000000E+00 -0.45593999997E+02  0.45594000000E+02  0.51100000000E-03 0. -1.
         23    2    1    2    0    0 -0.71054273576E-14  0.00000000000E+00  0.00000000000E+00  0.91188000000E+02  0.91188000000E+02 0.  0.
    9900012    2    3    3    0    0  0.32285601697E+02  0.12888936564E+02  0.12136513128E+02  0.54367085921E+02  0.40000003975E+02 0.  0.
        -12    1    3    3    0    0 -0.32285601697E+02 -0.12888936564E+02 -0.12136513128E+02  0.36820914079E+02  0.00000000000E+00 0.  1.
         11    1    4    4    0    0  0.71013569469E+01 -0.36322675205E+01 -0.81984523590E+01  0.11438411567E+02  0.51100000000E-03 0. -1.
        -11    1    4    4    0    0  0.70455705599E+01 -0.57338757314E+01  0.53597491618E+01  0.10547241666E+02  0.51100000000E-03 0.  1.
         12    1    4    4    0    0  0.18138674190E+02  0.22255079816E+02  0.14975216326E+02  0.32381432689E+02  0.00000000000E+00 0. -1.
</event>
<event>
 8    1  0.1248739E-006  0.9118800E+02  0.7816164E-02  0.1184000E+00
        -11   -1    0    0    0    0  0.00000000000E+00  0.00000000000E+00  0.45593999997E+02  0.45594000000E+02  0.51100000000E-03 0. -1.
         11   -1    0    0    0    0 -0.00000000000E+00 -0.00000000000E+00 -0.45593999997E+02  0.45594000000E+02  0.51100000000E-03 0.  1.
         23    2    1    2    0    0  0.00000000000E+00  0.00000000000E+00  0.00000000000E+00  0.91188000000E+02  0.91188000000E+02 0.  0.
    9900012    2    3    3    0    0  0.26480137755E+02 -0.57702436397E+01 -0.24925625195E+02  0.54367079336E+02  0.39999988962E+02 0.  0.
         12    1    3    3    0    0 -0.26480137755E+02  0.57702436397E+01  0.24925625195E+02  0.36820920664E+02  0.00000000000E+00 0. -1.
         11    1    4    4    0    0  0.40258793659E-01 -0.19940076823E+01  0.82551209479E-01  0.19961218327E+01  0.51100000000E-03 0. -1.
        -11    1    4    4    0    0  0.32225534792E+02 -0.49459449110E+01 -0.69000225539E+01  0.33325032261E+02  0.51100000000E-03 0.  1.
        -12    1    4    4    0    0 -0.57856558310E+01  0.11697089536E+01 -0.18108153851E+02  0.19045925242E+02  0.00000000000E+00 0.  1.
</event>
<event>
 8    1  0.1248739E-006  0.9118800E+02  0.7816164E-02  0.1184000E+00
        -11   -1    0    0    0    0  0.00000000000E+00  0.00000000000E+00  0.45593999997E+02  0.45594000000E+02  0.51100000000E-03 0.  1.
         11   -1    0    0    0    0 -0.00000000000E+00 -0.00000000000E+00 -0.45593999997E+02  0.45594000000E+02  0.51100000000E-03 0. -1.
         23    2    1    2    0    0  0.00000000000E+00 -0.22204460493E-15 -0.35527136788E-14  0.91188000000E+02  0.91188000000E+02 0.  0.
    9900012    2    3    3    0    0 -0.26644457179E+02 -0.10682325313E+01 -0.25391144492E+02  0.54367103247E+02  0.40000043472E+02 0.  0.
        -12    1    3    3    0    0  0.26644457179E+02  0.10682325313E+01  0.25391144492E+02  0.36820896753E+02  0.00000000000E+00 0.  1.
         11    1    4    4    0    0 -0.29961024289E+01  0.92210502573E+01 -0.15497961267E+02  0.18280897169E+02  0.51100000000E-03 0. -1.
        -11    1    4    4    0    0  0.44258764464E+01  0.54741058523E+00 -0.17584999543E+00  0.44630666755E+01  0.51100000000E-03 0.  1.
         12    1    4    4    0    0 -0.28074231197E+02 -0.10836693374E+02 -0.97173332294E+01  0.31623139402E+02  0.00000000000E+00 0. -1.
</event>
<event>
 8    1  0.1248739E-006  0.9118800E+02  0.7816164E-02  0.1184000E+00
        -11   -1    0    0    0    0  0.00000000000E+00  0.00000000000E+00  0.45593999997E+02  0.45594000000E+02  0.51100000000E-03 0. -1.
         11   -1    0    0    0    0 -0.00000000000E+00 -0.00000000000E+00 -0.45593999997E+02  0.45594000000E+02  0.51100000000E-03 0.  1.
         23    2    1    2    0    0  0.00000000000E+00  0.17763568394E-14  0.35527136788E-14  0.91188000000E+02  0.91188000000E+02 0.  0.
    9900012    2    3    3    0    0 -0.32887585520E+02 -0.48540836120E+01 -0.15831134328E+02  0.54367079002E+02  0.39999988201E+02 0.  0.
         12    1    3    3    0    0  0.32887585520E+02  0.48540836120E+01  0.15831134328E+02  0.36820920998E+02  0.00000000000E+00 0. -1.
         11    1    4    4    0    0 -0.21316180324E+01  0.84722865484E+01 -0.25302279121E+01  0.90953553170E+01  0.51100000000E-03 0. -1.
        -11    1    4    4    0    0 -0.14316881674E+02  0.43446463906E+01 -0.14858752591E+02  0.21086288956E+02  0.51100000000E-03 0.  1.
         12    1    4    4    0    0 -0.16439085813E+02 -0.17671016551E+02  0.15578461746E+01  0.24185434729E+02  0.00000000000E+00 0. -1.
</event>
<event>
 8    1  0.1248739E-006  0.9118800E+02  0.7816164E-02  0.1184000E+00
        -11   -1    0    0    0    0  0.00000000000E+00  0.00000000000E+00  0.45593999997E+02  0.45594000000E+02  0.51100000000E-03 0.  1.
         11   -1    0    0    0    0 -0.00000000000E+00 -0.00000000000E+00 -0.45593999997E+02  0.45594000000E+02  0.51100000000E-03 0. -1.
         23    2    1    2    0    0  0.00000000000E+00 -0.35527136788E-14  0.00000000000E+00  0.91188000000E+02  0.91188000000E+02 0.  0.
    9900012    2    3    3    0    0  0.25150174169E+02 -0.23038912352E+02 -0.13872984126E+02  0.54367049012E+02  0.39999919832E+02 0.  0.
         12    1    3    3    0    0 -0.25150174169E+02  0.23038912352E+02  0.13872984126E+02  0.36820950988E+02  0.00000000000E+00 0. -1.
         11    1    4    4    0    0  0.15263432245E+02  0.45814529207E+01 -0.17668079727E+01  0.16033829407E+02  0.51100000000E-03 0. -1.
        -11    1    4    4    0    0  0.14726282894E+02 -0.24544327308E+02 -0.14539073662E+02  0.32104081891E+02  0.51100000000E-03 0.  1.
        -12    1    4    4    0    0 -0.48395409705E+01 -0.30760379649E+01  0.24328975088E+01  0.62291377136E+01  0.00000000000E+00 0.  1.
</event>
<event>
 8    1  0.1248739E-006  0.9118800E+02  0.7816164E-02  0.1184000E+00
        -11   -1    0    0    0    0  0.00000000000E+00  0.00000000000E+00  0.45593999997E+02  0.45594000000E+02  0.51100000000E-03 0. -1.
         11   -1    0    0    0    0 -0.00000000000E+00 -0.00000000000E+00 -0.45593999997E+02  0.45594000000E+02  0.51100000000E-03 0.  1.
         23    2    1    2    0    0  0.00000000000E+00  0.44408920985E-15  0.00000000000E+00  0.91188000000E+02  0.91188000000E+02 0.  0.
    9900012    2    3    3    0    0  0.72467799361E+01  0.21655463158E+01  0.36035739728E+02  0.54367082738E+02  0.39999996718E+02 0.  0.
        -12    1    3    3    0    0 -0.72467799361E+01 -0.21655463158E+01 -0.36035739728E+02  0.36820917262E+02  0.00000000000E+00 0.  1.
         11    1    4    4    0    0  0.18408449560E+01  0.43585922442E+01  0.20123763843E+02  0.20672491577E+02  0.51100000000E-03 0. -1.
        -11    1    4    4    0    0 -0.98665912129E+01  0.18966143951E+01  0.14742711052E+02  0.17840804291E+02  0.51100000000E-03 0.  1.
        -12    1    4    4    0    0  0.15272526193E+02 -0.40896603236E+01  0.11692648319E+01  0.15853786870E+02  0.00000000000E+00 0.  1.
</event>
<event>
 8    1  0.1248739E-006  0.9118800E+02  0.7816164E-02  0.1184000E+00
        -11   -1    0    0    0    0  0.00000000000E+00  0.00000000000E+00  0.45593999997E+02  0.45594000000E+02  0.51100000000E-03 0.  1.
         11   -1    0    0    0    0 -0.00000000000E+00 -0.00000000000E+00 -0.45593999997E+02  0.45594000000E+02  0.51100000000E-03 0. -1.
         23    2    1    2    0    0  0.88817841970E-15 -0.22204460493E-15  0.00000000000E+00  0.91188000000E+02  0.91188000000E+02 0.  0.
    9900012    2    3    3    0    0 -0.79793585612E+01 -0.16736974129E+01  0.35907076129E+02  0.54366952456E+02  0.39999699714E+02 0.  0.
         12    1    3    3    0    0  0.79793585612E+01  0.16736974129E+01 -0.35907076129E+02  0.36821047544E+02  0.00000000000E+00 0. -1.
         11    1    4    4    0    0 -0.14527394653E+01 -0.24239720259E+00 -0.23090242098E+01  0.27387591022E+01  0.51100000000E-03 0. -1.
        -11    1    4    4    0    0 -0.14304566620E+02 -0.25224116290E+01  0.40840977642E+02  0.43347071892E+02  0.51100000000E-03 0.  1.
         12    1    4    4    0    0  0.77779475241E+01  0.10911114186E+01 -0.26248773029E+01  0.82811214621E+01  0.00000000000E+00 0. -1.
</event>
<event>
 8    1  0.1248739E-006  0.9118800E+02  0.7816164E-02  0.1184000E+00
        -11   -1    0    0    0    0  0.00000000000E+00  0.00000000000E+00  0.45593999997E+02  0.45594000000E+02  0.51100000000E-03 0. -1.
         11   -1    0    0    0    0 -0.00000000000E+00 -0.00000000000E+00 -0.45593999997E+02  0.45594000000E+02  0.51100000000E-03 0.  1.
         23    2    1    2    0    0  0.00000000000E+00 -0.71054273576E-14  0.00000000000E+00  0.91188000000E+02  0.91188000000E+02 0.  0.
    9900012    2    3    3    0    0  0.10224827750E+02 -0.32900102203E+02  0.12992962118E+02  0.54367069918E+02  0.39999967492E+02 0.  0.
        -12    1    3    3    0    0 -0.10224827750E+02  0.32900102203E+02 -0.12992962118E+02  0.36820930082E+02  0.00000000000E+00 0.  1.
         11    1    4    4    0    0  0.16180674901E+02 -0.25526554525E+02  0.94504764132E+01  0.31665923813E+02  0.51100000000E-03 0. -1.
        -11    1    4    4    0    0  0.49036157556E+01  0.28228231826E+01 -0.30313790064E+01  0.64189591945E+01  0.51100000000E-03 0.  1.
         12    1    4    4    0    0 -0.10859462907E+02 -0.10196370861E+02  0.65738647116E+01  0.16282186911E+02  0.00000000000E+00 0. -1.
</event>
<event>
 8    1  0.1248739E-006  0.9118800E+02  0.7816164E-02  0.1184000E+00
        -11   -1    0    0    0    0  0.00000000000E+00  0.00000000000E+00  0.45593999997E+02  0.45594000000E+02  0.51100000000E-03 0. -1.
         11   -1    0    0    0    0 -0.00000000000E+00 -0.00000000000E+00 -0.45593999997E+02  0.45594000000E+02  0.51100000000E-03 0.  1.
         23    2    1    2    0    0  0.00000000000E+00 -0.44408920985E-15 -0.44408920985E-15  0.91188000000E+02  0.91188000000E+02 0.  0.
    9900012    2    3    3    0    0 -0.36656483338E+02 -0.17527776433E+00  0.34715096624E+01  0.54367083766E+02  0.39999999061E+02 0.  0.
        -12    1    3    3    0    0  0.36656483338E+02  0.17527776433E+00 -0.34715096624E+01  0.36820916234E+02  0.00000000000E+00 0.  1.
         11    1    4    4    0    0  0.45293482217E+01  0.77169213555E+01  0.36135480089E+01  0.96500569943E+01  0.51100000000E-03 0. -1.
        -11    1    4    4    0    0 -0.33064043651E+02 -0.36872238735E+01 -0.60698836622E+01  0.33818191708E+02  0.51100000000E-03 0.  1.
        -12    1    4    4    0    0 -0.81217879082E+01 -0.42049752463E+01  0.59278453157E+01  0.10898835063E+02  0.00000000000E+00 0.  1.
</event>
<event>
 8    1  0.1248739E-006  0.9118800E+02  0.7816164E-02  0.1184000E+00
        -11   -1    0    0    0    0  0.00000000000E+00  0.00000000000E+00  0.45593999997E+02  0.45594000000E+02  0.51100000000E-03 0.  1.
         11   -1    0    0    0    0 -0.00000000000E+00 -0.00000000000E+00 -0.45593999997E+02  0.45594000000E+02  0.51100000000E-03 0. -1.
         23    2    1    2    0    0 -0.88817841970E-15  0.71054273576E-14  0.35527136788E-14  0.91188000000E+02  0.91188000000E+02 0.  0.
    9900012    2    3    3    0    0  0.55176501101E+01  0.32118051537E+02  0.17139573422E+02  0.54367100033E+02  0.40000036146E+02 0.  0.
         12    1    3    3    0    0 -0.55176501101E+01 -0.32118051537E+02 -0.17139573422E+02  0.36820899967E+02  0.00000000000E+00 0. -1.
         11    1    4    4    0    0  0.12570481890E+02  0.54606696138E+00 -0.18811022006E+01  0.12722175515E+02  0.51100000000E-03 0. -1.
        -11    1    4    4    0    0  0.57278270994E+01  0.97626928647E+01  0.29724693694E+01  0.11702724028E+02  0.51100000000E-03 0.  1.
        -12    1    4    4    0    0 -0.12780658879E+02  0.21809291711E+02  0.16048206253E+02  0.29942200491E+02  0.00000000000E+00 0.  1.
</event>
<event>
 8    1  0.1248739E-006  0.9118800E+02  0.7816164E-02  0.1184000E+00
        -11   -1    0    0    0    0  0.00000000000E+00  0.00000000000E+00  0.45593999997E+02  0.45594000000E+02  0.51100000000E-03 0.  1.
         11   -1    0    0    0    0 -0.00000000000E+00 -0.00000000000E+00 -0.45593999997E+02  0.45594000000E+02  0.51100000000E-03 0. -1.
         23    2    1    2    0    0  0.35527136788E-14  0.00000000000E+00  0.35527136788E-14  0.91188000000E+02  0.91188000000E+02 0.  0.
    9900012    2    3    3    0    0  0.20500110903E+02 -0.16089117733E+02  0.26012822373E+02  0.54367065951E+02  0.39999958448E+02 0.  0.
         12    1    3    3    0    0 -0.20500110903E+02  0.16089117733E+02 -0.26012822373E+02  0.36820934049E+02  0.00000000000E+00 0. -1.
         11    1    4    4    0    0  0.79526007515E+01 -0.11278986416E+02  0.15011966515E+02  0.20391628974E+02  0.51100000000E-03 0. -1.
        -11    1    4    4    0    0 -0.99097220193E+00 -0.13882799733E+02  0.10899043273E+02  0.17677762835E+02  0.51100000000E-03 0.  1.
         12    1    4    4    0    0  0.13538482353E+02  0.90726684162E+01  0.10181258500E+00  0.16297674142E+02  0.00000000000E+00 0. -1.
</event>
<event>
 8    1  0.1248739E-006  0.9118800E+02  0.7816164E-02  0.1184000E+00
        -11   -1    0    0    0    0  0.00000000000E+00  0.00000000000E+00  0.45593999997E+02  0.45594000000E+02  0.51100000000E-03 0.  1.
         11   -1    0    0    0    0 -0.00000000000E+00 -0.00000000000E+00 -0.45593999997E+02  0.45594000000E+02  0.51100000000E-03 0. -1.
         23    2    1    2    0    0  0.00000000000E+00  0.00000000000E+00  0.71054273576E-14  0.91188000000E+02  0.91188000000E+02 0.  0.
    9900012    2    3    3    0    0 -0.23769726633E+01  0.38830228349E+01 -0.36538369939E+02  0.54367077372E+02  0.39999984484E+02 0.  0.
        -12    1    3    3    0    0  0.23769726633E+01 -0.38830228349E+01  0.36538369939E+02  0.36820922628E+02  0.00000000000E+00 0.  1.
         11    1    4    4    0    0 -0.99972188786E+01  0.15522269214E+01 -0.42254243466E+02  0.43448531446E+02  0.51100000000E-03 0. -1.
        -11    1    4    4    0    0  0.49377653996E+01  0.37906115007E+01  0.34617362078E+01  0.71227719691E+01  0.51100000000E-03 0.  1.
        -12    1    4    4    0    0  0.26824808157E+01 -0.14598155872E+01  0.22541373187E+01  0.37957739563E+01  0.00000000000E+00 0.  1.
</event>
<event>
 8    1  0.1248739E-006  0.9118800E+02  0.7816164E-02  0.1184000E+00
        -11   -1    0    0    0    0  0.00000000000E+00  0.00000000000E+00  0.45593999997E+02  0.45594000000E+02  0.51100000000E-03 0.  1.
         11   -1    0    0    0    0 -0.00000000000E+00 -0.00000000000E+00 -0.45593999997E+02  0.45594000000E+02  0.51100000000E-03 0. -1.
         23    2    1    2    0    0  0.88817841970E-15  0.00000000000E+00  0.00000000000E+00  0.91188000000E+02  0.91188000000E+02 0.  0.
    9900012    2    3    3    0    0 -0.12204188079E+01  0.35256843050E+02 -0.10547323882E+02  0.54367075989E+02  0.39999981333E+02 0.  0.
        -12    1    3    3    0    0  0.12204188079E+01 -0.35256843050E+02  0.10547323882E+02  0.36820924011E+02  0.00000000000E+00 0.  1.
         11    1    4    4    0    0 -0.15948044839E+02  0.48287184923E+01 -0.21638155411E+00  0.16664437515E+02  0.51100000000E-03 0. -1.
        -11    1    4    4    0    0  0.60827092318E+01  0.19828028422E+01 -0.30835745222E+01  0.71020624332E+01  0.51100000000E-03 0.  1.
        -12    1    4    4    0    0  0.86449167988E+01  0.28445321715E+02 -0.72473678061E+01  0.30600576041E+02  0.00000000000E+00 0.  1.
</event>
<event>
 8    1  0.1248739E-006  0.9118800E+02  0.7816164E-02  0.1184000E+00
        -11   -1    0    0    0    0  0.00000000000E+00  0.00000000000E+00  0.45593999997E+02  0.45594000000E+02  0.51100000000E-03 0.  1.
         11   -1    0    0    0    0 -0.00000000000E+00 -0.00000000000E+00 -0.45593999997E+02  0.45594000000E+02  0.51100000000E-03 0. -1.
         23    2    1    2    0    0  0.10658141036E-13 -0.33306690739E-15  0.00000000000E+00  0.91188000000E+02  0.91188000000E+02 0.  0.
    9900012    2    3    3    0    0  0.31736449537E+02  0.43832246178E+00 -0.18665069202E+02  0.54367093383E+02  0.40000020986E+02 0.  0.
        -12    1    3    3    0    0 -0.31736449537E+02 -0.43832246178E+00  0.18665069202E+02  0.36820906617E+02  0.00000000000E+00 0.  1.
         11    1    4    4    0    0  0.54722540452E+01  0.41479610103E+01  0.83654464859E+01  0.10822746419E+02  0.51100000000E-03 0. -1.
        -11    1    4    4    0    0 -0.19740792765E+01  0.40555788127E+01 -0.16904912893E+01  0.48168941816E+01  0.51100000000E-03 0.  1.
         12    1    4    4    0    0  0.28238274768E+02 -0.77652173613E+01 -0.25340024398E+02  0.38727452783E+02  0.00000000000E+00 0. -1.
</event>
<event>
 8    1  0.1248739E-006  0.9118800E+02  0.7816164E-02  0.1184000E+00
        -11   -1    0    0    0    0  0.00000000000E+00  0.00000000000E+00  0.45593999997E+02  0.45594000000E+02  0.51100000000E-03 0. -1.
         11   -1    0    0    0    0 -0.00000000000E+00 -0.00000000000E+00 -0.45593999997E+02  0.45594000000E+02  0.51100000000E-03 0.  1.
         23    2    1    2    0    0  0.00000000000E+00  0.00000000000E+00  0.17763568394E-14  0.91188000000E+02  0.91188000000E+02 0.  0.
    9900012    2    3    3    0    0  0.20478224256E+02 -0.28450882576E+02 -0.11268011083E+02  0.54367102920E+02  0.40000042726E+02 0.  0.
         12    1    3    3    0    0 -0.20478224256E+02  0.28450882576E+02  0.11268011083E+02  0.36820897080E+02  0.00000000000E+00 0. -1.
         11    1    4    4    0    0  0.13050750174E+02 -0.11344984244E+02  0.92679119581E+01  0.19619504069E+02  0.51100000000E-03 0. -1.
        -11    1    4    4    0    0  0.90770544419E+01 -0.11888164776E+00 -0.13542165317E+02  0.16303290831E+02  0.51100000000E-03 0.  1.
         12    1    4    4    0    0 -0.16495803604E+01 -0.16987016684E+02 -0.69937577245E+01  0.18444308019E+02  0.00000000000E+00 0. -1.
</event>
<event>
 8    1  0.1248739E-006  0.9118800E+02  0.7816164E-02  0.1184000E+00
        -11   -1    0    0    0    0  0.00000000000E+00  0.00000000000E+00  0.45593999997E+02  0.45594000000E+02  0.51100000000E-03 0.  1.
         11   -1    0    0    0    0 -0.00000000000E+00 -0.00000000000E+00 -0.45593999997E+02  0.45594000000E+02  0.51100000000E-03 0. -1.
         23    2    1    2    0    0  0.00000000000E+00  0.00000000000E+00  0.00000000000E+00  0.91188000000E+02  0.91188000000E+02 0.  0.
    9900012    2    3    3    0    0  0.24498744917E+02 -0.19127181252E+02  0.19741878535E+02  0.54367091086E+02  0.40000015750E+02 0.  0.
         12    1    3    3    0    0 -0.24498744917E+02  0.19127181252E+02 -0.19741878535E+02  0.36820908914E+02  0.00000000000E+00 0. -1.
         11    1    4    4    0    0  0.22260666323E+02 -0.16264961471E+02  0.10909985856E+02  0.29649857140E+02  0.51100000000E-03 0. -1.
        -11    1    4    4    0    0  0.11723760022E+02 -0.18292194865E+01  0.22585569858E+00  0.11867754802E+02  0.51100000000E-03 0.  1.
         12    1    4    4    0    0 -0.94856814282E+01 -0.10330002943E+01  0.86060369812E+01  0.12849479145E+02  0.00000000000E+00 0. -1.
</event>
<event>
 8    1  0.1248739E-006  0.9118800E+02  0.7816164E-02  0.1184000E+00
        -11   -1    0    0    0    0  0.00000000000E+00  0.00000000000E+00  0.45593999997E+02  0.45594000000E+02  0.51100000000E-03 0.  1.
         11   -1    0    0    0    0 -0.00000000000E+00 -0.00000000000E+00 -0.45593999997E+02  0.45594000000E+02  0.51100000000E-03 0. -1.
         23    2    1    2    0    0  0.00000000000E+00  0.00000000000E+00 -0.88817841970E-15  0.91188000000E+02  0.91188000000E+02 0.  0.
    9900012    2    3    3    0    0  0.30661665122E+02  0.19394130801E+02  0.62856995742E+01  0.54367081534E+02  0.39999993972E+02 0.  0.
        -12    1    3    3    0    0 -0.30661665122E+02 -0.19394130801E+02 -0.62856995742E+01  0.36820918466E+02  0.00000000000E+00 0.  1.
         11    1    4    4    0    0  0.37413582686E+02  0.20950267598E+02  0.11183316463E+02  0.44314291703E+02  0.51100000000E-03 0. -1.
        -11    1    4    4    0    0 -0.14010148042E+01 -0.20459806416E+01 -0.38482860918E+01  0.45780110717E+01  0.51100000000E-03 0.  1.
         12    1    4    4    0    0 -0.53509027597E+01  0.48984384480E+00 -0.10493307966E+01  0.54747787587E+01  0.00000000000E+00 0. -1.
</event>
<event>
 8    1  0.1248739E-006  0.9118800E+02  0.7816164E-02  0.1184000E+00
        -11   -1    0    0    0    0  0.00000000000E+00  0.00000000000E+00  0.45593999997E+02  0.45594000000E+02  0.51100000000E-03 0.  1.
         11   -1    0    0    0    0 -0.00000000000E+00 -0.00000000000E+00 -0.45593999997E+02  0.45594000000E+02  0.51100000000E-03 0. -1.
         23    2    1    2    0    0 -0.17763568394E-14 -0.17763568394E-14  0.00000000000E+00  0.91188000000E+02  0.91188000000E+02 0.  0.
    9900012    2    3    3    0    0  0.15185278890E+02  0.12449909198E+02 -0.31147830196E+02  0.54367078503E+02  0.39999987063E+02 0.  0.
        -12    1    3    3    0    0 -0.15185278890E+02 -0.12449909198E+02  0.31147830196E+02  0.36820921497E+02  0.00000000000E+00 0.  1.
         11    1    4    4    0    0  0.68210228791E+01  0.37524894506E+01 -0.89060776130E+01  0.11829021469E+02  0.51100000000E-03 0. -1.
        -11    1    4    4    0    0  0.19171158222E+02  0.13955203096E+02 -0.11227050479E+02  0.26235999385E+02  0.51100000000E-03 0.  1.
        -12    1    4    4    0    0 -0.10806902212E+02 -0.52577833489E+01 -0.11014702104E+02  0.16302057649E+02  0.00000000000E+00 0.  1.
</event>
<event>
 8    1  0.1248739E-006  0.9118800E+02  0.7816164E-02  0.1184000E+00
        -11   -1    0    0    0    0  0.00000000000E+00  0.00000000000E+00  0.45593999997E+02  0.45594000000E+02  0.51100000000E-03 0. -1.
         11   -1    0    0    0    0 -0.00000000000E+00 -0.00000000000E+00 -0.45593999997E+02  0.45594000000E+02  0.51100000000E-03 0.  1.
         23    2    1    2    0    0  0.00000000000E+00 -0.35527136788E-14  0.00000000000E+00  0.91188000000E+02  0.91188000000E+02 0.  0.
    9900012    2    3    3    0    0 -0.17735446016E+02  0.28802319428E+02  0.14548560485E+02  0.54367078474E+02  0.39999986997E+02 0.  0.
        -12    1    3    3    0    0  0.17735446016E+02 -0.28802319428E+02 -0.14548560485E+02  0.36820921526E+02  0.00000000000E+00 0.  1.
         11    1    4    4    0    0  0.49861950532E+01  0.23293821903E+02  0.58681857263E+01  0.24533647995E+02  0.51100000000E-03 0. -1.
        -11    1    4    4    0    0  0.24441438881E+01 -0.80314112909E+00  0.43269154132E+00  0.26088497944E+01  0.51100000000E-03 0.  1.
         12    1    4    4    0    0 -0.25165784957E+02  0.63116386545E+01  0.82476832175E+01  0.27224580685E+02  0.00000000000E+00 0. -1.
</event>
<event>
 8    1  0.1248739E-006  0.9118800E+02  0.7816164E-02  0.1184000E+00
        -11   -1    0    0    0    0  0.00000000000E+00  0.00000000000E+00  0.45593999997E+02  0.45594000000E+02  0.51100000000E-03 0.  1.
         11   -1    0    0    0    0 -0.00000000000E+00 -0.00000000000E+00 -0.45593999997E+02  0.45594000000E+02  0.51100000000E-03 0. -1.
         23    2    1    2    0    0  0.17763568394E-14  0.17763568394E-14  0.00000000000E+00  0.91188000000E+02  0.91188000000E+02 0.  0.
    9900012    2    3    3    0    0 -0.96828649674E+01 -0.12765259069E+02 -0.33152236633E+02  0.54367075150E+02  0.39999979419E+02 0.  0.
        -12    1    3    3    0    0  0.96828649674E+01  0.12765259069E+02  0.33152236633E+02  0.36820924850E+02  0.00000000000E+00 0.  1.
         11    1    4    4    0    0 -0.20363984774E+01  0.13532049247E+01  0.17944445584E+01  0.30328392409E+01  0.51100000000E-03 0. -1.
        -11    1    4    4    0    0  0.87050884324E+01 -0.25805461825E+01  0.20169319105E+01  0.93008493058E+01  0.51100000000E-03 0.  1.
        -12    1    4    4    0    0 -0.16351554922E+02 -0.11537917811E+02 -0.36963613102E+02  0.42033386603E+02  0.00000000000E+00 0.  1.
</event>
<event>
 8    1  0.1248739E-006  0.9118800E+02  0.7816164E-02  0.1184000E+00
        -11   -1    0    0    0    0  0.00000000000E+00  0.00000000000E+00  0.45593999997E+02  0.45594000000E+02  0.51100000000E-03 0.  1.
         11   -1    0    0    0    0 -0.00000000000E+00 -0.00000000000E+00 -0.45593999997E+02  0.45594000000E+02  0.51100000000E-03 0. -1.
         23    2    1    2    0    0 -0.71054273576E-14  0.35527136788E-14 -0.17763568394E-14  0.91188000000E+02  0.91188000000E+02 0.  0.
    9900012    2    3    3    0    0  0.32820048917E+02  0.11818289837E+02  0.11787757303E+02  0.54367098221E+02  0.40000032014E+02 0.  0.
         12    1    3    3    0    0 -0.32820048917E+02 -0.11818289837E+02 -0.11787757303E+02  0.36820901779E+02  0.00000000000E+00 0. -1.
         11    1    4    4    0    0 -0.19328370833E+01 -0.60228012804E+01  0.61977122504E+01  0.88555988986E+01  0.51100000000E-03 0. -1.
        -11    1    4    4    0    0  0.25528770482E+01 -0.33651111173E+01  0.55263887401E+01  0.69557261895E+01  0.51100000000E-03 0.  1.
         12    1    4    4    0    0  0.32200008952E+02  0.21206202235E+02  0.63656312364E-01  0.38555773133E+02  0.00000000000E+00 0. -1.
</event>
<event>
 8    1  0.1248739E-006  0.9118800E+02  0.7816164E-02  0.1184000E+00
        -11   -1    0    0    0    0  0.00000000000E+00  0.00000000000E+00  0.45593999997E+02  0.45594000000E+02  0.51100000000E-03 0.  1.
         11   -1    0    0    0    0 -0.00000000000E+00 -0.00000000000E+00 -0.45593999997E+02  0.45594000000E+02  0.51100000000E-03 0. -1.
         23    2    1    2    0    0  0.88817841970E-15 -0.35527136788E-14 -0.35527136788E-14  0.91188000000E+02  0.91188000000E+02 0.  0.
    9900012    2    3    3    0    0 -0.48894322378E+01  0.31012766237E+02  0.19237430586E+02  0.54367123410E+02  0.40000089438E+02 0.  0.
         12    1    3    3    0    0  0.48894322378E+01 -0.31012766237E+02 -0.19237430586E+02  0.36820876590E+02  0.00000000000E+00 0. -1.
         11    1    4    4    0    0 -0.12156136306E+02  0.27737052943E+01  0.11057588192E+01  0.12517499502E+02  0.51100000000E-03 0. -1.
        -11    1    4    4    0    0 -0.88286756811E+01  0.97495558903E+01  0.52999683177E+01  0.14180585981E+02  0.51100000000E-03 0.  1.
        -12    1    4    4    0    0  0.16095379750E+02  0.18489505053E+02  0.12831703449E+02  0.27669037927E+02  0.00000000000E+00 0.  1.
</event>
<event>
 8    1  0.1248739E-006  0.9118800E+02  0.7816164E-02  0.1184000E+00
        -11   -1    0    0    0    0  0.00000000000E+00  0.00000000000E+00  0.45593999997E+02  0.45594000000E+02  0.51100000000E-03 0. -1.
         11   -1    0    0    0    0 -0.00000000000E+00 -0.00000000000E+00 -0.45593999997E+02  0.45594000000E+02  0.51100000000E-03 0.  1.
         23    2    1    2    0    0  0.17763568394E-14  0.35527136788E-14 -0.35527136788E-14  0.91188000000E+02  0.91188000000E+02 0.  0.
    9900012    2    3    3    0    0 -0.15001492564E+02 -0.11067778243E+02  0.31752800786E+02  0.54367070461E+02  0.39999968729E+02 0.  0.
        -12    1    3    3    0    0  0.15001492564E+02  0.11067778243E+02 -0.31752800786E+02  0.36820929539E+02  0.00000000000E+00 0.  1.
         11    1    4    4    0    0 -0.78730930107E+01 -0.21738361216E+02  0.27473018561E+02  0.35906944886E+02  0.51100000000E-03 0. -1.
        -11    1    4    4    0    0 -0.43826976949E+01  0.40563833823E+01  0.83171468694E+01  0.10239004714E+02  0.51100000000E-03 0.  1.
        -12    1    4    4    0    0 -0.27457018584E+01  0.66141995911E+01 -0.40373646447E+01  0.82211208603E+01  0.00000000000E+00 0.  1.
</event>
<event>
 8    1  0.1248739E-006  0.9118800E+02  0.7816164E-02  0.1184000E+00
        -11   -1    0    0    0    0  0.00000000000E+00  0.00000000000E+00  0.45593999997E+02  0.45594000000E+02  0.51100000000E-03 0.  1.
         11   -1    0    0    0    0 -0.00000000000E+00 -0.00000000000E+00 -0.45593999997E+02  0.45594000000E+02  0.51100000000E-03 0. -1.
         23    2    1    2    0    0  0.00000000000E+00  0.00000000000E+00 -0.35527136788E-14  0.91188000000E+02  0.91188000000E+02 0.  0.
    9900012    2    3    3    0    0 -0.20456163407E+02 -0.11294837560E+02  0.28456082653E+02  0.54367127973E+02  0.40000099840E+02 0.  0.
         12    1    3    3    0    0  0.20456163407E+02  0.11294837560E+02 -0.28456082653E+02  0.36820872027E+02  0.00000000000E+00 0. -1.
         11    1    4    4    0    0  0.39585457001E+01  0.41404664642E+01 -0.16494312831E+01  0.59610544721E+01  0.51100000000E-03 0. -1.
        -11    1    4    4    0    0 -0.92923490123E+01 -0.77370508616E+01 -0.18423705753E+01  0.12231272861E+02  0.51100000000E-03 0.  1.
        -12    1    4    4    0    0 -0.15122360095E+02 -0.76982531628E+01  0.31947884511E+02  0.36174800640E+02  0.00000000000E+00 0.  1.
</event>
<event>
 8    1  0.1248739E-006  0.9118800E+02  0.7816164E-02  0.1184000E+00
        -11   -1    0    0    0    0  0.00000000000E+00  0.00000000000E+00  0.45593999997E+02  0.45594000000E+02  0.51100000000E-03 0.  1.
         11   -1    0    0    0    0 -0.00000000000E+00 -0.00000000000E+00 -0.45593999997E+02  0.45594000000E+02  0.51100000000E-03 0. -1.
         23    2    1    2    0    0 -0.35527136788E-14  0.17763568394E-14 -0.35527136788E-14  0.91188000000E+02  0.91188000000E+02 0.  0.
    9900012    2    3    3    0    0  0.30650417123E+02 -0.11564715601E+02  0.16810383451E+02  0.54367085990E+02  0.40000004132E+02 0.  0.
         12    1    3    3    0    0 -0.30650417123E+02  0.11564715601E+02 -0.16810383451E+02  0.36820914010E+02  0.00000000000E+00 0. -1.
         11    1    4    4    0    0  0.13491747102E+00  0.49721932724E+01  0.32003516313E+01  0.59146563287E+01  0.51100000000E-03 0. -1.
        -11    1    4    4    0    0  0.12750254624E+02 -0.43081239635E-01 -0.87575466697E+01  0.15468208458E+02  0.51100000000E-03 0.  1.
        -12    1    4    4    0    0  0.17765245028E+02 -0.16493827634E+02  0.22367578489E+02  0.32984221203E+02  0.00000000000E+00 0.  1.
</event>
<event>
 8    1  0.1248739E-006  0.9118800E+02  0.7816164E-02  0.1184000E+00
        -11   -1    0    0    0    0  0.00000000000E+00  0.00000000000E+00  0.45593999997E+02  0.45594000000E+02  0.51100000000E-03 0.  1.
         11   -1    0    0    0    0 -0.00000000000E+00 -0.00000000000E+00 -0.45593999997E+02  0.45594000000E+02  0.51100000000E-03 0. -1.
         23    2    1    2    0    0  0.35527136788E-14  0.35527136788E-14  0.35527136788E-14  0.91188000000E+02  0.91188000000E+02 0.  0.
    9900012    2    3    3    0    0  0.23665618569E+02  0.20573739229E+02  0.19298721048E+02  0.54367070052E+02  0.39999967799E+02 0.  0.
         12    1    3    3    0    0 -0.23665618569E+02 -0.20573739229E+02 -0.19298721048E+02  0.36820929948E+02  0.00000000000E+00 0. -1.
         11    1    4    4    0    0 -0.66171931723E+00  0.76786599490E+01  0.70839796571E+01  0.10468164075E+02  0.51100000000E-03 0. -1.
        -11    1    4    4    0    0 -0.19228668977E+01  0.29256985300E+01  0.15258370589E+02  0.15654871519E+02  0.51100000000E-03 0.  1.
         12    1    4    4    0    0  0.26250204784E+02  0.99693807495E+01 -0.30436291983E+01  0.28244034458E+02  0.00000000000E+00 0. -1.
</event>
<event>
 8    1  0.1248739E-006  0.9118800E+02  0.7816164E-02  0.1184000E+00
        -11   -1    0    0    0    0  0.00000000000E+00  0.00000000000E+00  0.45593999997E+02  0.45594000000E+02  0.51100000000E-03 0.  1.
         11   -1    0    0    0    0 -0.00000000000E+00 -0.00000000000E+00 -0.45593999997E+02  0.45594000000E+02  0.51100000000E-03 0. -1.
         23    2    1    2    0    0  0.00000000000E+00  0.88817841970E-15  0.71054273576E-14  0.91188000000E+02  0.91188000000E+02 0.  0.
    9900012    2    3    3    0    0  0.20467222357E+02  0.48105290754E+01  0.30228011475E+02  0.54367067655E+02  0.39999962333E+02 0.  0.
         12    1    3    3    0    0 -0.20467222357E+02 -0.48105290754E+01 -0.30228011475E+02  0.36820932345E+02  0.00000000000E+00 0. -1.
         11    1    4    4    0    0  0.14251323263E+02  0.11329300976E+02 -0.21438366580E+01  0.18331647804E+02  0.51100000000E-03 0. -1.
        -11    1    4    4    0    0 -0.58128721009E+00  0.33189092346E+01  0.11473157326E+02  0.11957691776E+02  0.51100000000E-03 0.  1.
         12    1    4    4    0    0  0.67971863040E+01 -0.98376811351E+01  0.20898690808E+02  0.24077728075E+02  0.00000000000E+00 0. -1.
</event>
<event>
 8    1  0.1248739E-006  0.9118800E+02  0.7816164E-02  0.1184000E+00
        -11   -1    0    0    0    0  0.00000000000E+00  0.00000000000E+00  0.45593999997E+02  0.45594000000E+02  0.51100000000E-03 0.  1.
         11   -1    0    0    0    0 -0.00000000000E+00 -0.00000000000E+00 -0.45593999997E+02  0.45594000000E+02  0.51100000000E-03 0. -1.
         23    2    1    2    0    0 -0.35527136788E-14  0.17763568394E-14  0.00000000000E+00  0.91188000000E+02  0.91188000000E+02 0.  0.
    9900012    2    3    3    0    0 -0.15844400036E+02  0.63899588676E+01  0.32617691879E+02  0.54366940668E+02  0.39999672840E+02 0.  0.
         12    1    3    3    0    0  0.15844400036E+02 -0.63899588676E+01 -0.32617691879E+02  0.36821059332E+02  0.00000000000E+00 0. -1.
         11    1    4    4    0    0 -0.18193910791E+02  0.24573014817E+01  0.13157844999E+01  0.18406194869E+02  0.51100000000E-03 0. -1.
        -11    1    4    4    0    0  0.90930401091E+01  0.93484052767E+00  0.10677859815E+02  0.14056101726E+02  0.51100000000E-03 0.  1.
        -12    1    4    4    0    0 -0.67435293540E+01  0.29978168583E+01  0.20624047564E+02  0.21904644073E+02  0.00000000000E+00 0.  1.
</event>
<event>
 8    1  0.1248739E-006  0.9118800E+02  0.7816164E-02  0.1184000E+00
        -11   -1    0    0    0    0  0.00000000000E+00  0.00000000000E+00  0.45593999997E+02  0.45594000000E+02  0.51100000000E-03 0. -1.
         11   -1    0    0    0    0 -0.00000000000E+00 -0.00000000000E+00 -0.45593999997E+02  0.45594000000E+02  0.51100000000E-03 0.  1.
         23    2    1    2    0    0 -0.35527136788E-14  0.00000000000E+00 -0.35527136788E-14  0.91188000000E+02  0.91188000000E+02 0.  0.
    9900012    2    3    3    0    0  0.10983578398E+02  0.31644892581E+02  0.15288820212E+02  0.54366997239E+02  0.39999801805E+02 0.  0.
        -12    1    3    3    0    0 -0.10983578398E+02 -0.31644892581E+02 -0.15288820212E+02  0.36821002761E+02  0.00000000000E+00 0.  1.
         11    1    4    4    0    0  0.47196566636E+01  0.21246706877E+02  0.92643409710E+01  0.23654296143E+02  0.51100000000E-03 0. -1.
        -11    1    4    4    0    0 -0.10282350539E+02 -0.51360554363E+00  0.19742879192E+01  0.10482763772E+02  0.51100000000E-03 0.  1.
        -12    1    4    4    0    0  0.16546272273E+02  0.10911791247E+02  0.40501913221E+01  0.20229937323E+02  0.00000000000E+00 0.  1.
</event>
<event>
 8    1  0.1248739E-006  0.9118800E+02  0.7816164E-02  0.1184000E+00
        -11   -1    0    0    0    0  0.00000000000E+00  0.00000000000E+00  0.45593999997E+02  0.45594000000E+02  0.51100000000E-03 0. -1.
         11   -1    0    0    0    0 -0.00000000000E+00 -0.00000000000E+00 -0.45593999997E+02  0.45594000000E+02  0.51100000000E-03 0.  1.
         23    2    1    2    0    0  0.00000000000E+00  0.00000000000E+00  0.17763568394E-14  0.91188000000E+02  0.91188000000E+02 0.  0.
    9900012    2    3    3    0    0 -0.23441655364E+02 -0.27069403675E+02 -0.85741098573E+01  0.54367093148E+02  0.40000020450E+02 0.  0.
        -12    1    3    3    0    0  0.23441655364E+02  0.27069403675E+02  0.85741098573E+01  0.36820906852E+02  0.00000000000E+00 0.  1.
         11    1    4    4    0    0 -0.76357182812E+01 -0.59218384064E+01  0.13506714921E+02  0.16607339101E+02  0.51100000000E-03 0. -1.
        -11    1    4    4    0    0 -0.14782340536E+02 -0.20345320276E+02 -0.12486689171E+02  0.28077874841E+02  0.51100000000E-03 0.  1.
        -12    1    4    4    0    0 -0.10235965468E+01 -0.80224499277E+00 -0.95941356078E+01  0.96818792071E+01  0.00000000000E+00 0.  1.
</event>
<event>
 8    1  0.1248739E-006  0.9118800E+02  0.7816164E-02  0.1184000E+00
        -11   -1    0    0    0    0  0.00000000000E+00  0.00000000000E+00  0.45593999997E+02  0.45594000000E+02  0.51100000000E-03 0.  1.
         11   -1    0    0    0    0 -0.00000000000E+00 -0.00000000000E+00 -0.45593999997E+02  0.45594000000E+02  0.51100000000E-03 0. -1.
         23    2    1    2    0    0  0.00000000000E+00  0.66613381478E-15  0.71054273576E-14  0.91188000000E+02  0.91188000000E+02 0.  0.
    9900012    2    3    3    0    0  0.84950272260E+01  0.17617905143E+01 -0.35784221745E+02  0.54367083128E+02  0.39999997607E+02 0.  0.
        -12    1    3    3    0    0 -0.84950272260E+01 -0.17617905143E+01  0.35784221745E+02  0.36820916872E+02  0.00000000000E+00 0.  1.
         11    1    4    4    0    0 -0.46842075229E+01  0.47096539314E+01 -0.91592696741E+01  0.11314365271E+02  0.51100000000E-03 0. -1.
        -11    1    4    4    0    0 -0.85927680259E+01  0.53543011381E+01 -0.11256187484E+02  0.15139549529E+02  0.51100000000E-03 0.  1.
         12    1    4    4    0    0  0.21772002775E+02 -0.83021645552E+01 -0.15368764587E+02  0.27913168327E+02  0.00000000000E+00 0. -1.
</event>
<event>
 8    1  0.1248739E-006  0.9118800E+02  0.7816164E-02  0.1184000E+00
        -11   -1    0    0    0    0  0.00000000000E+00  0.00000000000E+00  0.45593999997E+02  0.45594000000E+02  0.51100000000E-03 0. -1.
         11   -1    0    0    0    0 -0.00000000000E+00 -0.00000000000E+00 -0.45593999997E+02  0.45594000000E+02  0.51100000000E-03 0.  1.
         23    2    1    2    0    0  0.00000000000E+00  0.00000000000E+00 -0.49960036108E-15  0.91188000000E+02  0.91188000000E+02 0.  0.
    9900012    2    3    3    0    0 -0.33042403661E+02 -0.16243980022E+02  0.33577946891E+00  0.54367081021E+02  0.39999992803E+02 0.  0.
         12    1    3    3    0    0  0.33042403661E+02  0.16243980022E+02 -0.33577946891E+00  0.36820918979E+02  0.00000000000E+00 0. -1.
         11    1    4    4    0    0 -0.90399052299E+01 -0.78034809165E+00  0.11489365215E+02  0.14640161987E+02  0.51100000000E-03 0. -1.
        -11    1    4    4    0    0 -0.12461114838E+02 -0.93990491907E+01 -0.18938691333E+02  0.24541710176E+02  0.51100000000E-03 0.  1.
        -12    1    4    4    0    0 -0.11541383593E+02 -0.60645827392E+01  0.77851055869E+01  0.15185208857E+02  0.00000000000E+00 0.  1.
</event>
<event>
 8    1  0.1248739E-006  0.9118800E+02  0.7816164E-02  0.1184000E+00
        -11   -1    0    0    0    0  0.00000000000E+00  0.00000000000E+00  0.45593999997E+02  0.45594000000E+02  0.51100000000E-03 0. -1.
         11   -1    0    0    0    0 -0.00000000000E+00 -0.00000000000E+00 -0.45593999997E+02  0.45594000000E+02  0.51100000000E-03 0.  1.
         23    2    1    2    0    0 -0.26645352591E-14  0.00000000000E+00 -0.17763568394E-14  0.91188000000E+02  0.91188000000E+02 0.  0.
    9900012    2    3    3    0    0 -0.53578831925E+01 -0.33531548157E+02  0.14237555328E+02  0.54367087249E+02  0.40000007002E+02 0.  0.
         12    1    3    3    0    0  0.53578831925E+01  0.33531548157E+02 -0.14237555328E+02  0.36820912751E+02  0.00000000000E+00 0. -1.
         11    1    4    4    0    0  0.91866234650E+01 -0.62508034968E+01  0.59465503734E+01  0.12602700371E+02  0.51100000000E-03 0. -1.
        -11    1    4    4    0    0 -0.61318313093E+01 -0.12596041106E+02 -0.97190580246E+01  0.17050504271E+02  0.51100000000E-03 0.  1.
         12    1    4    4    0    0 -0.84126753482E+01 -0.14684703554E+02  0.18010062980E+02  0.24713882607E+02  0.00000000000E+00 0. -1.
</event>
<event>
 8    1  0.1248739E-006  0.9118800E+02  0.7816164E-02  0.1184000E+00
        -11   -1    0    0    0    0  0.00000000000E+00  0.00000000000E+00  0.45593999997E+02  0.45594000000E+02  0.51100000000E-03 0.  1.
         11   -1    0    0    0    0 -0.00000000000E+00 -0.00000000000E+00 -0.45593999997E+02  0.45594000000E+02  0.51100000000E-03 0. -1.
         23    2    1    2    0    0  0.00000000000E+00  0.00000000000E+00  0.88817841970E-15  0.91188000000E+02  0.91188000000E+02 0.  0.
    9900012    2    3    3    0    0  0.22204064544E+02  0.29021457490E+02  0.45295375210E+01  0.54367052331E+02  0.39999927398E+02 0.  0.
         12    1    3    3    0    0 -0.22204064544E+02 -0.29021457490E+02 -0.45295375210E+01  0.36820947669E+02  0.00000000000E+00 0. -1.
         11    1    4    4    0    0  0.26888404672E+02  0.23497118519E+02 -0.10345643543E+02  0.37177052399E+02  0.51100000000E-03 0. -1.
        -11    1    4    4    0    0  0.37396459666E+00  0.28864387690E+01  0.50407824487E+01  0.58207272950E+01  0.51100000000E-03 0.  1.
         12    1    4    4    0    0 -0.50583047250E+01  0.26379002022E+01  0.98343986152E+01  0.11369272637E+02  0.00000000000E+00 0. -1.
</event>
<event>
 8    1  0.1248739E-006  0.9118800E+02  0.7816164E-02  0.1184000E+00
        -11   -1    0    0    0    0  0.00000000000E+00  0.00000000000E+00  0.45593999997E+02  0.45594000000E+02  0.51100000000E-03 0.  1.
         11   -1    0    0    0    0 -0.00000000000E+00 -0.00000000000E+00 -0.45593999997E+02  0.45594000000E+02  0.51100000000E-03 0. -1.
         23    2    1    2    0    0 -0.88817841970E-15 -0.71054273576E-14  0.17763568394E-14  0.91188000000E+02  0.91188000000E+02 0.  0.
    9900012    2    3    3    0    0  0.26511463280E+01  0.33723348862E+02 -0.14542606381E+02  0.54367078832E+02  0.39999987814E+02 0.  0.
        -12    1    3    3    0    0 -0.26511463280E+01 -0.33723348862E+02  0.14542606381E+02  0.36820921168E+02  0.00000000000E+00 0.  1.
         11    1    4    4    0    0 -0.24315780241E+01  0.24864649489E+00 -0.61500411327E+01  0.66179606347E+01  0.51100000000E-03 0. -1.
        -11    1    4    4    0    0 -0.11523527132E+02  0.36378480962E+01  0.15527993099E+01  0.12183464298E+02  0.51100000000E-03 0.  1.
         12    1    4    4    0    0  0.16606251484E+02  0.29836854270E+02 -0.99453645581E+01  0.35565653900E+02  0.00000000000E+00 0. -1.
</event>
<event>
 8    1  0.1248739E-006  0.9118800E+02  0.7816164E-02  0.1184000E+00
        -11   -1    0    0    0    0  0.00000000000E+00  0.00000000000E+00  0.45593999997E+02  0.45594000000E+02  0.51100000000E-03 0.  1.
         11   -1    0    0    0    0 -0.00000000000E+00 -0.00000000000E+00 -0.45593999997E+02  0.45594000000E+02  0.51100000000E-03 0. -1.
         23    2    1    2    0    0 -0.17763568394E-14  0.00000000000E+00 -0.35527136788E-14  0.91188000000E+02  0.91188000000E+02 0.  0.
    9900012    2    3    3    0    0  0.11923125163E+02  0.19232762971E+02 -0.29046815069E+02  0.54367115290E+02  0.40000070927E+02 0.  0.
        -12    1    3    3    0    0 -0.11923125163E+02 -0.19232762971E+02  0.29046815069E+02  0.36820884710E+02  0.00000000000E+00 0.  1.
         11    1    4    4    0    0  0.66255770627E+00  0.47862929669E+01  0.22220973785E+01  0.53183926237E+01  0.51100000000E-03 0. -1.
        -11    1    4    4    0    0  0.13269097799E+01  0.66482898053E+01  0.63975967173E+01  0.93214639900E+01  0.51100000000E-03 0.  1.
         12    1    4    4    0    0  0.99336576773E+01  0.77981801987E+01 -0.37666509165E+02  0.39727258676E+02  0.00000000000E+00 0. -1.
</event>
<event>
 8    1  0.1248739E-006  0.9118800E+02  0.7816164E-02  0.1184000E+00
        -11   -1    0    0    0    0  0.00000000000E+00  0.00000000000E+00  0.45593999997E+02  0.45594000000E+02  0.51100000000E-03 0. -1.
         11   -1    0    0    0    0 -0.00000000000E+00 -0.00000000000E+00 -0.45593999997E+02  0.45594000000E+02  0.51100000000E-03 0.  1.
         23    2    1    2    0    0  0.00000000000E+00  0.00000000000E+00  0.00000000000E+00  0.91188000000E+02  0.91188000000E+02 0.  0.
    9900012    2    3    3    0    0  0.23786777119E+02  0.15292053403E+02 -0.23582178228E+02  0.54367125582E+02  0.40000094389E+02 0.  0.
         12    1    3    3    0    0 -0.23786777119E+02 -0.15292053403E+02  0.23582178228E+02  0.36820874418E+02  0.00000000000E+00 0. -1.
         11    1    4    4    0    0  0.16883755134E+01 -0.71752318465E+01 -0.11132958792E+01  0.74547965700E+01  0.51100000000E-03 0. -1.
        -11    1    4    4    0    0  0.13217373540E+02  0.16279221134E+02 -0.27819924414E+02  0.34837626192E+02  0.51100000000E-03 0.  1.
        -12    1    4    4    0    0  0.88810280652E+01  0.61880641152E+01  0.53510420659E+01  0.12074702820E+02  0.00000000000E+00 0.  1.
</event>
<event>
 8    1  0.1248739E-006  0.9118800E+02  0.7816164E-02  0.1184000E+00
        -11   -1    0    0    0    0  0.00000000000E+00  0.00000000000E+00  0.45593999997E+02  0.45594000000E+02  0.51100000000E-03 0. -1.
         11   -1    0    0    0    0 -0.00000000000E+00 -0.00000000000E+00 -0.45593999997E+02  0.45594000000E+02  0.51100000000E-03 0.  1.
         23    2    1    2    0    0  0.00000000000E+00 -0.17763568394E-14  0.17763568394E-14  0.91188000000E+02  0.91188000000E+02 0.  0.
    9900012    2    3    3    0    0 -0.32598845355E+02  0.13591628173E+02 -0.10409700028E+02  0.54367096568E+02  0.40000028246E+02 0.  0.
        -12    1    3    3    0    0  0.32598845355E+02 -0.13591628173E+02  0.10409700028E+02  0.36820903432E+02  0.00000000000E+00 0.  1.
         11    1    4    4    0    0 -0.28137496718E+02  0.50222055226E+01 -0.91145386192E+01  0.30000268071E+02  0.51100000000E-03 0. -1.
        -11    1    4    4    0    0 -0.10487176324E+02  0.12299508669E+01 -0.75633712775E+01  0.12988388343E+02  0.51100000000E-03 0.  1.
         12    1    4    4    0    0  0.60258276870E+01  0.73394717839E+01  0.62682098690E+01  0.11378440154E+02  0.00000000000E+00 0. -1.
</event>
<event>
 8    1  0.1248739E-006  0.9118800E+02  0.7816164E-02  0.1184000E+00
        -11   -1    0    0    0    0  0.00000000000E+00  0.00000000000E+00  0.45593999997E+02  0.45594000000E+02  0.51100000000E-03 0. -1.
         11   -1    0    0    0    0 -0.00000000000E+00 -0.00000000000E+00 -0.45593999997E+02  0.45594000000E+02  0.51100000000E-03 0.  1.
         23    2    1    2    0    0  0.00000000000E+00  0.00000000000E+00  0.00000000000E+00  0.91188000000E+02  0.91188000000E+02 0.  0.
    9900012    2    3    3    0    0  0.22697891417E+02  0.16854747748E+02 -0.23590322347E+02  0.54367080608E+02  0.39999991861E+02 0.  0.
         12    1    3    3    0    0 -0.22697891417E+02 -0.16854747748E+02  0.23590322347E+02  0.36820919392E+02  0.00000000000E+00 0. -1.
         11    1    4    4    0    0 -0.14986115203E+01 -0.23005245984E+01 -0.94177373378E+00  0.29026174297E+01  0.51100000000E-03 0. -1.
        -11    1    4    4    0    0 -0.44728713807E+01  0.73900361083E+00 -0.16151641433E+02  0.16775822662E+02  0.51100000000E-03 0.  1.
        -12    1    4    4    0    0  0.28669374318E+02  0.18416268736E+02 -0.64969071805E+01  0.34688640516E+02  0.00000000000E+00 0.  1.
</event>
<event>
 8    1  0.1248739E-006  0.9118800E+02  0.7816164E-02  0.1184000E+00
        -11   -1    0    0    0    0  0.00000000000E+00  0.00000000000E+00  0.45593999997E+02  0.45594000000E+02  0.51100000000E-03 0. -1.
         11   -1    0    0    0    0 -0.00000000000E+00 -0.00000000000E+00 -0.45593999997E+02  0.45594000000E+02  0.51100000000E-03 0.  1.
         23    2    1    2    0    0  0.35527136788E-14  0.00000000000E+00  0.00000000000E+00  0.91188000000E+02  0.91188000000E+02 0.  0.
    9900012    2    3    3    0    0  0.23056865905E+02 -0.27296427847E+02 -0.88920964058E+01  0.54367035631E+02  0.39999889327E+02 0.  0.
        -12    1    3    3    0    0 -0.23056865905E+02  0.27296427847E+02  0.88920964058E+01  0.36820964369E+02  0.00000000000E+00 0.  1.
         11    1    4    4    0    0  0.83932980609E+01 -0.15922740956E+02 -0.94199383817E+00  0.18024108426E+02  0.51100000000E-03 0. -1.
        -11    1    4    4    0    0  0.18180729910E+02 -0.19467943364E+02 -0.60163163331E+01  0.27308164006E+02  0.51100000000E-03 0.  1.
        -12    1    4    4    0    0 -0.35171620660E+01  0.80942564733E+01 -0.19337862344E+01  0.90347631986E+01  0.00000000000E+00 0.  1.
</event>
<event>
 8    1  0.1248739E-006  0.9118800E+02  0.7816164E-02  0.1184000E+00
        -11   -1    0    0    0    0  0.00000000000E+00  0.00000000000E+00  0.45593999997E+02  0.45594000000E+02  0.51100000000E-03 0. -1.
         11   -1    0    0    0    0 -0.00000000000E+00 -0.00000000000E+00 -0.45593999997E+02  0.45594000000E+02  0.51100000000E-03 0.  1.
         23    2    1    2    0    0  0.00000000000E+00  0.17763568394E-14  0.00000000000E+00  0.91188000000E+02  0.91188000000E+02 0.  0.
    9900012    2    3    3    0    0  0.13186351883E+02 -0.12219624653E+02  0.32133785935E+02  0.54367091522E+02  0.40000016743E+02 0.  0.
        -12    1    3    3    0    0 -0.13186351883E+02  0.12219624653E+02 -0.32133785935E+02  0.36820908478E+02  0.00000000000E+00 0.  1.
         11    1    4    4    0    0  0.87353012711E+01 -0.97557909299E+01  0.25029559572E+02  0.28248182200E+02  0.51100000000E-03 0. -1.
        -11    1    4    4    0    0  0.11465289696E+02 -0.27363294377E+01 -0.44501635761E+01  0.12599377870E+02  0.51100000000E-03 0.  1.
        -12    1    4    4    0    0 -0.70142390833E+01  0.27249571507E+00  0.11554389939E+02  0.13519531452E+02  0.00000000000E+00 0.  1.
</event>
<event>
 8    1  0.1248739E-006  0.9118800E+02  0.7816164E-02  0.1184000E+00
        -11   -1    0    0    0    0  0.00000000000E+00  0.00000000000E+00  0.45593999997E+02  0.45594000000E+02  0.51100000000E-03 0.  1.
         11   -1    0    0    0    0 -0.00000000000E+00 -0.00000000000E+00 -0.45593999997E+02  0.45594000000E+02  0.51100000000E-03 0. -1.
         23    2    1    2    0    0  0.00000000000E+00 -0.88817841970E-15  0.00000000000E+00  0.91188000000E+02  0.91188000000E+02 0.  0.
    9900012    2    3    3    0    0  0.59235848385E+01  0.43152907921E+01 -0.36084200607E+02  0.54367080329E+02  0.39999991227E+02 0.  0.
        -12    1    3    3    0    0 -0.59235848385E+01 -0.43152907921E+01  0.36084200607E+02  0.36820919671E+02  0.00000000000E+00 0.  1.
         11    1    4    4    0    0 -0.37847042220E+01  0.10296960683E+02 -0.21651432595E+02  0.24272122261E+02  0.51100000000E-03 0. -1.
        -11    1    4    4    0    0 -0.34346592547E+01 -0.11341430105E+02 -0.90662556689E+01  0.14920519868E+02  0.51100000000E-03 0.  1.
         12    1    4    4    0    0  0.13142948315E+02  0.53597602137E+01 -0.53665123425E+01  0.15174438200E+02  0.00000000000E+00 0. -1.
</event>
<event>
 8    1  0.1248739E-006  0.9118800E+02  0.7816164E-02  0.1184000E+00
        -11   -1    0    0    0    0  0.00000000000E+00  0.00000000000E+00  0.45593999997E+02  0.45594000000E+02  0.51100000000E-03 0.  1.
         11   -1    0    0    0    0 -0.00000000000E+00 -0.00000000000E+00 -0.45593999997E+02  0.45594000000E+02  0.51100000000E-03 0. -1.
         23    2    1    2    0    0  0.00000000000E+00 -0.17763568394E-14  0.00000000000E+00  0.91188000000E+02  0.91188000000E+02 0.  0.
    9900012    2    3    3    0    0  0.29972126013E+02  0.13777303775E+02 -0.16359666731E+02  0.54367066652E+02  0.39999960048E+02 0.  0.
        -12    1    3    3    0    0 -0.29972126013E+02 -0.13777303775E+02  0.16359666731E+02  0.36820933348E+02  0.00000000000E+00 0.  1.
         11    1    4    4    0    0  0.14878154904E+02  0.18816337802E+02 -0.85282771440E+01  0.25458703285E+02  0.51100000000E-03 0. -1.
        -11    1    4    4    0    0  0.18736127726E+02  0.24309950065E+01 -0.81855680827E+01  0.20590185623E+02  0.51100000000E-03 0.  1.
         12    1    4    4    0    0 -0.36421566174E+01 -0.74700290337E+01  0.35417849539E+00  0.83181777450E+01  0.00000000000E+00 0. -1.
</event>
<event>
 8    1  0.1248739E-006  0.9118800E+02  0.7816164E-02  0.1184000E+00
        -11   -1    0    0    0    0  0.00000000000E+00  0.00000000000E+00  0.45593999997E+02  0.45594000000E+02  0.51100000000E-03 0. -1.
         11   -1    0    0    0    0 -0.00000000000E+00 -0.00000000000E+00 -0.45593999997E+02  0.45594000000E+02  0.51100000000E-03 0.  1.
         23    2    1    2    0    0 -0.35527136788E-14 -0.17763568394E-14  0.35527136788E-14  0.91188000000E+02  0.91188000000E+02 0.  0.
    9900012    2    3    3    0    0 -0.21138495144E+02 -0.14011801164E+02  0.26694814516E+02  0.54367086501E+02  0.40000005297E+02 0.  0.
        -12    1    3    3    0    0  0.21138495144E+02  0.14011801164E+02 -0.26694814516E+02  0.36820913499E+02  0.00000000000E+00 0.  1.
         11    1    4    4    0    0  0.70917791046E+00  0.50728609730E+01  0.14984327981E+02  0.15835622409E+02  0.51100000000E-03 0. -1.
        -11    1    4    4    0    0 -0.14053036810E+02 -0.23731474714E+02  0.97041628420E+01  0.29237672828E+02  0.51100000000E-03 0.  1.
        -12    1    4    4    0    0 -0.77946362445E+01  0.46468125769E+01  0.20063236932E+01  0.92937912646E+01  0.00000000000E+00 0.  1.
</event>
<event>
 8    1  0.1248739E-006  0.9118800E+02  0.7816164E-02  0.1184000E+00
        -11   -1    0    0    0    0  0.00000000000E+00  0.00000000000E+00  0.45593999997E+02  0.45594000000E+02  0.51100000000E-03 0.  1.
         11   -1    0    0    0    0 -0.00000000000E+00 -0.00000000000E+00 -0.45593999997E+02  0.45594000000E+02  0.51100000000E-03 0. -1.
         23    2    1    2    0    0  0.00000000000E+00 -0.10658141036E-13  0.00000000000E+00  0.91188000000E+02  0.91188000000E+02 0.  0.
    9900012    2    3    3    0    0 -0.16440472058E+02  0.30009578498E+02  0.13598355976E+02  0.54367092782E+02  0.40000019615E+02 0.  0.
         12    1    3    3    0    0  0.16440472058E+02 -0.30009578498E+02 -0.13598355976E+02  0.36820907218E+02  0.00000000000E+00 0. -1.
         11    1    4    4    0    0 -0.29495503028E+00  0.21251711528E+02  0.10351207680E+02  0.23640426012E+02  0.51100000000E-03 0.  1.
        -11    1    4    4    0    0 -0.14333496796E+02 -0.48445201846E+01  0.67448518462E+01  0.16565371499E+02  0.51100000000E-03 0. -1.
        -12    1    4    4    0    0 -0.18120202317E+01  0.13602387155E+02 -0.34977035497E+01  0.14161295271E+02  0.00000000000E+00 0.  1.
</event>
<event>
 8    1  0.1248739E-006  0.9118800E+02  0.7816164E-02  0.1184000E+00
        -11   -1    0    0    0    0  0.00000000000E+00  0.00000000000E+00  0.45593999997E+02  0.45594000000E+02  0.51100000000E-03 0. -1.
         11   -1    0    0    0    0 -0.00000000000E+00 -0.00000000000E+00 -0.45593999997E+02  0.45594000000E+02  0.51100000000E-03 0.  1.
         23    2    1    2    0    0 -0.44408920985E-15  0.00000000000E+00 -0.71054273576E-14  0.91188000000E+02  0.91188000000E+02 0.  0.
    9900012    2    3    3    0    0 -0.24265728357E+01 -0.20971715725E+02  0.30167573439E+02  0.54367033101E+02  0.39999883560E+02 0.  0.
        -12    1    3    3    0    0  0.24265728357E+01  0.20971715725E+02 -0.30167573439E+02  0.36820966899E+02  0.00000000000E+00 0.  1.
         11    1    4    4    0    0 -0.54399028697E+01 -0.13595235261E+02  0.38081517042E+01  0.15130267172E+02  0.51100000000E-03 0. -1.
        -11    1    4    4    0    0 -0.22273106473E+01  0.72556672811E+00 -0.54840705445E+01  0.59634209809E+01  0.51100000000E-03 0.  1.
        -12    1    4    4    0    0  0.52406406813E+01 -0.81020471918E+01  0.31843492280E+02  0.33273344948E+02  0.00000000000E+00 0.  1.
</event>
<event>
 8    1  0.1248739E-006  0.9118800E+02  0.7816164E-02  0.1184000E+00
        -11   -1    0    0    0    0  0.00000000000E+00  0.00000000000E+00  0.45593999997E+02  0.45594000000E+02  0.51100000000E-03 0.  1.
         11   -1    0    0    0    0 -0.00000000000E+00 -0.00000000000E+00 -0.45593999997E+02  0.45594000000E+02  0.51100000000E-03 0. -1.
         23    2    1    2    0    0 -0.35527136788E-14 -0.88817841970E-15  0.00000000000E+00  0.91188000000E+02  0.91188000000E+02 0.  0.
    9900012    2    3    3    0    0 -0.28454298850E+02  0.58699312012E+01  0.22620317210E+02  0.54367055335E+02  0.39999934247E+02 0.  0.
         12    1    3    3    0    0  0.28454298850E+02 -0.58699312012E+01 -0.22620317210E+02  0.36820944665E+02  0.00000000000E+00 0. -1.
         11    1    4    4    0    0 -0.55316706199E+01 -0.68204944867E+01  0.61173097537E+01  0.10702336370E+02  0.51100000000E-03 0. -1.
        -11    1    4    4    0    0  0.26077216246E+01 -0.57373257303E+01  0.95143035757E+01  0.11412234286E+02  0.51100000000E-03 0.  1.
         12    1    4    4    0    0 -0.25530349855E+02  0.18427751418E+02  0.69887038803E+01  0.32252484679E+02  0.00000000000E+00 0. -1.
</event>
<event>
 8    1  0.1248739E-006  0.9118800E+02  0.7816164E-02  0.1184000E+00
        -11   -1    0    0    0    0  0.00000000000E+00  0.00000000000E+00  0.45593999997E+02  0.45594000000E+02  0.51100000000E-03 0.  1.
         11   -1    0    0    0    0 -0.00000000000E+00 -0.00000000000E+00 -0.45593999997E+02  0.45594000000E+02  0.51100000000E-03 0. -1.
         23    2    1    2    0    0  0.00000000000E+00  0.35527136788E-14  0.00000000000E+00  0.91188000000E+02  0.91188000000E+02 0.  0.
    9900012    2    3    3    0    0 -0.13815730800E+02 -0.18953344428E+02 -0.28384439199E+02  0.54367081065E+02  0.39999992904E+02 0.  0.
        -12    1    3    3    0    0  0.13815730800E+02  0.18953344428E+02  0.28384439199E+02  0.36820918935E+02  0.00000000000E+00 0.  1.
         11    1    4    4    0    0 -0.13203018609E+02 -0.15426371725E+02 -0.18443053444E+02  0.27430619125E+02  0.51100000000E-03 0.  1.
        -11    1    4    4    0    0 -0.63381106956E+01 -0.64265701447E+01 -0.15832549221E+02  0.18224765186E+02  0.51100000000E-03 0. -1.
        -12    1    4    4    0    0  0.57253985041E+01  0.28995974413E+01  0.58911634654E+01  0.87116967537E+01  0.00000000000E+00 0.  1.
</event>
<event>
 8    1  0.1248739E-006  0.9118800E+02  0.7816164E-02  0.1184000E+00
        -11   -1    0    0    0    0  0.00000000000E+00  0.00000000000E+00  0.45593999997E+02  0.45594000000E+02  0.51100000000E-03 0. -1.
         11   -1    0    0    0    0 -0.00000000000E+00 -0.00000000000E+00 -0.45593999997E+02  0.45594000000E+02  0.51100000000E-03 0.  1.
         23    2    1    2    0    0  0.17763568394E-14  0.00000000000E+00  0.00000000000E+00  0.91188000000E+02  0.91188000000E+02 0.  0.
    9900012    2    3    3    0    0  0.12010471537E+02  0.11566263100E+02  0.32829094765E+02  0.54367091106E+02  0.40000015795E+02 0.  0.
        -12    1    3    3    0    0 -0.12010471537E+02 -0.11566263100E+02 -0.32829094765E+02  0.36820908894E+02  0.00000000000E+00 0.  1.
         11    1    4    4    0    0  0.56815754356E+01  0.45811324475E+01  0.74596764601E+01  0.10436179717E+02  0.51100000000E-03 0. -1.
        -11    1    4    4    0    0  0.19711893920E+02 -0.18687878305E+01  0.13314007178E+02  0.23860300025E+02  0.51100000000E-03 0.  1.
        -12    1    4    4    0    0 -0.13382997818E+02  0.88539184834E+01  0.12055411127E+02  0.20070611365E+02  0.00000000000E+00 0.  1.
</event>
<event>
 8    1  0.1248739E-006  0.9118800E+02  0.7816164E-02  0.1184000E+00
        -11   -1    0    0    0    0  0.00000000000E+00  0.00000000000E+00  0.45593999997E+02  0.45594000000E+02  0.51100000000E-03 0.  1.
         11   -1    0    0    0    0 -0.00000000000E+00 -0.00000000000E+00 -0.45593999997E+02  0.45594000000E+02  0.51100000000E-03 0. -1.
         23    2    1    2    0    0  0.00000000000E+00  0.35527136788E-14  0.35527136788E-14  0.91188000000E+02  0.91188000000E+02 0.  0.
    9900012    2    3    3    0    0  0.15697564279E+02  0.27498596985E+02  0.18793436595E+02  0.54367087200E+02  0.40000006889E+02 0.  0.
         12    1    3    3    0    0 -0.15697564279E+02 -0.27498596985E+02 -0.18793436595E+02  0.36820912800E+02  0.00000000000E+00 0. -1.
         11    1    4    4    0    0  0.17708270335E+02  0.23613681501E+02  0.98140081007E+00  0.29532218679E+02  0.51100000000E-03 0. -1.
        -11    1    4    4    0    0  0.67635055590E+01  0.18802338787E+01  0.12628752180E+02  0.14448725507E+02  0.51100000000E-03 0.  1.
         12    1    4    4    0    0 -0.87742116141E+01  0.20046816048E+01  0.51832836048E+01  0.10386143014E+02  0.00000000000E+00 0. -1.
</event>
<event>
 8    1  0.1248739E-006  0.9118800E+02  0.7816164E-02  0.1184000E+00
        -11   -1    0    0    0    0  0.00000000000E+00  0.00000000000E+00  0.45593999997E+02  0.45594000000E+02  0.51100000000E-03 0. -1.
         11   -1    0    0    0    0 -0.00000000000E+00 -0.00000000000E+00 -0.45593999997E+02  0.45594000000E+02  0.51100000000E-03 0.  1.
         23    2    1    2    0    0 -0.17763568394E-14  0.00000000000E+00  0.35527136788E-14  0.91188000000E+02  0.91188000000E+02 0.  0.
    9900012    2    3    3    0    0 -0.14011975715E+02 -0.28902319848E+02  0.18002790244E+02  0.54367081861E+02  0.39999994719E+02 0.  0.
        -12    1    3    3    0    0  0.14011975715E+02  0.28902319848E+02 -0.18002790244E+02  0.36820918139E+02  0.00000000000E+00 0.  1.
         11    1    4    4    0    0 -0.98410530229E+01 -0.13953898496E+02 -0.39788682744E+01  0.17532512679E+02  0.51100000000E-03 0.  1.
        -11    1    4    4    0    0 -0.12649207254E+02 -0.61649461960E+01  0.20019344973E+02  0.24470046571E+02  0.51100000000E-03 0. -1.
        -12    1    4    4    0    0  0.84782845628E+01 -0.87834751557E+01  0.19623135449E+01  0.12364522611E+02  0.00000000000E+00 0.  1.
</event>
<event>
 8    1  0.1248739E-006  0.9118800E+02  0.7816164E-02  0.1184000E+00
        -11   -1    0    0    0    0  0.00000000000E+00  0.00000000000E+00  0.45593999997E+02  0.45594000000E+02  0.51100000000E-03 0.  1.
         11   -1    0    0    0    0 -0.00000000000E+00 -0.00000000000E+00 -0.45593999997E+02  0.45594000000E+02  0.51100000000E-03 0. -1.
         23    2    1    2    0    0  0.00000000000E+00 -0.71054273576E-14 -0.17763568394E-14  0.91188000000E+02  0.91188000000E+02 0.  0.
    9900012    2    3    3    0    0  0.21928201024E+02  0.28316436117E+02  0.85505989686E+01  0.54367091575E+02  0.40000016864E+02 0.  0.
        -12    1    3    3    0    0 -0.21928201024E+02 -0.28316436117E+02 -0.85505989686E+01  0.36820908425E+02  0.00000000000E+00 0.  1.
         11    1    4    4    0    0  0.20894233886E+02  0.29093857361E+00  0.94268347686E+01  0.22924198328E+02  0.51100000000E-03 0. -1.
        -11    1    4    4    0    0  0.21942981925E+01  0.89215087114E+00  0.31991901812E+01  0.39806652473E+01  0.51100000000E-03 0.  1.
        -12    1    4    4    0    0 -0.11603310552E+01  0.27133346673E+02 -0.40754259812E+01  0.27462228000E+02  0.00000000000E+00 0.  1.
</event>
<event>
 8    1  0.1248739E-006  0.9118800E+02  0.7816164E-02  0.1184000E+00
        -11   -1    0    0    0    0  0.00000000000E+00  0.00000000000E+00  0.45593999997E+02  0.45594000000E+02  0.51100000000E-03 0.  1.
         11   -1    0    0    0    0 -0.00000000000E+00 -0.00000000000E+00 -0.45593999997E+02  0.45594000000E+02  0.51100000000E-03 0. -1.
         23    2    1    2    0    0 -0.17763568394E-14  0.00000000000E+00 -0.26645352591E-14  0.91188000000E+02  0.91188000000E+02 0.  0.
    9900012    2    3    3    0    0 -0.12735952818E+02  0.33869473878E+02  0.68142526528E+01  0.54367084828E+02  0.40000001481E+02 0.  0.
         12    1    3    3    0    0  0.12735952818E+02 -0.33869473878E+02 -0.68142526528E+01  0.36820915172E+02  0.00000000000E+00 0. -1.
         11    1    4    4    0    0 -0.13038677136E+02  0.18189178459E+02 -0.14258529952E+02  0.26535994256E+02  0.51100000000E-03 0. -1.
        -11    1    4    4    0    0  0.36818843383E+01  0.33509033110E+01  0.34389601538E+01  0.60507249550E+01  0.51100000000E-03 0.  1.
         12    1    4    4    0    0 -0.33791600198E+01  0.12329392107E+02  0.17633822451E+02  0.21780365617E+02  0.00000000000E+00 0. -1.
</event>
<event>
 8    1  0.1248739E-006  0.9118800E+02  0.7816164E-02  0.1184000E+00
        -11   -1    0    0    0    0  0.00000000000E+00  0.00000000000E+00  0.45593999997E+02  0.45594000000E+02  0.51100000000E-03 0.  1.
         11   -1    0    0    0    0 -0.00000000000E+00 -0.00000000000E+00 -0.45593999997E+02  0.45594000000E+02  0.51100000000E-03 0. -1.
         23    2    1    2    0    0  0.88817841970E-15 -0.91593399532E-15 -0.71054273576E-14  0.91188000000E+02  0.91188000000E+02 0.  0.
    9900012    2    3    3    0    0  0.72292569951E+01 -0.19539682235E+00 -0.36103698738E+02  0.54367117349E+02  0.40000075621E+02 0.  0.
        -12    1    3    3    0    0 -0.72292569951E+01  0.19539682235E+00  0.36103698738E+02  0.36820882651E+02  0.00000000000E+00 0.  1.
         11    1    4    4    0    0  0.11042642082E+02  0.80237441777E+01 -0.34844453180E+01  0.14087646156E+02  0.51100000000E-03 0. -1.
        -11    1    4    4    0    0  0.11986060962E+01  0.57502692618E+01 -0.19178626146E+01  0.61790331304E+01  0.51100000000E-03 0.  1.
         12    1    4    4    0    0 -0.50119911835E+01 -0.13969410262E+02 -0.30701390805E+02  0.34100438063E+02  0.00000000000E+00 0. -1.
</event>
<event>
 8    1  0.1248739E-006  0.9118800E+02  0.7816164E-02  0.1184000E+00
        -11   -1    0    0    0    0  0.00000000000E+00  0.00000000000E+00  0.45593999997E+02  0.45594000000E+02  0.51100000000E-03 0. -1.
         11   -1    0    0    0    0 -0.00000000000E+00 -0.00000000000E+00 -0.45593999997E+02  0.45594000000E+02  0.51100000000E-03 0.  1.
         23    2    1    2    0    0  0.00000000000E+00  0.00000000000E+00 -0.35527136788E-14  0.91188000000E+02  0.91188000000E+02 0.  0.
    9900012    2    3    3    0    0  0.24304195909E+01 -0.30508517881E+02 -0.20472065171E+02  0.54367054126E+02  0.39999931490E+02 0.  0.
         12    1    3    3    0    0 -0.24304195909E+01  0.30508517881E+02  0.20472065171E+02  0.36820945874E+02  0.00000000000E+00 0. -1.
         11    1    4    4    0    0  0.57106367193E+01 -0.33847595318E+02 -0.22449936134E+02  0.41015493576E+02  0.51100000000E-03 0.  1.
        -11    1    4    4    0    0 -0.74412764247E+01  0.11998729527E+01  0.36607837440E+01  0.83793572434E+01  0.51100000000E-03 0. -1.
         12    1    4    4    0    0  0.41610592963E+01  0.21392044843E+01 -0.16829127808E+01  0.49722033065E+01  0.00000000000E+00 0. -1.
</event>
<event>
 8    1  0.1248739E-006  0.9118800E+02  0.7816164E-02  0.1184000E+00
        -11   -1    0    0    0    0  0.00000000000E+00  0.00000000000E+00  0.45593999997E+02  0.45594000000E+02  0.51100000000E-03 0.  1.
         11   -1    0    0    0    0 -0.00000000000E+00 -0.00000000000E+00 -0.45593999997E+02  0.45594000000E+02  0.51100000000E-03 0. -1.
         23    2    1    2    0    0 -0.35527136788E-14  0.00000000000E+00  0.00000000000E+00  0.91188000000E+02  0.91188000000E+02 0.  0.
    9900012    2    3    3    0    0 -0.26527964776E+02 -0.24765952224E+02  0.62204401111E+01  0.54367093169E+02  0.40000020496E+02 0.  0.
         12    1    3    3    0    0  0.26527964776E+02  0.24765952224E+02 -0.62204401111E+01  0.36820906831E+02  0.00000000000E+00 0. -1.
         11    1    4    4    0    0  0.24572144792E+01  0.49844055372E+01  0.86609451511E+00  0.56242618650E+01  0.51100000000E-03 0. -1.
        -11    1    4    4    0    0 -0.20124902833E+02 -0.28284985942E+02  0.12879565936E+02  0.37026144314E+02  0.51100000000E-03 0.  1.
         12    1    4    4    0    0 -0.88602764222E+01 -0.14653718193E+01 -0.75252203404E+01  0.11716686990E+02  0.00000000000E+00 0. -1.
</event>
<event>
 8    1  0.1248739E-006  0.9118800E+02  0.7816164E-02  0.1184000E+00
        -11   -1    0    0    0    0  0.00000000000E+00  0.00000000000E+00  0.45593999997E+02  0.45594000000E+02  0.51100000000E-03 0.  1.
         11   -1    0    0    0    0 -0.00000000000E+00 -0.00000000000E+00 -0.45593999997E+02  0.45594000000E+02  0.51100000000E-03 0. -1.
         23    2    1    2    0    0  0.35527136788E-14  0.00000000000E+00  0.88817841970E-15  0.91188000000E+02  0.91188000000E+02 0.  0.
    9900012    2    3    3    0    0 -0.31072912657E+02 -0.18580026471E+02  0.67108750208E+01  0.54367093870E+02  0.40000022096E+02 0.  0.
        -12    1    3    3    0    0  0.31072912657E+02  0.18580026471E+02 -0.67108750208E+01  0.36820906130E+02  0.00000000000E+00 0.  1.
         11    1    4    4    0    0 -0.11256841078E+02  0.75775795998E+01  0.77617304326E+01  0.15632678696E+02  0.51100000000E-03 0. -1.
        -11    1    4    4    0    0  0.12894877727E+01 -0.12933340924E+02  0.33969651204E+01  0.13434041033E+02  0.51100000000E-03 0.  1.
         12    1    4    4    0    0 -0.21105559352E+02 -0.13224265146E+02 -0.44478205322E+01  0.25300374141E+02  0.00000000000E+00 0. -1.
</event>
<event>
 8    1  0.1248739E-006  0.9118800E+02  0.7816164E-02  0.1184000E+00
        -11   -1    0    0    0    0  0.00000000000E+00  0.00000000000E+00  0.45593999997E+02  0.45594000000E+02  0.51100000000E-03 0. -1.
         11   -1    0    0    0    0 -0.00000000000E+00 -0.00000000000E+00 -0.45593999997E+02  0.45594000000E+02  0.51100000000E-03 0.  1.
         23    2    1    2    0    0  0.35527136788E-14  0.17763568394E-14  0.00000000000E+00  0.91188000000E+02  0.91188000000E+02 0.  0.
    9900012    2    3    3    0    0  0.25329562246E+02  0.97828010205E+01 -0.24869489503E+02  0.54367062647E+02  0.39999950917E+02 0.  0.
         12    1    3    3    0    0 -0.25329562246E+02 -0.97828010205E+01  0.24869489503E+02  0.36820937353E+02  0.00000000000E+00 0. -1.
         11    1    4    4    0    0  0.24798602951E+01  0.37466869262E+01 -0.28573830466E+01  0.53246603781E+01  0.51100000000E-03 0. -1.
        -11    1    4    4    0    0 -0.64434752741E+00  0.69530993845E+01 -0.24428203559E+02  0.25406650787E+02  0.51100000000E-03 0.  1.
         12    1    4    4    0    0  0.23494049479E+02 -0.91698529020E+00  0.24160971031E+01  0.23635751483E+02  0.00000000000E+00 0. -1.
</event>
<event>
 8    1  0.1248739E-006  0.9118800E+02  0.7816164E-02  0.1184000E+00
        -11   -1    0    0    0    0  0.00000000000E+00  0.00000000000E+00  0.45593999997E+02  0.45594000000E+02  0.51100000000E-03 0. -1.
         11   -1    0    0    0    0 -0.00000000000E+00 -0.00000000000E+00 -0.45593999997E+02  0.45594000000E+02  0.51100000000E-03 0.  1.
         23    2    1    2    0    0 -0.35527136788E-14  0.35527136788E-14  0.44408920985E-15  0.91188000000E+02  0.91188000000E+02 0.  0.
    9900012    2    3    3    0    0 -0.29594486131E+02 -0.21899080699E+02 -0.61352397763E+00  0.54367085339E+02  0.40000002646E+02 0.  0.
        -12    1    3    3    0    0  0.29594486131E+02  0.21899080699E+02  0.61352397763E+00  0.36820914661E+02  0.00000000000E+00 0.  1.
         11    1    4    4    0    0 -0.69408488448E+01 -0.10837283689E+02  0.11749942054E+02  0.17426509661E+02  0.51100000000E-03 0. -1.
        -11    1    4    4    0    0  0.50938205880E+01 -0.13969436276E+01 -0.31384028639E+01  0.61439427470E+01  0.51100000000E-03 0.  1.
         12    1    4    4    0    0 -0.27747457875E+02 -0.96648533826E+01 -0.92250631676E+01  0.30796632931E+02  0.00000000000E+00 0. -1.
</event>
<event>
 8    1  0.1248739E-006  0.9118800E+02  0.7816164E-02  0.1184000E+00
        -11   -1    0    0    0    0  0.00000000000E+00  0.00000000000E+00  0.45593999997E+02  0.45594000000E+02  0.51100000000E-03 0. -1.
         11   -1    0    0    0    0 -0.00000000000E+00 -0.00000000000E+00 -0.45593999997E+02  0.45594000000E+02  0.51100000000E-03 0.  1.
         23    2    1    2    0    0  0.00000000000E+00  0.00000000000E+00  0.00000000000E+00  0.91188000000E+02  0.91188000000E+02 0.  0.
    9900012    2    3    3    0    0 -0.24108005757E+02  0.16549573268E+02  0.22376249289E+02  0.54367070501E+02  0.39999968822E+02 0.  0.
        -12    1    3    3    0    0  0.24108005757E+02 -0.16549573268E+02 -0.22376249289E+02  0.36820929499E+02  0.00000000000E+00 0.  1.
         11    1    4    4    0    0 -0.85569977923E+01  0.30630689549E+01  0.52584495358E+01  0.10500280683E+02  0.51100000000E-03 0. -1.
        -11    1    4    4    0    0 -0.11822413819E+02 -0.11763669620E+01 -0.81557984208E+01  0.14410772217E+02  0.51100000000E-03 0.  1.
        -12    1    4    4    0    0 -0.37285941455E+01  0.14662871275E+02  0.25273598174E+02  0.29456017602E+02  0.00000000000E+00 0.  1.
</event>
<event>
 8    1  0.1248739E-006  0.9118800E+02  0.7816164E-02  0.1184000E+00
        -11   -1    0    0    0    0  0.00000000000E+00  0.00000000000E+00  0.45593999997E+02  0.45594000000E+02  0.51100000000E-03 0. -1.
         11   -1    0    0    0    0 -0.00000000000E+00 -0.00000000000E+00 -0.45593999997E+02  0.45594000000E+02  0.51100000000E-03 0.  1.
         23    2    1    2    0    0 -0.35527136788E-14  0.00000000000E+00  0.00000000000E+00  0.91188000000E+02  0.91188000000E+02 0.  0.
    9900012    2    3    3    0    0 -0.22954101196E+02 -0.18558759175E+02  0.22010460016E+02  0.54367100310E+02  0.40000036777E+02 0.  0.
        -12    1    3    3    0    0  0.22954101196E+02  0.18558759175E+02 -0.22010460016E+02  0.36820899690E+02  0.00000000000E+00 0.  1.
         11    1    4    4    0    0 -0.28669734477E+02 -0.57058295027E+01  0.19701155187E+01  0.29298319418E+02  0.51100000000E-03 0. -1.
        -11    1    4    4    0    0  0.38364436277E+01 -0.10081577080E+02  0.10903122477E+02  0.15337358838E+02  0.51100000000E-03 0.  1.
         12    1    4    4    0    0  0.18791896533E+01 -0.27713525925E+01  0.91372220201E+01  0.97314220538E+01  0.00000000000E+00 0. -1.
</event>
<event>
 8    1  0.1248739E-006  0.9118800E+02  0.7816164E-02  0.1184000E+00
        -11   -1    0    0    0    0  0.00000000000E+00  0.00000000000E+00  0.45593999997E+02  0.45594000000E+02  0.51100000000E-03 0. -1.
         11   -1    0    0    0    0 -0.00000000000E+00 -0.00000000000E+00 -0.45593999997E+02  0.45594000000E+02  0.51100000000E-03 0.  1.
         23    2    1    2    0    0 -0.17763568394E-14  0.00000000000E+00 -0.17763568394E-14  0.91188000000E+02  0.91188000000E+02 0.  0.
    9900012    2    3    3    0    0 -0.11038871622E+02 -0.32861338263E+02 -0.12411943277E+02  0.54367074223E+02  0.39999977307E+02 0.  0.
         12    1    3    3    0    0  0.11038871622E+02  0.32861338263E+02  0.12411943277E+02  0.36820925777E+02  0.00000000000E+00 0. -1.
         11    1    4    4    0    0  0.24122213034E+01 -0.18929834037E+02  0.14481891389E+01  0.19137781489E+02  0.51100000000E-03 0.  1.
        -11    1    4    4    0    0 -0.21159763267E+02 -0.88717770786E+01 -0.11715443044E+02  0.25762290582E+02  0.51100000000E-03 0. -1.
         12    1    4    4    0    0  0.77086703417E+01 -0.50597271483E+01 -0.21446893718E+01  0.94670021524E+01  0.00000000000E+00 0. -1.
</event>
<event>
 8    1  0.1248739E-006  0.9118800E+02  0.7816164E-02  0.1184000E+00
        -11   -1    0    0    0    0  0.00000000000E+00  0.00000000000E+00  0.45593999997E+02  0.45594000000E+02  0.51100000000E-03 0.  1.
         11   -1    0    0    0    0 -0.00000000000E+00 -0.00000000000E+00 -0.45593999997E+02  0.45594000000E+02  0.51100000000E-03 0. -1.
         23    2    1    2    0    0  0.00000000000E+00  0.00000000000E+00  0.71054273576E-14  0.91188000000E+02  0.91188000000E+02 0.  0.
    9900012    2    3    3    0    0  0.13390189086E+02  0.23181057320E+01 -0.34221439974E+02  0.54367112832E+02  0.40000065323E+02 0.  0.
        -12    1    3    3    0    0 -0.13390189086E+02 -0.23181057320E+01  0.34221439974E+02  0.36820887168E+02  0.00000000000E+00 0.  1.
         11    1    4    4    0    0  0.16767874985E+02  0.95817329305E+00 -0.32556321546E+02  0.36633233551E+02  0.51100000000E-03 0. -1.
        -11    1    4    4    0    0 -0.31277724560E+01 -0.77554925659E+01 -0.20387132647E+01  0.86073792477E+01  0.51100000000E-03 0.  1.
        -12    1    4    4    0    0 -0.24991344247E+00  0.91154250049E+01  0.37359483643E+00  0.91265000329E+01  0.00000000000E+00 0.  1.
</event>
<event>
 8    1  0.1248739E-006  0.9118800E+02  0.7816164E-02  0.1184000E+00
        -11   -1    0    0    0    0  0.00000000000E+00  0.00000000000E+00  0.45593999997E+02  0.45594000000E+02  0.51100000000E-03 0.  1.
         11   -1    0    0    0    0 -0.00000000000E+00 -0.00000000000E+00 -0.45593999997E+02  0.45594000000E+02  0.51100000000E-03 0. -1.
         23    2    1    2    0    0 -0.17763568394E-14  0.71054273576E-14 -0.13322676296E-14  0.91188000000E+02  0.91188000000E+02 0.  0.
    9900012    2    3    3    0    0 -0.14245604148E+02 -0.33783808277E+02  0.33907022218E+01  0.54367084737E+02  0.40000001275E+02 0.  0.
         12    1    3    3    0    0  0.14245604148E+02  0.33783808277E+02 -0.33907022218E+01  0.36820915263E+02  0.00000000000E+00 0. -1.
         11    1    4    4    0    0 -0.17536893371E+02 -0.22788109247E+02 -0.69530216347E+01  0.29583526873E+02  0.51100000000E-03 0. -1.
        -11    1    4    4    0    0 -0.29118041990E+01 -0.14282248539E+02  0.35231130561E+01  0.14995784504E+02  0.51100000000E-03 0.  1.
         12    1    4    4    0    0  0.62030934215E+01  0.32865495082E+01  0.68206108004E+01  0.97877733604E+01  0.00000000000E+00 0. -1.
</event>
<event>
 8    1  0.1248739E-006  0.9118800E+02  0.7816164E-02  0.1184000E+00
        -11   -1    0    0    0    0  0.00000000000E+00  0.00000000000E+00  0.45593999997E+02  0.45594000000E+02  0.51100000000E-03 0.  1.
         11   -1    0    0    0    0 -0.00000000000E+00 -0.00000000000E+00 -0.45593999997E+02  0.45594000000E+02  0.51100000000E-03 0. -1.
         23    2    1    2    0    0 -0.88817841970E-15  0.17763568394E-14 -0.71054273576E-14  0.91188000000E+02  0.91188000000E+02 0.  0.
    9900012    2    3    3    0    0  0.46511974422E+01 -0.14063009523E+02 -0.33710200703E+02  0.54367088741E+02  0.40000010403E+02 0.  0.
        -12    1    3    3    0    0 -0.46511974422E+01  0.14063009523E+02  0.33710200703E+02  0.36820911259E+02  0.00000000000E+00 0.  1.
         11    1    4    4    0    0 -0.40189550176E+01  0.28210563483E+01  0.26307189306E+01  0.55705512031E+01  0.51100000000E-03 0. -1.
        -11    1    4    4    0    0 -0.82430028930E+01 -0.29773980309E+01 -0.37493613463E+01  0.95325603326E+01  0.51100000000E-03 0.  1.
         12    1    4    4    0    0  0.16913155353E+02 -0.13906667840E+02 -0.32591558287E+02  0.39263977206E+02  0.00000000000E+00 0. -1.
</event>
<event>
 8    1  0.1248739E-006  0.9118800E+02  0.7816164E-02  0.1184000E+00
        -11   -1    0    0    0    0  0.00000000000E+00  0.00000000000E+00  0.45593999997E+02  0.45594000000E+02  0.51100000000E-03 0.  1.
         11   -1    0    0    0    0 -0.00000000000E+00 -0.00000000000E+00 -0.45593999997E+02  0.45594000000E+02  0.51100000000E-03 0. -1.
         23    2    1    2    0    0  0.35527136788E-14  0.00000000000E+00 -0.35527136788E-14  0.91188000000E+02  0.91188000000E+02 0.  0.
    9900012    2    3    3    0    0 -0.30523016466E+02 -0.85357556483E+01  0.18742091479E+02  0.54367086762E+02  0.40000005892E+02 0.  0.
         12    1    3    3    0    0  0.30523016466E+02  0.85357556483E+01 -0.18742091479E+02  0.36820913238E+02  0.00000000000E+00 0. -1.
         11    1    4    4    0    0 -0.16643112265E+02 -0.99298674357E+01 -0.10217312297E+02  0.21908649524E+02  0.51100000000E-03 0. -1.
        -11    1    4    4    0    0 -0.13323386486E+02  0.28406470993E+00  0.25317269107E+02  0.28610442770E+02  0.51100000000E-03 0.  1.
         12    1    4    4    0    0 -0.55651771501E+00  0.11100470774E+01  0.36421346687E+01  0.38479944680E+01  0.00000000000E+00 0. -1.
</event>
<event>
 8    1  0.1248739E-006  0.9118800E+02  0.7816164E-02  0.1184000E+00
        -11   -1    0    0    0    0  0.00000000000E+00  0.00000000000E+00  0.45593999997E+02  0.45594000000E+02  0.51100000000E-03 0. -1.
         11   -1    0    0    0    0 -0.00000000000E+00 -0.00000000000E+00 -0.45593999997E+02  0.45594000000E+02  0.51100000000E-03 0.  1.
         23    2    1    2    0    0  0.00000000000E+00 -0.33306690739E-15 -0.35527136788E-14  0.91188000000E+02  0.91188000000E+02 0.  0.
    9900012    2    3    3    0    0 -0.19220646400E+02 -0.85806439895E+00 -0.31394449358E+02  0.54367068819E+02  0.39999964987E+02 0.  0.
         12    1    3    3    0    0  0.19220646400E+02  0.85806439895E+00  0.31394449358E+02  0.36820931181E+02  0.00000000000E+00 0. -1.
         11    1    4    4    0    0 -0.83669058350E+01  0.18642018982E+01  0.44309532814E+01  0.96495445080E+01  0.51100000000E-03 0. -1.
        -11    1    4    4    0    0 -0.14663109548E+02 -0.73054504289E+01 -0.35073328759E+02  0.38710654581E+02  0.51100000000E-03 0.  1.
        -12    1    4    4    0    0  0.38093689829E+01  0.45831841317E+01 -0.75207388018E+00  0.60068697301E+01  0.00000000000E+00 0.  1.
</event>
<event>
 8    1  0.1248739E-006  0.9118800E+02  0.7816164E-02  0.1184000E+00
        -11   -1    0    0    0    0  0.00000000000E+00  0.00000000000E+00  0.45593999997E+02  0.45594000000E+02  0.51100000000E-03 0.  1.
         11   -1    0    0    0    0 -0.00000000000E+00 -0.00000000000E+00 -0.45593999997E+02  0.45594000000E+02  0.51100000000E-03 0. -1.
         23    2    1    2    0    0  0.71054273576E-14  0.88817841970E-15  0.88817841970E-15  0.91188000000E+02  0.91188000000E+02 0.  0.
    9900012    2    3    3    0    0  0.36040543540E+02 -0.50499328270E+01  0.55997486556E+01  0.54367084949E+02  0.40000001757E+02 0.  0.
         12    1    3    3    0    0 -0.36040543540E+02  0.50499328270E+01 -0.55997486556E+01  0.36820915051E+02  0.00000000000E+00 0. -1.
         11    1    4    4    0    0  0.10385957117E+01  0.73157787901E+01 -0.34684771262E+01  0.81626977277E+01  0.51100000000E-03 0. -1.
        -11    1    4    4    0    0  0.20442957141E+02  0.61351053543E+01  0.74495451947E+01  0.22606409229E+02  0.51100000000E-03 0.  1.
        -12    1    4    4    0    0  0.14558990687E+02 -0.18500816971E+02  0.16186805871E+01  0.23597977991E+02  0.00000000000E+00 0.  1.
</event>
<event>
 8    1  0.1248739E-006  0.9118800E+02  0.7816164E-02  0.1184000E+00
        -11   -1    0    0    0    0  0.00000000000E+00  0.00000000000E+00  0.45593999997E+02  0.45594000000E+02  0.51100000000E-03 0. -1.
         11   -1    0    0    0    0 -0.00000000000E+00 -0.00000000000E+00 -0.45593999997E+02  0.45594000000E+02  0.51100000000E-03 0.  1.
         23    2    1    2    0    0 -0.35527136788E-14  0.00000000000E+00  0.00000000000E+00  0.91188000000E+02  0.91188000000E+02 0.  0.
    9900012    2    3    3    0    0  0.30868818646E+02 -0.16573630386E+02  0.11322787353E+02  0.54367153972E+02  0.40000159110E+02 0.  0.
        -12    1    3    3    0    0 -0.30868818646E+02  0.16573630386E+02 -0.11322787353E+02  0.36820846028E+02  0.00000000000E+00 0.  1.
         11    1    4    4    0    0  0.19182701636E+02 -0.57220209386E+01  0.13700501993E+02  0.24257397239E+02  0.51100000000E-03 0. -1.
        -11    1    4    4    0    0 -0.50708624278E+01 -0.11455627476E+02 -0.42699491041E+01  0.13235464187E+02  0.51100000000E-03 0.  1.
        -12    1    4    4    0    0  0.16756979438E+02  0.60401802866E+00  0.18922344633E+01  0.16874292546E+02  0.00000000000E+00 0.  1.
</event>
<event>
 8    1  0.1248739E-006  0.9118800E+02  0.7816164E-02  0.1184000E+00
        -11   -1    0    0    0    0  0.00000000000E+00  0.00000000000E+00  0.45593999997E+02  0.45594000000E+02  0.51100000000E-03 0.  1.
         11   -1    0    0    0    0 -0.00000000000E+00 -0.00000000000E+00 -0.45593999997E+02  0.45594000000E+02  0.51100000000E-03 0. -1.
         23    2    1    2    0    0  0.00000000000E+00  0.17763568394E-14  0.00000000000E+00  0.91188000000E+02  0.91188000000E+02 0.  0.
    9900012    2    3    3    0    0  0.21839723436E+02 -0.12248595792E+02  0.26995889752E+02  0.54367086348E+02  0.40000004947E+02 0.  0.
         12    1    3    3    0    0 -0.21839723436E+02  0.12248595792E+02 -0.26995889752E+02  0.36820913652E+02  0.00000000000E+00 0. -1.
         11    1    4    4    0    0  0.42606157179E+01  0.47276445284E+01  0.73008063112E+01  0.96853106371E+01  0.51100000000E-03 0. -1.
        -11    1    4    4    0    0  0.26545978810E+02 -0.93175355740E+01  0.15776925719E+02  0.32255493262E+02  0.51100000000E-03 0.  1.
         12    1    4    4    0    0 -0.89668710914E+01 -0.76587047469E+01  0.39181577217E+01  0.12426282449E+02  0.00000000000E+00 0. -1.
</event>
<event>
 8    1  0.1248739E-006  0.9118800E+02  0.7816164E-02  0.1184000E+00
        -11   -1    0    0    0    0  0.00000000000E+00  0.00000000000E+00  0.45593999997E+02  0.45594000000E+02  0.51100000000E-03 0.  1.
         11   -1    0    0    0    0 -0.00000000000E+00 -0.00000000000E+00 -0.45593999997E+02  0.45594000000E+02  0.51100000000E-03 0. -1.
         23    2    1    2    0    0  0.35527136788E-14  0.26645352591E-14 -0.35527136788E-14  0.91188000000E+02  0.91188000000E+02 0.  0.
    9900012    2    3    3    0    0 -0.29616082996E+02 -0.69752014414E+01  0.20736820162E+02  0.54367061424E+02  0.39999948128E+02 0.  0.
         12    1    3    3    0    0  0.29616082996E+02  0.69752014414E+01 -0.20736820162E+02  0.36820938576E+02  0.00000000000E+00 0. -1.
         11    1    4    4    0    0 -0.80397622499E+01 -0.92748888549E+00  0.56725639110E+00  0.81129398335E+01  0.51100000000E-03 0. -1.
        -11    1    4    4    0    0 -0.28896061796E+01 -0.17868771266E+02  0.15091238489E+02  0.23566677530E+02  0.51100000000E-03 0.  1.
         12    1    4    4    0    0 -0.18686714567E+02  0.11821058710E+02  0.50783252825E+01  0.22687444060E+02  0.00000000000E+00 0. -1.
</event>
<event>
 8    1  0.1248739E-006  0.9118800E+02  0.7816164E-02  0.1184000E+00
        -11   -1    0    0    0    0  0.00000000000E+00  0.00000000000E+00  0.45593999997E+02  0.45594000000E+02  0.51100000000E-03 0.  1.
         11   -1    0    0    0    0 -0.00000000000E+00 -0.00000000000E+00 -0.45593999997E+02  0.45594000000E+02  0.51100000000E-03 0. -1.
         23    2    1    2    0    0  0.00000000000E+00  0.17763568394E-14  0.00000000000E+00  0.91188000000E+02  0.91188000000E+02 0.  0.
    9900012    2    3    3    0    0  0.18863060435E+02  0.40250106783E+01  0.31365030912E+02  0.54367069485E+02  0.39999966504E+02 0.  0.
         12    1    3    3    0    0 -0.18863060435E+02 -0.40250106783E+01 -0.31365030912E+02  0.36820930515E+02  0.00000000000E+00 0. -1.
         11    1    4    4    0    0  0.21766892171E+02  0.14964308125E+02  0.29587090304E+02  0.39662627565E+02  0.51100000000E-03 0. -1.
        -11    1    4    4    0    0 -0.52136610347E+00 -0.62185275822E+01  0.54348445251E+01  0.82752307024E+01  0.51100000000E-03 0.  1.
         12    1    4    4    0    0 -0.23824656331E+01 -0.47207698647E+01 -0.36569039175E+01  0.64292112168E+01  0.00000000000E+00 0. -1.
</event>
<event>
 8    1  0.1248739E-006  0.9118800E+02  0.7816164E-02  0.1184000E+00
        -11   -1    0    0    0    0  0.00000000000E+00  0.00000000000E+00  0.45593999997E+02  0.45594000000E+02  0.51100000000E-03 0.  1.
         11   -1    0    0    0    0 -0.00000000000E+00 -0.00000000000E+00 -0.45593999997E+02  0.45594000000E+02  0.51100000000E-03 0. -1.
         23    2    1    2    0    0  0.00000000000E+00  0.00000000000E+00  0.22204460493E-14  0.91188000000E+02  0.91188000000E+02 0.  0.
    9900012    2    3    3    0    0 -0.97033851618E+01  0.35312222986E+02  0.38302712832E+01  0.54367085374E+02  0.40000002727E+02 0.  0.
        -12    1    3    3    0    0  0.97033851618E+01 -0.35312222986E+02 -0.38302712832E+01  0.36820914626E+02  0.00000000000E+00 0.  1.
         11    1    4    4    0    0 -0.91485064149E+01  0.14697668689E+02  0.90737844975E+01  0.19546104468E+02  0.51100000000E-03 0. -1.
        -11    1    4    4    0    0  0.10528886498E+01  0.77308543482E+01 -0.16103628118E+02  0.17894175652E+02  0.51100000000E-03 0.  1.
        -12    1    4    4    0    0 -0.16077673966E+01  0.12883699949E+02  0.10860114903E+02  0.16926805253E+02  0.00000000000E+00 0.  1.
</event>
<event>
 8    1  0.1248739E-006  0.9118800E+02  0.7816164E-02  0.1184000E+00
        -11   -1    0    0    0    0  0.00000000000E+00  0.00000000000E+00  0.45593999997E+02  0.45594000000E+02  0.51100000000E-03 0.  1.
         11   -1    0    0    0    0 -0.00000000000E+00 -0.00000000000E+00 -0.45593999997E+02  0.45594000000E+02  0.51100000000E-03 0. -1.
         23    2    1    2    0    0  0.00000000000E+00  0.35527136788E-14  0.00000000000E+00  0.91188000000E+02  0.91188000000E+02 0.  0.
    9900012    2    3    3    0    0 -0.47118943177E+01 -0.29504960893E+02  0.21518273003E+02  0.54367072005E+02  0.39999972251E+02 0.  0.
         12    1    3    3    0    0  0.47118943177E+01  0.29504960893E+02 -0.21518273003E+02  0.36820927995E+02  0.00000000000E+00 0. -1.
         11    1    4    4    0    0  0.21047058613E+01 -0.95180001636E+01 -0.44323319315E+01  0.10708299608E+02  0.51100000000E-03 0. -1.
        -11    1    4    4    0    0  0.10285439202E+02 -0.70452362288E+01  0.15229325934E+02  0.19681412088E+02  0.51100000000E-03 0.  1.
         12    1    4    4    0    0 -0.17102039381E+02 -0.12941724500E+02  0.10721279000E+02  0.23977360310E+02  0.00000000000E+00 0. -1.
</event>
<event>
 8    1  0.1248739E-006  0.9118800E+02  0.7816164E-02  0.1184000E+00
        -11   -1    0    0    0    0  0.00000000000E+00  0.00000000000E+00  0.45593999997E+02  0.45594000000E+02  0.51100000000E-03 0.  1.
         11   -1    0    0    0    0 -0.00000000000E+00 -0.00000000000E+00 -0.45593999997E+02  0.45594000000E+02  0.51100000000E-03 0. -1.
         23    2    1    2    0    0  0.00000000000E+00  0.35527136788E-14  0.00000000000E+00  0.91188000000E+02  0.91188000000E+02 0.  0.
    9900012    2    3    3    0    0  0.54495506134E+01 -0.29357033600E+02 -0.21546383690E+02  0.54367086462E+02  0.40000005207E+02 0.  0.
        -12    1    3    3    0    0 -0.54495506134E+01  0.29357033600E+02  0.21546383690E+02  0.36820913538E+02  0.00000000000E+00 0.  1.
         11    1    4    4    0    0  0.52494022952E+01 -0.19136243325E+02 -0.11536789074E+02  0.22953203164E+02  0.51100000000E-03 0. -1.
        -11    1    4    4    0    0 -0.71453143531E+01 -0.49179013022E+01 -0.17582681034E+02  0.19605916021E+02  0.51100000000E-03 0.  1.
         12    1    4    4    0    0  0.73454626713E+01 -0.53028889723E+01  0.75730864187E+01  0.11807967277E+02  0.00000000000E+00 0. -1.
</event>
<event>
 8    1  0.1248739E-006  0.9118800E+02  0.7816164E-02  0.1184000E+00
        -11   -1    0    0    0    0  0.00000000000E+00  0.00000000000E+00  0.45593999997E+02  0.45594000000E+02  0.51100000000E-03 0.  1.
         11   -1    0    0    0    0 -0.00000000000E+00 -0.00000000000E+00 -0.45593999997E+02  0.45594000000E+02  0.51100000000E-03 0. -1.
         23    2    1    2    0    0 -0.35527136788E-14  0.00000000000E+00  0.00000000000E+00  0.91188000000E+02  0.91188000000E+02 0.  0.
    9900012    2    3    3    0    0  0.30403175991E+02 -0.18368506517E+02  0.96966352321E+01  0.54367083704E+02  0.39999998921E+02 0.  0.
         12    1    3    3    0    0 -0.30403175991E+02  0.18368506517E+02 -0.96966352321E+01  0.36820916296E+02  0.00000000000E+00 0. -1.
         11    1    4    4    0    0  0.24301081709E+01 -0.22862927145E+01  0.13927316795E+02  0.14321407524E+02  0.51100000000E-03 0. -1.
        -11    1    4    4    0    0  0.19030997961E+02 -0.16421895364E+02  0.66075043161E+01  0.25990703036E+02  0.51100000000E-03 0.  1.
         12    1    4    4    0    0  0.89420698593E+01  0.33968156173E+00 -0.10838185879E+02  0.14054973144E+02  0.00000000000E+00 0. -1.
</event>
<event>
 8    1  0.1248739E-006  0.9118800E+02  0.7816164E-02  0.1184000E+00
        -11   -1    0    0    0    0  0.00000000000E+00  0.00000000000E+00  0.45593999997E+02  0.45594000000E+02  0.51100000000E-03 0.  1.
         11   -1    0    0    0    0 -0.00000000000E+00 -0.00000000000E+00 -0.45593999997E+02  0.45594000000E+02  0.51100000000E-03 0. -1.
         23    2    1    2    0    0 -0.88817841970E-15 -0.44408920985E-15  0.00000000000E+00  0.91188000000E+02  0.91188000000E+02 0.  0.
    9900012    2    3    3    0    0  0.48822599406E+01  0.37068944908E+01 -0.36307029117E+02  0.54367110655E+02  0.40000060360E+02 0.  0.
        -12    1    3    3    0    0 -0.48822599406E+01 -0.37068944908E+01  0.36307029117E+02  0.36820889345E+02  0.00000000000E+00 0.  1.
         11    1    4    4    0    0  0.60440754730E+00 -0.11472945731E+02 -0.17569125525E+01  0.11622415162E+02  0.51100000000E-03 0.  1.
        -11    1    4    4    0    0  0.24473954238E+01 -0.28757566098E+01 -0.66164269594E-01  0.37767841361E+01  0.51100000000E-03 0. -1.
        -12    1    4    4    0    0  0.18304569694E+01  0.18055596831E+02 -0.34483952295E+02  0.38967911357E+02  0.00000000000E+00 0.  1.
</event>
<event>
 8    1  0.1248739E-006  0.9118800E+02  0.7816164E-02  0.1184000E+00
        -11   -1    0    0    0    0  0.00000000000E+00  0.00000000000E+00  0.45593999997E+02  0.45594000000E+02  0.51100000000E-03 0.  1.
         11   -1    0    0    0    0 -0.00000000000E+00 -0.00000000000E+00 -0.45593999997E+02  0.45594000000E+02  0.51100000000E-03 0. -1.
         23    2    1    2    0    0 -0.71054273576E-14 -0.35527136788E-14  0.00000000000E+00  0.91188000000E+02  0.91188000000E+02 0.  0.
    9900012    2    3    3    0    0 -0.27216086206E+02 -0.24694084360E+02  0.22949085590E+01  0.54367085345E+02  0.40000002661E+02 0.  0.
        -12    1    3    3    0    0  0.27216086206E+02  0.24694084360E+02 -0.22949085590E+01  0.36820914655E+02  0.00000000000E+00 0.  1.
         11    1    4    4    0    0 -0.18979496193E+02 -0.44067301605E+01 -0.54668418841E+01  0.20236771158E+02  0.51100000000E-03 0. -1.
        -11    1    4    4    0    0 -0.42824401235E+01  0.38987928257E+01 -0.39078892763E+01  0.69865211490E+01  0.51100000000E-03 0.  1.
        -12    1    4    4    0    0 -0.39541498887E+01 -0.24186147026E+02  0.11669639719E+02  0.27143793038E+02  0.00000000000E+00 0.  1.
</event>
<event>
 8    1  0.1248739E-006  0.9118800E+02  0.7816164E-02  0.1184000E+00
        -11   -1    0    0    0    0  0.00000000000E+00  0.00000000000E+00  0.45593999997E+02  0.45594000000E+02  0.51100000000E-03 0.  1.
         11   -1    0    0    0    0 -0.00000000000E+00 -0.00000000000E+00 -0.45593999997E+02  0.45594000000E+02  0.51100000000E-03 0. -1.
         23    2    1    2    0    0 -0.35527136788E-14  0.00000000000E+00  0.00000000000E+00  0.91188000000E+02  0.91188000000E+02 0.  0.
    9900012    2    3    3    0    0  0.31070576198E+02  0.19415095950E+02  0.36677758117E+01  0.54367092414E+02  0.40000018777E+02 0.  0.
         12    1    3    3    0    0 -0.31070576198E+02 -0.19415095950E+02 -0.36677758117E+01  0.36820907586E+02  0.00000000000E+00 0. -1.
         11    1    4    4    0    0  0.10863447743E+02 -0.28362516509E+01  0.83590608757E-01  0.11227903096E+02  0.51100000000E-03 0. -1.
        -11    1    4    4    0    0  0.27335377181E+02  0.15078325530E+02 -0.25322449008E+01  0.31320776026E+02  0.51100000000E-03 0.  1.
         12    1    4    4    0    0 -0.71282487255E+01  0.71730220707E+01  0.61164301037E+01  0.11818413292E+02  0.00000000000E+00 0. -1.
</event>
<event>
 8    1  0.1248739E-006  0.9118800E+02  0.7816164E-02  0.1184000E+00
        -11   -1    0    0    0    0  0.00000000000E+00  0.00000000000E+00  0.45593999997E+02  0.45594000000E+02  0.51100000000E-03 0.  1.
         11   -1    0    0    0    0 -0.00000000000E+00 -0.00000000000E+00 -0.45593999997E+02  0.45594000000E+02  0.51100000000E-03 0. -1.
         23    2    1    2    0    0  0.00000000000E+00 -0.17763568394E-14 -0.71054273576E-14  0.91188000000E+02  0.91188000000E+02 0.  0.
    9900012    2    3    3    0    0 -0.55435128693E+01 -0.87872084568E+01 -0.35324667300E+02  0.54367113437E+02  0.40000066703E+02 0.  0.
        -12    1    3    3    0    0  0.55435128693E+01  0.87872084568E+01  0.35324667300E+02  0.36820886563E+02  0.00000000000E+00 0.  1.
         11    1    4    4    0    0  0.58220681030E+00 -0.41113515037E+01  0.28901908721E+01  0.50591876320E+01  0.51100000000E-03 0. -1.
        -11    1    4    4    0    0 -0.77592903723E+01  0.48882130844E+01  0.70419566185E+00  0.91976685107E+01  0.51100000000E-03 0.  1.
         12    1    4    4    0    0  0.16335706927E+01 -0.95640700375E+01 -0.38919053834E+02  0.40110257295E+02  0.00000000000E+00 0. -1.
</event>
<event>
 8    1  0.1248739E-006  0.9118800E+02  0.7816164E-02  0.1184000E+00
        -11   -1    0    0    0    0  0.00000000000E+00  0.00000000000E+00  0.45593999997E+02  0.45594000000E+02  0.51100000000E-03 0.  1.
         11   -1    0    0    0    0 -0.00000000000E+00 -0.00000000000E+00 -0.45593999997E+02  0.45594000000E+02  0.51100000000E-03 0. -1.
         23    2    1    2    0    0 -0.17763568394E-14  0.17763568394E-14 -0.71054273576E-14  0.91188000000E+02  0.91188000000E+02 0.  0.
    9900012    2    3    3    0    0  0.32242448174E+01  0.86977758216E+01  0.35633332494E+02  0.54367062431E+02  0.39999950423E+02 0.  0.
         12    1    3    3    0    0 -0.32242448174E+01 -0.86977758216E+01 -0.35633332494E+02  0.36820937569E+02  0.00000000000E+00 0. -1.
         11    1    4    4    0    0  0.13047258606E+02 -0.54398440940E+01  0.14361794561E+02  0.20151526101E+02  0.51100000000E-03 0. -1.
        -11    1    4    4    0    0 -0.50948536179E+01  0.16638977671E+02  0.22772329276E+02  0.28659938804E+02  0.51100000000E-03 0.  1.
        -12    1    4    4    0    0 -0.47281601708E+01 -0.25013577549E+01 -0.15007913437E+01  0.55555975265E+01  0.00000000000E+00 0.  1.
</event>
<event>
 8    1  0.1248739E-006  0.9118800E+02  0.7816164E-02  0.1184000E+00
        -11   -1    0    0    0    0  0.00000000000E+00  0.00000000000E+00  0.45593999997E+02  0.45594000000E+02  0.51100000000E-03 0. -1.
         11   -1    0    0    0    0 -0.00000000000E+00 -0.00000000000E+00 -0.45593999997E+02  0.45594000000E+02  0.51100000000E-03 0.  1.
         23    2    1    2    0    0  0.71054273576E-14  0.00000000000E+00 -0.28865798640E-14  0.91188000000E+02  0.91188000000E+02 0.  0.
    9900012    2    3    3    0    0 -0.32995318075E+02  0.16236959927E+02  0.18574211504E+01  0.54367083446E+02  0.39999998332E+02 0.  0.
        -12    1    3    3    0    0  0.32995318075E+02 -0.16236959927E+02 -0.18574211504E+01  0.36820916554E+02  0.00000000000E+00 0.  1.
         11    1    4    4    0    0 -0.20967657123E+02  0.14403735433E+02 -0.10701938561E+02  0.27597857324E+02  0.51100000000E-03 0. -1.
        -11    1    4    4    0    0  0.21101223105E+01  0.38922454532E+01 -0.32263389699E+01  0.54782710998E+01  0.51100000000E-03 0.  1.
         12    1    4    4    0    0 -0.14137783263E+02 -0.20590209591E+01  0.15785698681E+02  0.21290955022E+02  0.00000000000E+00 0. -1.
</event>
<event>
 8    1  0.1248739E-006  0.9118800E+02  0.7816164E-02  0.1184000E+00
        -11   -1    0    0    0    0  0.00000000000E+00  0.00000000000E+00  0.45593999997E+02  0.45594000000E+02  0.51100000000E-03 0.  1.
         11   -1    0    0    0    0 -0.00000000000E+00 -0.00000000000E+00 -0.45593999997E+02  0.45594000000E+02  0.51100000000E-03 0. -1.
         23    2    1    2    0    0  0.88817841970E-15  0.00000000000E+00  0.17763568394E-14  0.91188000000E+02  0.91188000000E+02 0.  0.
    9900012    2    3    3    0    0  0.52706475315E+01 -0.34065666728E+02  0.12943226403E+02  0.54367129766E+02  0.40000103928E+02 0.  0.
         12    1    3    3    0    0 -0.52706475315E+01  0.34065666728E+02 -0.12943226403E+02  0.36820870234E+02  0.00000000000E+00 0. -1.
         11    1    4    4    0    0 -0.61033330332E+01 -0.19700377876E+02 -0.54140308768E+01  0.21322928813E+02  0.51100000000E-03 0. -1.
        -11    1    4    4    0    0  0.35033628262E+01  0.20376791701E+01  0.13667811427E+02  0.14256042822E+02  0.51100000000E-03 0.  1.
        -12    1    4    4    0    0  0.78706177386E+01 -0.16402968022E+02  0.46894458529E+01  0.18788158131E+02  0.00000000000E+00 0.  1.
</event>
<event>
 8    1  0.1248739E-006  0.9118800E+02  0.7816164E-02  0.1184000E+00
        -11   -1    0    0    0    0  0.00000000000E+00  0.00000000000E+00  0.45593999997E+02  0.45594000000E+02  0.51100000000E-03 0.  1.
         11   -1    0    0    0    0 -0.00000000000E+00 -0.00000000000E+00 -0.45593999997E+02  0.45594000000E+02  0.51100000000E-03 0. -1.
         23    2    1    2    0    0  0.88817841970E-15 -0.71054273576E-14 -0.17763568394E-14  0.91188000000E+02  0.91188000000E+02 0.  0.
    9900012    2    3    3    0    0 -0.32223010468E+01  0.35788433864E+02 -0.80364226465E+01  0.54367091383E+02  0.40000016425E+02 0.  0.
        -12    1    3    3    0    0  0.32223010468E+01 -0.35788433864E+02  0.80364226465E+01  0.36820908617E+02  0.00000000000E+00 0.  1.
         11    1    4    4    0    0 -0.84960923263E+00  0.13347461493E+02 -0.20070967834E+02  0.24118878792E+02  0.51100000000E-03 0. -1.
        -11    1    4    4    0    0  0.59661548645E+01  0.16066079576E+02  0.61067989170E+01  0.18193595304E+02  0.51100000000E-03 0.  1.
         12    1    4    4    0    0 -0.83388466787E+01  0.63748927942E+01  0.59277462704E+01  0.12054617286E+02  0.00000000000E+00 0. -1.
</event>
<event>
 8    1  0.1248739E-006  0.9118800E+02  0.7816164E-02  0.1184000E+00
        -11   -1    0    0    0    0  0.00000000000E+00  0.00000000000E+00  0.45593999997E+02  0.45594000000E+02  0.51100000000E-03 0. -1.
         11   -1    0    0    0    0 -0.00000000000E+00 -0.00000000000E+00 -0.45593999997E+02  0.45594000000E+02  0.51100000000E-03 0.  1.
         23    2    1    2    0    0 -0.71054273576E-14  0.00000000000E+00  0.00000000000E+00  0.91188000000E+02  0.91188000000E+02 0.  0.
    9900012    2    3    3    0    0  0.30602055277E+02 -0.90431903001E+01 -0.18371584585E+02  0.54367079342E+02  0.39999988975E+02 0.  0.
         12    1    3    3    0    0 -0.30602055277E+02  0.90431903001E+01  0.18371584585E+02  0.36820920658E+02  0.00000000000E+00 0. -1.
         11    1    4    4    0    0 -0.41531776470E+01 -0.76000138152E+01  0.36626273753E-03  0.86607791193E+01  0.51100000000E-03 0. -1.
        -11    1    4    4    0    0  0.13208265565E+02 -0.76815233041E+01 -0.17535975329E+02  0.23258858754E+02  0.51100000000E-03 0.  1.
         12    1    4    4    0    0  0.21546967359E+02  0.62383468191E+01 -0.83597551785E+00  0.22447441469E+02  0.00000000000E+00 0. -1.
</event>
<event>
 8    1  0.1248739E-006  0.9118800E+02  0.7816164E-02  0.1184000E+00
        -11   -1    0    0    0    0  0.00000000000E+00  0.00000000000E+00  0.45593999997E+02  0.45594000000E+02  0.51100000000E-03 0. -1.
         11   -1    0    0    0    0 -0.00000000000E+00 -0.00000000000E+00 -0.45593999997E+02  0.45594000000E+02  0.51100000000E-03 0.  1.
         23    2    1    2    0    0 -0.35527136788E-14 -0.22204460493E-15  0.00000000000E+00  0.91188000000E+02  0.91188000000E+02 0.  0.
    9900012    2    3    3    0    0 -0.21259659392E+02 -0.12742001418E+01  0.30036377974E+02  0.54367072455E+02  0.39999973275E+02 0.  0.
        -12    1    3    3    0    0  0.21259659392E+02  0.12742001418E+01 -0.30036377974E+02  0.36820927545E+02  0.00000000000E+00 0.  1.
         11    1    4    4    0    0  0.13879861876E+01  0.15954668302E+01  0.16220672860E+02  0.16357941446E+02  0.51100000000E-03 0. -1.
        -11    1    4    4    0    0 -0.14667283321E+02 -0.37388429753E+01  0.21896410781E+02  0.26618808241E+02  0.51100000000E-03 0.  1.
        -12    1    4    4    0    0 -0.79803622585E+01  0.86917600333E+00 -0.80807056662E+01  0.11390322768E+02  0.00000000000E+00 0.  1.
</event>
<event>
 8    1  0.1248739E-006  0.9118800E+02  0.7816164E-02  0.1184000E+00
        -11   -1    0    0    0    0  0.00000000000E+00  0.00000000000E+00  0.45593999997E+02  0.45594000000E+02  0.51100000000E-03 0. -1.
         11   -1    0    0    0    0 -0.00000000000E+00 -0.00000000000E+00 -0.45593999997E+02  0.45594000000E+02  0.51100000000E-03 0.  1.
         23    2    1    2    0    0  0.00000000000E+00 -0.88817841970E-15  0.71054273576E-14  0.91188000000E+02  0.91188000000E+02 0.  0.
    9900012    2    3    3    0    0  0.23172293025E+02  0.52833508976E+01  0.28123142594E+02  0.54367080537E+02  0.39999991699E+02 0.  0.
        -12    1    3    3    0    0 -0.23172293025E+02 -0.52833508976E+01 -0.28123142594E+02  0.36820919463E+02  0.00000000000E+00 0.  1.
         11    1    4    4    0    0  0.84196432067E+01  0.10934722374E+02  0.58312703686E+01  0.14982064594E+02  0.51100000000E-03 0. -1.
        -11    1    4    4    0    0  0.71817827550E+01 -0.54528416584E+01 -0.55117390398E+01  0.10568384607E+02  0.51100000000E-03 0.  1.
         12    1    4    4    0    0  0.75708670636E+01 -0.19852981766E+00  0.27803611265E+02  0.28816631336E+02  0.00000000000E+00 0. -1.
</event>
<event>
 8    1  0.1248739E-006  0.9118800E+02  0.7816164E-02  0.1184000E+00
        -11   -1    0    0    0    0  0.00000000000E+00  0.00000000000E+00  0.45593999997E+02  0.45594000000E+02  0.51100000000E-03 0.  1.
         11   -1    0    0    0    0 -0.00000000000E+00 -0.00000000000E+00 -0.45593999997E+02  0.45594000000E+02  0.51100000000E-03 0. -1.
         23    2    1    2    0    0  0.00000000000E+00  0.71054273576E-14 -0.88817841970E-15  0.91188000000E+02  0.91188000000E+02 0.  0.
    9900012    2    3    3    0    0  0.21438663852E+02 -0.29033516788E+02  0.72950722134E+01  0.54367089047E+02  0.40000011099E+02 0.  0.
         12    1    3    3    0    0 -0.21438663852E+02  0.29033516788E+02 -0.72950722134E+01  0.36820910953E+02  0.00000000000E+00 0. -1.
         11    1    4    4    0    0 -0.16527602853E+01  0.79670034320E+01  0.28638497316E+01  0.86259142004E+01  0.51100000000E-03 0. -1.
        -11    1    4    4    0    0  0.77593875078E+01 -0.34208940483E+01  0.21937055021E+01  0.87591640398E+01  0.51100000000E-03 0.  1.
         12    1    4    4    0    0  0.15332036630E+02 -0.33579626172E+02  0.22375169797E+01  0.36982010806E+02  0.00000000000E+00 0. -1.
</event>
<event>
 8    1  0.1248739E-006  0.9118800E+02  0.7816164E-02  0.1184000E+00
        -11   -1    0    0    0    0  0.00000000000E+00  0.00000000000E+00  0.45593999997E+02  0.45594000000E+02  0.51100000000E-03 0.  1.
         11   -1    0    0    0    0 -0.00000000000E+00 -0.00000000000E+00 -0.45593999997E+02  0.45594000000E+02  0.51100000000E-03 0. -1.
         23    2    1    2    0    0  0.35527136788E-14  0.00000000000E+00  0.00000000000E+00  0.91188000000E+02  0.91188000000E+02 0.  0.
    9900012    2    3    3    0    0  0.25774621623E+02 -0.87915065473E+01  0.24782177262E+02  0.54367108959E+02  0.40000056494E+02 0.  0.
         12    1    3    3    0    0 -0.25774621623E+02  0.87915065473E+01 -0.24782177262E+02  0.36820891041E+02  0.00000000000E+00 0. -1.
         11    1    4    4    0    0  0.32773110048E+02 -0.79718617121E+01  0.86547162439E+01  0.34821422069E+02  0.51100000000E-03 0. -1.
        -11    1    4    4    0    0  0.13012511235E+01 -0.19157743820E+01  0.58387019681E+01  0.62812329126E+01  0.51100000000E-03 0.  1.
         12    1    4    4    0    0 -0.82997395478E+01  0.10961295468E+01  0.10288759050E+02  0.13264453978E+02  0.00000000000E+00 0. -1.
</event>
<event>
 8    1  0.1248739E-006  0.9118800E+02  0.7816164E-02  0.1184000E+00
        -11   -1    0    0    0    0  0.00000000000E+00  0.00000000000E+00  0.45593999997E+02  0.45594000000E+02  0.51100000000E-03 0. -1.
         11   -1    0    0    0    0 -0.00000000000E+00 -0.00000000000E+00 -0.45593999997E+02  0.45594000000E+02  0.51100000000E-03 0.  1.
         23    2    1    2    0    0 -0.17763568394E-14 -0.32196467714E-14  0.00000000000E+00  0.91188000000E+02  0.91188000000E+02 0.  0.
    9900012    2    3    3    0    0 -0.11086920958E+02 -0.59370673756E+00  0.35107069050E+02  0.54367101025E+02  0.40000038408E+02 0.  0.
        -12    1    3    3    0    0  0.11086920958E+02  0.59370673756E+00 -0.35107069050E+02  0.36820898975E+02  0.00000000000E+00 0.  1.
         11    1    4    4    0    0 -0.85855817204E+01 -0.18967495620E+02  0.19772126978E+02  0.28712629783E+02  0.51100000000E-03 0. -1.
        -11    1    4    4    0    0 -0.69626770075E+00  0.16461503568E+02  0.89521127085E+01  0.18751165580E+02  0.51100000000E-03 0.  1.
        -12    1    4    4    0    0 -0.18050715372E+01  0.19122853148E+01  0.63828293630E+01  0.69033056616E+01  0.00000000000E+00 0.  1.
</event>
<event>
 8    1  0.1248739E-006  0.9118800E+02  0.7816164E-02  0.1184000E+00
        -11   -1    0    0    0    0  0.00000000000E+00  0.00000000000E+00  0.45593999997E+02  0.45594000000E+02  0.51100000000E-03 0. -1.
         11   -1    0    0    0    0 -0.00000000000E+00 -0.00000000000E+00 -0.45593999997E+02  0.45594000000E+02  0.51100000000E-03 0.  1.
         23    2    1    2    0    0  0.17763568394E-14 -0.35527136788E-14  0.00000000000E+00  0.91188000000E+02  0.91188000000E+02 0.  0.
    9900012    2    3    3    0    0  0.12043064551E+02 -0.24479340426E+02 -0.24728609361E+02  0.54367114182E+02  0.40000068401E+02 0.  0.
        -12    1    3    3    0    0 -0.12043064551E+02  0.24479340426E+02  0.24728609361E+02  0.36820885818E+02  0.00000000000E+00 0.  1.
         11    1    4    4    0    0  0.15620696411E+02 -0.28818330302E+02 -0.17101219443E+02  0.36972341344E+02  0.51100000000E-03 0. -1.
        -11    1    4    4    0    0 -0.26569128065E+01  0.89569871206E+01 -0.84705567945E+01  0.12610992689E+02  0.51100000000E-03 0.  1.
         12    1    4    4    0    0 -0.92071905431E+00 -0.46179972451E+01  0.84316687655E+00  0.47837801491E+01  0.00000000000E+00 0. -1.
</event>
<event>
 8    1  0.1248739E-006  0.9118800E+02  0.7816164E-02  0.1184000E+00
        -11   -1    0    0    0    0  0.00000000000E+00  0.00000000000E+00  0.45593999997E+02  0.45594000000E+02  0.51100000000E-03 0.  1.
         11   -1    0    0    0    0 -0.00000000000E+00 -0.00000000000E+00 -0.45593999997E+02  0.45594000000E+02  0.51100000000E-03 0. -1.
         23    2    1    2    0    0  0.00000000000E+00  0.00000000000E+00  0.22204460493E-14  0.91188000000E+02  0.91188000000E+02 0.  0.
    9900012    2    3    3    0    0 -0.32742753943E+02  0.16584628507E+02 -0.29398481511E+01  0.54367074623E+02  0.39999978217E+02 0.  0.
         12    1    3    3    0    0  0.32742753943E+02 -0.16584628507E+02  0.29398481511E+01  0.36820925377E+02  0.00000000000E+00 0. -1.
         11    1    4    4    0    0 -0.12303609926E+02  0.49350466962E+01 -0.75944454347E+01  0.15277732320E+02  0.51100000000E-03 0. -1.
        -11    1    4    4    0    0 -0.66514725457E+01  0.52758449408E+01 -0.13170797828E+02  0.15669924778E+02  0.51100000000E-03 0.  1.
        -12    1    4    4    0    0 -0.13787671471E+02  0.63737368699E+01  0.17825395112E+02  0.23419417524E+02  0.00000000000E+00 0.  1.
</event>
<event>
 8    1  0.1248739E-006  0.9118800E+02  0.7816164E-02  0.1184000E+00
        -11   -1    0    0    0    0  0.00000000000E+00  0.00000000000E+00  0.45593999997E+02  0.45594000000E+02  0.51100000000E-03 0. -1.
         11   -1    0    0    0    0 -0.00000000000E+00 -0.00000000000E+00 -0.45593999997E+02  0.45594000000E+02  0.51100000000E-03 0.  1.
         23    2    1    2    0    0 -0.15543122345E-14  0.00000000000E+00  0.00000000000E+00  0.91188000000E+02  0.91188000000E+02 0.  0.
    9900012    2    3    3    0    0  0.14955046994E+01  0.41455963668E+01 -0.36556221607E+02  0.54367084181E+02  0.40000000007E+02 0.  0.
         12    1    3    3    0    0 -0.14955046994E+01 -0.41455963668E+01  0.36556221607E+02  0.36820915819E+02  0.00000000000E+00 0. -1.
         11    1    4    4    0    0  0.14448363672E+02  0.80949077107E+01 -0.26615541475E+02  0.31347564370E+02  0.51100000000E-03 0. -1.
        -11    1    4    4    0    0 -0.87793839853E+01 -0.16453311677E+01 -0.14101158544E+02  0.16692134985E+02  0.51100000000E-03 0.  1.
         12    1    4    4    0    0 -0.41734749871E+01 -0.23039801761E+01  0.41604784120E+01  0.63273848260E+01  0.00000000000E+00 0. -1.
</event>
<event>
 8    1  0.1248739E-006  0.9118800E+02  0.7816164E-02  0.1184000E+00
        -11   -1    0    0    0    0  0.00000000000E+00  0.00000000000E+00  0.45593999997E+02  0.45594000000E+02  0.51100000000E-03 0.  1.
         11   -1    0    0    0    0 -0.00000000000E+00 -0.00000000000E+00 -0.45593999997E+02  0.45594000000E+02  0.51100000000E-03 0. -1.
         23    2    1    2    0    0  0.00000000000E+00  0.17763568394E-14 -0.35527136788E-14  0.91188000000E+02  0.91188000000E+02 0.  0.
    9900012    2    3    3    0    0 -0.17308741742E+02 -0.71191198299E+01  0.31709704317E+02  0.54367085349E+02  0.40000002671E+02 0.  0.
         12    1    3    3    0    0  0.17308741742E+02  0.71191198299E+01 -0.31709704317E+02  0.36820914651E+02  0.00000000000E+00 0. -1.
         11    1    4    4    0    0 -0.14509100606E+02 -0.10708282040E+02  0.97333727249E+01  0.20491945967E+02  0.51100000000E-03 0. -1.
        -11    1    4    4    0    0 -0.64484128443E+01 -0.37000658729E+01  0.24289502720E+02  0.25401819980E+02  0.51100000000E-03 0.  1.
         12    1    4    4    0    0  0.36487717079E+01  0.72892280833E+01 -0.23131711279E+01  0.84733194024E+01  0.00000000000E+00 0. -1.
</event>
<event>
 8    1  0.1248739E-006  0.9118800E+02  0.7816164E-02  0.1184000E+00
        -11   -1    0    0    0    0  0.00000000000E+00  0.00000000000E+00  0.45593999997E+02  0.45594000000E+02  0.51100000000E-03 0. -1.
         11   -1    0    0    0    0 -0.00000000000E+00 -0.00000000000E+00 -0.45593999997E+02  0.45594000000E+02  0.51100000000E-03 0.  1.
         23    2    1    2    0    0  0.35527136788E-14  0.35527136788E-14  0.00000000000E+00  0.91188000000E+02  0.91188000000E+02 0.  0.
    9900012    2    3    3    0    0 -0.16602435107E+02 -0.22631639076E+02  0.23831617165E+02  0.54367110339E+02  0.40000059639E+02 0.  0.
        -12    1    3    3    0    0  0.16602435107E+02  0.22631639076E+02 -0.23831617165E+02  0.36820889661E+02  0.00000000000E+00 0.  1.
         11    1    4    4    0    0 -0.58772764755E+01 -0.21356465896E+02  0.18069250343E+01  0.22223995876E+02  0.51100000000E-03 0. -1.
        -11    1    4    4    0    0  0.50715063017E+01  0.31502374235E+01  0.20883752727E+01  0.63249888168E+01  0.51100000000E-03 0.  1.
         12    1    4    4    0    0 -0.15796664933E+02 -0.44254106039E+01  0.19936316858E+02  0.25818125646E+02  0.00000000000E+00 0. -1.
</event>
<event>
 8    1  0.1248739E-006  0.9118800E+02  0.7816164E-02  0.1184000E+00
        -11   -1    0    0    0    0  0.00000000000E+00  0.00000000000E+00  0.45593999997E+02  0.45594000000E+02  0.51100000000E-03 0. -1.
         11   -1    0    0    0    0 -0.00000000000E+00 -0.00000000000E+00 -0.45593999997E+02  0.45594000000E+02  0.51100000000E-03 0.  1.
         23    2    1    2    0    0  0.00000000000E+00  0.35527136788E-14  0.00000000000E+00  0.91188000000E+02  0.91188000000E+02 0.  0.
    9900012    2    3    3    0    0 -0.18407953028E+02  0.17880936192E+02  0.26404535670E+02  0.54367080433E+02  0.39999991463E+02 0.  0.
        -12    1    3    3    0    0  0.18407953028E+02 -0.17880936192E+02 -0.26404535670E+02  0.36820919567E+02  0.00000000000E+00 0.  1.
         11    1    4    4    0    0 -0.15973747879E+02 -0.89648532934E+01  0.61646880249E+01  0.19326991348E+02  0.51100000000E-03 0. -1.
        -11    1    4    4    0    0 -0.51502496110E+01  0.12016673067E+02  0.63220741448E+01  0.14522194201E+02  0.51100000000E-03 0.  1.
         12    1    4    4    0    0  0.27160444614E+01  0.14829116419E+02  0.13917773500E+02  0.20517894884E+02  0.00000000000E+00 0. -1.
</event>
<event>
 8    1  0.1248739E-006  0.9118800E+02  0.7816164E-02  0.1184000E+00
        -11   -1    0    0    0    0  0.00000000000E+00  0.00000000000E+00  0.45593999997E+02  0.45594000000E+02  0.51100000000E-03 0.  1.
         11   -1    0    0    0    0 -0.00000000000E+00 -0.00000000000E+00 -0.45593999997E+02  0.45594000000E+02  0.51100000000E-03 0. -1.
         23    2    1    2    0    0  0.17763568394E-14  0.00000000000E+00  0.00000000000E+00  0.91188000000E+02  0.91188000000E+02 0.  0.
    9900012    2    3    3    0    0  0.49671177917E+01  0.36316344044E+02  0.34969675147E+01  0.54367110743E+02  0.40000060560E+02 0.  0.
         12    1    3    3    0    0 -0.49671177917E+01 -0.36316344044E+02 -0.34969675147E+01  0.36820889257E+02  0.00000000000E+00 0. -1.
         11    1    4    4    0    0 -0.28873519679E+01 -0.77203342535E+01  0.10083421349E+01  0.83040421780E+01  0.51100000000E-03 0. -1.
        -11    1    4    4    0    0  0.10091997054E+02  0.29497758612E+02  0.20682865919E+00  0.31177058007E+02  0.51100000000E-03 0.  1.
         12    1    4    4    0    0 -0.22375272939E+01  0.14538919686E+02  0.22817967206E+01  0.14886010557E+02  0.00000000000E+00 0. -1.
</event>
<event>
 8    1  0.1248739E-006  0.9118800E+02  0.7816164E-02  0.1184000E+00
        -11   -1    0    0    0    0  0.00000000000E+00  0.00000000000E+00  0.45593999997E+02  0.45594000000E+02  0.51100000000E-03 0. -1.
         11   -1    0    0    0    0 -0.00000000000E+00 -0.00000000000E+00 -0.45593999997E+02  0.45594000000E+02  0.51100000000E-03 0.  1.
         23    2    1    2    0    0  0.17763568394E-14 -0.35527136788E-14  0.35527136788E-14  0.91188000000E+02  0.91188000000E+02 0.  0.
    9900012    2    3    3    0    0  0.11622653404E+02 -0.16089063448E+02  0.31013469195E+02  0.54367091452E+02  0.40000016584E+02 0.  0.
        -12    1    3    3    0    0 -0.11622653404E+02  0.16089063448E+02 -0.31013469195E+02  0.36820908548E+02  0.00000000000E+00 0.  1.
         11    1    4    4    0    0  0.11096975427E+02 -0.77126791305E+01  0.17487916687E+02  0.22101029689E+02  0.51100000000E-03 0. -1.
        -11    1    4    4    0    0  0.83247181630E+01 -0.16169262224E+02  0.72362486266E+01  0.19573177253E+02  0.51100000000E-03 0.  1.
        -12    1    4    4    0    0 -0.77990401856E+01  0.77928779063E+01  0.62893038813E+01  0.12692884510E+02  0.00000000000E+00 0.  1.
</event>
<event>
 8    1  0.1248739E-006  0.9118800E+02  0.7816164E-02  0.1184000E+00
        -11   -1    0    0    0    0  0.00000000000E+00  0.00000000000E+00  0.45593999997E+02  0.45594000000E+02  0.51100000000E-03 0. -1.
         11   -1    0    0    0    0 -0.00000000000E+00 -0.00000000000E+00 -0.45593999997E+02  0.45594000000E+02  0.51100000000E-03 0.  1.
         23    2    1    2    0    0  0.00000000000E+00 -0.17763568394E-14  0.00000000000E+00  0.91188000000E+02  0.91188000000E+02 0.  0.
    9900012    2    3    3    0    0  0.21732666937E+02 -0.68690871208E+01  0.28918619490E+02  0.54367085790E+02  0.40000003675E+02 0.  0.
        -12    1    3    3    0    0 -0.21732666937E+02  0.68690871208E+01 -0.28918619490E+02  0.36820914210E+02  0.00000000000E+00 0.  1.
         11    1    4    4    0    0 -0.30755293761E+01  0.81758104279E+01  0.14908171806E+02  0.17278783058E+02  0.51100000000E-03 0. -1.
        -11    1    4    4    0    0  0.11776148949E+02  0.28058790992E+01  0.34157962585E+01  0.12578485836E+02  0.51100000000E-03 0.  1.
         12    1    4    4    0    0  0.13032047364E+02 -0.17850776648E+02  0.10594651426E+02  0.24509816896E+02  0.00000000000E+00 0. -1.
</event>
<event>
 8    1  0.1248739E-006  0.9118800E+02  0.7816164E-02  0.1184000E+00
        -11   -1    0    0    0    0  0.00000000000E+00  0.00000000000E+00  0.45593999997E+02  0.45594000000E+02  0.51100000000E-03 0.  1.
         11   -1    0    0    0    0 -0.00000000000E+00 -0.00000000000E+00 -0.45593999997E+02  0.45594000000E+02  0.51100000000E-03 0. -1.
         23    2    1    2    0    0  0.17763568394E-14 -0.35527136788E-14  0.35527136788E-14  0.91188000000E+02  0.91188000000E+02 0.  0.
    9900012    2    3    3    0    0 -0.12796088961E+02  0.21878123390E+02 -0.26709305625E+02  0.54367093130E+02  0.40000020408E+02 0.  0.
        -12    1    3    3    0    0  0.12796088961E+02 -0.21878123390E+02  0.26709305625E+02  0.36820906870E+02  0.00000000000E+00 0.  1.
         11    1    4    4    0    0  0.38493863178E+00  0.13989751368E+00 -0.14308172707E+02  0.14314033517E+02  0.51100000000E-03 0. -1.
        -11    1    4    4    0    0 -0.66956744330E+01  0.17529381939E+01  0.81293533752E+01  0.10676667785E+02  0.51100000000E-03 0.  1.
         12    1    4    4    0    0 -0.64853531603E+01  0.19985287682E+02 -0.20530486294E+02  0.29376391828E+02  0.00000000000E+00 0. -1.
</event>
<event>
 8    1  0.1248739E-006  0.9118800E+02  0.7816164E-02  0.1184000E+00
        -11   -1    0    0    0    0  0.00000000000E+00  0.00000000000E+00  0.45593999997E+02  0.45594000000E+02  0.51100000000E-03 0.  1.
         11   -1    0    0    0    0 -0.00000000000E+00 -0.00000000000E+00 -0.45593999997E+02  0.45594000000E+02  0.51100000000E-03 0. -1.
         23    2    1    2    0    0  0.00000000000E+00 -0.17763568394E-14  0.00000000000E+00  0.91188000000E+02  0.91188000000E+02 0.  0.
    9900012    2    3    3    0    0  0.33660399098E+02  0.12862793764E+02  0.75700357148E+01  0.54367090565E+02  0.40000014562E+02 0.  0.
        -12    1    3    3    0    0 -0.33660399098E+02 -0.12862793764E+02 -0.75700357148E+01  0.36820909435E+02  0.00000000000E+00 0.  1.
         11    1    4    4    0    0  0.19764061257E+02 -0.29159154998E+01 -0.78688034367E+01  0.21471812880E+02  0.51100000000E-03 0. -1.
        -11    1    4    4    0    0  0.18236782299E+02  0.15262803128E+02  0.15733281866E+02  0.28514374383E+02  0.51100000000E-03 0.  1.
        -12    1    4    4    0    0 -0.43404444576E+01  0.51590613667E+00 -0.29444271449E+00  0.43809033022E+01  0.00000000000E+00 0.  1.
</event>
<event>
 8    1  0.1248739E-006  0.9118800E+02  0.7816164E-02  0.1184000E+00
        -11   -1    0    0    0    0  0.00000000000E+00  0.00000000000E+00  0.45593999997E+02  0.45594000000E+02  0.51100000000E-03 0. -1.
         11   -1    0    0    0    0 -0.00000000000E+00 -0.00000000000E+00 -0.45593999997E+02  0.45594000000E+02  0.51100000000E-03 0.  1.
         23    2    1    2    0    0  0.35527136788E-14  0.17763568394E-14  0.35527136788E-14  0.91188000000E+02  0.91188000000E+02 0.  0.
    9900012    2    3    3    0    0  0.25973615589E+02  0.11320497754E+02 -0.23515955042E+02  0.54367047844E+02  0.39999917169E+02 0.  0.
         12    1    3    3    0    0 -0.25973615589E+02 -0.11320497754E+02  0.23515955042E+02  0.36820952156E+02  0.00000000000E+00 0. -1.
         11    1    4    4    0    0 -0.31240680752E+00  0.17901301505E+02 -0.16898611368E+02  0.24619448816E+02  0.51100000000E-03 0. -1.
        -11    1    4    4    0    0  0.91515095603E+01 -0.44023597023E+00 -0.70188337379E+01  0.11541575380E+02  0.51100000000E-03 0.  1.
         12    1    4    4    0    0  0.17134512836E+02 -0.61405677804E+01  0.40149006365E+00  0.18206023648E+02  0.00000000000E+00 0. -1.
</event>
<event>
 8    1  0.1248739E-006  0.9118800E+02  0.7816164E-02  0.1184000E+00
        -11   -1    0    0    0    0  0.00000000000E+00  0.00000000000E+00  0.45593999997E+02  0.45594000000E+02  0.51100000000E-03 0.  1.
         11   -1    0    0    0    0 -0.00000000000E+00 -0.00000000000E+00 -0.45593999997E+02  0.45594000000E+02  0.51100000000E-03 0. -1.
         23    2    1    2    0    0  0.00000000000E+00  0.00000000000E+00  0.71054273576E-14  0.91188000000E+02  0.91188000000E+02 0.  0.
    9900012    2    3    3    0    0  0.22707808895E+02  0.98618936044E+01 -0.27255790210E+02  0.54367087053E+02  0.40000006556E+02 0.  0.
        -12    1    3    3    0    0 -0.22707808895E+02 -0.98618936044E+01  0.27255790210E+02  0.36820912947E+02  0.00000000000E+00 0.  1.
         11    1    4    4    0    0  0.29191247804E+01  0.89443375984E+01 -0.96007407053E+01  0.13442346778E+02  0.51100000000E-03 0. -1.
        -11    1    4    4    0    0 -0.62100974462E+01 -0.81768140708E+00  0.36651936077E+01  0.72572417362E+01  0.51100000000E-03 0.  1.
         12    1    4    4    0    0  0.25998781561E+02  0.17352374131E+01 -0.21320243112E+02  0.33667498539E+02  0.00000000000E+00 0. -1.
</event>
<event>
 8    1  0.1248739E-006  0.9118800E+02  0.7816164E-02  0.1184000E+00
        -11   -1    0    0    0    0  0.00000000000E+00  0.00000000000E+00  0.45593999997E+02  0.45594000000E+02  0.51100000000E-03 0. -1.
         11   -1    0    0    0    0 -0.00000000000E+00 -0.00000000000E+00 -0.45593999997E+02  0.45594000000E+02  0.51100000000E-03 0.  1.
         23    2    1    2    0    0  0.17763568394E-14  0.44408920985E-15  0.71054273576E-14  0.91188000000E+02  0.91188000000E+02 0.  0.
    9900012    2    3    3    0    0  0.13851786603E+02 -0.14503730187E+01  0.34085223839E+02  0.54367108401E+02  0.40000055222E+02 0.  0.
        -12    1    3    3    0    0 -0.13851786603E+02  0.14503730187E+01 -0.34085223839E+02  0.36820891599E+02  0.00000000000E+00 0.  1.
         11    1    4    4    0    0 -0.79788697159E+01 -0.11172866597E+01  0.17806274041E+02  0.19544157360E+02  0.51100000000E-03 0. -1.
        -11    1    4    4    0    0  0.17504639869E+02 -0.92627326773E+01  0.14946664878E+02  0.24811558291E+02  0.51100000000E-03 0.  1.
        -12    1    4    4    0    0  0.43260164506E+01  0.89296463183E+01  0.13322849204E+01  0.10011392751E+02  0.00000000000E+00 0.  1.
</event>
<event>
 8    1  0.1248739E-006  0.9118800E+02  0.7816164E-02  0.1184000E+00
        -11   -1    0    0    0    0  0.00000000000E+00  0.00000000000E+00  0.45593999997E+02  0.45594000000E+02  0.51100000000E-03 0. -1.
         11   -1    0    0    0    0 -0.00000000000E+00 -0.00000000000E+00 -0.45593999997E+02  0.45594000000E+02  0.51100000000E-03 0.  1.
         23    2    1    2    0    0 -0.35527136788E-14 -0.17763568394E-14  0.35527136788E-14  0.91188000000E+02  0.91188000000E+02 0.  0.
    9900012    2    3    3    0    0 -0.17699915310E+02  0.15854597768E+02 -0.28126945065E+02  0.54367077808E+02  0.39999985479E+02 0.  0.
         12    1    3    3    0    0  0.17699915310E+02 -0.15854597768E+02  0.28126945065E+02  0.36820922192E+02  0.00000000000E+00 0. -1.
         11    1    4    4    0    0 -0.19926909070E+01  0.76935651673E+01  0.10573397789E+01  0.80174640445E+01  0.51100000000E-03 0. -1.
        -11    1    4    4    0    0  0.96707590936E+01  0.22006014228E+01 -0.87636879227E+01  0.13235121999E+02  0.51100000000E-03 0.  1.
        -12    1    4    4    0    0 -0.25377983497E+02  0.59604311776E+01 -0.20420596921E+02  0.33114491764E+02  0.00000000000E+00 0.  1.
</event>
<event>
 8    1  0.1248739E-006  0.9118800E+02  0.7816164E-02  0.1184000E+00
        -11   -1    0    0    0    0  0.00000000000E+00  0.00000000000E+00  0.45593999997E+02  0.45594000000E+02  0.51100000000E-03 0. -1.
         11   -1    0    0    0    0 -0.00000000000E+00 -0.00000000000E+00 -0.45593999997E+02  0.45594000000E+02  0.51100000000E-03 0.  1.
         23    2    1    2    0    0  0.00000000000E+00  0.88817841970E-15  0.00000000000E+00  0.91188000000E+02  0.91188000000E+02 0.  0.
    9900012    2    3    3    0    0 -0.95804786643E+01 -0.69583835506E+01  0.34865100965E+02  0.54367082869E+02  0.39999997017E+02 0.  0.
        -12    1    3    3    0    0  0.95804786643E+01  0.69583835506E+01 -0.34865100965E+02  0.36820917131E+02  0.00000000000E+00 0.  1.
         11    1    4    4    0    0  0.14024879187E+01 -0.97979252606E+00  0.18678630670E+02  0.18756817687E+02  0.51100000000E-03 0. -1.
        -11    1    4    4    0    0 -0.10216839393E+02  0.10831429858E+02  0.77839738980E+01  0.16801604979E+02  0.51100000000E-03 0.  1.
         12    1    4    4    0    0 -0.76612718958E+00 -0.16810020883E+02  0.84024963967E+01  0.18808660203E+02  0.00000000000E+00 0. -1.
</event>
<event>
 8    1  0.1248739E-006  0.9118800E+02  0.7816164E-02  0.1184000E+00
        -11   -1    0    0    0    0  0.00000000000E+00  0.00000000000E+00  0.45593999997E+02  0.45594000000E+02  0.51100000000E-03 0.  1.
         11   -1    0    0    0    0 -0.00000000000E+00 -0.00000000000E+00 -0.45593999997E+02  0.45594000000E+02  0.51100000000E-03 0. -1.
         23    2    1    2    0    0  0.00000000000E+00  0.00000000000E+00  0.35527136788E-14  0.91188000000E+02  0.91188000000E+02 0.  0.
    9900012    2    3    3    0    0  0.19154595272E+02  0.20045712019E+02  0.24229147545E+02  0.54367072783E+02  0.39999974023E+02 0.  0.
         12    1    3    3    0    0 -0.19154595272E+02 -0.20045712019E+02 -0.24229147545E+02  0.36820927217E+02  0.00000000000E+00 0. -1.
         11    1    4    4    0    0 -0.68621436818E+01  0.32558729062E+01 -0.38209072034E+01  0.85022971255E+01  0.51100000000E-03 0. -1.
        -11    1    4    4    0    0  0.11804584302E+02  0.12188410674E+02  0.38083767658E+01  0.17389919470E+02  0.51100000000E-03 0.  1.
         12    1    4    4    0    0  0.14212154652E+02  0.46014284387E+01  0.24241677982E+02  0.28474856188E+02  0.00000000000E+00 0. -1.
</event>
<event>
 8    1  0.1248739E-006  0.9118800E+02  0.7816164E-02  0.1184000E+00
        -11   -1    0    0    0    0  0.00000000000E+00  0.00000000000E+00  0.45593999997E+02  0.45594000000E+02  0.51100000000E-03 0.  1.
         11   -1    0    0    0    0 -0.00000000000E+00 -0.00000000000E+00 -0.45593999997E+02  0.45594000000E+02  0.51100000000E-03 0. -1.
         23    2    1    2    0    0  0.00000000000E+00  0.00000000000E+00  0.35527136788E-14  0.91188000000E+02  0.91188000000E+02 0.  0.
    9900012    2    3    3    0    0 -0.18859227311E+02 -0.50597800373E+01  0.31217093565E+02  0.54367098878E+02  0.40000033511E+02 0.  0.
         12    1    3    3    0    0  0.18859227311E+02  0.50597800373E+01 -0.31217093565E+02  0.36820901122E+02  0.00000000000E+00 0. -1.
         11    1    4    4    0    0 -0.16254338022E+02  0.13305825262E+02  0.10687269903E+02  0.23568331054E+02  0.51100000000E-03 0. -1.
        -11    1    4    4    0    0 -0.17080216965E+01 -0.16862535126E+02  0.22496146813E+02  0.28166275059E+02  0.51100000000E-03 0.  1.
         12    1    4    4    0    0 -0.89686759252E+00 -0.15030701727E+01 -0.19663231508E+01  0.26324927646E+01  0.00000000000E+00 0. -1.
</event>
<event>
 8    1  0.1248739E-006  0.9118800E+02  0.7816164E-02  0.1184000E+00
        -11   -1    0    0    0    0  0.00000000000E+00  0.00000000000E+00  0.45593999997E+02  0.45594000000E+02  0.51100000000E-03 0.  1.
         11   -1    0    0    0    0 -0.00000000000E+00 -0.00000000000E+00 -0.45593999997E+02  0.45594000000E+02  0.51100000000E-03 0. -1.
         23    2    1    2    0    0  0.71054273576E-14 -0.35527136788E-14  0.88817841970E-15  0.91188000000E+02  0.91188000000E+02 0.  0.
    9900012    2    3    3    0    0  0.31844386057E+02 -0.16713883136E+02  0.78968739283E+01  0.54367089763E+02  0.40000012733E+02 0.  0.
         12    1    3    3    0    0 -0.31844386057E+02  0.16713883136E+02 -0.78968739283E+01  0.36820910237E+02  0.00000000000E+00 0. -1.
         11    1    4    4    0    0 -0.55333063164E-01 -0.56597492742E+01 -0.79898414258E+01  0.97914957931E+01  0.51100000000E-03 0. -1.
        -11    1    4    4    0    0  0.22170909165E+02 -0.46247696476E+01 -0.25178437011E+01  0.22787655533E+02  0.51100000000E-03 0.  1.
        -12    1    4    4    0    0  0.97288099552E+01 -0.64293642138E+01  0.18404559055E+02  0.21787938438E+02  0.00000000000E+00 0.  1.
</event>
<event>
 8    1  0.1248739E-006  0.9118800E+02  0.7816164E-02  0.1184000E+00
        -11   -1    0    0    0    0  0.00000000000E+00  0.00000000000E+00  0.45593999997E+02  0.45594000000E+02  0.51100000000E-03 0.  1.
         11   -1    0    0    0    0 -0.00000000000E+00 -0.00000000000E+00 -0.45593999997E+02  0.45594000000E+02  0.51100000000E-03 0. -1.
         23    2    1    2    0    0  0.00000000000E+00  0.00000000000E+00  0.00000000000E+00  0.91188000000E+02  0.91188000000E+02 0.  0.
    9900012    2    3    3    0    0 -0.50987857997E+01 -0.34787924293E+02 -0.10935345667E+02  0.54367094550E+02  0.40000023646E+02 0.  0.
        -12    1    3    3    0    0  0.50987857997E+01  0.34787924293E+02  0.10935345667E+02  0.36820905450E+02  0.00000000000E+00 0.  1.
         11    1    4    4    0    0 -0.87424842000E+01  0.34005383417E+01  0.20255728897E+01  0.95967513666E+01  0.51100000000E-03 0. -1.
        -11    1    4    4    0    0  0.99324214950E+01 -0.10740488734E+02 -0.56061972172E+01  0.15666542136E+02  0.51100000000E-03 0.  1.
        -12    1    4    4    0    0 -0.62887230947E+01 -0.27447973901E+02 -0.73547213399E+01  0.29103801047E+02  0.00000000000E+00 0.  1.
</event>
<event>
 8    1  0.1248739E-006  0.9118800E+02  0.7816164E-02  0.1184000E+00
        -11   -1    0    0    0    0  0.00000000000E+00  0.00000000000E+00  0.45593999997E+02  0.45594000000E+02  0.51100000000E-03 0. -1.
         11   -1    0    0    0    0 -0.00000000000E+00 -0.00000000000E+00 -0.45593999997E+02  0.45594000000E+02  0.51100000000E-03 0.  1.
         23    2    1    2    0    0  0.13322676296E-14  0.00000000000E+00  0.00000000000E+00  0.91188000000E+02  0.91188000000E+02 0.  0.
    9900012    2    3    3    0    0 -0.23569589349E+01 -0.16438067561E+02  0.32863547758E+02  0.54367107944E+02  0.40000054180E+02 0.  0.
        -12    1    3    3    0    0  0.23569589349E+01  0.16438067561E+02 -0.32863547758E+02  0.36820892056E+02  0.00000000000E+00 0.  1.
         11    1    4    4    0    0 -0.72985018373E+01 -0.18526353067E+02  0.19053618530E+02  0.27559649243E+02  0.51100000000E-03 0. -1.
        -11    1    4    4    0    0  0.49897841263E+01 -0.85973719725E+01  0.12606446593E+02  0.16054134870E+02  0.51100000000E-03 0.  1.
        -12    1    4    4    0    0 -0.48241223774E-01  0.10685657479E+02  0.12034826353E+01  0.10753323831E+02  0.00000000000E+00 0.  1.
</event>
<event>
 8    1  0.1248739E-006  0.9118800E+02  0.7816164E-02  0.1184000E+00
        -11   -1    0    0    0    0  0.00000000000E+00  0.00000000000E+00  0.45593999997E+02  0.45594000000E+02  0.51100000000E-03 0. -1.
         11   -1    0    0    0    0 -0.00000000000E+00 -0.00000000000E+00 -0.45593999997E+02  0.45594000000E+02  0.51100000000E-03 0.  1.
         23    2    1    2    0    0  0.17763568394E-14  0.00000000000E+00  0.00000000000E+00  0.91188000000E+02  0.91188000000E+02 0.  0.
    9900012    2    3    3    0    0  0.88451792800E+01  0.21890379092E+02  0.28255156177E+02  0.54367085510E+02  0.40000003038E+02 0.  0.
        -12    1    3    3    0    0 -0.88451792800E+01 -0.21890379092E+02 -0.28255156177E+02  0.36820914490E+02  0.00000000000E+00 0.  1.
         11    1    4    4    0    0 -0.29516353059E+01 -0.30700764761E+01  0.16924635532E+02  0.17452243658E+02  0.51100000000E-03 0. -1.
        -11    1    4    4    0    0  0.15153345024E+02  0.71463912376E+01  0.76481523430E+01  0.18417084668E+02  0.51100000000E-03 0.  1.
        -12    1    4    4    0    0 -0.33565304381E+01  0.17814064330E+02  0.36823683016E+01  0.18497757184E+02  0.00000000000E+00 0.  1.
</event>
<event>
 8    1  0.1248739E-006  0.9118800E+02  0.7816164E-02  0.1184000E+00
        -11   -1    0    0    0    0  0.00000000000E+00  0.00000000000E+00  0.45593999997E+02  0.45594000000E+02  0.51100000000E-03 0.  1.
         11   -1    0    0    0    0 -0.00000000000E+00 -0.00000000000E+00 -0.45593999997E+02  0.45594000000E+02  0.51100000000E-03 0. -1.
         23    2    1    2    0    0  0.00000000000E+00 -0.88817841970E-15  0.00000000000E+00  0.91188000000E+02  0.91188000000E+02 0.  0.
    9900012    2    3    3    0    0 -0.25034244933E+02 -0.56441720506E+01  0.26404737430E+02  0.54367078552E+02  0.39999987175E+02 0.  0.
         12    1    3    3    0    0  0.25034244933E+02  0.56441720506E+01 -0.26404737430E+02  0.36820921448E+02  0.00000000000E+00 0. -1.
         11    1    4    4    0    0 -0.16182513360E+01  0.97886310046E+01 -0.11729287758E+01  0.99905853935E+01  0.51100000000E-03 0. -1.
        -11    1    4    4    0    0  0.22826019199E+01 -0.75484161729E+01  0.63103349398E+01  0.10099959681E+02  0.51100000000E-03 0.  1.
        -12    1    4    4    0    0 -0.25698595517E+02 -0.78843868822E+01  0.21267331266E+02  0.34276533478E+02  0.00000000000E+00 0.  1.
</event>
<event>
 8    1  0.1248739E-006  0.9118800E+02  0.7816164E-02  0.1184000E+00
        -11   -1    0    0    0    0  0.00000000000E+00  0.00000000000E+00  0.45593999997E+02  0.45594000000E+02  0.51100000000E-03 0. -1.
         11   -1    0    0    0    0 -0.00000000000E+00 -0.00000000000E+00 -0.45593999997E+02  0.45594000000E+02  0.51100000000E-03 0.  1.
         23    2    1    2    0    0  0.00000000000E+00 -0.35527136788E-14 -0.71054273576E-14  0.91188000000E+02  0.91188000000E+02 0.  0.
    9900012    2    3    3    0    0  0.67287009498E+01 -0.11370358464E+02 -0.34368867926E+02  0.54367088135E+02  0.40000009021E+02 0.  0.
         12    1    3    3    0    0 -0.67287009498E+01  0.11370358464E+02  0.34368867926E+02  0.36820911865E+02  0.00000000000E+00 0. -1.
         11    1    4    4    0    0  0.16004204180E+01  0.60342383162E+01 -0.61263067036E+01  0.87467143350E+01  0.51100000000E-03 0. -1.
        -11    1    4    4    0    0  0.12181625996E+02  0.43557096019E+01 -0.95673791176E+01  0.16090337519E+02  0.51100000000E-03 0.  1.
        -12    1    4    4    0    0 -0.70533454638E+01 -0.21760306383E+02 -0.18675182105E+02  0.29530036281E+02  0.00000000000E+00 0.  1.
</event>
<event>
 8    1  0.1248739E-006  0.9118800E+02  0.7816164E-02  0.1184000E+00
        -11   -1    0    0    0    0  0.00000000000E+00  0.00000000000E+00  0.45593999997E+02  0.45594000000E+02  0.51100000000E-03 0. -1.
         11   -1    0    0    0    0 -0.00000000000E+00 -0.00000000000E+00 -0.45593999997E+02  0.45594000000E+02  0.51100000000E-03 0.  1.
         23    2    1    2    0    0  0.88817841970E-15  0.00000000000E+00  0.71054273576E-14  0.91188000000E+02  0.91188000000E+02 0.  0.
    9900012    2    3    3    0    0 -0.28358835333E+01 -0.42786063031E+01  0.36461365031E+02  0.54367084106E+02  0.39999999837E+02 0.  0.
        -12    1    3    3    0    0  0.28358835333E+01  0.42786063031E+01 -0.36461365031E+02  0.36820915894E+02  0.00000000000E+00 0.  1.
         11    1    4    4    0    0 -0.57630451929E+00 -0.74454720412E+01  0.69275008247E+01  0.10186140032E+02  0.51100000000E-03 0.  1.
        -11    1    4    4    0    0 -0.11584703077E+02 -0.10741111581E+02  0.11290292995E+02  0.19417712006E+02  0.51100000000E-03 0. -1.
         12    1    4    4    0    0  0.93251240632E+01  0.13907977319E+02  0.18243571212E+02  0.24763232068E+02  0.00000000000E+00 0. -1.
</event>
<event>
 8    1  0.1248739E-006  0.9118800E+02  0.7816164E-02  0.1184000E+00
        -11   -1    0    0    0    0  0.00000000000E+00  0.00000000000E+00  0.45593999997E+02  0.45594000000E+02  0.51100000000E-03 0. -1.
         11   -1    0    0    0    0 -0.00000000000E+00 -0.00000000000E+00 -0.45593999997E+02  0.45594000000E+02  0.51100000000E-03 0.  1.
         23    2    1    2    0    0  0.00000000000E+00  0.00000000000E+00  0.00000000000E+00  0.91188000000E+02  0.91188000000E+02 0.  0.
    9900012    2    3    3    0    0 -0.17166344972E+02 -0.30592870978E+02  0.11188135339E+02  0.54367061300E+02  0.39999947846E+02 0.  0.
        -12    1    3    3    0    0  0.17166344972E+02  0.30592870978E+02 -0.11188135339E+02  0.36820938700E+02  0.00000000000E+00 0.  1.
         11    1    4    4    0    0 -0.28522162924E+01 -0.52618774976E+01  0.23693309215E+01  0.64370973159E+01  0.51100000000E-03 0. -1.
        -11    1    4    4    0    0 -0.20186794445E+02 -0.58324244865E+01  0.15921372781E+02  0.26363117358E+02  0.51100000000E-03 0.  1.
        -12    1    4    4    0    0  0.58726657662E+01 -0.19498568994E+02 -0.71025683629E+01  0.21566846626E+02  0.00000000000E+00 0.  1.
</event>
<event>
 8    1  0.1248739E-006  0.9118800E+02  0.7816164E-02  0.1184000E+00
        -11   -1    0    0    0    0  0.00000000000E+00  0.00000000000E+00  0.45593999997E+02  0.45594000000E+02  0.51100000000E-03 0.  1.
         11   -1    0    0    0    0 -0.00000000000E+00 -0.00000000000E+00 -0.45593999997E+02  0.45594000000E+02  0.51100000000E-03 0. -1.
         23    2    1    2    0    0  0.00000000000E+00  0.71054273576E-14  0.88817841970E-15  0.91188000000E+02  0.91188000000E+02 0.  0.
    9900012    2    3    3    0    0 -0.28183865293E+02 -0.22944687407E+02 -0.59153064460E+01  0.54367084837E+02  0.40000001503E+02 0.  0.
        -12    1    3    3    0    0  0.28183865293E+02  0.22944687407E+02  0.59153064460E+01  0.36820915163E+02  0.00000000000E+00 0.  1.
         11    1    4    4    0    0 -0.22636514208E+02 -0.95477218794E+01  0.52149909763E+01  0.25115073157E+02  0.51100000000E-03 0. -1.
        -11    1    4    4    0    0 -0.23509794599E+01  0.60129243155E+01 -0.62467886033E+01  0.89835812102E+01  0.51100000000E-03 0.  1.
        -12    1    4    4    0    0 -0.31963716260E+01 -0.19409889843E+02 -0.48835088189E+01  0.20268430469E+02  0.00000000000E+00 0.  1.
</event>
<event>
 8    1  0.1248739E-006  0.9118800E+02  0.7816164E-02  0.1184000E+00
        -11   -1    0    0    0    0  0.00000000000E+00  0.00000000000E+00  0.45593999997E+02  0.45594000000E+02  0.51100000000E-03 0.  1.
         11   -1    0    0    0    0 -0.00000000000E+00 -0.00000000000E+00 -0.45593999997E+02  0.45594000000E+02  0.51100000000E-03 0. -1.
         23    2    1    2    0    0  0.00000000000E+00  0.00000000000E+00  0.35527136788E-14  0.91188000000E+02  0.91188000000E+02 0.  0.
    9900012    2    3    3    0    0  0.86436194938E+01 -0.21005675328E+02 -0.28979806649E+02  0.54367085463E+02  0.40000002930E+02 0.  0.
        -12    1    3    3    0    0 -0.86436194938E+01  0.21005675328E+02  0.28979806649E+02  0.36820914537E+02  0.00000000000E+00 0.  1.
         11    1    4    4    0    0  0.96087620574E+01 -0.17095502840E+02 -0.12844203115E+02  0.23442655130E+02  0.51100000000E-03 0. -1.
        -11    1    4    4    0    0 -0.49597200830E+01 -0.10651919194E+02  0.12873682929E+01  0.11820301316E+02  0.51100000000E-03 0.  1.
        -12    1    4    4    0    0  0.39945775194E+01  0.67417467063E+01 -0.17422971827E+02  0.19104129017E+02  0.00000000000E+00 0.  1.
</event>
<event>
 8    1  0.1248739E-006  0.9118800E+02  0.7816164E-02  0.1184000E+00
        -11   -1    0    0    0    0  0.00000000000E+00  0.00000000000E+00  0.45593999997E+02  0.45594000000E+02  0.51100000000E-03 0. -1.
         11   -1    0    0    0    0 -0.00000000000E+00 -0.00000000000E+00 -0.45593999997E+02  0.45594000000E+02  0.51100000000E-03 0.  1.
         23    2    1    2    0    0  0.00000000000E+00  0.17763568394E-14  0.00000000000E+00  0.91188000000E+02  0.91188000000E+02 0.  0.
    9900012    2    3    3    0    0  0.16506074241E+02  0.12425694698E+02  0.30478376078E+02  0.54367084966E+02  0.40000001797E+02 0.  0.
        -12    1    3    3    0    0 -0.16506074241E+02 -0.12425694698E+02 -0.30478376078E+02  0.36820915034E+02  0.00000000000E+00 0.  1.
         11    1    4    4    0    0  0.11198089315E+02  0.12322685028E+01  0.21663375360E+02  0.24417565853E+02  0.51100000000E-03 0. -1.
        -11    1    4    4    0    0  0.10820425048E+02  0.60033287845E+01 -0.56651727275E+01  0.13609398848E+02  0.51100000000E-03 0.  1.
        -12    1    4    4    0    0 -0.55124401221E+01  0.51900974108E+01  0.14480173446E+02  0.16340120264E+02  0.00000000000E+00 0.  1.
</event>
<event>
 8    1  0.1248739E-006  0.9118800E+02  0.7816164E-02  0.1184000E+00
        -11   -1    0    0    0    0  0.00000000000E+00  0.00000000000E+00  0.45593999997E+02  0.45594000000E+02  0.51100000000E-03 0. -1.
         11   -1    0    0    0    0 -0.00000000000E+00 -0.00000000000E+00 -0.45593999997E+02  0.45594000000E+02  0.51100000000E-03 0.  1.
         23    2    1    2    0    0  0.00000000000E+00  0.00000000000E+00  0.00000000000E+00  0.91188000000E+02  0.91188000000E+02 0.  0.
    9900012    2    3    3    0    0 -0.15117070227E+02 -0.33099072614E+02  0.56307973135E+01  0.54367077978E+02  0.39999985866E+02 0.  0.
        -12    1    3    3    0    0  0.15117070227E+02  0.33099072614E+02 -0.56307973135E+01  0.36820922022E+02  0.00000000000E+00 0.  1.
         11    1    4    4    0    0  0.18550793460E+01 -0.11380286277E+02 -0.22466593767E+01  0.11747327941E+02  0.51100000000E-03 0. -1.
        -11    1    4    4    0    0 -0.16958877599E+02 -0.43106953813E+01 -0.78323310740E+01  0.19171098936E+02  0.51100000000E-03 0.  1.
         12    1    4    4    0    0 -0.13271974267E-01 -0.17408090956E+02  0.15709787764E+02  0.23448651101E+02  0.00000000000E+00 0. -1.
</event>
<event>
 8    1  0.1248739E-006  0.9118800E+02  0.7816164E-02  0.1184000E+00
        -11   -1    0    0    0    0  0.00000000000E+00  0.00000000000E+00  0.45593999997E+02  0.45594000000E+02  0.51100000000E-03 0. -1.
         11   -1    0    0    0    0 -0.00000000000E+00 -0.00000000000E+00 -0.45593999997E+02  0.45594000000E+02  0.51100000000E-03 0.  1.
         23    2    1    2    0    0  0.71054273576E-14  0.35527136788E-14  0.00000000000E+00  0.91188000000E+02  0.91188000000E+02 0.  0.
    9900012    2    3    3    0    0  0.27375435293E+02  0.22151902345E+02  0.10754475248E+02  0.54367082401E+02  0.39999995949E+02 0.  0.
        -12    1    3    3    0    0 -0.27375435293E+02 -0.22151902345E+02 -0.10754475248E+02  0.36820917599E+02  0.00000000000E+00 0.  1.
         11    1    4    4    0    0  0.27840849265E+01  0.12721754328E+02 -0.97309074661E+01  0.16256836176E+02  0.51100000000E-03 0. -1.
        -11    1    4    4    0    0  0.10177638203E+00  0.38348034451E+01  0.10321483947E+02  0.11011317224E+02  0.51100000000E-03 0.  1.
         12    1    4    4    0    0  0.24489573984E+02  0.55953445716E+01  0.10163898768E+02  0.27098929000E+02  0.00000000000E+00 0. -1.
</event>
<event>
 8    1  0.1248739E-006  0.9118800E+02  0.7816164E-02  0.1184000E+00
        -11   -1    0    0    0    0  0.00000000000E+00  0.00000000000E+00  0.45593999997E+02  0.45594000000E+02  0.51100000000E-03 0.  1.
         11   -1    0    0    0    0 -0.00000000000E+00 -0.00000000000E+00 -0.45593999997E+02  0.45594000000E+02  0.51100000000E-03 0. -1.
         23    2    1    2    0    0 -0.71054273576E-14 -0.88817841970E-15 -0.35527136788E-14  0.91188000000E+02  0.91188000000E+02 0.  0.
    9900012    2    3    3    0    0  0.19301976242E+02  0.68527476016E+01  0.30598264990E+02  0.54367078543E+02  0.39999987155E+02 0.  0.
         12    1    3    3    0    0 -0.19301976242E+02 -0.68527476016E+01 -0.30598264990E+02  0.36820921457E+02  0.00000000000E+00 0. -1.
         11    1    4    4    0    0 -0.88652407626E+01  0.12319591691E+01  0.69962809635E+01  0.11360376964E+02  0.51100000000E-03 0. -1.
        -11    1    4    4    0    0  0.62776892201E+01  0.49591010969E+01 -0.30053520139E+01  0.85460053020E+01  0.51100000000E-03 0.  1.
        -12    1    4    4    0    0  0.21889527785E+02  0.66168733557E+00  0.26607336040E+02  0.34460696277E+02  0.00000000000E+00 0.  1.
</event>
<event>
 8    1  0.1248739E-006  0.9118800E+02  0.7816164E-02  0.1184000E+00
        -11   -1    0    0    0    0  0.00000000000E+00  0.00000000000E+00  0.45593999997E+02  0.45594000000E+02  0.51100000000E-03 0.  1.
         11   -1    0    0    0    0 -0.00000000000E+00 -0.00000000000E+00 -0.45593999997E+02  0.45594000000E+02  0.51100000000E-03 0. -1.
         23    2    1    2    0    0 -0.35527136788E-14 -0.35527136788E-14 -0.17763568394E-14  0.91188000000E+02  0.91188000000E+02 0.  0.
    9900012    2    3    3    0    0 -0.26035649011E+02  0.23358351123E+02  0.11502585786E+02  0.54367121868E+02  0.40000085922E+02 0.  0.
         12    1    3    3    0    0  0.26035649011E+02 -0.23358351123E+02 -0.11502585786E+02  0.36820878132E+02  0.00000000000E+00 0. -1.
         11    1    4    4    0    0  0.40282048959E+01  0.33390366955E+01  0.62165249704E+01  0.81253174526E+01  0.51100000000E-03 0. -1.
        -11    1    4    4    0    0 -0.34754340899E+02  0.13353493444E+02  0.70734976087E+01  0.37897419004E+02  0.51100000000E-03 0.  1.
         12    1    4    4    0    0  0.46904869915E+01  0.66658209842E+01 -0.17874367929E+01  0.83443854117E+01  0.00000000000E+00 0. -1.
</event>
<event>
 8    1  0.1248739E-006  0.9118800E+02  0.7816164E-02  0.1184000E+00
        -11   -1    0    0    0    0  0.00000000000E+00  0.00000000000E+00  0.45593999997E+02  0.45594000000E+02  0.51100000000E-03 0. -1.
         11   -1    0    0    0    0 -0.00000000000E+00 -0.00000000000E+00 -0.45593999997E+02  0.45594000000E+02  0.51100000000E-03 0.  1.
         23    2    1    2    0    0  0.00000000000E+00 -0.35527136788E-14  0.26645352591E-14  0.91188000000E+02  0.91188000000E+02 0.  0.
    9900012    2    3    3    0    0  0.26491290732E+02 -0.25038146124E+02  0.52039273624E+01  0.54367107751E+02  0.40000053741E+02 0.  0.
        -12    1    3    3    0    0 -0.26491290732E+02  0.25038146124E+02 -0.52039273624E+01  0.36820892249E+02  0.00000000000E+00 0.  1.
         11    1    4    4    0    0  0.23371507104E+02 -0.32478789249E+01 -0.58660537083E+01  0.24314330100E+02  0.51100000000E-03 0. -1.
        -11    1    4    4    0    0 -0.48386279568E+01 -0.41106370562E+00  0.41219814398E+00  0.48735204366E+01  0.51100000000E-03 0.  1.
         12    1    4    4    0    0  0.79584115848E+01 -0.21379203494E+02  0.10657782927E+02  0.25179257215E+02  0.00000000000E+00 0. -1.
</event>
<event>
 8    1  0.1248739E-006  0.9118800E+02  0.7816164E-02  0.1184000E+00
        -11   -1    0    0    0    0  0.00000000000E+00  0.00000000000E+00  0.45593999997E+02  0.45594000000E+02  0.51100000000E-03 0.  1.
         11   -1    0    0    0    0 -0.00000000000E+00 -0.00000000000E+00 -0.45593999997E+02  0.45594000000E+02  0.51100000000E-03 0. -1.
         23    2    1    2    0    0  0.00000000000E+00  0.00000000000E+00  0.00000000000E+00  0.91188000000E+02  0.91188000000E+02 0.  0.
    9900012    2    3    3    0    0 -0.30006501518E+02  0.20178982096E+02  0.69425773299E+01  0.54367070737E+02  0.39999969359E+02 0.  0.
         12    1    3    3    0    0  0.30006501518E+02 -0.20178982096E+02 -0.69425773299E+01  0.36820929263E+02  0.00000000000E+00 0. -1.
         11    1    4    4    0    0 -0.18993188265E+01  0.80197863018E+01 -0.11453881962E+02  0.14110839684E+02  0.51100000000E-03 0. -1.
        -11    1    4    4    0    0 -0.17446130812E+02  0.16417167876E+02  0.15078722299E+02  0.28306514229E+02  0.51100000000E-03 0.  1.
         12    1    4    4    0    0 -0.10661051879E+02 -0.42579720811E+01  0.33177369923E+01  0.11949716824E+02  0.00000000000E+00 0. -1.
</event>
<event>
 8    1  0.1248739E-006  0.9118800E+02  0.7816164E-02  0.1184000E+00
        -11   -1    0    0    0    0  0.00000000000E+00  0.00000000000E+00  0.45593999997E+02  0.45594000000E+02  0.51100000000E-03 0.  1.
         11   -1    0    0    0    0 -0.00000000000E+00 -0.00000000000E+00 -0.45593999997E+02  0.45594000000E+02  0.51100000000E-03 0. -1.
         23    2    1    2    0    0 -0.71054273576E-14  0.35527136788E-14  0.88817841970E-15  0.91188000000E+02  0.91188000000E+02 0.  0.
    9900012    2    3    3    0    0  0.32647281641E+02 -0.16117902380E+02 -0.54906963763E+01  0.54367088518E+02  0.40000009894E+02 0.  0.
         12    1    3    3    0    0 -0.32647281641E+02  0.16117902380E+02  0.54906963763E+01  0.36820911482E+02  0.00000000000E+00 0. -1.
         11    1    4    4    0    0  0.20218197788E+02 -0.38739521262E+01 -0.77574598211E+01  0.21999118391E+02  0.51100000000E-03 0. -1.
        -11    1    4    4    0    0  0.67456702459E+01 -0.20772931522E+02 -0.13504291476E+00  0.21841176432E+02  0.51100000000E-03 0.  1.
         12    1    4    4    0    0  0.56834136076E+01  0.85289812678E+01  0.24018063595E+01  0.10526793695E+02  0.00000000000E+00 0. -1.
</event>
<event>
 8    1  0.1248739E-006  0.9118800E+02  0.7816164E-02  0.1184000E+00
        -11   -1    0    0    0    0  0.00000000000E+00  0.00000000000E+00  0.45593999997E+02  0.45594000000E+02  0.51100000000E-03 0.  1.
         11   -1    0    0    0    0 -0.00000000000E+00 -0.00000000000E+00 -0.45593999997E+02  0.45594000000E+02  0.51100000000E-03 0. -1.
         23    2    1    2    0    0  0.71054273576E-14  0.00000000000E+00 -0.17763568394E-14  0.91188000000E+02  0.91188000000E+02 0.  0.
    9900012    2    3    3    0    0 -0.34927256938E+02 -0.67055992682E+01 -0.95342221113E+01  0.54367085698E+02  0.40000003466E+02 0.  0.
        -12    1    3    3    0    0  0.34927256938E+02  0.67055992682E+01  0.95342221113E+01  0.36820914302E+02  0.00000000000E+00 0.  1.
         11    1    4    4    0    0 -0.11992411794E+02 -0.89577158986E+01  0.80118170532E+01  0.16977862866E+02  0.51100000000E-03 0. -1.
        -11    1    4    4    0    0  0.13343887102E+01 -0.39070504805E+01  0.29147674067E+01  0.50538605030E+01  0.51100000000E-03 0.  1.
         12    1    4    4    0    0 -0.24269233855E+02  0.61591671109E+01 -0.20460806571E+02  0.32335362329E+02  0.00000000000E+00 0. -1.
</event>
<event>
 8    1  0.1248739E-006  0.9118800E+02  0.7816164E-02  0.1184000E+00
        -11   -1    0    0    0    0  0.00000000000E+00  0.00000000000E+00  0.45593999997E+02  0.45594000000E+02  0.51100000000E-03 0. -1.
         11   -1    0    0    0    0 -0.00000000000E+00 -0.00000000000E+00 -0.45593999997E+02  0.45594000000E+02  0.51100000000E-03 0.  1.
         23    2    1    2    0    0  0.00000000000E+00  0.17763568394E-14  0.00000000000E+00  0.91188000000E+02  0.91188000000E+02 0.  0.
    9900012    2    3    3    0    0 -0.26349900599E+01 -0.88443511767E+01  0.35645671764E+02  0.54367086977E+02  0.40000006382E+02 0.  0.
        -12    1    3    3    0    0  0.26349900599E+01  0.88443511767E+01 -0.35645671764E+02  0.36820913023E+02  0.00000000000E+00 0.  1.
         11    1    4    4    0    0 -0.16162732477E+01  0.14278286703E+02  0.44591114629E+01  0.15045447341E+02  0.51100000000E-03 0. -1.
        -11    1    4    4    0    0 -0.69272814561E+00 -0.30263524235E+01  0.14421780532E+01  0.34232380976E+01  0.51100000000E-03 0.  1.
         12    1    4    4    0    0 -0.32598866664E+00 -0.20096285456E+02  0.29744382247E+02  0.35898401539E+02  0.00000000000E+00 0. -1.
</event>
<event>
 8    1  0.1248739E-006  0.9118800E+02  0.7816164E-02  0.1184000E+00
        -11   -1    0    0    0    0  0.00000000000E+00  0.00000000000E+00  0.45593999997E+02  0.45594000000E+02  0.51100000000E-03 0.  1.
         11   -1    0    0    0    0 -0.00000000000E+00 -0.00000000000E+00 -0.45593999997E+02  0.45594000000E+02  0.51100000000E-03 0. -1.
         23    2    1    2    0    0  0.00000000000E+00  0.33306690739E-15  0.71054273576E-14  0.91188000000E+02  0.91188000000E+02 0.  0.
    9900012    2    3    3    0    0  0.16053408718E+02 -0.74469136973E+00 -0.33128734116E+02  0.54367088538E+02  0.40000009941E+02 0.  0.
        -12    1    3    3    0    0 -0.16053408718E+02  0.74469136973E+00  0.33128734116E+02  0.36820911462E+02  0.00000000000E+00 0.  1.
         11    1    4    4    0    0  0.22042008000E+02 -0.33092235088E+01 -0.17466804812E+02  0.28317668468E+02  0.51100000000E-03 0. -1.
        -11    1    4    4    0    0  0.18221398251E+00  0.95713924881E+00 -0.18881078806E+02  0.18906201485E+02  0.51100000000E-03 0.  1.
         12    1    4    4    0    0 -0.61708132641E+01  0.16073928903E+01  0.32191495006E+01  0.71432185849E+01  0.00000000000E+00 0. -1.
</event>
<event>
 8    1  0.1248739E-006  0.9118800E+02  0.7816164E-02  0.1184000E+00
        -11   -1    0    0    0    0  0.00000000000E+00  0.00000000000E+00  0.45593999997E+02  0.45594000000E+02  0.51100000000E-03 0.  1.
         11   -1    0    0    0    0 -0.00000000000E+00 -0.00000000000E+00 -0.45593999997E+02  0.45594000000E+02  0.51100000000E-03 0. -1.
         23    2    1    2    0    0  0.00000000000E+00 -0.35527136788E-14  0.22204460493E-15  0.91188000000E+02  0.91188000000E+02 0.  0.
    9900012    2    3    3    0    0 -0.26078759531E+02  0.25985834838E+02 -0.64299842677E+00  0.54367098899E+02  0.40000033560E+02 0.  0.
        -12    1    3    3    0    0  0.26078759531E+02 -0.25985834838E+02  0.64299842677E+00  0.36820901101E+02  0.00000000000E+00 0.  1.
         11    1    4    4    0    0 -0.25409533365E+02  0.16630943569E+02 -0.68762970272E+01  0.31137053985E+02  0.51100000000E-03 0. -1.
        -11    1    4    4    0    0 -0.20453154986E+01 -0.54236921249E+01 -0.21514618389E+01  0.61829232617E+01  0.51100000000E-03 0.  1.
        -12    1    4    4    0    0  0.13760893321E+01  0.14778583394E+02  0.83847604394E+01  0.17047121652E+02  0.00000000000E+00 0.  1.
</event>
<event>
 8    1  0.1248739E-006  0.9118800E+02  0.7816164E-02  0.1184000E+00
        -11   -1    0    0    0    0  0.00000000000E+00  0.00000000000E+00  0.45593999997E+02  0.45594000000E+02  0.51100000000E-03 0. -1.
         11   -1    0    0    0    0 -0.00000000000E+00 -0.00000000000E+00 -0.45593999997E+02  0.45594000000E+02  0.51100000000E-03 0.  1.
         23    2    1    2    0    0  0.00000000000E+00  0.00000000000E+00  0.00000000000E+00  0.91188000000E+02  0.91188000000E+02 0.  0.
    9900012    2    3    3    0    0  0.13729182664E+02  0.43786759958E+01  0.33883881293E+02  0.54367072913E+02  0.39999974319E+02 0.  0.
        -12    1    3    3    0    0 -0.13729182664E+02 -0.43786759958E+01 -0.33883881293E+02  0.36820927087E+02  0.00000000000E+00 0.  1.
         11    1    4    4    0    0  0.21309802827E+02 -0.18210635945E+00  0.23564092320E+02  0.31771170995E+02  0.51100000000E-03 0. -1.
        -11    1    4    4    0    0  0.35343372850E+01  0.71284172006E+01  0.72936755902E+01  0.10793682213E+02  0.51100000000E-03 0.  1.
         12    1    4    4    0    0 -0.11114957448E+02 -0.25676348453E+01  0.30261133829E+01  0.11802219705E+02  0.00000000000E+00 0. -1.
</event>
<event>
 8    1  0.1248739E-006  0.9118800E+02  0.7816164E-02  0.1184000E+00
        -11   -1    0    0    0    0  0.00000000000E+00  0.00000000000E+00  0.45593999997E+02  0.45594000000E+02  0.51100000000E-03 0. -1.
         11   -1    0    0    0    0 -0.00000000000E+00 -0.00000000000E+00 -0.45593999997E+02  0.45594000000E+02  0.51100000000E-03 0.  1.
         23    2    1    2    0    0  0.00000000000E+00  0.00000000000E+00 -0.35527136788E-14  0.91188000000E+02  0.91188000000E+02 0.  0.
    9900012    2    3    3    0    0 -0.61409714138E+01  0.34221551611E+02 -0.12122500039E+02  0.54367066664E+02  0.39999960073E+02 0.  0.
         12    1    3    3    0    0  0.61409714138E+01 -0.34221551611E+02  0.12122500039E+02  0.36820933336E+02  0.00000000000E+00 0. -1.
         11    1    4    4    0    0  0.25194575977E+01  0.15621885420E+02  0.85723017106E+01  0.17996536543E+02  0.51100000000E-03 0. -1.
        -11    1    4    4    0    0 -0.99653603754E+01  0.88035511878E+01  0.15414577198E+00  0.13297920217E+02  0.51100000000E-03 0.  1.
         12    1    4    4    0    0  0.13049313639E+01  0.97961150034E+01 -0.20848947521E+02  0.23072609904E+02  0.00000000000E+00 0. -1.
</event>
<event>
 8    1  0.1248739E-006  0.9118800E+02  0.7816164E-02  0.1184000E+00
        -11   -1    0    0    0    0  0.00000000000E+00  0.00000000000E+00  0.45593999997E+02  0.45594000000E+02  0.51100000000E-03 0.  1.
         11   -1    0    0    0    0 -0.00000000000E+00 -0.00000000000E+00 -0.45593999997E+02  0.45594000000E+02  0.51100000000E-03 0. -1.
         23    2    1    2    0    0 -0.13322676296E-14  0.00000000000E+00  0.00000000000E+00  0.91188000000E+02  0.91188000000E+02 0.  0.
    9900012    2    3    3    0    0  0.39919096489E+01  0.23317399670E+02 -0.28216030501E+02  0.54367070527E+02  0.39999968881E+02 0.  0.
        -12    1    3    3    0    0 -0.39919096489E+01 -0.23317399670E+02  0.28216030501E+02  0.36820929473E+02  0.00000000000E+00 0.  1.
         11    1    4    4    0    0  0.14537995253E+02  0.22480600048E+02 -0.24298774445E+02  0.36154683297E+02  0.51100000000E-03 0. -1.
        -11    1    4    4    0    0 -0.12995095637E+02  0.37982396048E+01 -0.46208087512E+01  0.14305628560E+02  0.51100000000E-03 0.  1.
        -12    1    4    4    0    0  0.24490100330E+01 -0.29614399833E+01  0.70355269562E+00  0.39067586708E+01  0.00000000000E+00 0.  1.
</event>
<event>
 8    1  0.1248739E-006  0.9118800E+02  0.7816164E-02  0.1184000E+00
        -11   -1    0    0    0    0  0.00000000000E+00  0.00000000000E+00  0.45593999997E+02  0.45594000000E+02  0.51100000000E-03 0.  1.
         11   -1    0    0    0    0 -0.00000000000E+00 -0.00000000000E+00 -0.45593999997E+02  0.45594000000E+02  0.51100000000E-03 0. -1.
         23    2    1    2    0    0  0.17763568394E-14  0.00000000000E+00  0.00000000000E+00  0.91188000000E+02  0.91188000000E+02 0.  0.
    9900012    2    3    3    0    0 -0.92240204506E+01  0.45176525393E+01  0.35359389345E+02  0.54367107118E+02  0.40000052298E+02 0.  0.
         12    1    3    3    0    0  0.92240204506E+01 -0.45176525393E+01 -0.35359389345E+02  0.36820892882E+02  0.00000000000E+00 0. -1.
         11    1    4    4    0    0  0.94273624452E+01 -0.59167571345E+01  0.49576390751E+01  0.12184472213E+02  0.51100000000E-03 0. -1.
        -11    1    4    4    0    0  0.37497424648E+01  0.46410554518E+01  0.46628588633E+01  0.75724644139E+01  0.51100000000E-03 0.  1.
        -12    1    4    4    0    0 -0.22401125361E+02  0.57933542220E+01  0.25738891407E+02  0.34610170491E+02  0.00000000000E+00 0.  1.
</event>
<event>
 8    1  0.1248739E-006  0.9118800E+02  0.7816164E-02  0.1184000E+00
        -11   -1    0    0    0    0  0.00000000000E+00  0.00000000000E+00  0.45593999997E+02  0.45594000000E+02  0.51100000000E-03 0.  1.
         11   -1    0    0    0    0 -0.00000000000E+00 -0.00000000000E+00 -0.45593999997E+02  0.45594000000E+02  0.51100000000E-03 0. -1.
         23    2    1    2    0    0  0.00000000000E+00  0.00000000000E+00  0.00000000000E+00  0.91188000000E+02  0.91188000000E+02 0.  0.
    9900012    2    3    3    0    0  0.12981583843E+02  0.22043508913E+02 -0.26482855738E+02  0.54367089469E+02  0.40000012063E+02 0.  0.
        -12    1    3    3    0    0 -0.12981583843E+02 -0.22043508913E+02  0.26482855738E+02  0.36820910531E+02  0.00000000000E+00 0.  1.
         11    1    4    4    0    0 -0.35883008315E+01 -0.37700118350E+01 -0.12094430186E+02  0.13166781455E+02  0.51100000000E-03 0. -1.
        -11    1    4    4    0    0 -0.10534929855E+01 -0.69363914404E+00  0.41684335561E+01  0.43550914233E+01  0.51100000000E-03 0.  1.
         12    1    4    4    0    0  0.17623377660E+02  0.26507159892E+02 -0.18556859108E+02  0.36845216591E+02  0.00000000000E+00 0. -1.
</event>
<event>
 8    1  0.1248739E-006  0.9118800E+02  0.7816164E-02  0.1184000E+00
        -11   -1    0    0    0    0  0.00000000000E+00  0.00000000000E+00  0.45593999997E+02  0.45594000000E+02  0.51100000000E-03 0.  1.
         11   -1    0    0    0    0 -0.00000000000E+00 -0.00000000000E+00 -0.45593999997E+02  0.45594000000E+02  0.51100000000E-03 0. -1.
         23    2    1    2    0    0  0.17763568394E-14 -0.35527136788E-14  0.00000000000E+00  0.91188000000E+02  0.91188000000E+02 0.  0.
    9900012    2    3    3    0    0 -0.87180652532E+01  0.21612961735E+02  0.28507100291E+02  0.54367088228E+02  0.40000009234E+02 0.  0.
         12    1    3    3    0    0  0.87180652532E+01 -0.21612961735E+02 -0.28507100291E+02  0.36820911772E+02  0.00000000000E+00 0. -1.
         11    1    4    4    0    0  0.12582609426E+02  0.89917136036E+01 -0.65534552967E-01  0.15465357045E+02  0.51100000000E-03 0. -1.
        -11    1    4    4    0    0 -0.10825086050E+02  0.16137022108E+01  0.93232233135E+01  0.14377378621E+02  0.51100000000E-03 0.  1.
         12    1    4    4    0    0 -0.10475588629E+02  0.11007545921E+02  0.19249411530E+02  0.24524352562E+02  0.00000000000E+00 0. -1.
</event>
<event>
 8    1  0.1248739E-006  0.9118800E+02  0.7816164E-02  0.1184000E+00
        -11   -1    0    0    0    0  0.00000000000E+00  0.00000000000E+00  0.45593999997E+02  0.45594000000E+02  0.51100000000E-03 0.  1.
         11   -1    0    0    0    0 -0.00000000000E+00 -0.00000000000E+00 -0.45593999997E+02  0.45594000000E+02  0.51100000000E-03 0. -1.
         23    2    1    2    0    0  0.35527136788E-14 -0.35527136788E-14 -0.35527136788E-14  0.91188000000E+02  0.91188000000E+02 0.  0.
    9900012    2    3    3    0    0  0.23450997254E+02 -0.22016584611E+02 -0.17919221850E+02  0.54367112152E+02  0.40000063774E+02 0.  0.
        -12    1    3    3    0    0 -0.23450997254E+02  0.22016584611E+02  0.17919221850E+02  0.36820887848E+02  0.00000000000E+00 0.  1.
         11    1    4    4    0    0  0.25633603993E+02 -0.76222100444E+01 -0.10978126588E+02  0.28908459026E+02  0.51100000000E-03 0. -1.
        -11    1    4    4    0    0  0.68535686171E+01 -0.13507293353E+02 -0.61400822863E+01  0.16343775183E+02  0.51100000000E-03 0.  1.
        -12    1    4    4    0    0 -0.90361753551E+01 -0.88708121437E+00 -0.80101297594E+00  0.91148779431E+01  0.00000000000E+00 0.  1.
</event>
<event>
 8    1  0.1248739E-006  0.9118800E+02  0.7816164E-02  0.1184000E+00
        -11   -1    0    0    0    0  0.00000000000E+00  0.00000000000E+00  0.45593999997E+02  0.45594000000E+02  0.51100000000E-03 0.  1.
         11   -1    0    0    0    0 -0.00000000000E+00 -0.00000000000E+00 -0.45593999997E+02  0.45594000000E+02  0.51100000000E-03 0. -1.
         23    2    1    2    0    0 -0.53290705182E-14 -0.35527136788E-14 -0.17763568394E-14  0.91188000000E+02  0.91188000000E+02 0.  0.
    9900012    2    3    3    0    0 -0.14870423490E+02 -0.30032761963E+02 -0.15253926347E+02  0.54367101656E+02  0.40000039845E+02 0.  0.
        -12    1    3    3    0    0  0.14870423490E+02  0.30032761963E+02  0.15253926347E+02  0.36820898344E+02  0.00000000000E+00 0.  1.
         11    1    4    4    0    0 -0.13489874988E+02 -0.31590775794E+02 -0.87103612289E+01  0.35437610465E+02  0.51100000000E-03 0.  1.
        -11    1    4    4    0    0 -0.26703892889E+01 -0.66141708284E+01 -0.77905308540E+01  0.10562698801E+02  0.51100000000E-03 0. -1.
        -12    1    4    4    0    0  0.12898407871E+01  0.81721846594E+01  0.12469657361E+01  0.83667923908E+01  0.00000000000E+00 0.  1.
</event>
<event>
 8    1  0.1248739E-006  0.9118800E+02  0.7816164E-02  0.1184000E+00
        -11   -1    0    0    0    0  0.00000000000E+00  0.00000000000E+00  0.45593999997E+02  0.45594000000E+02  0.51100000000E-03 0. -1.
         11   -1    0    0    0    0 -0.00000000000E+00 -0.00000000000E+00 -0.45593999997E+02  0.45594000000E+02  0.51100000000E-03 0.  1.
         23    2    1    2    0    0 -0.17763568394E-14  0.35527136788E-14  0.00000000000E+00  0.91188000000E+02  0.91188000000E+02 0.  0.
    9900012    2    3    3    0    0  0.86900729593E+01 -0.26794805933E+02 -0.23712923171E+02  0.54367058698E+02  0.39999941914E+02 0.  0.
         12    1    3    3    0    0 -0.86900729593E+01  0.26794805933E+02  0.23712923171E+02  0.36820941302E+02  0.00000000000E+00 0. -1.
         11    1    4    4    0    0  0.11100474391E+02 -0.40241214734E+01 -0.16029837197E+02  0.19909037299E+02  0.51100000000E-03 0. -1.
        -11    1    4    4    0    0  0.49693240166E+01 -0.68393712824E+01 -0.13528677700E+02  0.15952940209E+02  0.51100000000E-03 0.  1.
         12    1    4    4    0    0 -0.73797254483E+01 -0.15931313177E+02  0.58455917263E+01  0.18505081191E+02  0.00000000000E+00 0. -1.
</event>
<event>
 8    1  0.1248739E-006  0.9118800E+02  0.7816164E-02  0.1184000E+00
        -11   -1    0    0    0    0  0.00000000000E+00  0.00000000000E+00  0.45593999997E+02  0.45594000000E+02  0.51100000000E-03 0.  1.
         11   -1    0    0    0    0 -0.00000000000E+00 -0.00000000000E+00 -0.45593999997E+02  0.45594000000E+02  0.51100000000E-03 0. -1.
         23    2    1    2    0    0  0.00000000000E+00  0.00000000000E+00  0.35527136788E-14  0.91188000000E+02  0.91188000000E+02 0.  0.
    9900012    2    3    3    0    0  0.22288847349E+02  0.24286467032E+02  0.16405982516E+02  0.54367062215E+02  0.39999949932E+02 0.  0.
         12    1    3    3    0    0 -0.22288847349E+02 -0.24286467032E+02 -0.16405982516E+02  0.36820937785E+02  0.00000000000E+00 0. -1.
         11    1    4    4    0    0  0.18117492394E+02  0.29416928332E+02  0.16806932917E+02  0.38419685025E+02  0.51100000000E-03 0.  1.
        -11    1    4    4    0    0 -0.17763923511E+01  0.43580565356E+01 -0.61882712076E+00  0.47467013619E+01  0.51100000000E-03 0. -1.
         12    1    4    4    0    0  0.59477473064E+01 -0.94885178354E+01  0.21787671930E+00  0.11200675828E+02  0.00000000000E+00 0. -1.
</event>
<event>
 8    1  0.1248739E-006  0.9118800E+02  0.7816164E-02  0.1184000E+00
        -11   -1    0    0    0    0  0.00000000000E+00  0.00000000000E+00  0.45593999997E+02  0.45594000000E+02  0.51100000000E-03 0. -1.
         11   -1    0    0    0    0 -0.00000000000E+00 -0.00000000000E+00 -0.45593999997E+02  0.45594000000E+02  0.51100000000E-03 0.  1.
         23    2    1    2    0    0  0.44408920985E-15  0.00000000000E+00  0.00000000000E+00  0.91188000000E+02  0.91188000000E+02 0.  0.
    9900012    2    3    3    0    0 -0.24087311774E+01  0.23070792975E+02  0.28595723518E+02  0.54367097270E+02  0.40000029846E+02 0.  0.
        -12    1    3    3    0    0  0.24087311774E+01 -0.23070792975E+02 -0.28595723518E+02  0.36820902730E+02  0.00000000000E+00 0.  1.
         11    1    4    4    0    0  0.12115044568E+01 -0.30328007842E+00  0.15107367515E+01  0.19601141926E+01  0.51100000000E-03 0. -1.
        -11    1    4    4    0    0 -0.65899679117E+01  0.12366579505E+02  0.35546650323E+02  0.38208955955E+02  0.51100000000E-03 0.  1.
        -12    1    4    4    0    0  0.29697322775E+01  0.11007493548E+02 -0.84616635564E+01  0.14198027122E+02  0.00000000000E+00 0.  1.
</event>
<event>
 8    1  0.1248739E-006  0.9118800E+02  0.7816164E-02  0.1184000E+00
        -11   -1    0    0    0    0  0.00000000000E+00  0.00000000000E+00  0.45593999997E+02  0.45594000000E+02  0.51100000000E-03 0.  1.
         11   -1    0    0    0    0 -0.00000000000E+00 -0.00000000000E+00 -0.45593999997E+02  0.45594000000E+02  0.51100000000E-03 0. -1.
         23    2    1    2    0    0  0.00000000000E+00  0.00000000000E+00  0.00000000000E+00  0.91188000000E+02  0.91188000000E+02 0.  0.
    9900012    2    3    3    0    0  0.36733171321E+02 -0.21951522423E+01  0.12792316283E+01  0.54367068422E+02  0.39999964082E+02 0.  0.
        -12    1    3    3    0    0 -0.36733171321E+02  0.21951522423E+01 -0.12792316283E+01  0.36820931578E+02  0.00000000000E+00 0.  1.
         11    1    4    4    0    0  0.31940962301E+01  0.22073736562E+01  0.80106716017E+00  0.39643988247E+01  0.51100000000E-03 0. -1.
        -11    1    4    4    0    0  0.35786758529E+02 -0.11416991603E+02  0.95091881218E+01  0.38748734718E+02  0.51100000000E-03 0.  1.
        -12    1    4    4    0    0 -0.22476834373E+01  0.70144657040E+01 -0.90310236536E+01  0.11653934880E+02  0.00000000000E+00 0.  1.
</event>
<event>
 8    1  0.1248739E-006  0.9118800E+02  0.7816164E-02  0.1184000E+00
        -11   -1    0    0    0    0  0.00000000000E+00  0.00000000000E+00  0.45593999997E+02  0.45594000000E+02  0.51100000000E-03 0. -1.
         11   -1    0    0    0    0 -0.00000000000E+00 -0.00000000000E+00 -0.45593999997E+02  0.45594000000E+02  0.51100000000E-03 0.  1.
         23    2    1    2    0    0  0.00000000000E+00  0.00000000000E+00  0.00000000000E+00  0.91188000000E+02  0.91188000000E+02 0.  0.
    9900012    2    3    3    0    0  0.12201658893E+02 -0.28668800605E+02  0.19621400318E+02  0.54367082599E+02  0.39999996400E+02 0.  0.
         12    1    3    3    0    0 -0.12201658893E+02  0.28668800605E+02 -0.19621400318E+02  0.36820917401E+02  0.00000000000E+00 0. -1.
         11    1    4    4    0    0  0.60149608038E+01 -0.13064242019E+02  0.12420254519E+02  0.19003075951E+02  0.51100000000E-03 0.  1.
        -11    1    4    4    0    0  0.15105285075E+02 -0.75632015264E+00  0.95464831591E+01  0.17885105489E+02  0.51100000000E-03 0. -1.
         12    1    4    4    0    0 -0.89185869862E+01 -0.14848238433E+02 -0.23453373605E+01  0.17478901159E+02  0.00000000000E+00 0. -1.
</event>
<event>
 8    1  0.1248739E-006  0.9118800E+02  0.7816164E-02  0.1184000E+00
        -11   -1    0    0    0    0  0.00000000000E+00  0.00000000000E+00  0.45593999997E+02  0.45594000000E+02  0.51100000000E-03 0.  1.
         11   -1    0    0    0    0 -0.00000000000E+00 -0.00000000000E+00 -0.45593999997E+02  0.45594000000E+02  0.51100000000E-03 0. -1.
         23    2    1    2    0    0  0.00000000000E+00  0.17763568394E-14 -0.35527136788E-14  0.91188000000E+02  0.91188000000E+02 0.  0.
    9900012    2    3    3    0    0 -0.31507705645E+02  0.41595905783E+01  0.18594173512E+02  0.54367068488E+02  0.39999964232E+02 0.  0.
        -12    1    3    3    0    0  0.31507705645E+02 -0.41595905783E+01 -0.18594173512E+02  0.36820931512E+02  0.00000000000E+00 0.  1.
         11    1    4    4    0    0 -0.67535794999E+01  0.22708994396E+01  0.16565822152E+01  0.73151955013E+01  0.51100000000E-03 0. -1.
        -11    1    4    4    0    0 -0.38312057343E+01  0.10173324603E+02 -0.79735268078E+01  0.13481535553E+02  0.51100000000E-03 0.  1.
        -12    1    4    4    0    0 -0.20922920411E+02 -0.82846334645E+01  0.24911118105E+02  0.33570337433E+02  0.00000000000E+00 0.  1.
</event>
<event>
 8    1  0.1248739E-006  0.9118800E+02  0.7816164E-02  0.1184000E+00
        -11   -1    0    0    0    0  0.00000000000E+00  0.00000000000E+00  0.45593999997E+02  0.45594000000E+02  0.51100000000E-03 0. -1.
         11   -1    0    0    0    0 -0.00000000000E+00 -0.00000000000E+00 -0.45593999997E+02  0.45594000000E+02  0.51100000000E-03 0.  1.
         23    2    1    2    0    0 -0.17763568394E-14  0.00000000000E+00  0.00000000000E+00  0.91188000000E+02  0.91188000000E+02 0.  0.
    9900012    2    3    3    0    0  0.12999017804E+02  0.17088950479E+02  0.29912758104E+02  0.54367084888E+02  0.40000001619E+02 0.  0.
        -12    1    3    3    0    0 -0.12999017804E+02 -0.17088950479E+02 -0.29912758104E+02  0.36820915112E+02  0.00000000000E+00 0.  1.
         11    1    4    4    0    0  0.24016297169E+01 -0.89807596955E+01  0.67315803848E+01  0.11477632367E+02  0.51100000000E-03 0. -1.
        -11    1    4    4    0    0  0.51023526652E+01  0.41836092746E+00 -0.29113165649E+01  0.58893796777E+01  0.51100000000E-03 0.  1.
         12    1    4    4    0    0  0.54950354214E+01  0.25651349247E+02  0.26092494284E+02  0.37000072843E+02  0.00000000000E+00 0. -1.
</event>
<event>
 8    1  0.1248739E-006  0.9118800E+02  0.7816164E-02  0.1184000E+00
        -11   -1    0    0    0    0  0.00000000000E+00  0.00000000000E+00  0.45593999997E+02  0.45594000000E+02  0.51100000000E-03 0. -1.
         11   -1    0    0    0    0 -0.00000000000E+00 -0.00000000000E+00 -0.45593999997E+02  0.45594000000E+02  0.51100000000E-03 0.  1.
         23    2    1    2    0    0  0.00000000000E+00  0.35527136788E-14 -0.35527136788E-14  0.91188000000E+02  0.91188000000E+02 0.  0.
    9900012    2    3    3    0    0  0.21142564012E+02  0.13843045212E+02 -0.26779525871E+02  0.54367069544E+02  0.39999966639E+02 0.  0.
         12    1    3    3    0    0 -0.21142564012E+02 -0.13843045212E+02  0.26779525871E+02  0.36820930456E+02  0.00000000000E+00 0. -1.
         11    1    4    4    0    0  0.51953552224E+00  0.31113161635E+01  0.40139721430E+01  0.51051129325E+01  0.51100000000E-03 0. -1.
        -11    1    4    4    0    0  0.35054440583E+01 -0.36196952115E+01  0.49816514413E+01  0.70857027043E+01  0.51100000000E-03 0.  1.
        -12    1    4    4    0    0  0.17117584431E+02  0.14351424260E+02 -0.35775149456E+02  0.42176253907E+02  0.00000000000E+00 0.  1.
</event>
<event>
 8    1  0.1248739E-006  0.9118800E+02  0.7816164E-02  0.1184000E+00
        -11   -1    0    0    0    0  0.00000000000E+00  0.00000000000E+00  0.45593999997E+02  0.45594000000E+02  0.51100000000E-03 0. -1.
         11   -1    0    0    0    0 -0.00000000000E+00 -0.00000000000E+00 -0.45593999997E+02  0.45594000000E+02  0.51100000000E-03 0.  1.
         23    2    1    2    0    0  0.35527136788E-14  0.00000000000E+00 -0.35527136788E-14  0.91188000000E+02  0.91188000000E+02 0.  0.
    9900012    2    3    3    0    0 -0.29196552003E+02  0.25891390305E+01  0.22285369881E+02  0.54367082025E+02  0.39999995093E+02 0.  0.
         12    1    3    3    0    0  0.29196552003E+02 -0.25891390305E+01 -0.22285369881E+02  0.36820917975E+02  0.00000000000E+00 0. -1.
         11    1    4    4    0    0 -0.11539958907E+01 -0.57577789888E+01  0.20145544560E+02  0.20983962717E+02  0.51100000000E-03 0. -1.
        -11    1    4    4    0    0 -0.14253897294E+02  0.11537787903E+02  0.48592008950E+01  0.18971187927E+02  0.51100000000E-03 0.  1.
        -12    1    4    4    0    0 -0.13788658818E+02 -0.31908698841E+01 -0.27193755743E+01  0.14411931381E+02  0.00000000000E+00 0.  1.
</event>
<event>
 8    1  0.1248739E-006  0.9118800E+02  0.7816164E-02  0.1184000E+00
        -11   -1    0    0    0    0  0.00000000000E+00  0.00000000000E+00  0.45593999997E+02  0.45594000000E+02  0.51100000000E-03 0. -1.
         11   -1    0    0    0    0 -0.00000000000E+00 -0.00000000000E+00 -0.45593999997E+02  0.45594000000E+02  0.51100000000E-03 0.  1.
         23    2    1    2    0    0 -0.17763568394E-14 -0.22204460493E-15  0.00000000000E+00  0.91188000000E+02  0.91188000000E+02 0.  0.
    9900012    2    3    3    0    0  0.88339268968E+01 -0.19372167642E+01 -0.35692973030E+02  0.54367090221E+02  0.40000013778E+02 0.  0.
         12    1    3    3    0    0 -0.88339268968E+01  0.19372167642E+01  0.35692973030E+02  0.36820909779E+02  0.00000000000E+00 0. -1.
         11    1    4    4    0    0  0.25608838593E+01  0.52339905833E+01 -0.92454168009E+00  0.58997933138E+01  0.51100000000E-03 0. -1.
        -11    1    4    4    0    0  0.19364253621E+02 -0.65094741370E+01 -0.18369013291E+02  0.27473045360E+02  0.51100000000E-03 0.  1.
         12    1    4    4    0    0 -0.13091210583E+02 -0.66173321053E+00 -0.16399418059E+02  0.20994251547E+02  0.00000000000E+00 0. -1.
</event>
<event>
 8    1  0.1248739E-006  0.9118800E+02  0.7816164E-02  0.1184000E+00
        -11   -1    0    0    0    0  0.00000000000E+00  0.00000000000E+00  0.45593999997E+02  0.45594000000E+02  0.51100000000E-03 0.  1.
         11   -1    0    0    0    0 -0.00000000000E+00 -0.00000000000E+00 -0.45593999997E+02  0.45594000000E+02  0.51100000000E-03 0. -1.
         23    2    1    2    0    0 -0.35527136788E-14  0.00000000000E+00  0.00000000000E+00  0.91188000000E+02  0.91188000000E+02 0.  0.
    9900012    2    3    3    0    0  0.24622481852E+02  0.18812017175E+02  0.19890238296E+02  0.54367079558E+02  0.39999989468E+02 0.  0.
         12    1    3    3    0    0 -0.24622481852E+02 -0.18812017175E+02 -0.19890238296E+02  0.36820920442E+02  0.00000000000E+00 0. -1.
         11    1    4    4    0    0  0.31789490022E+01 -0.53832174526E+01  0.31249867375E+01  0.69892981959E+01  0.51100000000E-03 0. -1.
        -11    1    4    4    0    0  0.68101974087E+01 -0.35574866977E+01 -0.50232953441E+01  0.91797601671E+01  0.51100000000E-03 0.  1.
        -12    1    4    4    0    0  0.14633335441E+02  0.27752721325E+02  0.21788546903E+02  0.38198021195E+02  0.00000000000E+00 0.  1.
</event>
<event>
 8    1  0.1248739E-006  0.9118800E+02  0.7816164E-02  0.1184000E+00
        -11   -1    0    0    0    0  0.00000000000E+00  0.00000000000E+00  0.45593999997E+02  0.45594000000E+02  0.51100000000E-03 0.  1.
         11   -1    0    0    0    0 -0.00000000000E+00 -0.00000000000E+00 -0.45593999997E+02  0.45594000000E+02  0.51100000000E-03 0. -1.
         23    2    1    2    0    0 -0.11102230246E-15  0.00000000000E+00  0.00000000000E+00  0.91188000000E+02  0.91188000000E+02 0.  0.
    9900012    2    3    3    0    0 -0.94797732122E+00  0.32529890114E+02  0.17224641513E+02  0.54367072703E+02  0.39999973840E+02 0.  0.
         12    1    3    3    0    0  0.94797732122E+00 -0.32529890114E+02 -0.17224641513E+02  0.36820927297E+02  0.00000000000E+00 0. -1.
         11    1    4    4    0    0  0.61189008682E+00  0.12567441100E+02  0.11410435127E+02  0.16985670883E+02  0.51100000000E-03 0. -1.
        -11    1    4    4    0    0 -0.39249547569E+01  0.80589109731E+01  0.18046501595E+02  0.20150124962E+02  0.51100000000E-03 0.  1.
         12    1    4    4    0    0  0.23650873489E+01  0.11903538040E+02 -0.12232295210E+02  0.17231276857E+02  0.00000000000E+00 0. -1.
</event>
<event>
 8    1  0.1248739E-006  0.9118800E+02  0.7816164E-02  0.1184000E+00
        -11   -1    0    0    0    0  0.00000000000E+00  0.00000000000E+00  0.45593999997E+02  0.45594000000E+02  0.51100000000E-03 0.  1.
         11   -1    0    0    0    0 -0.00000000000E+00 -0.00000000000E+00 -0.45593999997E+02  0.45594000000E+02  0.51100000000E-03 0. -1.
         23    2    1    2    0    0  0.00000000000E+00  0.00000000000E+00  0.00000000000E+00  0.91188000000E+02  0.91188000000E+02 0.  0.
    9900012    2    3    3    0    0 -0.60841540126E+01 -0.34986133344E+02  0.97331218603E+01  0.54367080436E+02  0.39999991469E+02 0.  0.
         12    1    3    3    0    0  0.60841540126E+01  0.34986133344E+02 -0.97331218603E+01  0.36820919564E+02  0.00000000000E+00 0. -1.
         11    1    4    4    0    0 -0.10431102899E+02 -0.31928140919E+02  0.19992663062E+01  0.33648345521E+02  0.51100000000E-03 0. -1.
        -11    1    4    4    0    0 -0.27311164809E+01  0.43290083907E+01 -0.29652754019E+01  0.59154179353E+01  0.51100000000E-03 0.  1.
         12    1    4    4    0    0  0.70780653674E+01 -0.73870008155E+01  0.10699130956E+02  0.14803316980E+02  0.00000000000E+00 0. -1.
</event>
<event>
 8    1  0.1248739E-006  0.9118800E+02  0.7816164E-02  0.1184000E+00
        -11   -1    0    0    0    0  0.00000000000E+00  0.00000000000E+00  0.45593999997E+02  0.45594000000E+02  0.51100000000E-03 0.  1.
         11   -1    0    0    0    0 -0.00000000000E+00 -0.00000000000E+00 -0.45593999997E+02  0.45594000000E+02  0.51100000000E-03 0. -1.
         23    2    1    2    0    0 -0.88817841970E-15  0.00000000000E+00  0.00000000000E+00  0.91188000000E+02  0.91188000000E+02 0.  0.
    9900012    2    3    3    0    0 -0.69703896202E+01 -0.24723185747E+01  0.36070490211E+02  0.54367096227E+02  0.40000027470E+02 0.  0.
         12    1    3    3    0    0  0.69703896202E+01  0.24723185747E+01 -0.36070490211E+02  0.36820903773E+02  0.00000000000E+00 0. -1.
         11    1    4    4    0    0  0.10651360183E+02 -0.61743717873E+01 -0.22779735356E+00  0.12313660407E+02  0.51100000000E-03 0. -1.
        -11    1    4    4    0    0 -0.96128850367E+01 -0.35285373126E+01  0.20597485230E+02  0.23002489699E+02  0.51100000000E-03 0.  1.
        -12    1    4    4    0    0 -0.80088647665E+01  0.72305905252E+01  0.15700802334E+02  0.19050946122E+02  0.00000000000E+00 0.  1.
</event>
<event>
 8    1  0.1248739E-006  0.9118800E+02  0.7816164E-02  0.1184000E+00
        -11   -1    0    0    0    0  0.00000000000E+00  0.00000000000E+00  0.45593999997E+02  0.45594000000E+02  0.51100000000E-03 0. -1.
         11   -1    0    0    0    0 -0.00000000000E+00 -0.00000000000E+00 -0.45593999997E+02  0.45594000000E+02  0.51100000000E-03 0.  1.
         23    2    1    2    0    0  0.00000000000E+00  0.00000000000E+00  0.35527136788E-14  0.91188000000E+02  0.91188000000E+02 0.  0.
    9900012    2    3    3    0    0  0.17086802714E+02  0.26471866072E+02 -0.19054125079E+02  0.54367106436E+02  0.40000050742E+02 0.  0.
         12    1    3    3    0    0 -0.17086802714E+02 -0.26471866072E+02  0.19054125079E+02  0.36820893564E+02  0.00000000000E+00 0. -1.
         11    1    4    4    0    0  0.11995974483E+02  0.92587311859E+01  0.27545346163E+01  0.15401784578E+02  0.51100000000E-03 0. -1.
        -11    1    4    4    0    0  0.48354240594E+01  0.21003244377E+02 -0.25690623922E+02  0.33533949334E+02  0.51100000000E-03 0.  1.
        -12    1    4    4    0    0  0.25540417215E+00 -0.37901094908E+01  0.38819642264E+01  0.54313725243E+01  0.00000000000E+00 0.  1.
</event>
<event>
 8    1  0.1248739E-006  0.9118800E+02  0.7816164E-02  0.1184000E+00
        -11   -1    0    0    0    0  0.00000000000E+00  0.00000000000E+00  0.45593999997E+02  0.45594000000E+02  0.51100000000E-03 0. -1.
         11   -1    0    0    0    0 -0.00000000000E+00 -0.00000000000E+00 -0.45593999997E+02  0.45594000000E+02  0.51100000000E-03 0.  1.
         23    2    1    2    0    0 -0.35527136788E-14  0.00000000000E+00  0.35527136788E-14  0.91188000000E+02  0.91188000000E+02 0.  0.
    9900012    2    3    3    0    0  0.22082758390E+02  0.22993952043E+02 -0.18423068020E+02  0.54367089040E+02  0.40000011084E+02 0.  0.
         12    1    3    3    0    0 -0.22082758390E+02 -0.22993952043E+02  0.18423068020E+02  0.36820910960E+02  0.00000000000E+00 0. -1.
         11    1    4    4    0    0 -0.30222988029E+01 -0.47319118631E+01 -0.33030590048E+01  0.65142519897E+01  0.51100000000E-03 0. -1.
        -11    1    4    4    0    0  0.51197970794E+01  0.21924633984E+02 -0.68243857496E+00  0.22524822311E+02  0.51100000000E-03 0.  1.
         12    1    4    4    0    0  0.19985260114E+02  0.58012299218E+01 -0.14437570440E+02  0.25328014739E+02  0.00000000000E+00 0. -1.
</event>
<event>
 8    1  0.1248739E-006  0.9118800E+02  0.7816164E-02  0.1184000E+00
        -11   -1    0    0    0    0  0.00000000000E+00  0.00000000000E+00  0.45593999997E+02  0.45594000000E+02  0.51100000000E-03 0.  1.
         11   -1    0    0    0    0 -0.00000000000E+00 -0.00000000000E+00 -0.45593999997E+02  0.45594000000E+02  0.51100000000E-03 0. -1.
         23    2    1    2    0    0  0.00000000000E+00  0.71054273576E-14  0.35527136788E-14  0.91188000000E+02  0.91188000000E+02 0.  0.
    9900012    2    3    3    0    0 -0.19750786760E+02  0.25493443363E+02  0.17770049056E+02  0.54367029404E+02  0.39999875133E+02 0.  0.
         12    1    3    3    0    0  0.19750786760E+02 -0.25493443363E+02 -0.17770049056E+02  0.36820970596E+02  0.00000000000E+00 0. -1.
         11    1    4    4    0    0 -0.22451139312E+02  0.19839908588E+02  0.45807467092E+00  0.29964736973E+02  0.51100000000E-03 0. -1.
        -11    1    4    4    0    0 -0.35290681724E+01 -0.42321794007E+01  0.57487834838E+01  0.79633018560E+01  0.51100000000E-03 0.  1.
        -12    1    4    4    0    0  0.62294207246E+01  0.98857141763E+01  0.11563190901E+02  0.16438990576E+02  0.00000000000E+00 0.  1.
</event>
<event>
 8    1  0.1248739E-006  0.9118800E+02  0.7816164E-02  0.1184000E+00
        -11   -1    0    0    0    0  0.00000000000E+00  0.00000000000E+00  0.45593999997E+02  0.45594000000E+02  0.51100000000E-03 0.  1.
         11   -1    0    0    0    0 -0.00000000000E+00 -0.00000000000E+00 -0.45593999997E+02  0.45594000000E+02  0.51100000000E-03 0. -1.
         23    2    1    2    0    0  0.00000000000E+00 -0.22204460493E-14 -0.35527136788E-14  0.91188000000E+02  0.91188000000E+02 0.  0.
    9900012    2    3    3    0    0 -0.21105621781E+02 -0.37812473243E+01  0.29933839660E+02  0.54367083948E+02  0.39999999477E+02 0.  0.
         12    1    3    3    0    0  0.21105621781E+02  0.37812473243E+01 -0.29933839660E+02  0.36820916052E+02  0.00000000000E+00 0. -1.
         11    1    4    4    0    0 -0.23575536390E+02  0.11382655344E+02  0.10489642197E+02  0.28202896171E+02  0.51100000000E-03 0. -1.
        -11    1    4    4    0    0  0.29245228959E+01 -0.13280583706E+02  0.19966542003E+02  0.24157597926E+02  0.51100000000E-03 0.  1.
        -12    1    4    4    0    0 -0.45460828692E+00 -0.18833189629E+01 -0.52234454003E+00  0.20065898507E+01  0.00000000000E+00 0.  1.
</event>
<event>
 8    1  0.1248739E-006  0.9118800E+02  0.7816164E-02  0.1184000E+00
        -11   -1    0    0    0    0  0.00000000000E+00  0.00000000000E+00  0.45593999997E+02  0.45594000000E+02  0.51100000000E-03 0.  1.
         11   -1    0    0    0    0 -0.00000000000E+00 -0.00000000000E+00 -0.45593999997E+02  0.45594000000E+02  0.51100000000E-03 0. -1.
         23    2    1    2    0    0 -0.26645352591E-14  0.35527136788E-14  0.35527136788E-14  0.91188000000E+02  0.91188000000E+02 0.  0.
    9900012    2    3    3    0    0 -0.29928815287E+01  0.26033743624E+02  0.25866318543E+02  0.54367087710E+02  0.40000008052E+02 0.  0.
        -12    1    3    3    0    0  0.29928815287E+01 -0.26033743624E+02 -0.25866318543E+02  0.36820912290E+02  0.00000000000E+00 0.  1.
         11    1    4    4    0    0  0.53860716848E+01 -0.28998334951E+01 -0.69165169739E+01  0.92334722507E+01  0.51100000000E-03 0. -1.
        -11    1    4    4    0    0 -0.24455465208E-01  0.91455731942E+01  0.13257577842E+02  0.16106069590E+02  0.51100000000E-03 0.  1.
         12    1    4    4    0    0 -0.83544977482E+01  0.19788003924E+02  0.19525257675E+02  0.29027545869E+02  0.00000000000E+00 0. -1.
</event>
<event>
 8    1  0.1248739E-006  0.9118800E+02  0.7816164E-02  0.1184000E+00
        -11   -1    0    0    0    0  0.00000000000E+00  0.00000000000E+00  0.45593999997E+02  0.45594000000E+02  0.51100000000E-03 0. -1.
         11   -1    0    0    0    0 -0.00000000000E+00 -0.00000000000E+00 -0.45593999997E+02  0.45594000000E+02  0.51100000000E-03 0.  1.
         23    2    1    2    0    0  0.00000000000E+00  0.00000000000E+00  0.35527136788E-14  0.91188000000E+02  0.91188000000E+02 0.  0.
    9900012    2    3    3    0    0 -0.19856548157E+02  0.27754544261E+02 -0.13826943006E+02  0.54367060512E+02  0.39999946050E+02 0.  0.
         12    1    3    3    0    0  0.19856548157E+02 -0.27754544261E+02  0.13826943006E+02  0.36820939488E+02  0.00000000000E+00 0. -1.
         11    1    4    4    0    0 -0.55598743464E+01  0.12913841672E+01 -0.16146182742E+02  0.17125393228E+02  0.51100000000E-03 0. -1.
        -11    1    4    4    0    0 -0.17889311145E+02  0.10579538518E+02  0.26614392092E+01  0.20953218068E+02  0.51100000000E-03 0.  1.
        -12    1    4    4    0    0  0.35926373343E+01  0.15883621576E+02 -0.34219947329E+00  0.16288449216E+02  0.00000000000E+00 0.  1.
</event>
<event>
 8    1  0.1248739E-006  0.9118800E+02  0.7816164E-02  0.1184000E+00
        -11   -1    0    0    0    0  0.00000000000E+00  0.00000000000E+00  0.45593999997E+02  0.45594000000E+02  0.51100000000E-03 0.  1.
         11   -1    0    0    0    0 -0.00000000000E+00 -0.00000000000E+00 -0.45593999997E+02  0.45594000000E+02  0.51100000000E-03 0. -1.
         23    2    1    2    0    0  0.00000000000E+00  0.13322676296E-14  0.22204460493E-15  0.91188000000E+02  0.91188000000E+02 0.  0.
    9900012    2    3    3    0    0  0.36795810235E+02  0.12054870154E+01 -0.62728326724E+00  0.54367104654E+02  0.40000046680E+02 0.  0.
        -12    1    3    3    0    0 -0.36795810235E+02 -0.12054870154E+01  0.62728326724E+00  0.36820895346E+02  0.00000000000E+00 0.  1.
         11    1    4    4    0    0  0.23270543308E+02 -0.23309194975E+01  0.10536066797E+01  0.23410712481E+02  0.51100000000E-03 0. -1.
        -11    1    4    4    0    0  0.10698700480E+02 -0.86198915407E+01 -0.90600786279E+01  0.16457513395E+02  0.51100000000E-03 0.  1.
        -12    1    4    4    0    0  0.28265664468E+01  0.12156298054E+02  0.73791886809E+01  0.14498878779E+02  0.00000000000E+00 0.  1.
</event>
<event>
 8    1  0.1248739E-006  0.9118800E+02  0.7816164E-02  0.1184000E+00
        -11   -1    0    0    0    0  0.00000000000E+00  0.00000000000E+00  0.45593999997E+02  0.45594000000E+02  0.51100000000E-03 0.  1.
         11   -1    0    0    0    0 -0.00000000000E+00 -0.00000000000E+00 -0.45593999997E+02  0.45594000000E+02  0.51100000000E-03 0. -1.
         23    2    1    2    0    0  0.00000000000E+00  0.35527136788E-14 -0.88817841970E-15  0.91188000000E+02  0.91188000000E+02 0.  0.
    9900012    2    3    3    0    0 -0.20604274170E+02  0.30184731569E+02  0.44859878399E+01  0.54367106191E+02  0.40000050184E+02 0.  0.
        -12    1    3    3    0    0  0.20604274170E+02 -0.30184731569E+02 -0.44859878399E+01  0.36820893809E+02  0.00000000000E+00 0.  1.
         11    1    4    4    0    0 -0.46102231009E+01  0.14550059485E+02  0.10254192821E+02  0.18387682256E+02  0.51100000000E-03 0. -1.
        -11    1    4    4    0    0 -0.19182136967E+00  0.18450565899E+02  0.11792999382E+01  0.18489211071E+02  0.51100000000E-03 0.  1.
         12    1    4    4    0    0 -0.15802229699E+02 -0.28158938145E+01 -0.69475049196E+01  0.17490212865E+02  0.00000000000E+00 0. -1.
</event>
<event>
 8    1  0.1248739E-006  0.9118800E+02  0.7816164E-02  0.1184000E+00
        -11   -1    0    0    0    0  0.00000000000E+00  0.00000000000E+00  0.45593999997E+02  0.45594000000E+02  0.51100000000E-03 0.  1.
         11   -1    0    0    0    0 -0.00000000000E+00 -0.00000000000E+00 -0.45593999997E+02  0.45594000000E+02  0.51100000000E-03 0. -1.
         23    2    1    2    0    0 -0.22204460493E-15  0.00000000000E+00  0.35527136788E-14  0.91188000000E+02  0.91188000000E+02 0.  0.
    9900012    2    3    3    0    0 -0.17056513999E+01 -0.32808483296E+02  0.16627496857E+02  0.54367089167E+02  0.40000011374E+02 0.  0.
         12    1    3    3    0    0  0.17056513999E+01  0.32808483296E+02 -0.16627496857E+02  0.36820910833E+02  0.00000000000E+00 0. -1.
         11    1    4    4    0    0 -0.12127753334E+02 -0.42395425312E+01  0.13975878657E+01  0.12923210666E+02  0.51100000000E-03 0. -1.
        -11    1    4    4    0    0 -0.50849031581E+01 -0.16185109745E+02  0.13199663352E+02  0.21495235064E+02  0.51100000000E-03 0.  1.
         12    1    4    4    0    0  0.15507005092E+02 -0.12383831019E+02  0.20302456391E+01  0.19948643438E+02  0.00000000000E+00 0. -1.
</event>
<event>
 8    1  0.1248739E-006  0.9118800E+02  0.7816164E-02  0.1184000E+00
        -11   -1    0    0    0    0  0.00000000000E+00  0.00000000000E+00  0.45593999997E+02  0.45594000000E+02  0.51100000000E-03 0.  1.
         11   -1    0    0    0    0 -0.00000000000E+00 -0.00000000000E+00 -0.45593999997E+02  0.45594000000E+02  0.51100000000E-03 0. -1.
         23    2    1    2    0    0  0.00000000000E+00  0.35527136788E-14  0.10658141036E-13  0.91188000000E+02  0.91188000000E+02 0.  0.
    9900012    2    3    3    0    0 -0.18613727738E+02  0.19432305602E+02  0.25133544591E+02  0.54367076261E+02  0.39999981952E+02 0.  0.
         12    1    3    3    0    0  0.18613727738E+02 -0.19432305602E+02 -0.25133544591E+02  0.36820923739E+02  0.00000000000E+00 0. -1.
         11    1    4    4    0    0 -0.47376054092E+01  0.62276206455E+01 -0.10393846940E+01  0.78935723674E+01  0.51100000000E-03 0. -1.
        -11    1    4    4    0    0 -0.16728188215E+02 -0.65915379665E+01  0.15836192344E+02  0.23959666983E+02  0.51100000000E-03 0.  1.
         12    1    4    4    0    0  0.28520658863E+01  0.19796222923E+02  0.10336736941E+02  0.22513836910E+02  0.00000000000E+00 0. -1.
</event>
<event>
 8    1  0.1248739E-006  0.9118800E+02  0.7816164E-02  0.1184000E+00
        -11   -1    0    0    0    0  0.00000000000E+00  0.00000000000E+00  0.45593999997E+02  0.45594000000E+02  0.51100000000E-03 0. -1.
         11   -1    0    0    0    0 -0.00000000000E+00 -0.00000000000E+00 -0.45593999997E+02  0.45594000000E+02  0.51100000000E-03 0.  1.
         23    2    1    2    0    0  0.00000000000E+00  0.71054273576E-14 -0.17763568394E-14  0.91188000000E+02  0.91188000000E+02 0.  0.
    9900012    2    3    3    0    0 -0.80058875942E+01  0.33234570031E+02  0.13680234861E+02  0.54367086008E+02  0.40000004172E+02 0.  0.
         12    1    3    3    0    0  0.80058875942E+01 -0.33234570031E+02 -0.13680234861E+02  0.36820913992E+02  0.00000000000E+00 0. -1.
         11    1    4    4    0    0 -0.84033767768E+01 -0.52777099755E+01 -0.28413135424E+01  0.10322016603E+02  0.51100000000E-03 0. -1.
        -11    1    4    4    0    0 -0.64714223651E+01  0.15513413084E+02  0.61766912865E+01  0.17908009617E+02  0.51100000000E-03 0.  1.
        -12    1    4    4    0    0  0.68689115478E+01  0.22998866923E+02  0.10344857117E+02  0.26137059788E+02  0.00000000000E+00 0.  1.
</event>
<event>
 8    1  0.1248739E-006  0.9118800E+02  0.7816164E-02  0.1184000E+00
        -11   -1    0    0    0    0  0.00000000000E+00  0.00000000000E+00  0.45593999997E+02  0.45594000000E+02  0.51100000000E-03 0. -1.
         11   -1    0    0    0    0 -0.00000000000E+00 -0.00000000000E+00 -0.45593999997E+02  0.45594000000E+02  0.51100000000E-03 0.  1.
         23    2    1    2    0    0 -0.88817841970E-15  0.00000000000E+00  0.00000000000E+00  0.91188000000E+02  0.91188000000E+02 0.  0.
    9900012    2    3    3    0    0 -0.68194409405E+01  0.24522407562E+01 -0.36100696821E+02  0.54367101444E+02  0.40000039363E+02 0.  0.
         12    1    3    3    0    0  0.68194409405E+01 -0.24522407562E+01  0.36100696821E+02  0.36820898556E+02  0.00000000000E+00 0. -1.
         11    1    4    4    0    0 -0.11770585931E+02  0.39811468623E+01 -0.10319150169E+02  0.16151813643E+02  0.51100000000E-03 0. -1.
        -11    1    4    4    0    0  0.25762881226E+01  0.13006319198E+02 -0.98380102263E+01  0.16510240611E+02  0.51100000000E-03 0.  1.
        -12    1    4    4    0    0  0.23748568678E+01 -0.14535225304E+02 -0.15943536425E+02  0.21705047190E+02  0.00000000000E+00 0.  1.
</event>
<event>
 8    1  0.1248739E-006  0.9118800E+02  0.7816164E-02  0.1184000E+00
        -11   -1    0    0    0    0  0.00000000000E+00  0.00000000000E+00  0.45593999997E+02  0.45594000000E+02  0.51100000000E-03 0. -1.
         11   -1    0    0    0    0 -0.00000000000E+00 -0.00000000000E+00 -0.45593999997E+02  0.45594000000E+02  0.51100000000E-03 0.  1.
         23    2    1    2    0    0  0.17763568394E-14 -0.35527136788E-14  0.00000000000E+00  0.91188000000E+02  0.91188000000E+02 0.  0.
    9900012    2    3    3    0    0 -0.11657442548E+02 -0.15062147791E+02 -0.31512141259E+02  0.54367091408E+02  0.40000016482E+02 0.  0.
         12    1    3    3    0    0  0.11657442548E+02  0.15062147791E+02  0.31512141259E+02  0.36820908592E+02  0.00000000000E+00 0. -1.
         11    1    4    4    0    0 -0.17052467472E+02  0.23476398467E+01 -0.13381675594E+02  0.21802919568E+02  0.51100000000E-03 0. -1.
        -11    1    4    4    0    0  0.22499900693E+01  0.31347624569E+01  0.13401974858E+01  0.40847668887E+01  0.51100000000E-03 0.  1.
         12    1    4    4    0    0  0.31450348548E+01 -0.20544550094E+02 -0.19470663151E+02  0.28479404951E+02  0.00000000000E+00 0. -1.
</event>
<event>
 8    1  0.1248739E-006  0.9118800E+02  0.7816164E-02  0.1184000E+00
        -11   -1    0    0    0    0  0.00000000000E+00  0.00000000000E+00  0.45593999997E+02  0.45594000000E+02  0.51100000000E-03 0.  1.
         11   -1    0    0    0    0 -0.00000000000E+00 -0.00000000000E+00 -0.45593999997E+02  0.45594000000E+02  0.51100000000E-03 0. -1.
         23    2    1    2    0    0  0.00000000000E+00 -0.44408920985E-15 -0.88817841970E-15  0.91188000000E+02  0.91188000000E+02 0.  0.
    9900012    2    3    3    0    0  0.36648610080E+02 -0.26562384772E+01 -0.23648372941E+01  0.54367235762E+02  0.40000345565E+02 0.  0.
        -12    1    3    3    0    0 -0.36648610080E+02  0.26562384772E+01  0.23648372941E+01  0.36820764238E+02  0.00000000000E+00 0.  1.
         11    1    4    4    0    0  0.17029668885E+02 -0.22534421822E+00 -0.11504867438E+02  0.20552916518E+02  0.51100000000E-03 0. -1.
        -11    1    4    4    0    0  0.31677387915E+01 -0.97531974823E+01  0.11776074167E+02  0.15615228248E+02  0.51100000000E-03 0.  1.
         12    1    4    4    0    0  0.16451202403E+02  0.73223032233E+01 -0.26360440238E+01  0.18199090996E+02  0.00000000000E+00 0. -1.
</event>
<event>
 8    1  0.1248739E-006  0.9118800E+02  0.7816164E-02  0.1184000E+00
        -11   -1    0    0    0    0  0.00000000000E+00  0.00000000000E+00  0.45593999997E+02  0.45594000000E+02  0.51100000000E-03 0. -1.
         11   -1    0    0    0    0 -0.00000000000E+00 -0.00000000000E+00 -0.45593999997E+02  0.45594000000E+02  0.51100000000E-03 0.  1.
         23    2    1    2    0    0  0.35527136788E-14 -0.35527136788E-14  0.00000000000E+00  0.91188000000E+02  0.91188000000E+02 0.  0.
    9900012    2    3    3    0    0 -0.18464221042E+02  0.31020547659E+02 -0.72520509485E+01  0.54366890855E+02  0.39999559279E+02 0.  0.
         12    1    3    3    0    0  0.18464221042E+02 -0.31020547659E+02  0.72520509485E+01  0.36821109145E+02  0.00000000000E+00 0. -1.
         11    1    4    4    0    0 -0.21531671816E+01  0.11988796893E+02 -0.16054628207E+02  0.20152381174E+02  0.51100000000E-03 0.  1.
        -11    1    4    4    0    0  0.49544466305E+01  0.28987982666E+01  0.42364045897E+01  0.71341920995E+01  0.51100000000E-03 0. -1.
         12    1    4    4    0    0 -0.21265500491E+02  0.16132952499E+02  0.45661726687E+01  0.27080317581E+02  0.00000000000E+00 0. -1.
</event>
<event>
 8    1  0.1248739E-006  0.9118800E+02  0.7816164E-02  0.1184000E+00
        -11   -1    0    0    0    0  0.00000000000E+00  0.00000000000E+00  0.45593999997E+02  0.45594000000E+02  0.51100000000E-03 0.  1.
         11   -1    0    0    0    0 -0.00000000000E+00 -0.00000000000E+00 -0.45593999997E+02  0.45594000000E+02  0.51100000000E-03 0. -1.
         23    2    1    2    0    0  0.00000000000E+00  0.00000000000E+00  0.00000000000E+00  0.91188000000E+02  0.91188000000E+02 0.  0.
    9900012    2    3    3    0    0  0.97112658230E+00  0.19699230184E+02  0.31093047225E+02  0.54367077383E+02  0.39999984509E+02 0.  0.
         12    1    3    3    0    0 -0.97112658230E+00 -0.19699230184E+02 -0.31093047225E+02  0.36820922617E+02  0.00000000000E+00 0. -1.
         11    1    4    4    0    0 -0.19431233057E+01 -0.47708916692E+01  0.16638585987E+02  0.17417797778E+02  0.51100000000E-03 0. -1.
        -11    1    4    4    0    0  0.64524639598E+00  0.28383944977E+02  0.88331559112E+01  0.29733639518E+02  0.51100000000E-03 0.  1.
        -12    1    4    4    0    0  0.22690034920E+01 -0.39138231241E+01  0.56213053263E+01  0.72156400870E+01  0.00000000000E+00 0.  1.
</event>
<event>
 8    1  0.1248739E-006  0.9118800E+02  0.7816164E-02  0.1184000E+00
        -11   -1    0    0    0    0  0.00000000000E+00  0.00000000000E+00  0.45593999997E+02  0.45594000000E+02  0.51100000000E-03 0. -1.
         11   -1    0    0    0    0 -0.00000000000E+00 -0.00000000000E+00 -0.45593999997E+02  0.45594000000E+02  0.51100000000E-03 0.  1.
         23    2    1    2    0    0  0.00000000000E+00  0.00000000000E+00  0.00000000000E+00  0.91188000000E+02  0.91188000000E+02 0.  0.
    9900012    2    3    3    0    0  0.12720801206E+02  0.59403966519E+01  0.34039309851E+02  0.54367058800E+02  0.39999942146E+02 0.  0.
        -12    1    3    3    0    0 -0.12720801206E+02 -0.59403966519E+01 -0.34039309851E+02  0.36820941200E+02  0.00000000000E+00 0.  1.
         11    1    4    4    0    0  0.13199066203E+02 -0.14375400989E+02  0.14836215085E+02  0.24514909351E+02  0.51100000000E-03 0. -1.
        -11    1    4    4    0    0  0.38439544048E+01  0.91859727333E+01  0.13064885749E+02  0.16427091052E+02  0.51100000000E-03 0.  1.
        -12    1    4    4    0    0 -0.43222194011E+01  0.11129824907E+02  0.61382090174E+01  0.13425058397E+02  0.00000000000E+00 0.  1.
</event>
<event>
 8    1  0.1248739E-006  0.9118800E+02  0.7816164E-02  0.1184000E+00
        -11   -1    0    0    0    0  0.00000000000E+00  0.00000000000E+00  0.45593999997E+02  0.45594000000E+02  0.51100000000E-03 0. -1.
         11   -1    0    0    0    0 -0.00000000000E+00 -0.00000000000E+00 -0.45593999997E+02  0.45594000000E+02  0.51100000000E-03 0.  1.
         23    2    1    2    0    0  0.00000000000E+00  0.00000000000E+00 -0.17763568394E-14  0.91188000000E+02  0.91188000000E+02 0.  0.
    9900012    2    3    3    0    0 -0.13193827336E+02 -0.32817135185E+02  0.10234141780E+02  0.54367094260E+02  0.40000022985E+02 0.  0.
        -12    1    3    3    0    0  0.13193827336E+02  0.32817135185E+02 -0.10234141780E+02  0.36820905740E+02  0.00000000000E+00 0.  1.
         11    1    4    4    0    0 -0.19026017887E+02 -0.20587423959E+02  0.17190261033E+02  0.32883680703E+02  0.51100000000E-03 0. -1.
        -11    1    4    4    0    0  0.92693243327E+00 -0.14617007199E+02 -0.64530220855E+01  0.16004924164E+02  0.51100000000E-03 0.  1.
        -12    1    4    4    0    0  0.49052581183E+01  0.23872959733E+01 -0.50309716806E+00  0.54784893933E+01  0.00000000000E+00 0.  1.
</event>
<event>
 8    1  0.1248739E-006  0.9118800E+02  0.7816164E-02  0.1184000E+00
        -11   -1    0    0    0    0  0.00000000000E+00  0.00000000000E+00  0.45593999997E+02  0.45594000000E+02  0.51100000000E-03 0.  1.
         11   -1    0    0    0    0 -0.00000000000E+00 -0.00000000000E+00 -0.45593999997E+02  0.45594000000E+02  0.51100000000E-03 0. -1.
         23    2    1    2    0    0 -0.11102230246E-14  0.00000000000E+00  0.00000000000E+00  0.91188000000E+02  0.91188000000E+02 0.  0.
    9900012    2    3    3    0    0  0.11174224638E+01 -0.35245955401E+02 -0.10594919898E+02  0.54367104672E+02  0.40000046720E+02 0.  0.
         12    1    3    3    0    0 -0.11174224638E+01  0.35245955401E+02  0.10594919898E+02  0.36820895328E+02  0.00000000000E+00 0. -1.
         11    1    4    4    0    0 -0.28579598918E+01 -0.10543331131E+01 -0.65476108933E+01  0.72215484301E+01  0.51100000000E-03 0. -1.
        -11    1    4    4    0    0  0.17826653144E+02 -0.23009721852E+02 -0.36918654593E+01  0.29340530549E+02  0.51100000000E-03 0.  1.
        -12    1    4    4    0    0 -0.13851270789E+02 -0.11181900436E+02 -0.35544354533E+00  0.17805025693E+02  0.00000000000E+00 0.  1.
</event>
<event>
 8    1  0.1248739E-006  0.9118800E+02  0.7816164E-02  0.1184000E+00
        -11   -1    0    0    0    0  0.00000000000E+00  0.00000000000E+00  0.45593999997E+02  0.45594000000E+02  0.51100000000E-03 0.  1.
         11   -1    0    0    0    0 -0.00000000000E+00 -0.00000000000E+00 -0.45593999997E+02  0.45594000000E+02  0.51100000000E-03 0. -1.
         23    2    1    2    0    0  0.00000000000E+00  0.00000000000E+00 -0.17763568394E-14  0.91188000000E+02  0.91188000000E+02 0.  0.
    9900012    2    3    3    0    0 -0.35151437349E+02  0.80181786031E+01  0.74743060688E+01  0.54367082209E+02  0.39999995511E+02 0.  0.
         12    1    3    3    0    0  0.35151437349E+02 -0.80181786031E+01 -0.74743060688E+01  0.36820917791E+02  0.00000000000E+00 0. -1.
         11    1    4    4    0    0  0.11905906040E+01  0.31890000658E+01 -0.93614876880E+01  0.99611585370E+01  0.51100000000E-03 0. -1.
        -11    1    4    4    0    0 -0.36582977222E+01  0.47343973402E+01 -0.24397950024E+01  0.64614441353E+01  0.51100000000E-03 0.  1.
         12    1    4    4    0    0 -0.32683730231E+02  0.94781197045E-01  0.19275588759E+02  0.37944479536E+02  0.00000000000E+00 0. -1.
</event>
<event>
 8    1  0.1248739E-006  0.9118800E+02  0.7816164E-02  0.1184000E+00
        -11   -1    0    0    0    0  0.00000000000E+00  0.00000000000E+00  0.45593999997E+02  0.45594000000E+02  0.51100000000E-03 0. -1.
         11   -1    0    0    0    0 -0.00000000000E+00 -0.00000000000E+00 -0.45593999997E+02  0.45594000000E+02  0.51100000000E-03 0.  1.
         23    2    1    2    0    0  0.88817841970E-15  0.00000000000E+00  0.00000000000E+00  0.91188000000E+02  0.91188000000E+02 0.  0.
    9900012    2    3    3    0    0 -0.54679080083E+01 -0.12258065733E+02  0.34287352354E+02  0.54367072188E+02  0.39999972668E+02 0.  0.
        -12    1    3    3    0    0  0.54679080083E+01  0.12258065733E+02 -0.34287352354E+02  0.36820927812E+02  0.00000000000E+00 0.  1.
         11    1    4    4    0    0  0.36285036590E+01 -0.35963155920E+01  0.13255341289E+02  0.14205759311E+02  0.51100000000E-03 0. -1.
        -11    1    4    4    0    0  0.98882320694E+01 -0.45180721994E+01  0.17211880927E+02  0.20357773826E+02  0.51100000000E-03 0.  1.
        -12    1    4    4    0    0 -0.18984643737E+02 -0.41436779413E+01  0.38201301373E+01  0.19803539051E+02  0.00000000000E+00 0.  1.
</event>
<event>
 8    1  0.1248739E-006  0.9118800E+02  0.7816164E-02  0.1184000E+00
        -11   -1    0    0    0    0  0.00000000000E+00  0.00000000000E+00  0.45593999997E+02  0.45594000000E+02  0.51100000000E-03 0.  1.
         11   -1    0    0    0    0 -0.00000000000E+00 -0.00000000000E+00 -0.45593999997E+02  0.45594000000E+02  0.51100000000E-03 0. -1.
         23    2    1    2    0    0 -0.17763568394E-14  0.00000000000E+00  0.00000000000E+00  0.91188000000E+02  0.91188000000E+02 0.  0.
    9900012    2    3    3    0    0 -0.90939415568E+01 -0.35592894907E+02  0.24962407108E+01  0.54367011983E+02  0.39999835416E+02 0.  0.
         12    1    3    3    0    0  0.90939415568E+01  0.35592894907E+02 -0.24962407108E+01  0.36820988017E+02  0.00000000000E+00 0. -1.
         11    1    4    4    0    0 -0.11867103881E+02 -0.79487192564E+01  0.24818615121E+01  0.14497238674E+02  0.51100000000E-03 0. -1.
        -11    1    4    4    0    0 -0.95951490697E+01 -0.78556508766E-01  0.94759912053E+00  0.96421471234E+01  0.51100000000E-03 0.  1.
         12    1    4    4    0    0  0.12368311394E+02 -0.27565619142E+02 -0.93321992183E+00  0.30227626186E+02  0.00000000000E+00 0. -1.
</event>
<event>
 8    1  0.1248739E-006  0.9118800E+02  0.7816164E-02  0.1184000E+00
        -11   -1    0    0    0    0  0.00000000000E+00  0.00000000000E+00  0.45593999997E+02  0.45594000000E+02  0.51100000000E-03 0.  1.
         11   -1    0    0    0    0 -0.00000000000E+00 -0.00000000000E+00 -0.45593999997E+02  0.45594000000E+02  0.51100000000E-03 0. -1.
         23    2    1    2    0    0 -0.35527136788E-14  0.00000000000E+00  0.35527136788E-14  0.91188000000E+02  0.91188000000E+02 0.  0.
    9900012    2    3    3    0    0 -0.29432931918E+02 -0.41714898371E+01 -0.21727397538E+02  0.54367100873E+02  0.40000038061E+02 0.  0.
        -12    1    3    3    0    0  0.29432931918E+02  0.41714898371E+01  0.21727397538E+02  0.36820899127E+02  0.00000000000E+00 0.  1.
         11    1    4    4    0    0 -0.21928587296E+02 -0.26819141985E+01 -0.15702286643E+01  0.22147713717E+02  0.51100000000E-03 0. -1.
        -11    1    4    4    0    0 -0.59038768724E+01  0.18620605808E+01  0.42642774011E+01  0.75171200433E+01  0.51100000000E-03 0.  1.
        -12    1    4    4    0    0 -0.16004677490E+01 -0.33516362194E+01 -0.24421446275E+02  0.24702267113E+02  0.00000000000E+00 0.  1.
</event>
<event>
 8    1  0.1248739E-006  0.9118800E+02  0.7816164E-02  0.1184000E+00
        -11   -1    0    0    0    0  0.00000000000E+00  0.00000000000E+00  0.45593999997E+02  0.45594000000E+02  0.51100000000E-03 0. -1.
         11   -1    0    0    0    0 -0.00000000000E+00 -0.00000000000E+00 -0.45593999997E+02  0.45594000000E+02  0.51100000000E-03 0.  1.
         23    2    1    2    0    0  0.00000000000E+00  0.00000000000E+00 -0.44408920985E-15  0.91188000000E+02  0.91188000000E+02 0.  0.
    9900012    2    3    3    0    0  0.18679929361E+02 -0.31610983699E+02  0.27543333950E+01  0.54367076548E+02  0.39999982608E+02 0.  0.
         12    1    3    3    0    0 -0.18679929361E+02  0.31610983699E+02 -0.27543333950E+01  0.36820923452E+02  0.00000000000E+00 0. -1.
         11    1    4    4    0    0  0.12633586053E+02 -0.96862129455E+01  0.14305800503E+01  0.15983640928E+02  0.51100000000E-03 0. -1.
        -11    1    4    4    0    0  0.58584004799E+01 -0.27358651025E+02 -0.66254683843E+01  0.28752625509E+02  0.51100000000E-03 0.  1.
         12    1    4    4    0    0  0.18794282837E+00  0.54338802710E+01  0.79492217290E+01  0.96308101115E+01  0.00000000000E+00 0. -1.
</event>
<event>
 8    1  0.1248739E-006  0.9118800E+02  0.7816164E-02  0.1184000E+00
        -11   -1    0    0    0    0  0.00000000000E+00  0.00000000000E+00  0.45593999997E+02  0.45594000000E+02  0.51100000000E-03 0. -1.
         11   -1    0    0    0    0 -0.00000000000E+00 -0.00000000000E+00 -0.45593999997E+02  0.45594000000E+02  0.51100000000E-03 0.  1.
         23    2    1    2    0    0  0.00000000000E+00 -0.17763568394E-14  0.00000000000E+00  0.91188000000E+02  0.91188000000E+02 0.  0.
    9900012    2    3    3    0    0 -0.19754233843E+02 -0.10027610568E+02  0.29410860288E+02  0.54367062596E+02  0.39999950800E+02 0.  0.
        -12    1    3    3    0    0  0.19754233843E+02  0.10027610568E+02 -0.29410860288E+02  0.36820937404E+02  0.00000000000E+00 0.  1.
         11    1    4    4    0    0 -0.23785667202E+02 -0.14882698474E+02  0.27039126382E+02  0.38966229403E+02  0.51100000000E-03 0. -1.
        -11    1    4    4    0    0  0.63141594808E+01 -0.30288821339E+01  0.87166437996E+00  0.70570911842E+01  0.51100000000E-03 0.  1.
         12    1    4    4    0    0 -0.22827261219E+01  0.78839700395E+01  0.15000695255E+01  0.83437420090E+01  0.00000000000E+00 0. -1.
</event>
<event>
 8    1  0.1248739E-006  0.9118800E+02  0.7816164E-02  0.1184000E+00
        -11   -1    0    0    0    0  0.00000000000E+00  0.00000000000E+00  0.45593999997E+02  0.45594000000E+02  0.51100000000E-03 0.  1.
         11   -1    0    0    0    0 -0.00000000000E+00 -0.00000000000E+00 -0.45593999997E+02  0.45594000000E+02  0.51100000000E-03 0. -1.
         23    2    1    2    0    0  0.00000000000E+00 -0.35527136788E-14  0.00000000000E+00  0.91188000000E+02  0.91188000000E+02 0.  0.
    9900012    2    3    3    0    0 -0.91299813047E+01 -0.23717832210E+02 -0.26643728431E+02  0.54367076763E+02  0.39999983097E+02 0.  0.
        -12    1    3    3    0    0  0.91299813047E+01  0.23717832210E+02  0.26643728431E+02  0.36820923237E+02  0.00000000000E+00 0.  1.
         11    1    4    4    0    0  0.39935033718E+01 -0.32690810443E+01  0.30953221028E+01  0.60179713555E+01  0.51100000000E-03 0. -1.
        -11    1    4    4    0    0  0.74338945023E+01  0.18794958782E+01 -0.46197232962E+01  0.89519347530E+01  0.51100000000E-03 0.  1.
         12    1    4    4    0    0 -0.20557379179E+02 -0.22328247043E+02 -0.25119327237E+02  0.39397170654E+02  0.00000000000E+00 0. -1.
</event>
<event>
 8    1  0.1248739E-006  0.9118800E+02  0.7816164E-02  0.1184000E+00
        -11   -1    0    0    0    0  0.00000000000E+00  0.00000000000E+00  0.45593999997E+02  0.45594000000E+02  0.51100000000E-03 0. -1.
         11   -1    0    0    0    0 -0.00000000000E+00 -0.00000000000E+00 -0.45593999997E+02  0.45594000000E+02  0.51100000000E-03 0.  1.
         23    2    1    2    0    0 -0.17763568394E-14  0.17763568394E-14  0.00000000000E+00  0.91188000000E+02  0.91188000000E+02 0.  0.
    9900012    2    3    3    0    0  0.13970966711E+02  0.96197963944E+01  0.32681058294E+02  0.54367082511E+02  0.39999996200E+02 0.  0.
        -12    1    3    3    0    0 -0.13970966711E+02 -0.96197963944E+01 -0.32681058294E+02  0.36820917489E+02  0.00000000000E+00 0.  1.
         11    1    4    4    0    0  0.95657883775E+01  0.12177526292E+02 -0.26534125211E+01  0.15711048728E+02  0.51100000000E-03 0.  1.
        -11    1    4    4    0    0 -0.32670829778E+01  0.40076289407E+01  0.16419772506E+02  0.17214640581E+02  0.51100000000E-03 0. -1.
         12    1    4    4    0    0  0.76722613118E+01 -0.65653588381E+01  0.18914698309E+02  0.21441393202E+02  0.00000000000E+00 0. -1.
</event>
<event>
 8    1  0.1248739E-006  0.9118800E+02  0.7816164E-02  0.1184000E+00
        -11   -1    0    0    0    0  0.00000000000E+00  0.00000000000E+00  0.45593999997E+02  0.45594000000E+02  0.51100000000E-03 0.  1.
         11   -1    0    0    0    0 -0.00000000000E+00 -0.00000000000E+00 -0.45593999997E+02  0.45594000000E+02  0.51100000000E-03 0. -1.
         23    2    1    2    0    0 -0.44408920985E-14  0.00000000000E+00  0.17763568394E-14  0.91188000000E+02  0.91188000000E+02 0.  0.
    9900012    2    3    3    0    0  0.62998738752E+01 -0.33366407449E+02 -0.14239892439E+02  0.54367080762E+02  0.39999992213E+02 0.  0.
        -12    1    3    3    0    0 -0.62998738752E+01  0.33366407449E+02  0.14239892439E+02  0.36820919238E+02  0.00000000000E+00 0.  1.
         11    1    4    4    0    0 -0.11028070480E+02 -0.66530515157E+01 -0.33792446755E+01  0.13315431943E+02  0.51100000000E-03 0. -1.
        -11    1    4    4    0    0 -0.33812132252E+01  0.21338564115E+01 -0.19044670326E+01  0.44286500199E+01  0.51100000000E-03 0.  1.
         12    1    4    4    0    0  0.20709157581E+02 -0.28847212344E+02 -0.89561807307E+01  0.36622998799E+02  0.00000000000E+00 0. -1.
</event>
<event>
 8    1  0.1248739E-006  0.9118800E+02  0.7816164E-02  0.1184000E+00
        -11   -1    0    0    0    0  0.00000000000E+00  0.00000000000E+00  0.45593999997E+02  0.45594000000E+02  0.51100000000E-03 0.  1.
         11   -1    0    0    0    0 -0.00000000000E+00 -0.00000000000E+00 -0.45593999997E+02  0.45594000000E+02  0.51100000000E-03 0. -1.
         23    2    1    2    0    0  0.00000000000E+00  0.44408920985E-15  0.35527136788E-14  0.91188000000E+02  0.91188000000E+02 0.  0.
    9900012    2    3    3    0    0  0.22058024268E+02  0.38055665480E+01 -0.29235963442E+02  0.54367077554E+02  0.39999984900E+02 0.  0.
        -12    1    3    3    0    0 -0.22058024268E+02 -0.38055665480E+01  0.29235963442E+02  0.36820922446E+02  0.00000000000E+00 0.  1.
         11    1    4    4    0    0  0.15444601829E+01 -0.28713443039E+01  0.57081015366E+00  0.33099546614E+01  0.51100000000E-03 0.  1.
        -11    1    4    4    0    0  0.28807094870E+02 -0.30550937955E+00 -0.14370343085E+02  0.32193925071E+02  0.51100000000E-03 0. -1.
         12    1    4    4    0    0 -0.82935307845E+01  0.69824202314E+01 -0.15436430511E+02  0.18863197822E+02  0.00000000000E+00 0. -1.
</event>
<event>
 8    1  0.1248739E-006  0.9118800E+02  0.7816164E-02  0.1184000E+00
        -11   -1    0    0    0    0  0.00000000000E+00  0.00000000000E+00  0.45593999997E+02  0.45594000000E+02  0.51100000000E-03 0. -1.
         11   -1    0    0    0    0 -0.00000000000E+00 -0.00000000000E+00 -0.45593999997E+02  0.45594000000E+02  0.51100000000E-03 0.  1.
         23    2    1    2    0    0 -0.17763568394E-14  0.00000000000E+00  0.71054273576E-14  0.91188000000E+02  0.91188000000E+02 0.  0.
    9900012    2    3    3    0    0  0.14436827974E+02 -0.11018044985E+02 -0.32030614684E+02  0.54367087542E+02  0.40000007669E+02 0.  0.
         12    1    3    3    0    0 -0.14436827974E+02  0.11018044985E+02  0.32030614684E+02  0.36820912458E+02  0.00000000000E+00 0. -1.
         11    1    4    4    0    0 -0.33076144015E+01  0.56426447022E+01 -0.23579608347E+01  0.69526780325E+01  0.51100000000E-03 0. -1.
        -11    1    4    4    0    0  0.65490594787E+00 -0.35700475930E+01  0.52544156295E+01  0.63861588991E+01  0.51100000000E-03 0.  1.
        -12    1    4    4    0    0  0.17089536428E+02 -0.13090642094E+02 -0.34927069479E+02  0.41028250610E+02  0.00000000000E+00 0.  1.
</event>
<event>
 8    1  0.1248739E-006  0.9118800E+02  0.7816164E-02  0.1184000E+00
        -11   -1    0    0    0    0  0.00000000000E+00  0.00000000000E+00  0.45593999997E+02  0.45594000000E+02  0.51100000000E-03 0. -1.
         11   -1    0    0    0    0 -0.00000000000E+00 -0.00000000000E+00 -0.45593999997E+02  0.45594000000E+02  0.51100000000E-03 0.  1.
         23    2    1    2    0    0  0.00000000000E+00  0.00000000000E+00 -0.88817841970E-15  0.91188000000E+02  0.91188000000E+02 0.  0.
    9900012    2    3    3    0    0  0.20274350735E+02  0.30658774022E+02 -0.21840619014E+01  0.54367084087E+02  0.39999999794E+02 0.  0.
        -12    1    3    3    0    0 -0.20274350735E+02 -0.30658774022E+02  0.21840619014E+01  0.36820915913E+02  0.00000000000E+00 0.  1.
         11    1    4    4    0    0  0.11789767076E+02  0.77985835691E+01  0.12427460921E+02  0.18821750678E+02  0.51100000000E-03 0. -1.
        -11    1    4    4    0    0 -0.26853047633E+01 -0.27745674339E+01 -0.42055210459E+01  0.57092463291E+01  0.51100000000E-03 0.  1.
         12    1    4    4    0    0  0.11169888423E+02  0.25634757887E+02 -0.10406001777E+02  0.29836087080E+02  0.00000000000E+00 0. -1.
</event>
<event>
 8    1  0.1248739E-006  0.9118800E+02  0.7816164E-02  0.1184000E+00
        -11   -1    0    0    0    0  0.00000000000E+00  0.00000000000E+00  0.45593999997E+02  0.45594000000E+02  0.51100000000E-03 0.  1.
         11   -1    0    0    0    0 -0.00000000000E+00 -0.00000000000E+00 -0.45593999997E+02  0.45594000000E+02  0.51100000000E-03 0. -1.
         23    2    1    2    0    0  0.00000000000E+00  0.00000000000E+00 -0.35527136788E-14  0.91188000000E+02  0.91188000000E+02 0.  0.
    9900012    2    3    3    0    0 -0.92621456250E+01  0.26807434769E+02 -0.23480924536E+02  0.54367085868E+02  0.40000003853E+02 0.  0.
        -12    1    3    3    0    0  0.92621456250E+01 -0.26807434769E+02  0.23480924536E+02  0.36820914132E+02  0.00000000000E+00 0.  1.
         11    1    4    4    0    0  0.22900968565E+01 -0.42575649665E+01 -0.15383128666E+02  0.16124889174E+02  0.51100000000E-03 0. -1.
        -11    1    4    4    0    0 -0.54537304939E+01  0.45645760303E+01  0.43486656082E+01  0.83360316380E+01  0.51100000000E-03 0.  1.
         12    1    4    4    0    0 -0.60985119876E+01  0.26500423705E+02 -0.12446461478E+02  0.29906165055E+02  0.00000000000E+00 0. -1.
</event>
<event>
 8    1  0.1248739E-006  0.9118800E+02  0.7816164E-02  0.1184000E+00
        -11   -1    0    0    0    0  0.00000000000E+00  0.00000000000E+00  0.45593999997E+02  0.45594000000E+02  0.51100000000E-03 0.  1.
         11   -1    0    0    0    0 -0.00000000000E+00 -0.00000000000E+00 -0.45593999997E+02  0.45594000000E+02  0.51100000000E-03 0. -1.
         23    2    1    2    0    0 -0.35527136788E-14  0.00000000000E+00  0.88817841970E-15  0.91188000000E+02  0.91188000000E+02 0.  0.
    9900012    2    3    3    0    0 -0.18948553690E+02  0.30674419642E+02 -0.74710560958E+01  0.54367022467E+02  0.39999859317E+02 0.  0.
         12    1    3    3    0    0  0.18948553690E+02 -0.30674419642E+02  0.74710560958E+01  0.36820977533E+02  0.00000000000E+00 0. -1.
         11    1    4    4    0    0  0.40755572629E+01  0.24057489368E+01  0.32948337360E+01  0.57666042485E+01  0.51100000000E-03 0. -1.
        -11    1    4    4    0    0 -0.53921407037E+01  0.28806089614E+02 -0.34704290033E+01  0.29511181914E+02  0.51100000000E-03 0.  1.
        -12    1    4    4    0    0 -0.17631970250E+02 -0.53741890939E+00 -0.72954608285E+01  0.19089236304E+02  0.00000000000E+00 0.  1.
</event>
<event>
 8    1  0.1248739E-006  0.9118800E+02  0.7816164E-02  0.1184000E+00
        -11   -1    0    0    0    0  0.00000000000E+00  0.00000000000E+00  0.45593999997E+02  0.45594000000E+02  0.51100000000E-03 0.  1.
         11   -1    0    0    0    0 -0.00000000000E+00 -0.00000000000E+00 -0.45593999997E+02  0.45594000000E+02  0.51100000000E-03 0. -1.
         23    2    1    2    0    0  0.00000000000E+00 -0.44408920985E-15  0.00000000000E+00  0.91188000000E+02  0.91188000000E+02 0.  0.
    9900012    2    3    3    0    0 -0.33032325219E+02 -0.22058533089E+01 -0.16117595302E+02  0.54367120373E+02  0.40000082514E+02 0.  0.
        -12    1    3    3    0    0  0.33032325219E+02  0.22058533089E+01  0.16117595302E+02  0.36820879627E+02  0.00000000000E+00 0.  1.
         11    1    4    4    0    0 -0.32089057319E+02 -0.80515768644E+01 -0.30105399546E+01  0.33220458166E+02  0.51100000000E-03 0. -1.
        -11    1    4    4    0    0 -0.49963230368E+01 -0.26290852751E+01 -0.85892941153E+00  0.57107874472E+01  0.51100000000E-03 0.  1.
         12    1    4    4    0    0  0.40530551374E+01  0.84748088306E+01 -0.12248125936E+02  0.15435874760E+02  0.00000000000E+00 0. -1.
</event>
<event>
 8    1  0.1248739E-006  0.9118800E+02  0.7816164E-02  0.1184000E+00
        -11   -1    0    0    0    0  0.00000000000E+00  0.00000000000E+00  0.45593999997E+02  0.45594000000E+02  0.51100000000E-03 0. -1.
         11   -1    0    0    0    0 -0.00000000000E+00 -0.00000000000E+00 -0.45593999997E+02  0.45594000000E+02  0.51100000000E-03 0.  1.
         23    2    1    2    0    0 -0.35527136788E-14  0.00000000000E+00  0.00000000000E+00  0.91188000000E+02  0.91188000000E+02 0.  0.
    9900012    2    3    3    0    0  0.28704564023E+02 -0.16387235780E+02 -0.16226131241E+02  0.54367070798E+02  0.39999969498E+02 0.  0.
         12    1    3    3    0    0 -0.28704564023E+02  0.16387235780E+02  0.16226131241E+02  0.36820929202E+02  0.00000000000E+00 0. -1.
         11    1    4    4    0    0  0.18324362171E+02 -0.56356415835E+01  0.85780182659E+01  0.21002978424E+02  0.51100000000E-03 0. -1.
        -11    1    4    4    0    0 -0.32325020726E+01 -0.73008735696E+01 -0.11641542941E+02  0.14116562855E+02  0.51100000000E-03 0.  1.
        -12    1    4    4    0    0  0.13612703924E+02 -0.34507206271E+01 -0.13162606566E+02  0.19247529519E+02  0.00000000000E+00 0.  1.
</event>
<event>
 8    1  0.1248739E-006  0.9118800E+02  0.7816164E-02  0.1184000E+00
        -11   -1    0    0    0    0  0.00000000000E+00  0.00000000000E+00  0.45593999997E+02  0.45594000000E+02  0.51100000000E-03 0.  1.
         11   -1    0    0    0    0 -0.00000000000E+00 -0.00000000000E+00 -0.45593999997E+02  0.45594000000E+02  0.51100000000E-03 0. -1.
         23    2    1    2    0    0  0.00000000000E+00  0.00000000000E+00  0.17763568394E-14  0.91188000000E+02  0.91188000000E+02 0.  0.
    9900012    2    3    3    0    0 -0.88205761310E+01 -0.33594297538E+02 -0.12222927486E+02  0.54367090904E+02  0.40000015333E+02 0.  0.
        -12    1    3    3    0    0  0.88205761310E+01  0.33594297538E+02  0.12222927486E+02  0.36820909096E+02  0.00000000000E+00 0.  1.
         11    1    4    4    0    0  0.74710155148E+01 -0.97277011145E+01 -0.44250246719E+01  0.13039366756E+02  0.51100000000E-03 0. -1.
        -11    1    4    4    0    0  0.34237922402E+01 -0.44878892183E+01  0.77676448416E+01  0.96020731920E+01  0.51100000000E-03 0.  1.
        -12    1    4    4    0    0 -0.19715383886E+02 -0.19378707205E+02 -0.15565547656E+02  0.31725650955E+02  0.00000000000E+00 0.  1.
</event>
<event>
 8    1  0.1248739E-006  0.9118800E+02  0.7816164E-02  0.1184000E+00
        -11   -1    0    0    0    0  0.00000000000E+00  0.00000000000E+00  0.45593999997E+02  0.45594000000E+02  0.51100000000E-03 0.  1.
         11   -1    0    0    0    0 -0.00000000000E+00 -0.00000000000E+00 -0.45593999997E+02  0.45594000000E+02  0.51100000000E-03 0. -1.
         23    2    1    2    0    0  0.00000000000E+00 -0.35527136788E-14  0.00000000000E+00  0.91188000000E+02  0.91188000000E+02 0.  0.
    9900012    2    3    3    0    0 -0.11008199992E+02 -0.26487875682E+02 -0.23086546904E+02  0.54367127208E+02  0.40000098097E+02 0.  0.
        -12    1    3    3    0    0  0.11008199992E+02  0.26487875682E+02  0.23086546904E+02  0.36820872792E+02  0.00000000000E+00 0.  1.
         11    1    4    4    0    0 -0.48931813621E+01 -0.66202632243E+01 -0.12838987034E+02  0.15251580158E+02  0.51100000000E-03 0. -1.
        -11    1    4    4    0    0 -0.87867924324E+01  0.21540770127E+01 -0.13948732428E+02  0.16625730228E+02  0.51100000000E-03 0.  1.
        -12    1    4    4    0    0  0.26717738027E+01 -0.22021689470E+02  0.37011725576E+01  0.22489816821E+02  0.00000000000E+00 0.  1.
</event>
<event>
 8    1  0.1248739E-006  0.9118800E+02  0.7816164E-02  0.1184000E+00
        -11   -1    0    0    0    0  0.00000000000E+00  0.00000000000E+00  0.45593999997E+02  0.45594000000E+02  0.51100000000E-03 0. -1.
         11   -1    0    0    0    0 -0.00000000000E+00 -0.00000000000E+00 -0.45593999997E+02  0.45594000000E+02  0.51100000000E-03 0.  1.
         23    2    1    2    0    0  0.22204460493E-15 -0.17763568394E-14 -0.71054273576E-14  0.91188000000E+02  0.91188000000E+02 0.  0.
    9900012    2    3    3    0    0 -0.19650706661E+01  0.14688522000E+02  0.33707026899E+02  0.54367111313E+02  0.40000061861E+02 0.  0.
        -12    1    3    3    0    0  0.19650706661E+01 -0.14688522000E+02 -0.33707026899E+02  0.36820888687E+02  0.00000000000E+00 0.  1.
         11    1    4    4    0    0 -0.35810668669E+01  0.33228126333E+00 -0.12901897761E+01  0.38208690978E+01  0.51100000000E-03 0. -1.
        -11    1    4    4    0    0 -0.51696759175E+01 -0.65475809452E+01  0.25086711757E+02  0.26437463425E+02  0.51100000000E-03 0.  1.
         12    1    4    4    0    0  0.67856721183E+01  0.20903821682E+02  0.99105049187E+01  0.24108778790E+02  0.00000000000E+00 0. -1.
</event>
<event>
 8    1  0.1248739E-006  0.9118800E+02  0.7816164E-02  0.1184000E+00
        -11   -1    0    0    0    0  0.00000000000E+00  0.00000000000E+00  0.45593999997E+02  0.45594000000E+02  0.51100000000E-03 0.  1.
         11   -1    0    0    0    0 -0.00000000000E+00 -0.00000000000E+00 -0.45593999997E+02  0.45594000000E+02  0.51100000000E-03 0. -1.
         23    2    1    2    0    0  0.00000000000E+00  0.00000000000E+00  0.35527136788E-14  0.91188000000E+02  0.91188000000E+02 0.  0.
    9900012    2    3    3    0    0  0.18190936644E+02 -0.69807154959E+01  0.31243225015E+02  0.54367086457E+02  0.40000005196E+02 0.  0.
         12    1    3    3    0    0 -0.18190936644E+02  0.69807154959E+01 -0.31243225015E+02  0.36820913543E+02  0.00000000000E+00 0. -1.
         11    1    4    4    0    0 -0.78934303040E+01 -0.14413078449E+00  0.49187115271E+01  0.93016524873E+01  0.51100000000E-03 0. -1.
        -11    1    4    4    0    0  0.18430013075E+01 -0.11689086757E+02  0.92540137831E+01  0.15022255969E+02  0.51100000000E-03 0.  1.
        -12    1    4    4    0    0  0.24241365641E+02  0.48525020455E+01  0.17070499705E+02  0.30043178001E+02  0.00000000000E+00 0.  1.
</event>
<event>
 8    1  0.1248739E-006  0.9118800E+02  0.7816164E-02  0.1184000E+00
        -11   -1    0    0    0    0  0.00000000000E+00  0.00000000000E+00  0.45593999997E+02  0.45594000000E+02  0.51100000000E-03 0.  1.
         11   -1    0    0    0    0 -0.00000000000E+00 -0.00000000000E+00 -0.45593999997E+02  0.45594000000E+02  0.51100000000E-03 0. -1.
         23    2    1    2    0    0 -0.35527136788E-14  0.00000000000E+00  0.00000000000E+00  0.91188000000E+02  0.91188000000E+02 0.  0.
    9900012    2    3    3    0    0 -0.17017076288E+02  0.26621922011E+02 -0.18906933134E+02  0.54367085597E+02  0.40000003235E+02 0.  0.
        -12    1    3    3    0    0  0.17017076288E+02 -0.26621922011E+02  0.18906933134E+02  0.36820914403E+02  0.00000000000E+00 0.  1.
         11    1    4    4    0    0  0.97802154754E+01  0.32438257406E+01 -0.34517732377E+01  0.10866911195E+02  0.51100000000E-03 0. -1.
        -11    1    4    4    0    0 -0.26923630201E+02  0.14715149945E+02 -0.16390433047E+02  0.34785971265E+02  0.51100000000E-03 0.  1.
        -12    1    4    4    0    0  0.12633843834E+00  0.86629463255E+01  0.93527315044E+00  0.87142031366E+01  0.00000000000E+00 0.  1.
</event>
<event>
 8    1  0.1248739E-006  0.9118800E+02  0.7816164E-02  0.1184000E+00
        -11   -1    0    0    0    0  0.00000000000E+00  0.00000000000E+00  0.45593999997E+02  0.45594000000E+02  0.51100000000E-03 0.  1.
         11   -1    0    0    0    0 -0.00000000000E+00 -0.00000000000E+00 -0.45593999997E+02  0.45594000000E+02  0.51100000000E-03 0. -1.
         23    2    1    2    0    0 -0.17763568394E-14 -0.71054273576E-14  0.44408920985E-15  0.91188000000E+02  0.91188000000E+02 0.  0.
    9900012    2    3    3    0    0  0.13291930910E+02 -0.34278861190E+02  0.20158214754E+01  0.54367091700E+02  0.40000017149E+02 0.  0.
         12    1    3    3    0    0 -0.13291930910E+02  0.34278861190E+02 -0.20158214754E+01  0.36820908300E+02  0.00000000000E+00 0. -1.
         11    1    4    4    0    0  0.10065013201E+02 -0.33322526616E+01 -0.93840886080E+01  0.14158725854E+02  0.51100000000E-03 0. -1.
        -11    1    4    4    0    0 -0.27805272186E+01 -0.90984824322E+01 -0.63384830005E+01  0.11431976259E+02  0.51100000000E-03 0.  1.
        -12    1    4    4    0    0  0.60074449277E+01 -0.21848126096E+02  0.17738393084E+02  0.28776389587E+02  0.00000000000E+00 0.  1.
</event>
<event>
 8    1  0.1248739E-006  0.9118800E+02  0.7816164E-02  0.1184000E+00
        -11   -1    0    0    0    0  0.00000000000E+00  0.00000000000E+00  0.45593999997E+02  0.45594000000E+02  0.51100000000E-03 0.  1.
         11   -1    0    0    0    0 -0.00000000000E+00 -0.00000000000E+00 -0.45593999997E+02  0.45594000000E+02  0.51100000000E-03 0. -1.
         23    2    1    2    0    0  0.17763568394E-14 -0.35527136788E-14  0.00000000000E+00  0.91188000000E+02  0.91188000000E+02 0.  0.
    9900012    2    3    3    0    0 -0.13132688284E+02  0.29800224441E+02  0.17183140825E+02  0.54367065643E+02  0.39999957746E+02 0.  0.
         12    1    3    3    0    0  0.13132688284E+02 -0.29800224441E+02 -0.17183140825E+02  0.36820934357E+02  0.00000000000E+00 0. -1.
         11    1    4    4    0    0 -0.53909364269E+01 -0.58296665043E+01  0.59267744868E+01  0.99082724624E+01  0.51100000000E-03 0. -1.
        -11    1    4    4    0    0  0.36678148165E+01  0.13863820867E+01 -0.36974699632E+01  0.53894531455E+01  0.51100000000E-03 0.  1.
        -12    1    4    4    0    0 -0.11409566674E+02  0.34243508859E+02  0.14953836301E+02  0.39069340035E+02  0.00000000000E+00 0.  1.
</event>
<event>
 8    1  0.1248739E-006  0.9118800E+02  0.7816164E-02  0.1184000E+00
        -11   -1    0    0    0    0  0.00000000000E+00  0.00000000000E+00  0.45593999997E+02  0.45594000000E+02  0.51100000000E-03 0. -1.
         11   -1    0    0    0    0 -0.00000000000E+00 -0.00000000000E+00 -0.45593999997E+02  0.45594000000E+02  0.51100000000E-03 0.  1.
         23    2    1    2    0    0  0.00000000000E+00 -0.44408920985E-15  0.00000000000E+00  0.91188000000E+02  0.91188000000E+02 0.  0.
    9900012    2    3    3    0    0 -0.28989332290E+02  0.30866946356E+01  0.22491577570E+02  0.54367080240E+02  0.39999991024E+02 0.  0.
        -12    1    3    3    0    0  0.28989332290E+02 -0.30866946356E+01 -0.22491577570E+02  0.36820919760E+02  0.00000000000E+00 0.  1.
         11    1    4    4    0    0 -0.12716109389E+02 -0.57897746691E+01  0.29708507286E+02  0.32830113221E+02  0.51100000000E-03 0. -1.
        -11    1    4    4    0    0 -0.12637755519E+01 -0.90534658122E+00 -0.26110619726E+01  0.30388198307E+01  0.51100000000E-03 0.  1.
         12    1    4    4    0    0 -0.15009447349E+02  0.97818158859E+01 -0.46058677429E+01  0.18498147188E+02  0.00000000000E+00 0. -1.
</event>
<event>
 8    1  0.1248739E-006  0.9118800E+02  0.7816164E-02  0.1184000E+00
        -11   -1    0    0    0    0  0.00000000000E+00  0.00000000000E+00  0.45593999997E+02  0.45594000000E+02  0.51100000000E-03 0.  1.
         11   -1    0    0    0    0 -0.00000000000E+00 -0.00000000000E+00 -0.45593999997E+02  0.45594000000E+02  0.51100000000E-03 0. -1.
         23    2    1    2    0    0  0.00000000000E+00 -0.55511151231E-15  0.00000000000E+00  0.91188000000E+02  0.91188000000E+02 0.  0.
    9900012    2    3    3    0    0 -0.27103303851E+02 -0.98756538173E+00  0.24904130763E+02  0.54367080754E+02  0.39999992196E+02 0.  0.
        -12    1    3    3    0    0  0.27103303851E+02  0.98756538173E+00 -0.24904130763E+02  0.36820919246E+02  0.00000000000E+00 0.  1.
         11    1    4    4    0    0 -0.88794717817E+01 -0.48895573072E+01  0.14910209072E+02  0.18029617983E+02  0.51100000000E-03 0. -1.
        -11    1    4    4    0    0 -0.20876183452E+02 -0.37568773331E+01 -0.25901518772E+01  0.21369090992E+02  0.51100000000E-03 0.  1.
        -12    1    4    4    0    0  0.26523513819E+01  0.76588692585E+01  0.12584073568E+02  0.14968371779E+02  0.00000000000E+00 0.  1.
</event>
<event>
 8    1  0.1248739E-006  0.9118800E+02  0.7816164E-02  0.1184000E+00
        -11   -1    0    0    0    0  0.00000000000E+00  0.00000000000E+00  0.45593999997E+02  0.45594000000E+02  0.51100000000E-03 0. -1.
         11   -1    0    0    0    0 -0.00000000000E+00 -0.00000000000E+00 -0.45593999997E+02  0.45594000000E+02  0.51100000000E-03 0.  1.
         23    2    1    2    0    0  0.35527136788E-14 -0.35527136788E-14  0.17763568394E-14  0.91188000000E+02  0.91188000000E+02 0.  0.
    9900012    2    3    3    0    0  0.28735802312E+02 -0.18526918057E+02  0.13666990431E+02  0.54367086722E+02  0.40000005800E+02 0.  0.
         12    1    3    3    0    0 -0.28735802312E+02  0.18526918057E+02 -0.13666990431E+02  0.36820913278E+02  0.00000000000E+00 0. -1.
         11    1    4    4    0    0  0.23760657289E+02 -0.20190482501E+02  0.10227434622E+02  0.32815009335E+02  0.51100000000E-03 0. -1.
        -11    1    4    4    0    0  0.12054095319E+02 -0.47237484399E-01  0.64503441745E+01  0.13671517310E+02  0.51100000000E-03 0.  1.
         12    1    4    4    0    0 -0.70789502965E+01  0.17108019281E+01 -0.30107883653E+01  0.78805600764E+01  0.00000000000E+00 0. -1.
</event>
<event>
 8    1  0.1248739E-006  0.9118800E+02  0.7816164E-02  0.1184000E+00
        -11   -1    0    0    0    0  0.00000000000E+00  0.00000000000E+00  0.45593999997E+02  0.45594000000E+02  0.51100000000E-03 0.  1.
         11   -1    0    0    0    0 -0.00000000000E+00 -0.00000000000E+00 -0.45593999997E+02  0.45594000000E+02  0.51100000000E-03 0. -1.
         23    2    1    2    0    0 -0.17763568394E-14 -0.35527136788E-14 -0.35527136788E-14  0.91188000000E+02  0.91188000000E+02 0.  0.
    9900012    2    3    3    0    0  0.10190455233E+02  0.18138875652E+02  0.30379627851E+02  0.54367000881E+02  0.39999810107E+02 0.  0.
         12    1    3    3    0    0 -0.10190455233E+02 -0.18138875652E+02 -0.30379627851E+02  0.36820999119E+02  0.00000000000E+00 0. -1.
         11    1    4    4    0    0 -0.13387095525E+01  0.19839243423E+02  0.10178746590E+02  0.22338187152E+02  0.51100000000E-03 0. -1.
        -11    1    4    4    0    0  0.12821728866E+02  0.43859343527E+01  0.21741514953E+02  0.25618872418E+02  0.51100000000E-03 0.  1.
         12    1    4    4    0    0 -0.12925640807E+01 -0.60863021232E+01 -0.15406336913E+01  0.64099413108E+01  0.00000000000E+00 0. -1.
</event>
<event>
 8    1  0.1248739E-006  0.9118800E+02  0.7816164E-02  0.1184000E+00
        -11   -1    0    0    0    0  0.00000000000E+00  0.00000000000E+00  0.45593999997E+02  0.45594000000E+02  0.51100000000E-03 0.  1.
         11   -1    0    0    0    0 -0.00000000000E+00 -0.00000000000E+00 -0.45593999997E+02  0.45594000000E+02  0.51100000000E-03 0. -1.
         23    2    1    2    0    0  0.00000000000E+00  0.00000000000E+00  0.00000000000E+00  0.91188000000E+02  0.91188000000E+02 0.  0.
    9900012    2    3    3    0    0  0.23616814455E+02  0.29690757324E+01 -0.28092892153E+02  0.54367083047E+02  0.39999997422E+02 0.  0.
        -12    1    3    3    0    0 -0.23616814455E+02 -0.29690757324E+01  0.28092892153E+02  0.36820916953E+02  0.00000000000E+00 0.  1.
         11    1    4    4    0    0  0.38350099460E+01 -0.12597116386E+01 -0.25122914916E+02  0.25445137627E+02  0.51100000000E-03 0. -1.
        -11    1    4    4    0    0  0.12920390701E+02 -0.76497053060E+01 -0.22755799703E+01  0.15186597762E+02  0.51100000000E-03 0.  1.
         12    1    4    4    0    0  0.68614138085E+01  0.11878492677E+02 -0.69439726683E+00  0.13735347658E+02  0.00000000000E+00 0. -1.
</event>
<event>
 8    1  0.1248739E-006  0.9118800E+02  0.7816164E-02  0.1184000E+00
        -11   -1    0    0    0    0  0.00000000000E+00  0.00000000000E+00  0.45593999997E+02  0.45594000000E+02  0.51100000000E-03 0.  1.
         11   -1    0    0    0    0 -0.00000000000E+00 -0.00000000000E+00 -0.45593999997E+02  0.45594000000E+02  0.51100000000E-03 0. -1.
         23    2    1    2    0    0 -0.88817841970E-15  0.00000000000E+00  0.00000000000E+00  0.91188000000E+02  0.91188000000E+02 0.  0.
    9900012    2    3    3    0    0 -0.41759638940E+01  0.16093097036E+02  0.32853511491E+02  0.54367086595E+02  0.40000005512E+02 0.  0.
         12    1    3    3    0    0  0.41759638940E+01 -0.16093097036E+02 -0.32853511491E+02  0.36820913405E+02  0.00000000000E+00 0. -1.
         11    1    4    4    0    0 -0.44585118794E+01  0.18997821894E+02  0.86633359587E+01  0.21350619548E+02  0.51100000000E-03 0. -1.
        -11    1    4    4    0    0  0.39898717001E+00  0.97618080231E+01  0.96450316125E+01  0.13728755286E+02  0.51100000000E-03 0.  1.
        -12    1    4    4    0    0 -0.11643918460E+00 -0.12666532881E+02  0.14545143920E+02  0.19287711761E+02  0.00000000000E+00 0.  1.
</event>
<event>
 8    1  0.1248739E-006  0.9118800E+02  0.7816164E-02  0.1184000E+00
        -11   -1    0    0    0    0  0.00000000000E+00  0.00000000000E+00  0.45593999997E+02  0.45594000000E+02  0.51100000000E-03 0.  1.
         11   -1    0    0    0    0 -0.00000000000E+00 -0.00000000000E+00 -0.45593999997E+02  0.45594000000E+02  0.51100000000E-03 0. -1.
         23    2    1    2    0    0  0.00000000000E+00 -0.17763568394E-14  0.71054273576E-14  0.91188000000E+02  0.91188000000E+02 0.  0.
    9900012    2    3    3    0    0  0.13294330304E+02 -0.81291640363E+01  0.33361018994E+02  0.54367080478E+02  0.39999991565E+02 0.  0.
         12    1    3    3    0    0 -0.13294330304E+02  0.81291640363E+01 -0.33361018994E+02  0.36820919522E+02  0.00000000000E+00 0. -1.
         11    1    4    4    0    0 -0.17401699397E+01  0.10627671379E+01 -0.60169949034E+01  0.63531010804E+01  0.51100000000E-03 0. -1.
        -11    1    4    4    0    0  0.62345070253E+01 -0.34555991228E+01 -0.13406250522E+00  0.71293910092E+01  0.51100000000E-03 0.  1.
        -12    1    4    4    0    0  0.87999932184E+01 -0.57363320514E+01  0.39512076402E+02  0.40884588388E+02  0.00000000000E+00 0.  1.
</event>
<event>
 8    1  0.1248739E-006  0.9118800E+02  0.7816164E-02  0.1184000E+00
        -11   -1    0    0    0    0  0.00000000000E+00  0.00000000000E+00  0.45593999997E+02  0.45594000000E+02  0.51100000000E-03 0. -1.
         11   -1    0    0    0    0 -0.00000000000E+00 -0.00000000000E+00 -0.45593999997E+02  0.45594000000E+02  0.51100000000E-03 0.  1.
         23    2    1    2    0    0  0.35527136788E-14  0.00000000000E+00  0.33306690739E-15  0.91188000000E+02  0.91188000000E+02 0.  0.
    9900012    2    3    3    0    0  0.12619231483E+02  0.34579490702E+02 -0.89108550437E+00  0.54367079129E+02  0.39999988490E+02 0.  0.
        -12    1    3    3    0    0 -0.12619231483E+02 -0.34579490702E+02  0.89108550437E+00  0.36820920871E+02  0.00000000000E+00 0.  1.
         11    1    4    4    0    0  0.11132833735E+02  0.13070152666E+02  0.15764105778E+02  0.23308279836E+02  0.51100000000E-03 0. -1.
        -11    1    4    4    0    0 -0.50220595273E+01  0.29926346628E+01 -0.71949911651E+01  0.92706441118E+01  0.51100000000E-03 0.  1.
        -12    1    4    4    0    0  0.65084572754E+01  0.18516703373E+02 -0.94602001174E+01  0.21788155181E+02  0.00000000000E+00 0.  1.
</event>
<event>
 8    1  0.1248739E-006  0.9118800E+02  0.7816164E-02  0.1184000E+00
        -11   -1    0    0    0    0  0.00000000000E+00  0.00000000000E+00  0.45593999997E+02  0.45594000000E+02  0.51100000000E-03 0. -1.
         11   -1    0    0    0    0 -0.00000000000E+00 -0.00000000000E+00 -0.45593999997E+02  0.45594000000E+02  0.51100000000E-03 0.  1.
         23    2    1    2    0    0  0.00000000000E+00  0.71054273576E-14  0.44408920985E-15  0.91188000000E+02  0.91188000000E+02 0.  0.
    9900012    2    3    3    0    0 -0.20814050471E+02 -0.30200131533E+02 -0.32414644717E+01  0.54367085650E+02  0.40000003357E+02 0.  0.
         12    1    3    3    0    0  0.20814050471E+02  0.30200131533E+02  0.32414644717E+01  0.36820914350E+02  0.00000000000E+00 0. -1.
         11    1    4    4    0    0  0.48326730502E+01 -0.34964607632E+01  0.66890791938E+00  0.60022832943E+01  0.51100000000E-03 0. -1.
        -11    1    4    4    0    0  0.22682924394E+01  0.35453869167E+01  0.47036149326E+01  0.63118074016E+01  0.51100000000E-03 0.  1.
        -12    1    4    4    0    0 -0.27915015961E+02 -0.30249057687E+02 -0.86139873237E+01  0.42052994954E+02  0.00000000000E+00 0.  1.
</event>
<event>
 8    1  0.1248739E-006  0.9118800E+02  0.7816164E-02  0.1184000E+00
        -11   -1    0    0    0    0  0.00000000000E+00  0.00000000000E+00  0.45593999997E+02  0.45594000000E+02  0.51100000000E-03 0.  1.
         11   -1    0    0    0    0 -0.00000000000E+00 -0.00000000000E+00 -0.45593999997E+02  0.45594000000E+02  0.51100000000E-03 0. -1.
         23    2    1    2    0    0  0.17763568394E-14 -0.71054273576E-14 -0.17763568394E-14  0.91188000000E+02  0.91188000000E+02 0.  0.
    9900012    2    3    3    0    0 -0.12490356735E+02 -0.32171315349E+02 -0.12836159328E+02  0.54367224221E+02  0.40000319256E+02 0.  0.
        -12    1    3    3    0    0  0.12490356735E+02  0.32171315349E+02  0.12836159328E+02  0.36820775779E+02  0.00000000000E+00 0.  1.
         11    1    4    4    0    0 -0.70717955056E+01 -0.43038504137E+01 -0.50325036678E+01  0.96881119669E+01  0.51100000000E-03 0. -1.
        -11    1    4    4    0    0 -0.15885779506E+02 -0.21748291586E+02  0.46131232404E+01  0.27324477739E+02  0.51100000000E-03 0.  1.
        -12    1    4    4    0    0  0.10467218276E+02 -0.61191733494E+01 -0.12416778901E+02  0.17354634516E+02  0.00000000000E+00 0.  1.
</event>
<event>
 8    1  0.1248739E-006  0.9118800E+02  0.7816164E-02  0.1184000E+00
        -11   -1    0    0    0    0  0.00000000000E+00  0.00000000000E+00  0.45593999997E+02  0.45594000000E+02  0.51100000000E-03 0.  1.
         11   -1    0    0    0    0 -0.00000000000E+00 -0.00000000000E+00 -0.45593999997E+02  0.45594000000E+02  0.51100000000E-03 0. -1.
         23    2    1    2    0    0  0.35527136788E-14 -0.35527136788E-14 -0.35527136788E-14  0.91188000000E+02  0.91188000000E+02 0.  0.
    9900012    2    3    3    0    0  0.19070770693E+02  0.25202624038E+02  0.18892109209E+02  0.54367104525E+02  0.40000046385E+02 0.  0.
         12    1    3    3    0    0 -0.19070770693E+02 -0.25202624038E+02 -0.18892109209E+02  0.36820895475E+02  0.00000000000E+00 0. -1.
         11    1    4    4    0    0 -0.69939874046E+01 -0.50201883093E+01  0.74710419659E+01  0.11398886735E+02  0.51100000000E-03 0. -1.
        -11    1    4    4    0    0  0.22347353942E+02  0.23975918404E+02  0.13439130989E+02  0.35423990932E+02  0.51100000000E-03 0.  1.
         12    1    4    4    0    0  0.37174041551E+01  0.62468939443E+01 -0.20180637466E+01  0.75442268582E+01  0.00000000000E+00 0. -1.
</event>
<event>
 8    1  0.1248739E-006  0.9118800E+02  0.7816164E-02  0.1184000E+00
        -11   -1    0    0    0    0  0.00000000000E+00  0.00000000000E+00  0.45593999997E+02  0.45594000000E+02  0.51100000000E-03 0. -1.
         11   -1    0    0    0    0 -0.00000000000E+00 -0.00000000000E+00 -0.45593999997E+02  0.45594000000E+02  0.51100000000E-03 0.  1.
         23    2    1    2    0    0  0.88817841970E-15  0.35527136788E-14  0.00000000000E+00  0.91188000000E+02  0.91188000000E+02 0.  0.
    9900012    2    3    3    0    0  0.77811921875E+01 -0.31477413573E+02 -0.17447206950E+02  0.54367088177E+02  0.40000009117E+02 0.  0.
         12    1    3    3    0    0 -0.77811921875E+01  0.31477413573E+02  0.17447206950E+02  0.36820911823E+02  0.00000000000E+00 0. -1.
         11    1    4    4    0    0 -0.80994844200E+01 -0.23336548894E+01 -0.52042956687E+01  0.99061741698E+01  0.51100000000E-03 0. -1.
        -11    1    4    4    0    0  0.39410589365E+01 -0.30363924853E+02 -0.72715026461E+01  0.31470218128E+02  0.51100000000E-03 0.  1.
        -12    1    4    4    0    0  0.11939617671E+02  0.12201661688E+01 -0.49714086352E+01  0.12990695879E+02  0.00000000000E+00 0.  1.
</event>
<event>
 8    1  0.1248739E-006  0.9118800E+02  0.7816164E-02  0.1184000E+00
        -11   -1    0    0    0    0  0.00000000000E+00  0.00000000000E+00  0.45593999997E+02  0.45594000000E+02  0.51100000000E-03 0. -1.
         11   -1    0    0    0    0 -0.00000000000E+00 -0.00000000000E+00 -0.45593999997E+02  0.45594000000E+02  0.51100000000E-03 0.  1.
         23    2    1    2    0    0  0.18318679906E-14  0.00000000000E+00  0.00000000000E+00  0.91188000000E+02  0.91188000000E+02 0.  0.
    9900012    2    3    3    0    0 -0.18687576094E+00 -0.24544253507E+02  0.27446770228E+02  0.54367075260E+02  0.39999979670E+02 0.  0.
        -12    1    3    3    0    0  0.18687576094E+00  0.24544253507E+02 -0.27446770228E+02  0.36820924740E+02  0.00000000000E+00 0.  1.
         11    1    4    4    0    0  0.58923215896E+01 -0.53562415226E+01  0.33204226696E+01  0.86275131950E+01  0.51100000000E-03 0. -1.
        -11    1    4    4    0    0  0.81607901281E+01 -0.22708542375E+02  0.13764330533E+02  0.27780086169E+02  0.51100000000E-03 0.  1.
        -12    1    4    4    0    0 -0.14239987479E+02  0.35205303899E+01  0.10362017025E+02  0.17959475896E+02  0.00000000000E+00 0.  1.
</event>
<event>
 8    1  0.1248739E-006  0.9118800E+02  0.7816164E-02  0.1184000E+00
        -11   -1    0    0    0    0  0.00000000000E+00  0.00000000000E+00  0.45593999997E+02  0.45594000000E+02  0.51100000000E-03 0. -1.
         11   -1    0    0    0    0 -0.00000000000E+00 -0.00000000000E+00 -0.45593999997E+02  0.45594000000E+02  0.51100000000E-03 0.  1.
         23    2    1    2    0    0 -0.35527136788E-14  0.26645352591E-14  0.35527136788E-14  0.91188000000E+02  0.91188000000E+02 0.  0.
    9900012    2    3    3    0    0  0.30551679185E+02 -0.50054531844E+01 -0.19932898244E+02  0.54367080742E+02  0.39999992167E+02 0.  0.
         12    1    3    3    0    0 -0.30551679185E+02  0.50054531844E+01  0.19932898244E+02  0.36820919258E+02  0.00000000000E+00 0. -1.
         11    1    4    4    0    0  0.21654922167E+01  0.99297330741E+01 -0.99187257800E+01  0.14201059004E+02  0.51100000000E-03 0. -1.
        -11    1    4    4    0    0  0.29018111370E+02 -0.76943291006E+01 -0.31792255542E+01  0.30188755575E+02  0.51100000000E-03 0.  1.
         12    1    4    4    0    0 -0.63192440121E+00 -0.72408571579E+01 -0.68349469100E+01  0.99772661633E+01  0.00000000000E+00 0. -1.
</event>
<event>
 8    1  0.1248739E-006  0.9118800E+02  0.7816164E-02  0.1184000E+00
        -11   -1    0    0    0    0  0.00000000000E+00  0.00000000000E+00  0.45593999997E+02  0.45594000000E+02  0.51100000000E-03 0. -1.
         11   -1    0    0    0    0 -0.00000000000E+00 -0.00000000000E+00 -0.45593999997E+02  0.45594000000E+02  0.51100000000E-03 0.  1.
         23    2    1    2    0    0 -0.17763568394E-14  0.00000000000E+00  0.13322676296E-14  0.91188000000E+02  0.91188000000E+02 0.  0.
    9900012    2    3    3    0    0  0.14363686864E+02  0.33756197241E+02  0.31591875708E+01  0.54367125233E+02  0.40000093593E+02 0.  0.
         12    1    3    3    0    0 -0.14363686864E+02 -0.33756197241E+02 -0.31591875708E+01  0.36820874767E+02  0.00000000000E+00 0. -1.
         11    1    4    4    0    0  0.97374034113E+01  0.56709841219E+01  0.18086207378E+02  0.21309340292E+02  0.51100000000E-03 0. -1.
        -11    1    4    4    0    0  0.44630642171E+01  0.11568223581E+02 -0.32156871749E+01  0.12809503631E+02  0.51100000000E-03 0.  1.
         12    1    4    4    0    0  0.16321923594E+00  0.16516989539E+02 -0.11711332632E+02  0.20248281309E+02  0.00000000000E+00 0. -1.
</event>
<event>
 8    1  0.1248739E-006  0.9118800E+02  0.7816164E-02  0.1184000E+00
        -11   -1    0    0    0    0  0.00000000000E+00  0.00000000000E+00  0.45593999997E+02  0.45594000000E+02  0.51100000000E-03 0. -1.
         11   -1    0    0    0    0 -0.00000000000E+00 -0.00000000000E+00 -0.45593999997E+02  0.45594000000E+02  0.51100000000E-03 0.  1.
         23    2    1    2    0    0 -0.88817841970E-15  0.00000000000E+00  0.71054273576E-14  0.91188000000E+02  0.91188000000E+02 0.  0.
    9900012    2    3    3    0    0 -0.37803812072E+01 -0.82558179659E+01  0.35683727198E+02  0.54367106487E+02  0.40000050859E+02 0.  0.
        -12    1    3    3    0    0  0.37803812072E+01  0.82558179659E+01 -0.35683727198E+02  0.36820893513E+02  0.00000000000E+00 0.  1.
         11    1    4    4    0    0  0.35232510366E+01 -0.20362651464E+00  0.27170803328E+02  0.27399038585E+02  0.51100000000E-03 0. -1.
        -11    1    4    4    0    0 -0.12681574130E+02 -0.78006931627E+01  0.13148590094E+02  0.19863498129E+02  0.51100000000E-03 0.  1.
        -12    1    4    4    0    0  0.53779418860E+01 -0.25149828855E+00 -0.46356662238E+01  0.71045697728E+01  0.00000000000E+00 0.  1.
</event>
<event>
 8    1  0.1248739E-006  0.9118800E+02  0.7816164E-02  0.1184000E+00
        -11   -1    0    0    0    0  0.00000000000E+00  0.00000000000E+00  0.45593999997E+02  0.45594000000E+02  0.51100000000E-03 0.  1.
         11   -1    0    0    0    0 -0.00000000000E+00 -0.00000000000E+00 -0.45593999997E+02  0.45594000000E+02  0.51100000000E-03 0. -1.
         23    2    1    2    0    0  0.00000000000E+00 -0.88817841970E-15  0.88817841970E-15  0.91188000000E+02  0.91188000000E+02 0.  0.
    9900012    2    3    3    0    0 -0.35929084106E+02 -0.58454769273E+01  0.55417980781E+01  0.54367079165E+02  0.39999988573E+02 0.  0.
        -12    1    3    3    0    0  0.35929084106E+02  0.58454769273E+01 -0.55417980781E+01  0.36820920835E+02  0.00000000000E+00 0.  1.
         11    1    4    4    0    0 -0.11608032154E+02  0.11811417838E+01 -0.14385288521E+02  0.18522365737E+02  0.51100000000E-03 0. -1.
        -11    1    4    4    0    0 -0.62699963591E+01 -0.96171297568E+01  0.64424730714E+01  0.13164630593E+02  0.51100000000E-03 0.  1.
        -12    1    4    4    0    0 -0.18051055592E+02  0.25905110457E+01  0.13484613527E+02  0.22680082836E+02  0.00000000000E+00 0.  1.
</event>
<event>
 8    1  0.1248739E-006  0.9118800E+02  0.7816164E-02  0.1184000E+00
        -11   -1    0    0    0    0  0.00000000000E+00  0.00000000000E+00  0.45593999997E+02  0.45594000000E+02  0.51100000000E-03 0.  1.
         11   -1    0    0    0    0 -0.00000000000E+00 -0.00000000000E+00 -0.45593999997E+02  0.45594000000E+02  0.51100000000E-03 0. -1.
         23    2    1    2    0    0  0.88817841970E-15  0.00000000000E+00  0.17763568394E-14  0.91188000000E+02  0.91188000000E+02 0.  0.
    9900012    2    3    3    0    0  0.52398692327E+01  0.36038425084E+02 -0.54365599254E+01  0.54367075298E+02  0.39999979757E+02 0.  0.
         12    1    3    3    0    0 -0.52398692327E+01 -0.36038425084E+02  0.54365599254E+01  0.36820924702E+02  0.00000000000E+00 0. -1.
         11    1    4    4    0    0  0.33704486460E+01  0.82830401256E+01  0.12632826154E+02  0.15477628200E+02  0.51100000000E-03 0. -1.
        -11    1    4    4    0    0  0.51845841651E+01 -0.65931171712E+00 -0.34822356199E+00  0.52379256215E+01  0.51100000000E-03 0.  1.
        -12    1    4    4    0    0 -0.33151635784E+01  0.28414696675E+02 -0.17721162518E+02  0.33651521476E+02  0.00000000000E+00 0.  1.
</event>
<event>
 8    1  0.1248739E-006  0.9118800E+02  0.7816164E-02  0.1184000E+00
        -11   -1    0    0    0    0  0.00000000000E+00  0.00000000000E+00  0.45593999997E+02  0.45594000000E+02  0.51100000000E-03 0.  1.
         11   -1    0    0    0    0 -0.00000000000E+00 -0.00000000000E+00 -0.45593999997E+02  0.45594000000E+02  0.51100000000E-03 0. -1.
         23    2    1    2    0    0  0.00000000000E+00  0.00000000000E+00 -0.35527136788E-14  0.91188000000E+02  0.91188000000E+02 0.  0.
    9900012    2    3    3    0    0  0.14754005535E+02 -0.15131613955E+02  0.30151841272E+02  0.54367082680E+02  0.39999996586E+02 0.  0.
         12    1    3    3    0    0 -0.14754005535E+02  0.15131613955E+02 -0.30151841272E+02  0.36820917320E+02  0.00000000000E+00 0. -1.
         11    1    4    4    0    0  0.97801098010E+01 -0.62729207570E+01 -0.46118821131E+00  0.11628102914E+02  0.51100000000E-03 0. -1.
        -11    1    4    4    0    0  0.81488204985E+00 -0.18887408475E+02  0.20754263014E+02  0.28073789648E+02  0.51100000000E-03 0.  1.
        -12    1    4    4    0    0  0.41590136840E+01  0.10028715277E+02  0.98587664688E+01  0.14665190119E+02  0.00000000000E+00 0.  1.
</event>
<event>
 8    1  0.1248739E-006  0.9118800E+02  0.7816164E-02  0.1184000E+00
        -11   -1    0    0    0    0  0.00000000000E+00  0.00000000000E+00  0.45593999997E+02  0.45594000000E+02  0.51100000000E-03 0.  1.
         11   -1    0    0    0    0 -0.00000000000E+00 -0.00000000000E+00 -0.45593999997E+02  0.45594000000E+02  0.51100000000E-03 0. -1.
         23    2    1    2    0    0  0.00000000000E+00  0.17763568394E-14  0.35527136788E-14  0.91188000000E+02  0.91188000000E+02 0.  0.
    9900012    2    3    3    0    0  0.18141235965E+02 -0.95099855361E+01  0.30597937282E+02  0.54367108740E+02  0.40000055994E+02 0.  0.
         12    1    3    3    0    0 -0.18141235965E+02  0.95099855361E+01 -0.30597937282E+02  0.36820891260E+02  0.00000000000E+00 0. -1.
         11    1    4    4    0    0  0.22453184992E+01 -0.17021723595E+02  0.11092479218E+02  0.20440734448E+02  0.51100000000E-03 0. -1.
        -11    1    4    4    0    0  0.15938437569E+02 -0.31808010829E+01  0.15642191507E+02  0.22557248128E+02  0.51100000000E-03 0.  1.
         12    1    4    4    0    0 -0.42520103351E-01  0.10692539141E+02  0.38632665566E+01  0.11369126164E+02  0.00000000000E+00 0. -1.
</event>
<event>
 8    1  0.1248739E-006  0.9118800E+02  0.7816164E-02  0.1184000E+00
        -11   -1    0    0    0    0  0.00000000000E+00  0.00000000000E+00  0.45593999997E+02  0.45594000000E+02  0.51100000000E-03 0. -1.
         11   -1    0    0    0    0 -0.00000000000E+00 -0.00000000000E+00 -0.45593999997E+02  0.45594000000E+02  0.51100000000E-03 0.  1.
         23    2    1    2    0    0  0.35527136788E-14 -0.44408920985E-15 -0.35527136788E-14  0.91188000000E+02  0.91188000000E+02 0.  0.
    9900012    2    3    3    0    0  0.19207456390E+02 -0.30940581017E+01 -0.31261515448E+02  0.54367055897E+02  0.39999935529E+02 0.  0.
         12    1    3    3    0    0 -0.19207456390E+02  0.30940581017E+01  0.31261515448E+02  0.36820944103E+02  0.00000000000E+00 0. -1.
         11    1    4    4    0    0 -0.61502591675E+01 -0.28617839392E+01  0.54013087873E+01  0.86711955357E+01  0.51100000000E-03 0. -1.
        -11    1    4    4    0    0  0.76438011125E+01  0.19254845352E+00 -0.42296267872E+01  0.87381069675E+01  0.51100000000E-03 0.  1.
        -12    1    4    4    0    0  0.17713914445E+02 -0.42482261603E+00 -0.32433197448E+02  0.36957753394E+02  0.00000000000E+00 0.  1.
</event>
<event>
 8    1  0.1248739E-006  0.9118800E+02  0.7816164E-02  0.1184000E+00
        -11   -1    0    0    0    0  0.00000000000E+00  0.00000000000E+00  0.45593999997E+02  0.45594000000E+02  0.51100000000E-03 0. -1.
         11   -1    0    0    0    0 -0.00000000000E+00 -0.00000000000E+00 -0.45593999997E+02  0.45594000000E+02  0.51100000000E-03 0.  1.
         23    2    1    2    0    0  0.00000000000E+00  0.35527136788E-14  0.00000000000E+00  0.91188000000E+02  0.91188000000E+02 0.  0.
    9900012    2    3    3    0    0  0.12159929514E+02  0.29480740834E+02 -0.18406714690E+02  0.54367012620E+02  0.39999836870E+02 0.  0.
         12    1    3    3    0    0 -0.12159929514E+02 -0.29480740834E+02  0.18406714690E+02  0.36820987380E+02  0.00000000000E+00 0. -1.
         11    1    4    4    0    0  0.42450347743E-01  0.18312526505E+02 -0.15102026955E+02  0.23736504533E+02  0.51100000000E-03 0. -1.
        -11    1    4    4    0    0  0.12148325831E+02  0.18492365805E+02 -0.58337928639E+01  0.22881926339E+02  0.51100000000E-03 0.  1.
         12    1    4    4    0    0 -0.30846664947E-01 -0.73241514757E+01  0.25291051285E+01  0.77485817481E+01  0.00000000000E+00 0. -1.
</event>
<event>
 8    1  0.1248739E-006  0.9118800E+02  0.7816164E-02  0.1184000E+00
        -11   -1    0    0    0    0  0.00000000000E+00  0.00000000000E+00  0.45593999997E+02  0.45594000000E+02  0.51100000000E-03 0. -1.
         11   -1    0    0    0    0 -0.00000000000E+00 -0.00000000000E+00 -0.45593999997E+02  0.45594000000E+02  0.51100000000E-03 0.  1.
         23    2    1    2    0    0  0.00000000000E+00  0.88817841970E-15  0.00000000000E+00  0.91188000000E+02  0.91188000000E+02 0.  0.
    9900012    2    3    3    0    0  0.33855152226E+02  0.66008297889E+01  0.12885542211E+02  0.54367089036E+02  0.40000011074E+02 0.  0.
        -12    1    3    3    0    0 -0.33855152226E+02 -0.66008297889E+01 -0.12885542211E+02  0.36820910964E+02  0.00000000000E+00 0.  1.
         11    1    4    4    0    0  0.11213643889E+02 -0.78131703708E+01  0.57022935589E+00  0.13679057069E+02  0.51100000000E-03 0. -1.
        -11    1    4    4    0    0  0.13643104559E+02  0.14490008222E+01 -0.72768859375E+01  0.15530195575E+02  0.51100000000E-03 0.  1.
        -12    1    4    4    0    0  0.89984037787E+01  0.12964999337E+02  0.19592198793E+02  0.25157836392E+02  0.00000000000E+00 0.  1.
</event>
<event>
 8    1  0.1248739E-006  0.9118800E+02  0.7816164E-02  0.1184000E+00
        -11   -1    0    0    0    0  0.00000000000E+00  0.00000000000E+00  0.45593999997E+02  0.45594000000E+02  0.51100000000E-03 0. -1.
         11   -1    0    0    0    0 -0.00000000000E+00 -0.00000000000E+00 -0.45593999997E+02  0.45594000000E+02  0.51100000000E-03 0.  1.
         23    2    1    2    0    0  0.88817841970E-15  0.00000000000E+00  0.35527136788E-14  0.91188000000E+02  0.91188000000E+02 0.  0.
    9900012    2    3    3    0    0  0.77446370379E+01 -0.19705222749E+02  0.30124820710E+02  0.54367081635E+02  0.39999994203E+02 0.  0.
        -12    1    3    3    0    0 -0.77446370379E+01  0.19705222749E+02 -0.30124820710E+02  0.36820918365E+02  0.00000000000E+00 0.  1.
         11    1    4    4    0    0  0.42113457339E+01  0.34193704919E+01  0.33628369293E+01  0.63824916706E+01  0.51100000000E-03 0. -1.
        -11    1    4    4    0    0  0.14577191765E+02 -0.42344587172E+00  0.98825492347E+01  0.17616429996E+02  0.51100000000E-03 0.  1.
         12    1    4    4    0    0 -0.11043900461E+02 -0.22701147370E+02  0.16879434546E+02  0.30368159969E+02  0.00000000000E+00 0. -1.
</event>
<event>
 8    1  0.1248739E-006  0.9118800E+02  0.7816164E-02  0.1184000E+00
        -11   -1    0    0    0    0  0.00000000000E+00  0.00000000000E+00  0.45593999997E+02  0.45594000000E+02  0.51100000000E-03 0.  1.
         11   -1    0    0    0    0 -0.00000000000E+00 -0.00000000000E+00 -0.45593999997E+02  0.45594000000E+02  0.51100000000E-03 0. -1.
         23    2    1    2    0    0 -0.71054273576E-14 -0.22204460493E-15  0.00000000000E+00  0.91188000000E+02  0.91188000000E+02 0.  0.
    9900012    2    3    3    0    0 -0.35920479913E+02  0.13157112488E+00  0.80921680983E+01  0.54367063392E+02  0.39999952614E+02 0.  0.
        -12    1    3    3    0    0  0.35920479913E+02 -0.13157112488E+00 -0.80921680983E+01  0.36820936608E+02  0.00000000000E+00 0.  1.
         11    1    4    4    0    0 -0.23652220284E+02  0.98434848239E+01  0.75245817629E+01  0.26700955953E+02  0.51100000000E-03 0. -1.
        -11    1    4    4    0    0  0.42200610839E+01  0.42384169996E+01 -0.74993555629E+00  0.60278933148E+01  0.51100000000E-03 0.  1.
        -12    1    4    4    0    0 -0.16488320714E+02 -0.13950330699E+02  0.13175218917E+01  0.21638214124E+02  0.00000000000E+00 0.  1.
</event>
<event>
 8    1  0.1248739E-006  0.9118800E+02  0.7816164E-02  0.1184000E+00
        -11   -1    0    0    0    0  0.00000000000E+00  0.00000000000E+00  0.45593999997E+02  0.45594000000E+02  0.51100000000E-03 0. -1.
         11   -1    0    0    0    0 -0.00000000000E+00 -0.00000000000E+00 -0.45593999997E+02  0.45594000000E+02  0.51100000000E-03 0.  1.
         23    2    1    2    0    0  0.00000000000E+00  0.00000000000E+00  0.00000000000E+00  0.91188000000E+02  0.91188000000E+02 0.  0.
    9900012    2    3    3    0    0  0.28513331169E+02  0.13358841143E+02 -0.19086949073E+02  0.54367077742E+02  0.39999985329E+02 0.  0.
         12    1    3    3    0    0 -0.28513331169E+02 -0.13358841143E+02  0.19086949073E+02  0.36820922258E+02  0.00000000000E+00 0. -1.
         11    1    4    4    0    0  0.11249753897E+02 -0.12820827531E+02 -0.23633733953E+01  0.17219643300E+02  0.51100000000E-03 0. -1.
        -11    1    4    4    0    0  0.11981329435E+01  0.82208168891E+01 -0.98267194281E+00  0.83655840969E+01  0.51100000000E-03 0.  1.
         12    1    4    4    0    0  0.16065444329E+02  0.17958851785E+02 -0.15740903734E+02  0.28781850345E+02  0.00000000000E+00 0. -1.
</event>
<event>
 8    1  0.1248739E-006  0.9118800E+02  0.7816164E-02  0.1184000E+00
        -11   -1    0    0    0    0  0.00000000000E+00  0.00000000000E+00  0.45593999997E+02  0.45594000000E+02  0.51100000000E-03 0. -1.
         11   -1    0    0    0    0 -0.00000000000E+00 -0.00000000000E+00 -0.45593999997E+02  0.45594000000E+02  0.51100000000E-03 0.  1.
         23    2    1    2    0    0  0.00000000000E+00  0.35527136788E-14 -0.35527136788E-14  0.91188000000E+02  0.91188000000E+02 0.  0.
    9900012    2    3    3    0    0 -0.16975676357E+02  0.24881189786E+02 -0.21178613592E+02  0.54367070264E+02  0.39999968280E+02 0.  0.
         12    1    3    3    0    0  0.16975676357E+02 -0.24881189786E+02  0.21178613592E+02  0.36820929736E+02  0.00000000000E+00 0. -1.
         11    1    4    4    0    0  0.73199764258E+01  0.15524217850E+02 -0.11747088808E+01  0.17203584974E+02  0.51100000000E-03 0. -1.
        -11    1    4    4    0    0 -0.14018483339E+02  0.13511695268E+02 -0.16547309019E+02  0.25551853556E+02  0.51100000000E-03 0.  1.
        -12    1    4    4    0    0 -0.10277169443E+02 -0.41547233319E+01 -0.34565956928E+01  0.11611631734E+02  0.00000000000E+00 0.  1.
</event>
<event>
 8    1  0.1248739E-006  0.9118800E+02  0.7816164E-02  0.1184000E+00
        -11   -1    0    0    0    0  0.00000000000E+00  0.00000000000E+00  0.45593999997E+02  0.45594000000E+02  0.51100000000E-03 0. -1.
         11   -1    0    0    0    0 -0.00000000000E+00 -0.00000000000E+00 -0.45593999997E+02  0.45594000000E+02  0.51100000000E-03 0.  1.
         23    2    1    2    0    0  0.00000000000E+00  0.00000000000E+00  0.00000000000E+00  0.91188000000E+02  0.91188000000E+02 0.  0.
    9900012    2    3    3    0    0  0.22350407822E+02 -0.89760330706E+01  0.27850836968E+02  0.54367095350E+02  0.40000025468E+02 0.  0.
        -12    1    3    3    0    0 -0.22350407822E+02  0.89760330706E+01 -0.27850836968E+02  0.36820904650E+02  0.00000000000E+00 0.  1.
         11    1    4    4    0    0  0.21165377465E+02 -0.20718027752E+02  0.20269094266E+02  0.35889358587E+02  0.51100000000E-03 0. -1.
        -11    1    4    4    0    0  0.39308112829E+00  0.23951081153E+01 -0.33092789518E+01  0.41039472583E+01  0.51100000000E-03 0.  1.
         12    1    4    4    0    0  0.79194922888E+00  0.93468865662E+01  0.10891021653E+02  0.14373789504E+02  0.00000000000E+00 0. -1.
</event>
<event>
 8    1  0.1248739E-006  0.9118800E+02  0.7816164E-02  0.1184000E+00
        -11   -1    0    0    0    0  0.00000000000E+00  0.00000000000E+00  0.45593999997E+02  0.45594000000E+02  0.51100000000E-03 0. -1.
         11   -1    0    0    0    0 -0.00000000000E+00 -0.00000000000E+00 -0.45593999997E+02  0.45594000000E+02  0.51100000000E-03 0.  1.
         23    2    1    2    0    0 -0.35527136788E-14  0.00000000000E+00  0.35527136788E-14  0.91188000000E+02  0.91188000000E+02 0.  0.
    9900012    2    3    3    0    0 -0.18628878237E+02  0.28493044236E+02  0.14031787094E+02  0.54367085790E+02  0.40000003675E+02 0.  0.
         12    1    3    3    0    0  0.18628878237E+02 -0.28493044236E+02 -0.14031787094E+02  0.36820914210E+02  0.00000000000E+00 0. -1.
         11    1    4    4    0    0 -0.47072363459E+01  0.40191039673E+01 -0.45575172269E+01  0.76864968777E+01  0.51100000000E-03 0. -1.
        -11    1    4    4    0    0 -0.15797076232E+02  0.16849255442E+02 -0.33872146967E+01  0.23343484104E+02  0.51100000000E-03 0.  1.
         12    1    4    4    0    0  0.18754343408E+01  0.76246848271E+01  0.21976519018E+02  0.23337104808E+02  0.00000000000E+00 0. -1.
</event>
<event>
 8    1  0.1248739E-006  0.9118800E+02  0.7816164E-02  0.1184000E+00
        -11   -1    0    0    0    0  0.00000000000E+00  0.00000000000E+00  0.45593999997E+02  0.45594000000E+02  0.51100000000E-03 0. -1.
         11   -1    0    0    0    0 -0.00000000000E+00 -0.00000000000E+00 -0.45593999997E+02  0.45594000000E+02  0.51100000000E-03 0.  1.
         23    2    1    2    0    0 -0.35527136788E-14  0.35527136788E-14 -0.17763568394E-14  0.91188000000E+02  0.91188000000E+02 0.  0.
    9900012    2    3    3    0    0 -0.30797435423E+02  0.16708317190E+02 -0.11319453844E+02  0.54367083020E+02  0.39999997360E+02 0.  0.
         12    1    3    3    0    0  0.30797435423E+02 -0.16708317190E+02  0.11319453844E+02  0.36820916980E+02  0.00000000000E+00 0. -1.
         11    1    4    4    0    0 -0.43263040014E+01 -0.93053980770E+01  0.89288832242E+00  0.10300708204E+02  0.51100000000E-03 0. -1.
        -11    1    4    4    0    0 -0.66535614937E+01  0.65357697465E+01 -0.13315923476E+02  0.16257305589E+02  0.51100000000E-03 0.  1.
         12    1    4    4    0    0 -0.19817569928E+02  0.19477945520E+02  0.11035813101E+01  0.27809069227E+02  0.00000000000E+00 0. -1.
</event>
<event>
 8    1  0.1248739E-006  0.9118800E+02  0.7816164E-02  0.1184000E+00
        -11   -1    0    0    0    0  0.00000000000E+00  0.00000000000E+00  0.45593999997E+02  0.45594000000E+02  0.51100000000E-03 0.  1.
         11   -1    0    0    0    0 -0.00000000000E+00 -0.00000000000E+00 -0.45593999997E+02  0.45594000000E+02  0.51100000000E-03 0. -1.
         23    2    1    2    0    0  0.00000000000E+00 -0.44408920985E-15  0.00000000000E+00  0.91188000000E+02  0.91188000000E+02 0.  0.
    9900012    2    3    3    0    0 -0.10575039137E+02  0.30193104131E+01 -0.35140124204E+02  0.54367136116E+02  0.40000118403E+02 0.  0.
        -12    1    3    3    0    0  0.10575039137E+02 -0.30193104131E+01  0.35140124204E+02  0.36820863884E+02  0.00000000000E+00 0.  1.
         11    1    4    4    0    0 -0.51367113895E+01  0.61598299362E+01 -0.41406415788E+02  0.42176066405E+02  0.51100000000E-03 0. -1.
        -11    1    4    4    0    0 -0.70274178711E+01 -0.32506866743E+01  0.25568558723E+01  0.81540835170E+01  0.51100000000E-03 0.  1.
         12    1    4    4    0    0  0.15890901232E+01  0.11016715126E+00  0.37094357125E+01  0.40369861934E+01  0.00000000000E+00 0. -1.
</event>
<event>
 8    1  0.1248739E-006  0.9118800E+02  0.7816164E-02  0.1184000E+00
        -11   -1    0    0    0    0  0.00000000000E+00  0.00000000000E+00  0.45593999997E+02  0.45594000000E+02  0.51100000000E-03 0.  1.
         11   -1    0    0    0    0 -0.00000000000E+00 -0.00000000000E+00 -0.45593999997E+02  0.45594000000E+02  0.51100000000E-03 0. -1.
         23    2    1    2    0    0  0.00000000000E+00 -0.66613381478E-15 -0.71054273576E-14  0.91188000000E+02  0.91188000000E+02 0.  0.
    9900012    2    3    3    0    0  0.92521114702E+01 -0.10080816772E+01 -0.35625274119E+02  0.54367109850E+02  0.40000058526E+02 0.  0.
        -12    1    3    3    0    0 -0.92521114702E+01  0.10080816772E+01  0.35625274119E+02  0.36820890150E+02  0.00000000000E+00 0.  1.
         11    1    4    4    0    0  0.32309612865E+00 -0.81204402845E+00 -0.17144824014E+02  0.17167084708E+02  0.51100000000E-03 0. -1.
        -11    1    4    4    0    0  0.24722323145E+01  0.68501043305E+01  0.69292902103E+01  0.10052408917E+02  0.51100000000E-03 0.  1.
        -12    1    4    4    0    0  0.64567830271E+01 -0.70461419793E+01 -0.25409740315E+02  0.27147616226E+02  0.00000000000E+00 0.  1.
</event>
<event>
 8    1  0.1248739E-006  0.9118800E+02  0.7816164E-02  0.1184000E+00
        -11   -1    0    0    0    0  0.00000000000E+00  0.00000000000E+00  0.45593999997E+02  0.45594000000E+02  0.51100000000E-03 0.  1.
         11   -1    0    0    0    0 -0.00000000000E+00 -0.00000000000E+00 -0.45593999997E+02  0.45594000000E+02  0.51100000000E-03 0. -1.
         23    2    1    2    0    0 -0.35527136788E-14  0.17763568394E-14 -0.35527136788E-14  0.91188000000E+02  0.91188000000E+02 0.  0.
    9900012    2    3    3    0    0 -0.23571799291E+02  0.11533508027E+02 -0.25828811380E+02  0.54367095251E+02  0.40000025244E+02 0.  0.
        -12    1    3    3    0    0  0.23571799291E+02 -0.11533508027E+02  0.25828811380E+02  0.36820904749E+02  0.00000000000E+00 0.  1.
         11    1    4    4    0    0 -0.60256008976E+01  0.75162059850E+01  0.89431650007E+00  0.96747620564E+01  0.51100000000E-03 0. -1.
        -11    1    4    4    0    0  0.12706823188E+01  0.12073819651E+02 -0.19530466511E+02  0.22996323117E+02  0.51100000000E-03 0.  1.
         12    1    4    4    0    0 -0.18816880712E+02 -0.80565176090E+01 -0.71926613690E+01  0.21696010077E+02  0.00000000000E+00 0. -1.
</event>
<event>
 8    1  0.1248739E-006  0.9118800E+02  0.7816164E-02  0.1184000E+00
        -11   -1    0    0    0    0  0.00000000000E+00  0.00000000000E+00  0.45593999997E+02  0.45594000000E+02  0.51100000000E-03 0. -1.
         11   -1    0    0    0    0 -0.00000000000E+00 -0.00000000000E+00 -0.45593999997E+02  0.45594000000E+02  0.51100000000E-03 0.  1.
         23    2    1    2    0    0  0.35527136788E-14  0.17763568394E-14  0.00000000000E+00  0.91188000000E+02  0.91188000000E+02 0.  0.
    9900012    2    3    3    0    0  0.31828105631E+02  0.15491113143E+02 -0.10137893498E+02  0.54367085033E+02  0.40000001949E+02 0.  0.
         12    1    3    3    0    0 -0.31828105631E+02 -0.15491113143E+02  0.10137893498E+02  0.36820914967E+02  0.00000000000E+00 0. -1.
         11    1    4    4    0    0  0.15469200264E+02  0.63784841640E+00 -0.14356902571E+02  0.21114536678E+02  0.51100000000E-03 0. -1.
        -11    1    4    4    0    0  0.10305581470E+02  0.14608953895E+02 -0.80212555176E+01  0.19595078047E+02  0.51100000000E-03 0.  1.
         12    1    4    4    0    0  0.60533238962E+01  0.24431083173E+00  0.12240264590E+02  0.13657470308E+02  0.00000000000E+00 0. -1.
</event>
<event>
 8    1  0.1248739E-006  0.9118800E+02  0.7816164E-02  0.1184000E+00
        -11   -1    0    0    0    0  0.00000000000E+00  0.00000000000E+00  0.45593999997E+02  0.45594000000E+02  0.51100000000E-03 0.  1.
         11   -1    0    0    0    0 -0.00000000000E+00 -0.00000000000E+00 -0.45593999997E+02  0.45594000000E+02  0.51100000000E-03 0. -1.
         23    2    1    2    0    0  0.88817841970E-15  0.00000000000E+00  0.35527136788E-14  0.91188000000E+02  0.91188000000E+02 0.  0.
    9900012    2    3    3    0    0  0.42692300417E+01 -0.35233035123E+02  0.98074923975E+01  0.54367082083E+02  0.39999995224E+02 0.  0.
         12    1    3    3    0    0 -0.42692300417E+01  0.35233035123E+02 -0.98074923975E+01  0.36820917917E+02  0.00000000000E+00 0. -1.
         11    1    4    4    0    0  0.64912521008E+01  0.51530695029E+01 -0.40338163252E+01  0.92174917165E+01  0.51100000000E-03 0. -1.
        -11    1    4    4    0    0 -0.11026266794E+01 -0.81941151953E+01 -0.30071643361E+01  0.87978603668E+01  0.51100000000E-03 0.  1.
         12    1    4    4    0    0 -0.11193953797E+01 -0.32191989431E+02  0.16848473059E+02  0.36351729999E+02  0.00000000000E+00 0. -1.
</event>
<event>
 8    1  0.1248739E-006  0.9118800E+02  0.7816164E-02  0.1184000E+00
        -11   -1    0    0    0    0  0.00000000000E+00  0.00000000000E+00  0.45593999997E+02  0.45594000000E+02  0.51100000000E-03 0.  1.
         11   -1    0    0    0    0 -0.00000000000E+00 -0.00000000000E+00 -0.45593999997E+02  0.45594000000E+02  0.51100000000E-03 0. -1.
         23    2    1    2    0    0  0.00000000000E+00  0.00000000000E+00  0.35527136788E-14  0.91188000000E+02  0.91188000000E+02 0.  0.
    9900012    2    3    3    0    0  0.99075502254E+01 -0.30609447802E+02  0.17907600123E+02  0.54367082190E+02  0.39999995467E+02 0.  0.
         12    1    3    3    0    0 -0.99075502254E+01  0.30609447802E+02 -0.17907600123E+02  0.36820917810E+02  0.00000000000E+00 0. -1.
         11    1    4    4    0    0 -0.91183699425E+01 -0.42103415335E-01  0.41894137353E+01  0.10034820916E+02  0.51100000000E-03 0. -1.
        -11    1    4    4    0    0  0.13141090633E+02 -0.33430822172E+01  0.67485507947E+00  0.13576446198E+02  0.51100000000E-03 0.  1.
         12    1    4    4    0    0  0.58848295352E+01 -0.27224262170E+02  0.13043331308E+02  0.30755815076E+02  0.00000000000E+00 0. -1.
</event>
<event>
 8    1  0.1248739E-006  0.9118800E+02  0.7816164E-02  0.1184000E+00
        -11   -1    0    0    0    0  0.00000000000E+00  0.00000000000E+00  0.45593999997E+02  0.45594000000E+02  0.51100000000E-03 0. -1.
         11   -1    0    0    0    0 -0.00000000000E+00 -0.00000000000E+00 -0.45593999997E+02  0.45594000000E+02  0.51100000000E-03 0.  1.
         23    2    1    2    0    0  0.00000000000E+00  0.00000000000E+00  0.00000000000E+00  0.91188000000E+02  0.91188000000E+02 0.  0.
    9900012    2    3    3    0    0 -0.17202204745E+02 -0.28591462118E+02  0.15569006951E+02  0.54367061235E+02  0.39999947698E+02 0.  0.
        -12    1    3    3    0    0  0.17202204745E+02  0.28591462118E+02 -0.15569006951E+02  0.36820938765E+02  0.00000000000E+00 0.  1.
         11    1    4    4    0    0 -0.18761561199E+02 -0.31164242353E+02  0.15337205974E+02  0.39477032150E+02  0.51100000000E-03 0. -1.
        -11    1    4    4    0    0 -0.40408732146E+01  0.65636442974E+01 -0.13714867375E+01  0.78288606407E+01  0.51100000000E-03 0.  1.
         12    1    4    4    0    0  0.56002296685E+01 -0.39908640620E+01  0.16032877137E+01  0.70611684440E+01  0.00000000000E+00 0. -1.
</event>
<event>
 8    1  0.1248739E-006  0.9118800E+02  0.7816164E-02  0.1184000E+00
        -11   -1    0    0    0    0  0.00000000000E+00  0.00000000000E+00  0.45593999997E+02  0.45594000000E+02  0.51100000000E-03 0. -1.
         11   -1    0    0    0    0 -0.00000000000E+00 -0.00000000000E+00 -0.45593999997E+02  0.45594000000E+02  0.51100000000E-03 0.  1.
         23    2    1    2    0    0  0.00000000000E+00  0.00000000000E+00  0.35527136788E-14  0.91188000000E+02  0.91188000000E+02 0.  0.
    9900012    2    3    3    0    0 -0.10544163210E+02  0.25350983029E+02  0.24534204258E+02  0.54367097011E+02  0.40000029256E+02 0.  0.
        -12    1    3    3    0    0  0.10544163210E+02 -0.25350983029E+02 -0.24534204258E+02  0.36820902989E+02  0.00000000000E+00 0.  1.
         11    1    4    4    0    0 -0.37912498862E+01  0.11994631097E+02  0.26445395597E+02  0.29284871511E+02  0.51100000000E-03 0. -1.
        -11    1    4    4    0    0  0.71746622590E+01  0.39948678833E+01 -0.20621957452E+00  0.82144552291E+01  0.51100000000E-03 0.  1.
        -12    1    4    4    0    0 -0.13927575582E+02  0.93614840488E+01 -0.17049717646E+01  0.16867770271E+02  0.00000000000E+00 0.  1.
</event>
<event>
 8    1  0.1248739E-006  0.9118800E+02  0.7816164E-02  0.1184000E+00
        -11   -1    0    0    0    0  0.00000000000E+00  0.00000000000E+00  0.45593999997E+02  0.45594000000E+02  0.51100000000E-03 0.  1.
         11   -1    0    0    0    0 -0.00000000000E+00 -0.00000000000E+00 -0.45593999997E+02  0.45594000000E+02  0.51100000000E-03 0. -1.
         23    2    1    2    0    0 -0.71054273576E-14  0.00000000000E+00 -0.88817841970E-15  0.91188000000E+02  0.91188000000E+02 0.  0.
    9900012    2    3    3    0    0 -0.22541487729E+02 -0.28731295612E+02 -0.47090957781E+01  0.54367060310E+02  0.39999945589E+02 0.  0.
        -12    1    3    3    0    0  0.22541487729E+02  0.28731295612E+02  0.47090957781E+01  0.36820939690E+02  0.00000000000E+00 0.  1.
         11    1    4    4    0    0 -0.19802570689E+01 -0.16362581704E+02  0.89975049009E+00  0.16506515359E+02  0.51100000000E-03 0. -1.
        -11    1    4    4    0    0 -0.42502831679E+01 -0.16212043446E+02  0.56332091575E+01  0.17681298181E+02  0.51100000000E-03 0.  1.
        -12    1    4    4    0    0 -0.16310947492E+02  0.38433295376E+01 -0.11242055426E+02  0.20179246770E+02  0.00000000000E+00 0.  1.
</event>
<event>
 8    1  0.1248739E-006  0.9118800E+02  0.7816164E-02  0.1184000E+00
        -11   -1    0    0    0    0  0.00000000000E+00  0.00000000000E+00  0.45593999997E+02  0.45594000000E+02  0.51100000000E-03 0.  1.
         11   -1    0    0    0    0 -0.00000000000E+00 -0.00000000000E+00 -0.45593999997E+02  0.45594000000E+02  0.51100000000E-03 0. -1.
         23    2    1    2    0    0 -0.17763568394E-14  0.00000000000E+00  0.00000000000E+00  0.91188000000E+02  0.91188000000E+02 0.  0.
    9900012    2    3    3    0    0  0.41075573705E+01  0.22868490195E+02 -0.28564956780E+02  0.54366856248E+02  0.39999480385E+02 0.  0.
        -12    1    3    3    0    0 -0.41075573705E+01 -0.22868490195E+02  0.28564956780E+02  0.36821143752E+02  0.00000000000E+00 0.  1.
         11    1    4    4    0    0  0.81235852436E+01  0.12900692577E+02 -0.12315928766E+02  0.19598535859E+02  0.51100000000E-03 0. -1.
        -11    1    4    4    0    0 -0.78276204238E+01  0.10514780322E+02  0.43508302065E+01  0.13811660670E+02  0.51100000000E-03 0.  1.
        -12    1    4    4    0    0  0.38115925506E+01 -0.54698270397E+00 -0.20599858221E+02  0.20956659719E+02  0.00000000000E+00 0.  1.
</event>
<event>
 8    1  0.1248739E-006  0.9118800E+02  0.7816164E-02  0.1184000E+00
        -11   -1    0    0    0    0  0.00000000000E+00  0.00000000000E+00  0.45593999997E+02  0.45594000000E+02  0.51100000000E-03 0. -1.
         11   -1    0    0    0    0 -0.00000000000E+00 -0.00000000000E+00 -0.45593999997E+02  0.45594000000E+02  0.51100000000E-03 0.  1.
         23    2    1    2    0    0  0.00000000000E+00  0.17763568394E-14 -0.35527136788E-14  0.91188000000E+02  0.91188000000E+02 0.  0.
    9900012    2    3    3    0    0 -0.21665766585E+02 -0.10697182979E+02  0.27783936224E+02  0.54367051105E+02  0.39999924605E+02 0.  0.
        -12    1    3    3    0    0  0.21665766585E+02  0.10697182979E+02 -0.27783936224E+02  0.36820948895E+02  0.00000000000E+00 0.  1.
         11    1    4    4    0    0 -0.75317117500E+01 -0.14200374927E+02 -0.42123785016E+01  0.16616902926E+02  0.51100000000E-03 0. -1.
        -11    1    4    4    0    0 -0.22142251561E-01  0.57284906522E+01  0.98911083010E+01  0.11430228305E+02  0.51100000000E-03 0.  1.
         12    1    4    4    0    0 -0.14111912584E+02 -0.22252987044E+01  0.22105206424E+02  0.26319919874E+02  0.00000000000E+00 0. -1.
</event>
<event>
 8    1  0.1248739E-006  0.9118800E+02  0.7816164E-02  0.1184000E+00
        -11   -1    0    0    0    0  0.00000000000E+00  0.00000000000E+00  0.45593999997E+02  0.45594000000E+02  0.51100000000E-03 0.  1.
         11   -1    0    0    0    0 -0.00000000000E+00 -0.00000000000E+00 -0.45593999997E+02  0.45594000000E+02  0.51100000000E-03 0. -1.
         23    2    1    2    0    0  0.00000000000E+00  0.17763568394E-14  0.00000000000E+00  0.91188000000E+02  0.91188000000E+02 0.  0.
    9900012    2    3    3    0    0  0.15651131172E+02  0.89327514627E+01 -0.32109597490E+02  0.54367106385E+02  0.40000050626E+02 0.  0.
        -12    1    3    3    0    0 -0.15651131172E+02 -0.89327514627E+01  0.32109597490E+02  0.36820893615E+02  0.00000000000E+00 0.  1.
         11    1    4    4    0    0  0.63585479522E+01  0.20738907730E+01  0.21919111159E+01  0.70382263107E+01  0.51100000000E-03 0. -1.
        -11    1    4    4    0    0  0.66951954765E+01 -0.11319415839E+02 -0.20507655410E+02  0.24362240210E+02  0.51100000000E-03 0.  1.
         12    1    4    4    0    0  0.25973877431E+01  0.18178276529E+02 -0.13793853196E+02  0.22966639864E+02  0.00000000000E+00 0. -1.
</event>
<event>
 8    1  0.1248739E-006  0.9118800E+02  0.7816164E-02  0.1184000E+00
        -11   -1    0    0    0    0  0.00000000000E+00  0.00000000000E+00  0.45593999997E+02  0.45594000000E+02  0.51100000000E-03 0.  1.
         11   -1    0    0    0    0 -0.00000000000E+00 -0.00000000000E+00 -0.45593999997E+02  0.45594000000E+02  0.51100000000E-03 0. -1.
         23    2    1    2    0    0  0.35527136788E-14 -0.17763568394E-14  0.00000000000E+00  0.91188000000E+02  0.91188000000E+02 0.  0.
    9900012    2    3    3    0    0 -0.30143740896E+02 -0.97124644233E+01 -0.18783074432E+02  0.54367068922E+02  0.39999965221E+02 0.  0.
         12    1    3    3    0    0  0.30143740896E+02  0.97124644233E+01  0.18783074432E+02  0.36820931078E+02  0.00000000000E+00 0. -1.
         11    1    4    4    0    0 -0.77229408674E+01  0.27204588586E+01 -0.22701210134E+02  0.24132750648E+02  0.51100000000E-03 0. -1.
        -11    1    4    4    0    0 -0.13885467402E+02 -0.29218495685E+01 -0.45531405421E+01  0.14902164236E+02  0.51100000000E-03 0.  1.
         12    1    4    4    0    0 -0.85353326264E+01 -0.95110737134E+01  0.84712762441E+01  0.15332154037E+02  0.00000000000E+00 0. -1.
</event>
<event>
 8    1  0.1248739E-006  0.9118800E+02  0.7816164E-02  0.1184000E+00
        -11   -1    0    0    0    0  0.00000000000E+00  0.00000000000E+00  0.45593999997E+02  0.45594000000E+02  0.51100000000E-03 0.  1.
         11   -1    0    0    0    0 -0.00000000000E+00 -0.00000000000E+00 -0.45593999997E+02  0.45594000000E+02  0.51100000000E-03 0. -1.
         23    2    1    2    0    0 -0.17763568394E-14  0.00000000000E+00  0.66613381478E-15  0.91188000000E+02  0.91188000000E+02 0.  0.
    9900012    2    3    3    0    0 -0.15504407470E+02  0.33396721809E+02  0.22898418543E+00  0.54367080507E+02  0.39999991631E+02 0.  0.
        -12    1    3    3    0    0  0.15504407470E+02 -0.33396721809E+02 -0.22898418543E+00  0.36820919493E+02  0.00000000000E+00 0.  1.
         11    1    4    4    0    0  0.18590478738E+01  0.25672220585E+01  0.13331618103E+02  0.13703237924E+02  0.51100000000E-03 0. -1.
        -11    1    4    4    0    0 -0.21147035945E+01  0.54373900118E+00  0.25162475260E+01  0.33315349717E+01  0.51100000000E-03 0.  1.
         12    1    4    4    0    0 -0.15248751749E+02  0.30285760749E+02 -0.15618881443E+02  0.37332307612E+02  0.00000000000E+00 0. -1.
</event>
<event>
 8    1  0.1248739E-006  0.9118800E+02  0.7816164E-02  0.1184000E+00
        -11   -1    0    0    0    0  0.00000000000E+00  0.00000000000E+00  0.45593999997E+02  0.45594000000E+02  0.51100000000E-03 0.  1.
         11   -1    0    0    0    0 -0.00000000000E+00 -0.00000000000E+00 -0.45593999997E+02  0.45594000000E+02  0.51100000000E-03 0. -1.
         23    2    1    2    0    0  0.00000000000E+00  0.00000000000E+00  0.00000000000E+00  0.91188000000E+02  0.91188000000E+02 0.  0.
    9900012    2    3    3    0    0  0.22871732024E+02  0.19104937940E+02 -0.21625574056E+02  0.54367078872E+02  0.39999987904E+02 0.  0.
        -12    1    3    3    0    0 -0.22871732024E+02 -0.19104937940E+02  0.21625574056E+02  0.36820921128E+02  0.00000000000E+00 0.  1.
         11    1    4    4    0    0  0.20840683018E+02  0.80666696113E+01 -0.19039731329E+00  0.22348187369E+02  0.51100000000E-03 0. -1.
        -11    1    4    4    0    0  0.91737229445E+01 -0.10905564524E+01 -0.54761483163E+01  0.10739399736E+02  0.51100000000E-03 0.  1.
        -12    1    4    4    0    0 -0.71426739383E+01  0.12128824781E+02 -0.15959028426E+02  0.21279491767E+02  0.00000000000E+00 0.  1.
</event>
<event>
 8    1  0.1248739E-006  0.9118800E+02  0.7816164E-02  0.1184000E+00
        -11   -1    0    0    0    0  0.00000000000E+00  0.00000000000E+00  0.45593999997E+02  0.45594000000E+02  0.51100000000E-03 0.  1.
         11   -1    0    0    0    0 -0.00000000000E+00 -0.00000000000E+00 -0.45593999997E+02  0.45594000000E+02  0.51100000000E-03 0. -1.
         23    2    1    2    0    0  0.00000000000E+00 -0.71054273576E-14 -0.35527136788E-14  0.91188000000E+02  0.91188000000E+02 0.  0.
    9900012    2    3    3    0    0 -0.84861109217E+01 -0.27528759430E+02 -0.22933251833E+02  0.54367072337E+02  0.39999973007E+02 0.  0.
        -12    1    3    3    0    0  0.84861109217E+01  0.27528759430E+02  0.22933251833E+02  0.36820927663E+02  0.00000000000E+00 0.  1.
         11    1    4    4    0    0  0.78282595579E-01  0.68686712889E+01 -0.24904934585E+01  0.73066634908E+01  0.51100000000E-03 0. -1.
        -11    1    4    4    0    0 -0.10500917303E+01 -0.25747863421E+01  0.49386298597E+01  0.56676522919E+01  0.51100000000E-03 0.  1.
         12    1    4    4    0    0 -0.75143017869E+01 -0.31822644377E+02 -0.25381388234E+02  0.41392756554E+02  0.00000000000E+00 0. -1.
</event>
<event>
 8    1  0.1248739E-006  0.9118800E+02  0.7816164E-02  0.1184000E+00
        -11   -1    0    0    0    0  0.00000000000E+00  0.00000000000E+00  0.45593999997E+02  0.45594000000E+02  0.51100000000E-03 0. -1.
         11   -1    0    0    0    0 -0.00000000000E+00 -0.00000000000E+00 -0.45593999997E+02  0.45594000000E+02  0.51100000000E-03 0.  1.
         23    2    1    2    0    0  0.17763568394E-14  0.88817841970E-15 -0.71054273576E-14  0.91188000000E+02  0.91188000000E+02 0.  0.
    9900012    2    3    3    0    0  0.85270198727E+01  0.33688269472E+01 -0.35661196124E+02  0.54367082413E+02  0.39999995978E+02 0.  0.
         12    1    3    3    0    0 -0.85270198727E+01 -0.33688269472E+01  0.35661196124E+02  0.36820917587E+02  0.00000000000E+00 0. -1.
         11    1    4    4    0    0 -0.12748830166E+02  0.39874824920E+01 -0.14273505035E+02  0.19549057099E+02  0.51100000000E-03 0. -1.
        -11    1    4    4    0    0  0.13536800711E+00 -0.51709937646E+01 -0.13721155305E+01  0.53516541649E+01  0.51100000000E-03 0.  1.
        -12    1    4    4    0    0  0.21140482031E+02  0.45523382198E+01 -0.20015575559E+02  0.29466371150E+02  0.00000000000E+00 0.  1.
</event>
<event>
 8    1  0.1248739E-006  0.9118800E+02  0.7816164E-02  0.1184000E+00
        -11   -1    0    0    0    0  0.00000000000E+00  0.00000000000E+00  0.45593999997E+02  0.45594000000E+02  0.51100000000E-03 0. -1.
         11   -1    0    0    0    0 -0.00000000000E+00 -0.00000000000E+00 -0.45593999997E+02  0.45594000000E+02  0.51100000000E-03 0.  1.
         23    2    1    2    0    0 -0.88817841970E-15  0.17763568394E-14  0.71054273576E-14  0.91188000000E+02  0.91188000000E+02 0.  0.
    9900012    2    3    3    0    0  0.31648370667E+01 -0.91883069303E+01 -0.35515315616E+02  0.54367098039E+02  0.40000031600E+02 0.  0.
         12    1    3    3    0    0 -0.31648370667E+01  0.91883069303E+01  0.35515315616E+02  0.36820901961E+02  0.00000000000E+00 0. -1.
         11    1    4    4    0    0  0.10009023702E+02  0.10058977410E+02 -0.26550532628E+02  0.30104723302E+02  0.51100000000E-03 0. -1.
        -11    1    4    4    0    0 -0.75333652551E+00 -0.13640473330E+02 -0.82358321750E+01  0.15951769822E+02  0.51100000000E-03 0.  1.
         12    1    4    4    0    0 -0.60908501093E+01 -0.56068110103E+01 -0.72895081244E+00  0.83106049145E+01  0.00000000000E+00 0. -1.
</event>
<event>
 8    1  0.1248739E-006  0.9118800E+02  0.7816164E-02  0.1184000E+00
        -11   -1    0    0    0    0  0.00000000000E+00  0.00000000000E+00  0.45593999997E+02  0.45594000000E+02  0.51100000000E-03 0.  1.
         11   -1    0    0    0    0 -0.00000000000E+00 -0.00000000000E+00 -0.45593999997E+02  0.45594000000E+02  0.51100000000E-03 0. -1.
         23    2    1    2    0    0  0.88817841970E-15  0.00000000000E+00  0.71054273576E-14  0.91188000000E+02  0.91188000000E+02 0.  0.
    9900012    2    3    3    0    0 -0.46346202545E+01 -0.18209571119E+02  0.31665652891E+02  0.54367058156E+02  0.39999940678E+02 0.  0.
         12    1    3    3    0    0  0.46346202545E+01  0.18209571119E+02 -0.31665652891E+02  0.36820941844E+02  0.00000000000E+00 0. -1.
         11    1    4    4    0    0  0.33355939253E+01 -0.63597722703E+01 -0.80042273303E+01  0.10753629414E+02  0.51100000000E-03 0. -1.
        -11    1    4    4    0    0  0.17901056539E+01  0.17879995959E+00  0.12565005897E+01  0.21943658926E+01  0.51100000000E-03 0.  1.
         12    1    4    4    0    0 -0.97603198337E+01 -0.12028598809E+02  0.38413379632E+02  0.41419062849E+02  0.00000000000E+00 0. -1.
</event>
<event>
 8    1  0.1248739E-006  0.9118800E+02  0.7816164E-02  0.1184000E+00
        -11   -1    0    0    0    0  0.00000000000E+00  0.00000000000E+00  0.45593999997E+02  0.45594000000E+02  0.51100000000E-03 0. -1.
         11   -1    0    0    0    0 -0.00000000000E+00 -0.00000000000E+00 -0.45593999997E+02  0.45594000000E+02  0.51100000000E-03 0.  1.
         23    2    1    2    0    0  0.00000000000E+00  0.00000000000E+00  0.00000000000E+00  0.91188000000E+02  0.91188000000E+02 0.  0.
    9900012    2    3    3    0    0 -0.19463572953E+02 -0.16868733815E+02 -0.26313366902E+02  0.54367107420E+02  0.40000052986E+02 0.  0.
        -12    1    3    3    0    0  0.19463572953E+02  0.16868733815E+02  0.26313366902E+02  0.36820892580E+02  0.00000000000E+00 0.  1.
         11    1    4    4    0    0 -0.13148037688E+02 -0.33639732283E+01  0.15005528112E+01  0.13654261969E+02  0.51100000000E-03 0. -1.
        -11    1    4    4    0    0  0.87289680400E+01 -0.91618985822E+01 -0.63896518217E+01  0.14176139084E+02  0.51100000000E-03 0.  1.
         12    1    4    4    0    0 -0.15044503305E+02 -0.43428620047E+01 -0.21424267892E+02  0.26536706367E+02  0.00000000000E+00 0. -1.
</event>
<event>
 8    1  0.1248739E-006  0.9118800E+02  0.7816164E-02  0.1184000E+00
        -11   -1    0    0    0    0  0.00000000000E+00  0.00000000000E+00  0.45593999997E+02  0.45594000000E+02  0.51100000000E-03 0.  1.
         11   -1    0    0    0    0 -0.00000000000E+00 -0.00000000000E+00 -0.45593999997E+02  0.45594000000E+02  0.51100000000E-03 0. -1.
         23    2    1    2    0    0  0.00000000000E+00  0.00000000000E+00  0.00000000000E+00  0.91188000000E+02  0.91188000000E+02 0.  0.
    9900012    2    3    3    0    0  0.35535198645E+02  0.95542829927E+01 -0.13204817727E+01  0.54367104596E+02  0.40000046547E+02 0.  0.
        -12    1    3    3    0    0 -0.35535198645E+02 -0.95542829927E+01  0.13204817727E+01  0.36820895404E+02  0.00000000000E+00 0.  1.
         11    1    4    4    0    0  0.22397116209E+02  0.21954820820E+02 -0.43664987914E+01  0.31665616742E+02  0.51100000000E-03 0. -1.
        -11    1    4    4    0    0 -0.22120876442E+01 -0.28832473389E+00 -0.14202608152E+01  0.26445422935E+01  0.51100000000E-03 0.  1.
         12    1    4    4    0    0  0.15350170080E+02 -0.12112213093E+02  0.44662778340E+01  0.20056945560E+02  0.00000000000E+00 0. -1.
</event>
<event>
 8    1  0.1248739E-006  0.9118800E+02  0.7816164E-02  0.1184000E+00
        -11   -1    0    0    0    0  0.00000000000E+00  0.00000000000E+00  0.45593999997E+02  0.45594000000E+02  0.51100000000E-03 0. -1.
         11   -1    0    0    0    0 -0.00000000000E+00 -0.00000000000E+00 -0.45593999997E+02  0.45594000000E+02  0.51100000000E-03 0.  1.
         23    2    1    2    0    0  0.00000000000E+00 -0.35527136788E-14  0.35527136788E-14  0.91188000000E+02  0.91188000000E+02 0.  0.
    9900012    2    3    3    0    0  0.16609299365E+02  0.16386405139E+02 -0.28485295802E+02  0.54366875958E+02  0.39999525319E+02 0.  0.
         12    1    3    3    0    0 -0.16609299365E+02 -0.16386405139E+02  0.28485295802E+02  0.36821124042E+02  0.00000000000E+00 0. -1.
         11    1    4    4    0    0  0.14306707528E+02  0.43089276499E+01  0.46907136660E+01  0.15660508700E+02  0.51100000000E-03 0. -1.
        -11    1    4    4    0    0  0.20394991651E+01  0.49776338055E+01 -0.30722593446E+02  0.31189968635E+02  0.51100000000E-03 0.  1.
         12    1    4    4    0    0  0.26309267186E+00  0.70998436833E+01 -0.24534160218E+01  0.75163986228E+01  0.00000000000E+00 0. -1.
</event>
<event>
 8    1  0.1248739E-006  0.9118800E+02  0.7816164E-02  0.1184000E+00
        -11   -1    0    0    0    0  0.00000000000E+00  0.00000000000E+00  0.45593999997E+02  0.45594000000E+02  0.51100000000E-03 0.  1.
         11   -1    0    0    0    0 -0.00000000000E+00 -0.00000000000E+00 -0.45593999997E+02  0.45594000000E+02  0.51100000000E-03 0. -1.
         23    2    1    2    0    0  0.00000000000E+00  0.00000000000E+00  0.00000000000E+00  0.91188000000E+02  0.91188000000E+02 0.  0.
    9900012    2    3    3    0    0 -0.13401884122E+02 -0.32281727783E+02  0.11578423317E+02  0.54367077508E+02  0.39999984794E+02 0.  0.
         12    1    3    3    0    0  0.13401884122E+02  0.32281727783E+02 -0.11578423317E+02  0.36820922492E+02  0.00000000000E+00 0. -1.
         11    1    4    4    0    0 -0.86443414326E+01 -0.33457920739E+01 -0.18894385365E+00  0.92711737901E+01  0.51100000000E-03 0. -1.
        -11    1    4    4    0    0 -0.10026578305E+02 -0.77924684064E+01  0.18366016464E+02  0.22328578042E+02  0.51100000000E-03 0.  1.
         12    1    4    4    0    0  0.52690356157E+01 -0.21143467303E+02 -0.65986492936E+01  0.22767325675E+02  0.00000000000E+00 0. -1.
</event>
<event>
 8    1  0.1248739E-006  0.9118800E+02  0.7816164E-02  0.1184000E+00
        -11   -1    0    0    0    0  0.00000000000E+00  0.00000000000E+00  0.45593999997E+02  0.45594000000E+02  0.51100000000E-03 0. -1.
         11   -1    0    0    0    0 -0.00000000000E+00 -0.00000000000E+00 -0.45593999997E+02  0.45594000000E+02  0.51100000000E-03 0.  1.
         23    2    1    2    0    0  0.00000000000E+00  0.00000000000E+00  0.00000000000E+00  0.91188000000E+02  0.91188000000E+02 0.  0.
    9900012    2    3    3    0    0 -0.22276597848E+02 -0.22031536435E+02  0.19342809456E+02  0.54367086282E+02  0.40000004798E+02 0.  0.
        -12    1    3    3    0    0  0.22276597848E+02  0.22031536435E+02 -0.19342809456E+02  0.36820913718E+02  0.00000000000E+00 0.  1.
         11    1    4    4    0    0 -0.33834359044E+01 -0.11935547312E+00  0.10239211213E+02  0.10784402198E+02  0.51100000000E-03 0. -1.
        -11    1    4    4    0    0 -0.12326219192E+02 -0.91099029462E+01  0.20239616385E+02  0.25388345416E+02  0.51100000000E-03 0.  1.
        -12    1    4    4    0    0 -0.65669427520E+01 -0.12802278016E+02 -0.11136018143E+02  0.18194338668E+02  0.00000000000E+00 0.  1.
</event>
<event>
 8    1  0.1248739E-006  0.9118800E+02  0.7816164E-02  0.1184000E+00
        -11   -1    0    0    0    0  0.00000000000E+00  0.00000000000E+00  0.45593999997E+02  0.45594000000E+02  0.51100000000E-03 0.  1.
         11   -1    0    0    0    0 -0.00000000000E+00 -0.00000000000E+00 -0.45593999997E+02  0.45594000000E+02  0.51100000000E-03 0. -1.
         23    2    1    2    0    0  0.44408920985E-15  0.00000000000E+00  0.71054273576E-14  0.91188000000E+02  0.91188000000E+02 0.  0.
    9900012    2    3    3    0    0  0.13729205870E+01 -0.79603506696E+01  0.35923917387E+02  0.54367082926E+02  0.39999997147E+02 0.  0.
         12    1    3    3    0    0 -0.13729205870E+01  0.79603506696E+01 -0.35923917387E+02  0.36820917074E+02  0.00000000000E+00 0. -1.
         11    1    4    4    0    0 -0.92785794907E+01 -0.13939958868E+02  0.21128229726E+02  0.26959536016E+02  0.51100000000E-03 0. -1.
        -11    1    4    4    0    0  0.60813403260E+00  0.26919188664E+01  0.16477289343E+02  0.16706804558E+02  0.51100000000E-03 0.  1.
         12    1    4    4    0    0  0.10043366045E+02  0.32876893317E+01 -0.16816016827E+01  0.10700742352E+02  0.00000000000E+00 0. -1.
</event>
<event>
 8    1  0.1248739E-006  0.9118800E+02  0.7816164E-02  0.1184000E+00
        -11   -1    0    0    0    0  0.00000000000E+00  0.00000000000E+00  0.45593999997E+02  0.45594000000E+02  0.51100000000E-03 0. -1.
         11   -1    0    0    0    0 -0.00000000000E+00 -0.00000000000E+00 -0.45593999997E+02  0.45594000000E+02  0.51100000000E-03 0.  1.
         23    2    1    2    0    0  0.35527136788E-14  0.00000000000E+00 -0.88817841970E-15  0.91188000000E+02  0.91188000000E+02 0.  0.
    9900012    2    3    3    0    0  0.31759466767E+02 -0.17905701466E+02 -0.51481389551E+01  0.54367065614E+02  0.39999957681E+02 0.  0.
        -12    1    3    3    0    0 -0.31759466767E+02  0.17905701466E+02  0.51481389551E+01  0.36820934386E+02  0.00000000000E+00 0.  1.
         11    1    4    4    0    0 -0.35702704383E+01  0.53048353936E+01 -0.46803179130E+01  0.79242340692E+01  0.51100000000E-03 0. -1.
        -11    1    4    4    0    0  0.52444486855E+01 -0.12211867873E+02  0.44908014216E+01  0.14028587121E+02  0.51100000000E-03 0.  1.
        -12    1    4    4    0    0  0.30085288520E+02 -0.10998668987E+02 -0.49586224637E+01  0.32414244424E+02  0.00000000000E+00 0.  1.
</event>
<event>
 8    1  0.1248739E-006  0.9118800E+02  0.7816164E-02  0.1184000E+00
        -11   -1    0    0    0    0  0.00000000000E+00  0.00000000000E+00  0.45593999997E+02  0.45594000000E+02  0.51100000000E-03 0.  1.
         11   -1    0    0    0    0 -0.00000000000E+00 -0.00000000000E+00 -0.45593999997E+02  0.45594000000E+02  0.51100000000E-03 0. -1.
         23    2    1    2    0    0  0.00000000000E+00  0.00000000000E+00  0.00000000000E+00  0.91188000000E+02  0.91188000000E+02 0.  0.
    9900012    2    3    3    0    0 -0.13868465061E+02  0.30471697124E+02  0.15327054266E+02  0.54367119494E+02  0.40000080510E+02 0.  0.
         12    1    3    3    0    0  0.13868465061E+02 -0.30471697124E+02 -0.15327054266E+02  0.36820880506E+02  0.00000000000E+00 0. -1.
         11    1    4    4    0    0 -0.37086953291E+01  0.16319458030E+01 -0.87112461722E+01  0.96074699209E+01  0.51100000000E-03 0. -1.
        -11    1    4    4    0    0 -0.10935889511E+02  0.30145639759E+02  0.14661586957E+02  0.35260677932E+02  0.51100000000E-03 0.  1.
        -12    1    4    4    0    0  0.77611977889E+00 -0.13058884381E+01  0.93767134816E+01  0.94989716412E+01  0.00000000000E+00 0.  1.
</event>
<event>
 8    1  0.1248739E-006  0.9118800E+02  0.7816164E-02  0.1184000E+00
        -11   -1    0    0    0    0  0.00000000000E+00  0.00000000000E+00  0.45593999997E+02  0.45594000000E+02  0.51100000000E-03 0. -1.
         11   -1    0    0    0    0 -0.00000000000E+00 -0.00000000000E+00 -0.45593999997E+02  0.45594000000E+02  0.51100000000E-03 0.  1.
         23    2    1    2    0    0  0.00000000000E+00 -0.17763568394E-14  0.00000000000E+00  0.91188000000E+02  0.91188000000E+02 0.  0.
    9900012    2    3    3    0    0 -0.35574124368E+02 -0.66566408125E+01  0.67787475680E+01  0.54367073748E+02  0.39999976223E+02 0.  0.
        -12    1    3    3    0    0  0.35574124368E+02  0.66566408125E+01 -0.67787475680E+01  0.36820926252E+02  0.00000000000E+00 0.  1.
         11    1    4    4    0    0 -0.22137841137E+02  0.17484271910E+01  0.65997688400E+01  0.23166742473E+02  0.51100000000E-03 0. -1.
        -11    1    4    4    0    0 -0.50604702220E+01 -0.15757442401E+02  0.71782261687E+01  0.18039741713E+02  0.51100000000E-03 0.  1.
         12    1    4    4    0    0 -0.83758130098E+01  0.73523743975E+01 -0.69992474406E+01  0.13160589561E+02  0.00000000000E+00 0. -1.
</event>
<event>
 8    1  0.1248739E-006  0.9118800E+02  0.7816164E-02  0.1184000E+00
        -11   -1    0    0    0    0  0.00000000000E+00  0.00000000000E+00  0.45593999997E+02  0.45594000000E+02  0.51100000000E-03 0. -1.
         11   -1    0    0    0    0 -0.00000000000E+00 -0.00000000000E+00 -0.45593999997E+02  0.45594000000E+02  0.51100000000E-03 0.  1.
         23    2    1    2    0    0  0.00000000000E+00 -0.35527136788E-14  0.17763568394E-14  0.91188000000E+02  0.91188000000E+02 0.  0.
    9900012    2    3    3    0    0 -0.26122799202E+02  0.24493464082E+02 -0.85702852228E+01  0.54367079185E+02  0.39999988617E+02 0.  0.
        -12    1    3    3    0    0  0.26122799202E+02 -0.24493464082E+02  0.85702852228E+01  0.36820920815E+02  0.00000000000E+00 0.  1.
         11    1    4    4    0    0 -0.12125405425E+02  0.13183518904E+02 -0.41738053420E+01  0.18391608921E+02  0.51100000000E-03 0. -1.
        -11    1    4    4    0    0 -0.79006919567E+01  0.77978769218E+01 -0.17719025798E+02  0.20909129426E+02  0.51100000000E-03 0.  1.
         12    1    4    4    0    0 -0.60967018208E+01  0.35120682561E+01  0.13322545917E+02  0.15066340837E+02  0.00000000000E+00 0. -1.
</event>
<event>
 8    1  0.1248739E-006  0.9118800E+02  0.7816164E-02  0.1184000E+00
        -11   -1    0    0    0    0  0.00000000000E+00  0.00000000000E+00  0.45593999997E+02  0.45594000000E+02  0.51100000000E-03 0.  1.
         11   -1    0    0    0    0 -0.00000000000E+00 -0.00000000000E+00 -0.45593999997E+02  0.45594000000E+02  0.51100000000E-03 0. -1.
         23    2    1    2    0    0  0.00000000000E+00  0.00000000000E+00 -0.17763568394E-14  0.91188000000E+02  0.91188000000E+02 0.  0.
    9900012    2    3    3    0    0  0.34659972159E+02  0.71066306919E+01  0.10196204361E+02  0.54367075878E+02  0.39999981079E+02 0.  0.
         12    1    3    3    0    0 -0.34659972159E+02 -0.71066306919E+01 -0.10196204361E+02  0.36820924122E+02  0.00000000000E+00 0. -1.
         11    1    4    4    0    0  0.94879302131E+01 -0.78725996468E+01 -0.52351821244E+01  0.13394244177E+02  0.51100000000E-03 0. -1.
        -11    1    4    4    0    0  0.85219832115E+01  0.10559491660E+01  0.17171305855E+02  0.19198775261E+02  0.51100000000E-03 0.  1.
        -12    1    4    4    0    0  0.16650058734E+02  0.13923281173E+02 -0.17399193691E+01  0.21774056441E+02  0.00000000000E+00 0.  1.
</event>
<event>
 8    1  0.1248739E-006  0.9118800E+02  0.7816164E-02  0.1184000E+00
        -11   -1    0    0    0    0  0.00000000000E+00  0.00000000000E+00  0.45593999997E+02  0.45594000000E+02  0.51100000000E-03 0. -1.
         11   -1    0    0    0    0 -0.00000000000E+00 -0.00000000000E+00 -0.45593999997E+02  0.45594000000E+02  0.51100000000E-03 0.  1.
         23    2    1    2    0    0  0.17763568394E-14  0.00000000000E+00  0.00000000000E+00  0.91188000000E+02  0.91188000000E+02 0.  0.
    9900012    2    3    3    0    0  0.15841957145E+02  0.10878860646E+02 -0.31408232833E+02  0.54366887783E+02  0.39999552277E+02 0.  0.
         12    1    3    3    0    0 -0.15841957145E+02 -0.10878860646E+02  0.31408232833E+02  0.36821112217E+02  0.00000000000E+00 0. -1.
         11    1    4    4    0    0 -0.22841659543E+01 -0.20042182718E+01  0.43385449439E+01  0.52969120702E+01  0.51100000000E-03 0. -1.
        -11    1    4    4    0    0 -0.42342112164E+01  0.52065292769E+01 -0.18856049871E+02  0.20014672337E+02  0.51100000000E-03 0.  1.
        -12    1    4    4    0    0  0.22360334316E+02  0.76765496408E+01 -0.16890727906E+02  0.29055303377E+02  0.00000000000E+00 0.  1.
</event>
<event>
 8    1  0.1248739E-006  0.9118800E+02  0.7816164E-02  0.1184000E+00
        -11   -1    0    0    0    0  0.00000000000E+00  0.00000000000E+00  0.45593999997E+02  0.45594000000E+02  0.51100000000E-03 0.  1.
         11   -1    0    0    0    0 -0.00000000000E+00 -0.00000000000E+00 -0.45593999997E+02  0.45594000000E+02  0.51100000000E-03 0. -1.
         23    2    1    2    0    0 -0.17763568394E-14  0.00000000000E+00 -0.17763568394E-14  0.91188000000E+02  0.91188000000E+02 0.  0.
    9900012    2    3    3    0    0  0.11240091790E+02 -0.33544819010E+02 -0.10207086282E+02  0.54367093489E+02  0.40000021228E+02 0.  0.
        -12    1    3    3    0    0 -0.11240091790E+02  0.33544819010E+02  0.10207086282E+02  0.36820906511E+02  0.00000000000E+00 0.  1.
         11    1    4    4    0    0  0.16983716791E+02 -0.35451174548E+02 -0.14121746593E+02  0.41769081148E+02  0.51100000000E-03 0. -1.
        -11    1    4    4    0    0  0.12406775834E+01  0.33973316643E+01 -0.12034415330E+01  0.38117469863E+01  0.51100000000E-03 0.  1.
        -12    1    4    4    0    0 -0.69843025845E+01 -0.14909761264E+01  0.51181018435E+01  0.87862653546E+01  0.00000000000E+00 0.  1.
</event>
<event>
 8    1  0.1248739E-006  0.9118800E+02  0.7816164E-02  0.1184000E+00
        -11   -1    0    0    0    0  0.00000000000E+00  0.00000000000E+00  0.45593999997E+02  0.45594000000E+02  0.51100000000E-03 0. -1.
         11   -1    0    0    0    0 -0.00000000000E+00 -0.00000000000E+00 -0.45593999997E+02  0.45594000000E+02  0.51100000000E-03 0.  1.
         23    2    1    2    0    0  0.17763568394E-14 -0.35527136788E-14  0.00000000000E+00  0.91188000000E+02  0.91188000000E+02 0.  0.
    9900012    2    3    3    0    0  0.98704084651E+01 -0.29764971748E+02 -0.19297728368E+02  0.54367070808E+02  0.39999969520E+02 0.  0.
         12    1    3    3    0    0 -0.98704084651E+01  0.29764971748E+02  0.19297728368E+02  0.36820929192E+02  0.00000000000E+00 0. -1.
         11    1    4    4    0    0 -0.34652266298E+01  0.42045950399E+01 -0.15475486855E+01  0.56640376270E+01  0.51100000000E-03 0. -1.
        -11    1    4    4    0    0  0.21001451059E+02 -0.26752557281E+02 -0.17316170532E+02  0.38165560782E+02  0.51100000000E-03 0.  1.
        -12    1    4    4    0    0 -0.76658159637E+01 -0.72170095068E+01 -0.43400914988E+00  0.10537472399E+02  0.00000000000E+00 0.  1.
</event>
<event>
 8    1  0.1248739E-006  0.9118800E+02  0.7816164E-02  0.1184000E+00
        -11   -1    0    0    0    0  0.00000000000E+00  0.00000000000E+00  0.45593999997E+02  0.45594000000E+02  0.51100000000E-03 0. -1.
         11   -1    0    0    0    0 -0.00000000000E+00 -0.00000000000E+00 -0.45593999997E+02  0.45594000000E+02  0.51100000000E-03 0.  1.
         23    2    1    2    0    0  0.00000000000E+00  0.44408920985E-15  0.00000000000E+00  0.91188000000E+02  0.91188000000E+02 0.  0.
    9900012    2    3    3    0    0 -0.32140753446E+02  0.33218985920E+01  0.17655445059E+02  0.54367112144E+02  0.40000063754E+02 0.  0.
        -12    1    3    3    0    0  0.32140753446E+02 -0.33218985920E+01 -0.17655445059E+02  0.36820887856E+02  0.00000000000E+00 0.  1.
         11    1    4    4    0    0 -0.10901972076E+02 -0.16582114786E+02  0.63178014448E+01  0.20826284865E+02  0.51100000000E-03 0. -1.
        -11    1    4    4    0    0 -0.38660143846E+01  0.79781842089E+01 -0.13139388662E+01  0.89623616362E+01  0.51100000000E-03 0.  1.
         12    1    4    4    0    0 -0.17372766986E+02  0.11925829169E+02  0.12651582480E+02  0.24578465643E+02  0.00000000000E+00 0. -1.
</event>
<event>
 8    1  0.1248739E-006  0.9118800E+02  0.7816164E-02  0.1184000E+00
        -11   -1    0    0    0    0  0.00000000000E+00  0.00000000000E+00  0.45593999997E+02  0.45594000000E+02  0.51100000000E-03 0. -1.
         11   -1    0    0    0    0 -0.00000000000E+00 -0.00000000000E+00 -0.45593999997E+02  0.45594000000E+02  0.51100000000E-03 0.  1.
         23    2    1    2    0    0  0.00000000000E+00  0.00000000000E+00  0.35527136788E-14  0.91188000000E+02  0.91188000000E+02 0.  0.
    9900012    2    3    3    0    0 -0.12723116307E+02 -0.18876655902E+02  0.28940910564E+02  0.54367053096E+02  0.39999929143E+02 0.  0.
        -12    1    3    3    0    0  0.12723116307E+02  0.18876655902E+02 -0.28940910564E+02  0.36820946904E+02  0.00000000000E+00 0.  1.
         11    1    4    4    0    0  0.46897854586E+01 -0.14522029060E+02  0.98569711515E+01  0.18167093774E+02  0.51100000000E-03 0. -1.
        -11    1    4    4    0    0  0.49225800300E+01 -0.66773695053E+01  0.55472580239E+01  0.99795355356E+01  0.51100000000E-03 0.  1.
        -12    1    4    4    0    0 -0.22335481795E+02  0.23227426629E+01  0.13536681389E+02  0.26220423786E+02  0.00000000000E+00 0.  1.
</event>
<event>
 8    1  0.1248739E-006  0.9118800E+02  0.7816164E-02  0.1184000E+00
        -11   -1    0    0    0    0  0.00000000000E+00  0.00000000000E+00  0.45593999997E+02  0.45594000000E+02  0.51100000000E-03 0.  1.
         11   -1    0    0    0    0 -0.00000000000E+00 -0.00000000000E+00 -0.45593999997E+02  0.45594000000E+02  0.51100000000E-03 0. -1.
         23    2    1    2    0    0  0.17763568394E-14  0.00000000000E+00 -0.35527136788E-14  0.91188000000E+02  0.91188000000E+02 0.  0.
    9900012    2    3    3    0    0 -0.64356436023E+01  0.18707888602E+02  0.31054405610E+02  0.54367099518E+02  0.40000034971E+02 0.  0.
         12    1    3    3    0    0  0.64356436023E+01 -0.18707888602E+02 -0.31054405610E+02  0.36820900482E+02  0.00000000000E+00 0. -1.
         11    1    4    4    0    0  0.49051940525E+01  0.35427740939E+01  0.81399731262E-01  0.60513472178E+01  0.51100000000E-03 0. -1.
        -11    1    4    4    0    0  0.46983665163E+00 -0.48200542340E+00  0.28555079525E+02  0.28563011792E+02  0.51100000000E-03 0.  1.
         12    1    4    4    0    0 -0.11810674307E+02  0.15647119932E+02  0.24179263535E+01  0.19752740508E+02  0.00000000000E+00 0. -1.
</event>
<event>
 8    1  0.1248739E-006  0.9118800E+02  0.7816164E-02  0.1184000E+00
        -11   -1    0    0    0    0  0.00000000000E+00  0.00000000000E+00  0.45593999997E+02  0.45594000000E+02  0.51100000000E-03 0. -1.
         11   -1    0    0    0    0 -0.00000000000E+00 -0.00000000000E+00 -0.45593999997E+02  0.45594000000E+02  0.51100000000E-03 0.  1.
         23    2    1    2    0    0 -0.17763568394E-14  0.00000000000E+00  0.00000000000E+00  0.91188000000E+02  0.91188000000E+02 0.  0.
    9900012    2    3    3    0    0  0.15136910757E+02 -0.33231759788E+02  0.47226985728E+01  0.54367084643E+02  0.40000001061E+02 0.  0.
        -12    1    3    3    0    0 -0.15136910757E+02  0.33231759788E+02 -0.47226985728E+01  0.36820915357E+02  0.00000000000E+00 0.  1.
         11    1    4    4    0    0 -0.80572443348E-01 -0.77507562887E+01  0.67331598804E+01  0.10267237077E+02  0.51100000000E-03 0. -1.
        -11    1    4    4    0    0 -0.76367106550E+01 -0.84863944805E+00  0.57702990199E+01  0.96091565489E+01  0.51100000000E-03 0.  1.
        -12    1    4    4    0    0  0.22854193855E+02 -0.24632364052E+02 -0.77807603275E+01  0.34490691017E+02  0.00000000000E+00 0.  1.
</event>
<event>
 8    1  0.1248739E-006  0.9118800E+02  0.7816164E-02  0.1184000E+00
        -11   -1    0    0    0    0  0.00000000000E+00  0.00000000000E+00  0.45593999997E+02  0.45594000000E+02  0.51100000000E-03 0.  1.
         11   -1    0    0    0    0 -0.00000000000E+00 -0.00000000000E+00 -0.45593999997E+02  0.45594000000E+02  0.51100000000E-03 0. -1.
         23    2    1    2    0    0 -0.69388939039E-15 -0.35527136788E-14 -0.35527136788E-14  0.91188000000E+02  0.91188000000E+02 0.  0.
    9900012    2    3    3    0    0  0.62593711399E-01  0.19683068623E+02 -0.31118365734E+02  0.54367084825E+02  0.40000001475E+02 0.  0.
        -12    1    3    3    0    0 -0.62593711399E-01 -0.19683068623E+02  0.31118365734E+02  0.36820915175E+02  0.00000000000E+00 0.  1.
         11    1    4    4    0    0 -0.93746889419E+01 -0.32690082405E+00  0.55124779611E+01  0.10880214632E+02  0.51100000000E-03 0. -1.
        -11    1    4    4    0    0 -0.71973879384E+00  0.19219354351E+01 -0.10624294569E+01  0.23109773603E+01  0.51100000000E-03 0.  1.
         12    1    4    4    0    0  0.10157021447E+02  0.18088034012E+02 -0.35568414238E+02  0.41175892832E+02  0.00000000000E+00 0. -1.
</event>
<event>
 8    1  0.1248739E-006  0.9118800E+02  0.7816164E-02  0.1184000E+00
        -11   -1    0    0    0    0  0.00000000000E+00  0.00000000000E+00  0.45593999997E+02  0.45594000000E+02  0.51100000000E-03 0. -1.
         11   -1    0    0    0    0 -0.00000000000E+00 -0.00000000000E+00 -0.45593999997E+02  0.45594000000E+02  0.51100000000E-03 0.  1.
         23    2    1    2    0    0 -0.35527136788E-14  0.00000000000E+00  0.00000000000E+00  0.91188000000E+02  0.91188000000E+02 0.  0.
    9900012    2    3    3    0    0  0.21256069617E+02  0.22559244882E+02  0.19875576165E+02  0.54367101679E+02  0.40000039898E+02 0.  0.
         12    1    3    3    0    0 -0.21256069617E+02 -0.22559244882E+02 -0.19875576165E+02  0.36820898321E+02  0.00000000000E+00 0. -1.
         11    1    4    4    0    0 -0.16618202817E+01  0.71075414321E+01 -0.54262708906E+01  0.90952299529E+01  0.51100000000E-03 0. -1.
        -11    1    4    4    0    0  0.18293402553E+02  0.22570153733E+02  0.19582122842E+02  0.35035980816E+02  0.51100000000E-03 0.  1.
        -12    1    4    4    0    0  0.46244873463E+01 -0.71184502828E+01  0.57197242143E+01  0.10235890911E+02  0.00000000000E+00 0.  1.
</event>
<event>
 8    1  0.1248739E-006  0.9118800E+02  0.7816164E-02  0.1184000E+00
        -11   -1    0    0    0    0  0.00000000000E+00  0.00000000000E+00  0.45593999997E+02  0.45594000000E+02  0.51100000000E-03 0.  1.
         11   -1    0    0    0    0 -0.00000000000E+00 -0.00000000000E+00 -0.45593999997E+02  0.45594000000E+02  0.51100000000E-03 0. -1.
         23    2    1    2    0    0  0.00000000000E+00  0.17763568394E-14 -0.35527136788E-14  0.91188000000E+02  0.91188000000E+02 0.  0.
    9900012    2    3    3    0    0  0.32576314842E+02  0.11748221444E+02 -0.12511750036E+02  0.54367070018E+02  0.39999967720E+02 0.  0.
        -12    1    3    3    0    0 -0.32576314842E+02 -0.11748221444E+02  0.12511750036E+02  0.36820929982E+02  0.00000000000E+00 0.  1.
         11    1    4    4    0    0 -0.53704105499E+01  0.38596953741E+01 -0.36655987203E+01  0.75614265913E+01  0.51100000000E-03 0. -1.
        -11    1    4    4    0    0  0.25446150944E+02  0.35722598449E+01 -0.17420775050E+02  0.31044339933E+02  0.51100000000E-03 0.  1.
        -12    1    4    4    0    0  0.12500574448E+02  0.43162662254E+01  0.85746237342E+01  0.15761303494E+02  0.00000000000E+00 0.  1.
</event>
<event>
 8    1  0.1248739E-006  0.9118800E+02  0.7816164E-02  0.1184000E+00
        -11   -1    0    0    0    0  0.00000000000E+00  0.00000000000E+00  0.45593999997E+02  0.45594000000E+02  0.51100000000E-03 0. -1.
         11   -1    0    0    0    0 -0.00000000000E+00 -0.00000000000E+00 -0.45593999997E+02  0.45594000000E+02  0.51100000000E-03 0.  1.
         23    2    1    2    0    0  0.00000000000E+00  0.17763568394E-14  0.00000000000E+00  0.91188000000E+02  0.91188000000E+02 0.  0.
    9900012    2    3    3    0    0  0.14760445232E+02  0.10133178968E+02  0.32174953676E+02  0.54367086058E+02  0.40000004286E+02 0.  0.
        -12    1    3    3    0    0 -0.14760445232E+02 -0.10133178968E+02 -0.32174953676E+02  0.36820913942E+02  0.00000000000E+00 0.  1.
         11    1    4    4    0    0 -0.68075152300E+00  0.74412926459E+01  0.51591174833E+01  0.90803497920E+01  0.51100000000E-03 0. -1.
        -11    1    4    4    0    0  0.37015010606E+01  0.15932919295E+02  0.20951540758E+02  0.26580558454E+02  0.51100000000E-03 0.  1.
         12    1    4    4    0    0  0.11739695695E+02 -0.13241032972E+02  0.60642954351E+01  0.18706177811E+02  0.00000000000E+00 0. -1.
</event>
<event>
 8    1  0.1248739E-006  0.9118800E+02  0.7816164E-02  0.1184000E+00
        -11   -1    0    0    0    0  0.00000000000E+00  0.00000000000E+00  0.45593999997E+02  0.45594000000E+02  0.51100000000E-03 0. -1.
         11   -1    0    0    0    0 -0.00000000000E+00 -0.00000000000E+00 -0.45593999997E+02  0.45594000000E+02  0.51100000000E-03 0.  1.
         23    2    1    2    0    0  0.00000000000E+00  0.00000000000E+00  0.71054273576E-14  0.91188000000E+02  0.91188000000E+02 0.  0.
    9900012    2    3    3    0    0 -0.16573697919E+02  0.16888623355E+02 -0.28211116050E+02  0.54367080262E+02  0.39999991074E+02 0.  0.
         12    1    3    3    0    0  0.16573697919E+02 -0.16888623355E+02  0.28211116050E+02  0.36820919738E+02  0.00000000000E+00 0. -1.
         11    1    4    4    0    0 -0.11876996556E+02  0.25157900917E+01  0.80720494423E+01  0.14579102491E+02  0.51100000000E-03 0. -1.
        -11    1    4    4    0    0 -0.43619886850E+01  0.11964402935E+02 -0.23056216274E+02  0.26339381010E+02  0.51100000000E-03 0.  1.
         12    1    4    4    0    0 -0.33471267830E+00  0.24084303286E+01 -0.13226949218E+02  0.13448596761E+02  0.00000000000E+00 0. -1.
</event>
<event>
 8    1  0.1248739E-006  0.9118800E+02  0.7816164E-02  0.1184000E+00
        -11   -1    0    0    0    0  0.00000000000E+00  0.00000000000E+00  0.45593999997E+02  0.45594000000E+02  0.51100000000E-03 0. -1.
         11   -1    0    0    0    0 -0.00000000000E+00 -0.00000000000E+00 -0.45593999997E+02  0.45594000000E+02  0.51100000000E-03 0.  1.
         23    2    1    2    0    0  0.00000000000E+00  0.22204460493E-15  0.00000000000E+00  0.91188000000E+02  0.91188000000E+02 0.  0.
    9900012    2    3    3    0    0 -0.15667839313E+02  0.90125698135E+00 -0.33308953896E+02  0.54367083899E+02  0.39999999364E+02 0.  0.
         12    1    3    3    0    0  0.15667839313E+02 -0.90125698135E+00  0.33308953896E+02  0.36820916101E+02  0.00000000000E+00 0. -1.
         11    1    4    4    0    0  0.22233104236E+01  0.28128791419E+01 -0.34583168813E+02  0.34768534104E+02  0.51100000000E-03 0.  1.
        -11    1    4    4    0    0 -0.11818022684E+02 -0.37840694073E+01 -0.17998116853E+01  0.12538906005E+02  0.51100000000E-03 0. -1.
        -12    1    4    4    0    0 -0.60731270523E+01  0.18724472468E+01  0.30740266026E+01  0.70596437898E+01  0.00000000000E+00 0.  1.
</event>
<event>
 8    1  0.1248739E-006  0.9118800E+02  0.7816164E-02  0.1184000E+00
        -11   -1    0    0    0    0  0.00000000000E+00  0.00000000000E+00  0.45593999997E+02  0.45594000000E+02  0.51100000000E-03 0. -1.
         11   -1    0    0    0    0 -0.00000000000E+00 -0.00000000000E+00 -0.45593999997E+02  0.45594000000E+02  0.51100000000E-03 0.  1.
         23    2    1    2    0    0 -0.13322676296E-14 -0.53290705182E-14 -0.14210854715E-13  0.91188000000E+02  0.91188000000E+02 0.  0.
    9900012    2    3    3    0    0  0.23009507096E+01  0.13138797165E+02  0.34319921402E+02  0.54367090585E+02  0.40000014606E+02 0.  0.
        -12    1    3    3    0    0 -0.23009507096E+01 -0.13138797165E+02 -0.34319921402E+02  0.36820909415E+02  0.00000000000E+00 0.  1.
         11    1    4    4    0    0 -0.43586278213E+01 -0.53776308145E+00  0.18818572470E+01  0.47778878781E+01  0.51100000000E-03 0. -1.
        -11    1    4    4    0    0 -0.10287217755E+02 -0.17494253355E+00 -0.20112361611E+00  0.10290670775E+02  0.51100000000E-03 0.  1.
         12    1    4    4    0    0  0.16946796286E+02  0.13851502780E+02  0.32639187771E+02  0.39298531932E+02  0.00000000000E+00 0. -1.
</event>
<event>
 8    1  0.1248739E-006  0.9118800E+02  0.7816164E-02  0.1184000E+00
        -11   -1    0    0    0    0  0.00000000000E+00  0.00000000000E+00  0.45593999997E+02  0.45594000000E+02  0.51100000000E-03 0.  1.
         11   -1    0    0    0    0 -0.00000000000E+00 -0.00000000000E+00 -0.45593999997E+02  0.45594000000E+02  0.51100000000E-03 0. -1.
         23    2    1    2    0    0  0.44408920985E-15 -0.71054273576E-14  0.00000000000E+00  0.91188000000E+02  0.91188000000E+02 0.  0.
    9900012    2    3    3    0    0  0.15598988163E+01  0.36737459424E+02 -0.19257283199E+01  0.54367046199E+02  0.39999913419E+02 0.  0.
         12    1    3    3    0    0 -0.15598988163E+01 -0.36737459424E+02  0.19257283199E+01  0.36820953801E+02  0.00000000000E+00 0. -1.
         11    1    4    4    0    0  0.11190675499E+02 -0.38271975493E+01 -0.15628830461E+01  0.11929847563E+02  0.51100000000E-03 0. -1.
        -11    1    4    4    0    0  0.15803161710E+00  0.44789175416E+01 -0.22196773337E+01  0.50012642464E+01  0.51100000000E-03 0.  1.
        -12    1    4    4    0    0 -0.97888082999E+01  0.36085739432E+02  0.18568320598E+01  0.37435934389E+02  0.00000000000E+00 0.  1.
</event>
<event>
 8    1  0.1248739E-006  0.9118800E+02  0.7816164E-02  0.1184000E+00
        -11   -1    0    0    0    0  0.00000000000E+00  0.00000000000E+00  0.45593999997E+02  0.45594000000E+02  0.51100000000E-03 0.  1.
         11   -1    0    0    0    0 -0.00000000000E+00 -0.00000000000E+00 -0.45593999997E+02  0.45594000000E+02  0.51100000000E-03 0. -1.
         23    2    1    2    0    0 -0.44408920985E-15  0.00000000000E+00  0.17763568394E-14  0.91188000000E+02  0.91188000000E+02 0.  0.
    9900012    2    3    3    0    0 -0.19264226327E+01  0.36110994259E+02  0.69328391763E+01  0.54367091951E+02  0.40000017720E+02 0.  0.
         12    1    3    3    0    0  0.19264226327E+01 -0.36110994259E+02 -0.69328391763E+01  0.36820908049E+02  0.00000000000E+00 0. -1.
         11    1    4    4    0    0 -0.62050234009E+01  0.49949793944E+01 -0.20264708498E+01  0.82194111056E+01  0.51100000000E-03 0. -1.
        -11    1    4    4    0    0  0.34141273370E+01  0.29478118299E+01  0.16393024645E+02  0.17002268006E+02  0.51100000000E-03 0.  1.
        -12    1    4    4    0    0  0.86447343123E+00  0.28168203035E+02 -0.74337146192E+01  0.29145412839E+02  0.00000000000E+00 0.  1.
</event>
<event>
 8    1  0.1248739E-006  0.9118800E+02  0.7816164E-02  0.1184000E+00
        -11   -1    0    0    0    0  0.00000000000E+00  0.00000000000E+00  0.45593999997E+02  0.45594000000E+02  0.51100000000E-03 0.  1.
         11   -1    0    0    0    0 -0.00000000000E+00 -0.00000000000E+00 -0.45593999997E+02  0.45594000000E+02  0.51100000000E-03 0. -1.
         23    2    1    2    0    0 -0.44408920985E-15  0.88817841970E-15  0.71054273576E-14  0.91188000000E+02  0.91188000000E+02 0.  0.
    9900012    2    3    3    0    0  0.24474746487E+01 -0.64087511057E+01 -0.36176162192E+02  0.54367123668E+02  0.40000090026E+02 0.  0.
        -12    1    3    3    0    0 -0.24474746487E+01  0.64087511057E+01  0.36176162192E+02  0.36820876332E+02  0.00000000000E+00 0.  1.
         11    1    4    4    0    0  0.13607299445E+02  0.30644821970E+01 -0.25021745762E+02  0.28646769636E+02  0.51100000000E-03 0. -1.
        -11    1    4    4    0    0 -0.11037634404E+02 -0.27510006123E+00 -0.12209175762E+02  0.16461136848E+02  0.51100000000E-03 0.  1.
        -12    1    4    4    0    0 -0.12219039167E+00 -0.91981332415E+01  0.10547593318E+01  0.92592171844E+01  0.00000000000E+00 0.  1.
</event>
<event>
 8    1  0.1248739E-006  0.9118800E+02  0.7816164E-02  0.1184000E+00
        -11   -1    0    0    0    0  0.00000000000E+00  0.00000000000E+00  0.45593999997E+02  0.45594000000E+02  0.51100000000E-03 0. -1.
         11   -1    0    0    0    0 -0.00000000000E+00 -0.00000000000E+00 -0.45593999997E+02  0.45594000000E+02  0.51100000000E-03 0.  1.
         23    2    1    2    0    0  0.00000000000E+00  0.35527136788E-14  0.00000000000E+00  0.91188000000E+02  0.91188000000E+02 0.  0.
    9900012    2    3    3    0    0  0.65054763898E+01  0.19839641461E+02  0.30328991917E+02  0.54367077320E+02  0.39999984366E+02 0.  0.
        -12    1    3    3    0    0 -0.65054763898E+01 -0.19839641461E+02 -0.30328991917E+02  0.36820922680E+02  0.00000000000E+00 0.  1.
         11    1    4    4    0    0 -0.72455440044E+01  0.97720265649E+01  0.14232140627E+02  0.18722826662E+02  0.51100000000E-03 0. -1.
        -11    1    4    4    0    0  0.59873537556E+01 -0.27863556919E+01  0.19205532555E+02  0.20309226082E+02  0.51100000000E-03 0.  1.
        -12    1    4    4    0    0  0.77636666386E+01  0.12853970588E+02 -0.31086812661E+01  0.15335024576E+02  0.00000000000E+00 0.  1.
</event>
<event>
 8    1  0.1248739E-006  0.9118800E+02  0.7816164E-02  0.1184000E+00
        -11   -1    0    0    0    0  0.00000000000E+00  0.00000000000E+00  0.45593999997E+02  0.45594000000E+02  0.51100000000E-03 0.  1.
         11   -1    0    0    0    0 -0.00000000000E+00 -0.00000000000E+00 -0.45593999997E+02  0.45594000000E+02  0.51100000000E-03 0. -1.
         23    2    1    2    0    0 -0.71054273576E-14  0.11102230246E-15  0.00000000000E+00  0.91188000000E+02  0.91188000000E+02 0.  0.
    9900012    2    3    3    0    0 -0.30664975333E+02  0.92119245466E+00  0.20361485268E+02  0.54367090315E+02  0.40000013991E+02 0.  0.
         12    1    3    3    0    0  0.30664975333E+02 -0.92119245466E+00 -0.20361485268E+02  0.36820909685E+02  0.00000000000E+00 0. -1.
         11    1    4    4    0    0  0.47800520515E+01  0.19625207226E+01  0.75321107523E+00  0.52218495179E+01  0.51100000000E-03 0. -1.
        -11    1    4    4    0    0 -0.15267808818E+02 -0.10944435435E+02  0.18914708690E+02  0.26658073039E+02  0.51100000000E-03 0.  1.
         12    1    4    4    0    0 -0.20177218567E+02  0.99031071670E+01  0.69356550301E+00  0.22487167758E+02  0.00000000000E+00 0. -1.
</event>
<event>
 8    1  0.1248739E-006  0.9118800E+02  0.7816164E-02  0.1184000E+00
        -11   -1    0    0    0    0  0.00000000000E+00  0.00000000000E+00  0.45593999997E+02  0.45594000000E+02  0.51100000000E-03 0.  1.
         11   -1    0    0    0    0 -0.00000000000E+00 -0.00000000000E+00 -0.45593999997E+02  0.45594000000E+02  0.51100000000E-03 0. -1.
         23    2    1    2    0    0 -0.44408920985E-15  0.00000000000E+00 -0.35527136788E-14  0.91188000000E+02  0.91188000000E+02 0.  0.
    9900012    2    3    3    0    0  0.23218995918E+01  0.31534358985E+02 -0.18867235981E+02  0.54367087357E+02  0.40000007247E+02 0.  0.
        -12    1    3    3    0    0 -0.23218995918E+01 -0.31534358985E+02  0.18867235981E+02  0.36820912643E+02  0.00000000000E+00 0.  1.
         11    1    4    4    0    0  0.97212876407E+01  0.20108175984E+02 -0.42953031951E+01  0.22744049873E+02  0.51100000000E-03 0. -1.
        -11    1    4    4    0    0  0.47636681775E+01  0.13661921894E+02 -0.12424491074E+02  0.19071146349E+02  0.51100000000E-03 0.  1.
        -12    1    4    4    0    0 -0.12163056226E+02 -0.22357388935E+01 -0.21474417122E+01  0.12551891135E+02  0.00000000000E+00 0.  1.
</event>
<event>
 8    1  0.1248739E-006  0.9118800E+02  0.7816164E-02  0.1184000E+00
        -11   -1    0    0    0    0  0.00000000000E+00  0.00000000000E+00  0.45593999997E+02  0.45594000000E+02  0.51100000000E-03 0.  1.
         11   -1    0    0    0    0 -0.00000000000E+00 -0.00000000000E+00 -0.45593999997E+02  0.45594000000E+02  0.51100000000E-03 0. -1.
         23    2    1    2    0    0  0.00000000000E+00  0.17763568394E-14  0.00000000000E+00  0.91188000000E+02  0.91188000000E+02 0.  0.
    9900012    2    3    3    0    0 -0.14143883229E+02  0.12207417899E+02 -0.31728686064E+02  0.54367081979E+02  0.39999994988E+02 0.  0.
        -12    1    3    3    0    0  0.14143883229E+02 -0.12207417899E+02  0.31728686064E+02  0.36820918021E+02  0.00000000000E+00 0.  1.
         11    1    4    4    0    0  0.42233169440E+01  0.29914621859E+01 -0.37604691200E+01  0.63973729204E+01  0.51100000000E-03 0. -1.
        -11    1    4    4    0    0  0.13631032606E+01  0.59668306355E+00  0.68622474494E+01  0.70217178451E+01  0.51100000000E-03 0.  1.
         12    1    4    4    0    0 -0.19730303433E+02  0.86192726500E+01 -0.34830464393E+02  0.40947991214E+02  0.00000000000E+00 0. -1.
</event>
<event>
 8    1  0.1248739E-006  0.9118800E+02  0.7816164E-02  0.1184000E+00
        -11   -1    0    0    0    0  0.00000000000E+00  0.00000000000E+00  0.45593999997E+02  0.45594000000E+02  0.51100000000E-03 0.  1.
         11   -1    0    0    0    0 -0.00000000000E+00 -0.00000000000E+00 -0.45593999997E+02  0.45594000000E+02  0.51100000000E-03 0. -1.
         23    2    1    2    0    0  0.35527136788E-14  0.88817841970E-15  0.00000000000E+00  0.91188000000E+02  0.91188000000E+02 0.  0.
    9900012    2    3    3    0    0  0.31510329411E+02  0.65373758923E+01  0.17892423573E+02  0.54367123252E+02  0.40000089078E+02 0.  0.
        -12    1    3    3    0    0 -0.31510329411E+02 -0.65373758923E+01 -0.17892423573E+02  0.36820876748E+02  0.00000000000E+00 0.  1.
         11    1    4    4    0    0 -0.41839090794E+01  0.44952370353E+01  0.55943423049E+01  0.83071606024E+01  0.51100000000E-03 0. -1.
        -11    1    4    4    0    0  0.17283704563E+02 -0.82016798135E+00  0.19513249095E+02  0.26079992512E+02  0.51100000000E-03 0.  1.
        -12    1    4    4    0    0  0.18410533928E+02  0.28623068383E+01 -0.72151678269E+01  0.19979970138E+02  0.00000000000E+00 0.  1.
</event>
<event>
 8    1  0.1248739E-006  0.9118800E+02  0.7816164E-02  0.1184000E+00
        -11   -1    0    0    0    0  0.00000000000E+00  0.00000000000E+00  0.45593999997E+02  0.45594000000E+02  0.51100000000E-03 0.  1.
         11   -1    0    0    0    0 -0.00000000000E+00 -0.00000000000E+00 -0.45593999997E+02  0.45594000000E+02  0.51100000000E-03 0. -1.
         23    2    1    2    0    0  0.00000000000E+00  0.00000000000E+00  0.00000000000E+00  0.91188000000E+02  0.91188000000E+02 0.  0.
    9900012    2    3    3    0    0  0.42646475783E+01  0.33838775322E+02 -0.13875519637E+02  0.54367082311E+02  0.39999995745E+02 0.  0.
         12    1    3    3    0    0 -0.42646475783E+01 -0.33838775322E+02  0.13875519637E+02  0.36820917689E+02  0.00000000000E+00 0. -1.
         11    1    4    4    0    0 -0.21164179250E+01  0.48944633450E+01 -0.12729511001E+02  0.13801284247E+02  0.51100000000E-03 0. -1.
        -11    1    4    4    0    0  0.12745695666E+02  0.69544009709E+01 -0.81184478648E+01  0.16635072794E+02  0.51100000000E-03 0.  1.
        -12    1    4    4    0    0 -0.63646301625E+01  0.21989911006E+02  0.69724392288E+01  0.23930725270E+02  0.00000000000E+00 0.  1.
</event>
<event>
 8    1  0.1248739E-006  0.9118800E+02  0.7816164E-02  0.1184000E+00
        -11   -1    0    0    0    0  0.00000000000E+00  0.00000000000E+00  0.45593999997E+02  0.45594000000E+02  0.51100000000E-03 0.  1.
         11   -1    0    0    0    0 -0.00000000000E+00 -0.00000000000E+00 -0.45593999997E+02  0.45594000000E+02  0.51100000000E-03 0. -1.
         23    2    1    2    0    0  0.71054273576E-14  0.26645352591E-14 -0.29976021665E-14  0.91188000000E+02  0.91188000000E+02 0.  0.
    9900012    2    3    3    0    0 -0.36688305208E+02  0.30677567120E+01  0.58041946514E+00  0.54367085331E+02  0.40000002630E+02 0.  0.
         12    1    3    3    0    0  0.36688305208E+02 -0.30677567120E+01 -0.58041946514E+00  0.36820914669E+02  0.00000000000E+00 0. -1.
         11    1    4    4    0    0 -0.13333363914E+02  0.13312472130E+02 -0.13794261609E+02  0.23351277504E+02  0.51100000000E-03 0. -1.
        -11    1    4    4    0    0 -0.15220591734E+02 -0.67782755244E+01  0.14625372874E+02  0.22170091650E+02  0.51100000000E-03 0.  1.
         12    1    4    4    0    0 -0.81343495599E+01 -0.34664398938E+01 -0.25069179930E+00  0.88457161767E+01  0.00000000000E+00 0. -1.
</event>
<event>
 8    1  0.1248739E-006  0.9118800E+02  0.7816164E-02  0.1184000E+00
        -11   -1    0    0    0    0  0.00000000000E+00  0.00000000000E+00  0.45593999997E+02  0.45594000000E+02  0.51100000000E-03 0.  1.
         11   -1    0    0    0    0 -0.00000000000E+00 -0.00000000000E+00 -0.45593999997E+02  0.45594000000E+02  0.51100000000E-03 0. -1.
         23    2    1    2    0    0 -0.17763568394E-14  0.00000000000E+00  0.00000000000E+00  0.91188000000E+02  0.91188000000E+02 0.  0.
    9900012    2    3    3    0    0 -0.81644857588E+01  0.23644754373E+02 -0.27019377290E+02  0.54367082219E+02  0.39999995535E+02 0.  0.
        -12    1    3    3    0    0  0.81644857588E+01 -0.23644754373E+02  0.27019377290E+02  0.36820917781E+02  0.00000000000E+00 0.  1.
         11    1    4    4    0    0  0.93085822141E+01  0.76478373543E+01 -0.14494407838E+02  0.18847466086E+02  0.51100000000E-03 0.  1.
        -11    1    4    4    0    0 -0.95482385186E+01  0.16293294746E+02 -0.17835110521E+02  0.25975593930E+02  0.51100000000E-03 0. -1.
        -12    1    4    4    0    0 -0.79248294543E+01 -0.29637772695E+00  0.53101410689E+01  0.95440222028E+01  0.00000000000E+00 0.  1.
</event>
<event>
 8    1  0.1248739E-006  0.9118800E+02  0.7816164E-02  0.1184000E+00
        -11   -1    0    0    0    0  0.00000000000E+00  0.00000000000E+00  0.45593999997E+02  0.45594000000E+02  0.51100000000E-03 0.  1.
         11   -1    0    0    0    0 -0.00000000000E+00 -0.00000000000E+00 -0.45593999997E+02  0.45594000000E+02  0.51100000000E-03 0. -1.
         23    2    1    2    0    0  0.44408920985E-15  0.00000000000E+00 -0.35527136788E-14  0.91188000000E+02  0.91188000000E+02 0.  0.
    9900012    2    3    3    0    0 -0.32416344611E+01  0.28116764946E+02 -0.23552465482E+02  0.54367091602E+02  0.40000016924E+02 0.  0.
        -12    1    3    3    0    0  0.32416344611E+01 -0.28116764946E+02  0.23552465482E+02  0.36820908398E+02  0.00000000000E+00 0.  1.
         11    1    4    4    0    0 -0.32915129261E+01 -0.40815586384E+01 -0.85808551702E+01  0.10056055587E+02  0.51100000000E-03 0. -1.
        -11    1    4    4    0    0 -0.12817939333E+02  0.12957346272E+02 -0.38401340516E+01  0.18626299175E+02  0.51100000000E-03 0.  1.
        -12    1    4    4    0    0  0.12867817798E+02  0.19240977312E+02 -0.11131476260E+02  0.25684736840E+02  0.00000000000E+00 0.  1.
</event>
<event>
 8    1  0.1248739E-006  0.9118800E+02  0.7816164E-02  0.1184000E+00
        -11   -1    0    0    0    0  0.00000000000E+00  0.00000000000E+00  0.45593999997E+02  0.45594000000E+02  0.51100000000E-03 0. -1.
         11   -1    0    0    0    0 -0.00000000000E+00 -0.00000000000E+00 -0.45593999997E+02  0.45594000000E+02  0.51100000000E-03 0.  1.
         23    2    1    2    0    0 -0.44408920985E-15  0.00000000000E+00  0.00000000000E+00  0.91188000000E+02  0.91188000000E+02 0.  0.
    9900012    2    3    3    0    0  0.37671158085E+01  0.23294028987E+02  0.28266177911E+02  0.54367085268E+02  0.40000002486E+02 0.  0.
        -12    1    3    3    0    0 -0.37671158085E+01 -0.23294028987E+02 -0.28266177911E+02  0.36820914732E+02  0.00000000000E+00 0.  1.
         11    1    4    4    0    0  0.69019655287E+01 -0.57288227381E+00  0.81034675852E+01  0.10659808133E+02  0.51100000000E-03 0. -1.
        -11    1    4    4    0    0 -0.58249934475E+01  0.30213738164E+02  0.12010097000E+02  0.33030939325E+02  0.51100000000E-03 0.  1.
        -12    1    4    4    0    0  0.26901437274E+01 -0.63468269024E+01  0.81526133261E+01  0.10676337811E+02  0.00000000000E+00 0.  1.
</event>
<event>
 8    1  0.1248739E-006  0.9118800E+02  0.7816164E-02  0.1184000E+00
        -11   -1    0    0    0    0  0.00000000000E+00  0.00000000000E+00  0.45593999997E+02  0.45594000000E+02  0.51100000000E-03 0.  1.
         11   -1    0    0    0    0 -0.00000000000E+00 -0.00000000000E+00 -0.45593999997E+02  0.45594000000E+02  0.51100000000E-03 0. -1.
         23    2    1    2    0    0  0.00000000000E+00  0.00000000000E+00 -0.35527136788E-14  0.91188000000E+02  0.91188000000E+02 0.  0.
    9900012    2    3    3    0    0 -0.89725452292E+01  0.19096046807E+02  0.30176392437E+02  0.54367078881E+02  0.39999987925E+02 0.  0.
         12    1    3    3    0    0  0.89725452292E+01 -0.19096046807E+02 -0.30176392437E+02  0.36820921119E+02  0.00000000000E+00 0. -1.
         11    1    4    4    0    0  0.87745756372E+00  0.13682131114E+02 -0.24051182975E+01  0.13919599057E+02  0.51100000000E-03 0. -1.
        -11    1    4    4    0    0  0.40127396707E+01  0.52617713034E+01  0.22094808985E+02  0.23064451029E+02  0.51100000000E-03 0.  1.
         12    1    4    4    0    0 -0.13862742464E+02  0.15214438908E+00  0.10486701750E+02  0.17383028796E+02  0.00000000000E+00 0. -1.
</event>
<event>
 8    1  0.1248739E-006  0.9118800E+02  0.7816164E-02  0.1184000E+00
        -11   -1    0    0    0    0  0.00000000000E+00  0.00000000000E+00  0.45593999997E+02  0.45594000000E+02  0.51100000000E-03 0.  1.
         11   -1    0    0    0    0 -0.00000000000E+00 -0.00000000000E+00 -0.45593999997E+02  0.45594000000E+02  0.51100000000E-03 0. -1.
         23    2    1    2    0    0 -0.35527136788E-14  0.00000000000E+00  0.17763568394E-14  0.91188000000E+02  0.91188000000E+02 0.  0.
    9900012    2    3    3    0    0  0.25291979568E+02 -0.25520451482E+02  0.80500580397E+01  0.54367066976E+02  0.39999960784E+02 0.  0.
         12    1    3    3    0    0 -0.25291979568E+02  0.25520451482E+02 -0.80500580397E+01  0.36820933024E+02  0.00000000000E+00 0. -1.
         11    1    4    4    0    0  0.24003598088E+02 -0.13311620602E+02  0.14378897111E+00  0.27447998830E+02  0.51100000000E-03 0. -1.
        -11    1    4    4    0    0  0.78654952818E+01 -0.10477071809E+02  0.12973513332E+02  0.18437654356E+02  0.51100000000E-03 0.  1.
         12    1    4    4    0    0 -0.65771138015E+01 -0.17317590705E+01 -0.50672442637E+01  0.84814137893E+01  0.00000000000E+00 0. -1.
</event>
<event>
 8    1  0.1248739E-006  0.9118800E+02  0.7816164E-02  0.1184000E+00
        -11   -1    0    0    0    0  0.00000000000E+00  0.00000000000E+00  0.45593999997E+02  0.45594000000E+02  0.51100000000E-03 0.  1.
         11   -1    0    0    0    0 -0.00000000000E+00 -0.00000000000E+00 -0.45593999997E+02  0.45594000000E+02  0.51100000000E-03 0. -1.
         23    2    1    2    0    0 -0.35527136788E-14  0.00000000000E+00  0.00000000000E+00  0.91188000000E+02  0.91188000000E+02 0.  0.
    9900012    2    3    3    0    0 -0.26422343769E+02 -0.25459437862E+02 -0.30751105398E+01  0.54367088397E+02  0.40000009618E+02 0.  0.
        -12    1    3    3    0    0  0.26422343769E+02  0.25459437862E+02  0.30751105398E+01  0.36820911603E+02  0.00000000000E+00 0.  1.
         11    1    4    4    0    0 -0.94785916833E+01 -0.25365739293E+01 -0.38287827164E+01  0.10532686502E+02  0.51100000000E-03 0. -1.
        -11    1    4    4    0    0 -0.13378875523E+02 -0.30123415393E+02 -0.57983030451E+01  0.33466920738E+02  0.51100000000E-03 0.  1.
        -12    1    4    4    0    0 -0.35648765622E+01  0.72005514602E+01  0.65519752216E+01  0.10367481157E+02  0.00000000000E+00 0.  1.
</event>
<event>
 8    1  0.1248739E-006  0.9118800E+02  0.7816164E-02  0.1184000E+00
        -11   -1    0    0    0    0  0.00000000000E+00  0.00000000000E+00  0.45593999997E+02  0.45594000000E+02  0.51100000000E-03 0.  1.
         11   -1    0    0    0    0 -0.00000000000E+00 -0.00000000000E+00 -0.45593999997E+02  0.45594000000E+02  0.51100000000E-03 0. -1.
         23    2    1    2    0    0  0.00000000000E+00 -0.17763568394E-14  0.00000000000E+00  0.91188000000E+02  0.91188000000E+02 0.  0.
    9900012    2    3    3    0    0  0.28040920988E+02  0.52266061250E+01 -0.23284655959E+02  0.54367002395E+02  0.39999813561E+02 0.  0.
        -12    1    3    3    0    0 -0.28040920988E+02 -0.52266061250E+01  0.23284655959E+02  0.36820997605E+02  0.00000000000E+00 0.  1.
         11    1    4    4    0    0  0.16748044752E+02 -0.36779016862E+01 -0.11741805837E-01  0.17147131012E+02  0.51100000000E-03 0. -1.
        -11    1    4    4    0    0  0.84480142667E+01  0.10477095686E+02  0.26221522909E+00  0.13461323715E+02  0.51100000000E-03 0.  1.
        -12    1    4    4    0    0  0.28448619695E+01 -0.15725878750E+01 -0.23535129383E+02  0.23758547668E+02  0.00000000000E+00 0.  1.
</event>
<event>
 8    1  0.1248739E-006  0.9118800E+02  0.7816164E-02  0.1184000E+00
        -11   -1    0    0    0    0  0.00000000000E+00  0.00000000000E+00  0.45593999997E+02  0.45594000000E+02  0.51100000000E-03 0.  1.
         11   -1    0    0    0    0 -0.00000000000E+00 -0.00000000000E+00 -0.45593999997E+02  0.45594000000E+02  0.51100000000E-03 0. -1.
         23    2    1    2    0    0  0.00000000000E+00  0.88817841970E-15  0.35527136788E-14  0.91188000000E+02  0.91188000000E+02 0.  0.
    9900012    2    3    3    0    0 -0.19002209534E+02  0.30670098377E+01  0.31389318026E+02  0.54367084712E+02  0.40000001218E+02 0.  0.
         12    1    3    3    0    0  0.19002209534E+02 -0.30670098377E+01 -0.31389318026E+02  0.36820915288E+02  0.00000000000E+00 0. -1.
         11    1    4    4    0    0 -0.14995546586E+02 -0.61661707334E+01  0.16433159674E+02  0.23085424320E+02  0.51100000000E-03 0. -1.
        -11    1    4    4    0    0 -0.29186971264E+01 -0.77870314066E+01  0.10972217830E+02  0.13767578415E+02  0.51100000000E-03 0.  1.
         12    1    4    4    0    0 -0.10879658213E+01  0.17020211978E+02  0.39839405223E+01  0.17514081976E+02  0.00000000000E+00 0. -1.
</event>
<event>
 8    1  0.1248739E-006  0.9118800E+02  0.7816164E-02  0.1184000E+00
        -11   -1    0    0    0    0  0.00000000000E+00  0.00000000000E+00  0.45593999997E+02  0.45594000000E+02  0.51100000000E-03 0. -1.
         11   -1    0    0    0    0 -0.00000000000E+00 -0.00000000000E+00 -0.45593999997E+02  0.45594000000E+02  0.51100000000E-03 0.  1.
         23    2    1    2    0    0  0.00000000000E+00  0.00000000000E+00  0.00000000000E+00  0.91188000000E+02  0.91188000000E+02 0.  0.
    9900012    2    3    3    0    0  0.12408969357E+02  0.34371310135E+02 -0.45180744354E+01  0.54367048389E+02  0.39999918413E+02 0.  0.
        -12    1    3    3    0    0 -0.12408969357E+02 -0.34371310135E+02  0.45180744354E+01  0.36820951611E+02  0.00000000000E+00 0.  1.
         11    1    4    4    0    0  0.34246298833E+01  0.27409659411E+02 -0.71870301410E+01  0.28542440705E+02  0.51100000000E-03 0. -1.
        -11    1    4    4    0    0  0.84820510153E+01  0.73366429272E+01  0.12027655855E+02  0.16444939176E+02  0.51100000000E-03 0.  1.
         12    1    4    4    0    0  0.50228845823E+00 -0.37499220310E+00 -0.93587001494E+01  0.93796685088E+01  0.00000000000E+00 0. -1.
</event>
<event>
 8    1  0.1248739E-006  0.9118800E+02  0.7816164E-02  0.1184000E+00
        -11   -1    0    0    0    0  0.00000000000E+00  0.00000000000E+00  0.45593999997E+02  0.45594000000E+02  0.51100000000E-03 0.  1.
         11   -1    0    0    0    0 -0.00000000000E+00 -0.00000000000E+00 -0.45593999997E+02  0.45594000000E+02  0.51100000000E-03 0. -1.
         23    2    1    2    0    0  0.00000000000E+00  0.00000000000E+00 -0.35527136788E-14  0.91188000000E+02  0.91188000000E+02 0.  0.
    9900012    2    3    3    0    0 -0.18750611406E+02  0.24960873214E+02 -0.19523041588E+02  0.54367085121E+02  0.40000002151E+02 0.  0.
        -12    1    3    3    0    0  0.18750611406E+02 -0.24960873214E+02  0.19523041588E+02  0.36820914879E+02  0.00000000000E+00 0.  1.
         11    1    4    4    0    0  0.32787810134E+01 -0.31802356120E+01 -0.88015832031E+01  0.99162578942E+01  0.51100000000E-03 0. -1.
        -11    1    4    4    0    0 -0.21578546905E+02  0.23819476474E+02  0.78643804712E+00  0.32149955382E+02  0.51100000000E-03 0.  1.
        -12    1    4    4    0    0 -0.45084551450E+00  0.43216323517E+01 -0.11507896432E+02  0.12300871845E+02  0.00000000000E+00 0.  1.
</event>
<event>
 8    1  0.1248739E-006  0.9118800E+02  0.7816164E-02  0.1184000E+00
        -11   -1    0    0    0    0  0.00000000000E+00  0.00000000000E+00  0.45593999997E+02  0.45594000000E+02  0.51100000000E-03 0. -1.
         11   -1    0    0    0    0 -0.00000000000E+00 -0.00000000000E+00 -0.45593999997E+02  0.45594000000E+02  0.51100000000E-03 0.  1.
         23    2    1    2    0    0 -0.17763568394E-14  0.00000000000E+00 -0.35527136788E-14  0.91188000000E+02  0.91188000000E+02 0.  0.
    9900012    2    3    3    0    0  0.79314659738E+01 -0.29850929728E+02  0.20044816782E+02  0.54367070654E+02  0.39999969169E+02 0.  0.
        -12    1    3    3    0    0 -0.79314659738E+01  0.29850929728E+02 -0.20044816782E+02  0.36820929346E+02  0.00000000000E+00 0.  1.
         11    1    4    4    0    0  0.53461682057E+01  0.53336568863E+00  0.17659642297E+01  0.56554949706E+01  0.51100000000E-03 0. -1.
        -11    1    4    4    0    0  0.23763234418E+01  0.56182359489E+01 -0.30966276404E+01  0.68410957662E+01  0.51100000000E-03 0.  1.
        -12    1    4    4    0    0  0.20897432624E+00 -0.36002531365E+02  0.21375480193E+02  0.41870479917E+02  0.00000000000E+00 0.  1.
</event>
<event>
 8    1  0.1248739E-006  0.9118800E+02  0.7816164E-02  0.1184000E+00
        -11   -1    0    0    0    0  0.00000000000E+00  0.00000000000E+00  0.45593999997E+02  0.45594000000E+02  0.51100000000E-03 0.  1.
         11   -1    0    0    0    0 -0.00000000000E+00 -0.00000000000E+00 -0.45593999997E+02  0.45594000000E+02  0.51100000000E-03 0. -1.
         23    2    1    2    0    0  0.35527136788E-14  0.00000000000E+00  0.00000000000E+00  0.91188000000E+02  0.91188000000E+02 0.  0.
    9900012    2    3    3    0    0 -0.24857874877E+02  0.16468697905E+02 -0.21602033046E+02  0.54367084941E+02  0.40000001739E+02 0.  0.
        -12    1    3    3    0    0  0.24857874877E+02 -0.16468697905E+02  0.21602033046E+02  0.36820915059E+02  0.00000000000E+00 0.  1.
         11    1    4    4    0    0 -0.26115510187E+01  0.12637904080E+02 -0.29654359029E+01  0.13241247245E+02  0.51100000000E-03 0. -1.
        -11    1    4    4    0    0 -0.11079737210E+02  0.10042953164E+02  0.36887470746E+01  0.15402218676E+02  0.51100000000E-03 0.  1.
        -12    1    4    4    0    0 -0.11166586648E+02 -0.62121593389E+01 -0.22325344217E+02  0.25723619019E+02  0.00000000000E+00 0.  1.
</event>
<event>
 8    1  0.1248739E-006  0.9118800E+02  0.7816164E-02  0.1184000E+00
        -11   -1    0    0    0    0  0.00000000000E+00  0.00000000000E+00  0.45593999997E+02  0.45594000000E+02  0.51100000000E-03 0.  1.
         11   -1    0    0    0    0 -0.00000000000E+00 -0.00000000000E+00 -0.45593999997E+02  0.45594000000E+02  0.51100000000E-03 0. -1.
         23    2    1    2    0    0 -0.88817841970E-15  0.00000000000E+00  0.00000000000E+00  0.91188000000E+02  0.91188000000E+02 0.  0.
    9900012    2    3    3    0    0 -0.75613672023E+01  0.33616381773E+02 -0.12982569370E+02  0.54367048017E+02  0.39999917565E+02 0.  0.
        -12    1    3    3    0    0  0.75613672023E+01 -0.33616381773E+02  0.12982569370E+02  0.36820951983E+02  0.00000000000E+00 0.  1.
         11    1    4    4    0    0  0.39589175816E+01  0.12261007324E+02 -0.16538921053E+02  0.20965238822E+02  0.51100000000E-03 0. -1.
        -11    1    4    4    0    0 -0.31172009378E+01  0.25694386319E+01 -0.85988686597E+01  0.95004999372E+01  0.51100000000E-03 0.  1.
         12    1    4    4    0    0 -0.84030838461E+01  0.18785935817E+02  0.12155220343E+02  0.23901309258E+02  0.00000000000E+00 0. -1.
</event>
<event>
 8    1  0.1248739E-006  0.9118800E+02  0.7816164E-02  0.1184000E+00
        -11   -1    0    0    0    0  0.00000000000E+00  0.00000000000E+00  0.45593999997E+02  0.45594000000E+02  0.51100000000E-03 0.  1.
         11   -1    0    0    0    0 -0.00000000000E+00 -0.00000000000E+00 -0.45593999997E+02  0.45594000000E+02  0.51100000000E-03 0. -1.
         23    2    1    2    0    0  0.00000000000E+00  0.00000000000E+00  0.35527136788E-14  0.91188000000E+02  0.91188000000E+02 0.  0.
    9900012    2    3    3    0    0  0.48350300476E+01 -0.28460218186E+02  0.22856460865E+02  0.54367091021E+02  0.40000015600E+02 0.  0.
        -12    1    3    3    0    0 -0.48350300476E+01  0.28460218186E+02 -0.22856460865E+02  0.36820908979E+02  0.00000000000E+00 0.  1.
         11    1    4    4    0    0 -0.45927208028E+01 -0.94218823219E+01  0.90526698181E+01  0.13849757469E+02  0.51100000000E-03 0. -1.
        -11    1    4    4    0    0  0.61797763935E+01  0.30139535585E+00  0.19204603982E+02  0.20176652096E+02  0.51100000000E-03 0.  1.
        -12    1    4    4    0    0  0.32479744569E+01 -0.19339731220E+02 -0.54008129346E+01  0.20340681456E+02  0.00000000000E+00 0.  1.
</event>
<event>
 8    1  0.1248739E-006  0.9118800E+02  0.7816164E-02  0.1184000E+00
        -11   -1    0    0    0    0  0.00000000000E+00  0.00000000000E+00  0.45593999997E+02  0.45594000000E+02  0.51100000000E-03 0.  1.
         11   -1    0    0    0    0 -0.00000000000E+00 -0.00000000000E+00 -0.45593999997E+02  0.45594000000E+02  0.51100000000E-03 0. -1.
         23    2    1    2    0    0  0.00000000000E+00  0.00000000000E+00  0.00000000000E+00  0.91188000000E+02  0.91188000000E+02 0.  0.
    9900012    2    3    3    0    0  0.28831189314E+02 -0.95580686019E+01  0.20813113710E+02  0.54367084001E+02  0.39999999597E+02 0.  0.
         12    1    3    3    0    0 -0.28831189314E+02  0.95580686019E+01 -0.20813113710E+02  0.36820915999E+02  0.00000000000E+00 0. -1.
         11    1    4    4    0    0  0.12581451604E+02 -0.88317964005E+01  0.20010299464E+01  0.15501537770E+02  0.51100000000E-03 0. -1.
        -11    1    4    4    0    0  0.14652340977E+02  0.77954444335E+01 -0.16142563992E+01  0.16675307314E+02  0.51100000000E-03 0.  1.
         12    1    4    4    0    0  0.15973967328E+01 -0.85217166349E+01  0.20426340163E+02  0.22190238917E+02  0.00000000000E+00 0. -1.
</event>
<event>
 8    1  0.1248739E-006  0.9118800E+02  0.7816164E-02  0.1184000E+00
        -11   -1    0    0    0    0  0.00000000000E+00  0.00000000000E+00  0.45593999997E+02  0.45594000000E+02  0.51100000000E-03 0. -1.
         11   -1    0    0    0    0 -0.00000000000E+00 -0.00000000000E+00 -0.45593999997E+02  0.45594000000E+02  0.51100000000E-03 0.  1.
         23    2    1    2    0    0  0.35527136788E-14 -0.35527136788E-14 -0.88817841970E-15  0.91188000000E+02  0.91188000000E+02 0.  0.
    9900012    2    3    3    0    0 -0.27111703788E+02  0.23656089168E+02  0.78182808992E+01  0.54367074519E+02  0.39999977982E+02 0.  0.
        -12    1    3    3    0    0  0.27111703788E+02 -0.23656089168E+02 -0.78182808992E+01  0.36820925481E+02  0.00000000000E+00 0.  1.
         11    1    4    4    0    0 -0.23975869540E+02  0.28034113226E+02  0.43807233187E+01  0.37147605059E+02  0.51100000000E-03 0. -1.
        -11    1    4    4    0    0 -0.35520224630E+01 -0.77908145323E+01  0.78564989339E+01  0.11620595097E+02  0.51100000000E-03 0.  1.
        -12    1    4    4    0    0  0.41618821441E+00  0.34127904745E+01 -0.44189413534E+01  0.55988743634E+01  0.00000000000E+00 0.  1.
</event>
<event>
 8    1  0.1248739E-006  0.9118800E+02  0.7816164E-02  0.1184000E+00
        -11   -1    0    0    0    0  0.00000000000E+00  0.00000000000E+00  0.45593999997E+02  0.45594000000E+02  0.51100000000E-03 0.  1.
         11   -1    0    0    0    0 -0.00000000000E+00 -0.00000000000E+00 -0.45593999997E+02  0.45594000000E+02  0.51100000000E-03 0. -1.
         23    2    1    2    0    0  0.00000000000E+00  0.00000000000E+00  0.35527136788E-14  0.91188000000E+02  0.91188000000E+02 0.  0.
    9900012    2    3    3    0    0 -0.45470041192E+01  0.24625512347E+02 -0.26994232990E+02  0.54367085841E+02  0.40000003791E+02 0.  0.
        -12    1    3    3    0    0  0.45470041192E+01 -0.24625512347E+02  0.26994232990E+02  0.36820914159E+02  0.00000000000E+00 0.  1.
         11    1    4    4    0    0 -0.95753598186E+01  0.37643726644E+01 -0.14408718334E+02  0.17705060900E+02  0.51100000000E-03 0. -1.
        -11    1    4    4    0    0  0.36009040640E+01  0.25754750004E+02 -0.34939914779E+01  0.26238933563E+02  0.51100000000E-03 0.  1.
        -12    1    4    4    0    0  0.14274516354E+01 -0.48936103214E+01 -0.90915231785E+01  0.10423091377E+02  0.00000000000E+00 0.  1.
</event>
<event>
 8    1  0.1248739E-006  0.9118800E+02  0.7816164E-02  0.1184000E+00
        -11   -1    0    0    0    0  0.00000000000E+00  0.00000000000E+00  0.45593999997E+02  0.45594000000E+02  0.51100000000E-03 0.  1.
         11   -1    0    0    0    0 -0.00000000000E+00 -0.00000000000E+00 -0.45593999997E+02  0.45594000000E+02  0.51100000000E-03 0. -1.
         23    2    1    2    0    0  0.00000000000E+00  0.17763568394E-14  0.35527136788E-14  0.91188000000E+02  0.91188000000E+02 0.  0.
    9900012    2    3    3    0    0  0.19105687361E+02 -0.15774161312E+02  0.27238366129E+02  0.54367081434E+02  0.39999993746E+02 0.  0.
         12    1    3    3    0    0 -0.19105687361E+02  0.15774161312E+02 -0.27238366129E+02  0.36820918566E+02  0.00000000000E+00 0. -1.
         11    1    4    4    0    0  0.32165407375E+01 -0.49560885386E+01 -0.70900095746E+01  0.92291486036E+01  0.51100000000E-03 0. -1.
        -11    1    4    4    0    0  0.46381519746E+01  0.37158465589E+01  0.22521682021E+02  0.23292619661E+02  0.51100000000E-03 0.  1.
        -12    1    4    4    0    0  0.11250994649E+02 -0.14533919332E+02  0.11806693683E+02  0.21845313169E+02  0.00000000000E+00 0.  1.
</event>
<event>
 8    1  0.1248739E-006  0.9118800E+02  0.7816164E-02  0.1184000E+00
        -11   -1    0    0    0    0  0.00000000000E+00  0.00000000000E+00  0.45593999997E+02  0.45594000000E+02  0.51100000000E-03 0.  1.
         11   -1    0    0    0    0 -0.00000000000E+00 -0.00000000000E+00 -0.45593999997E+02  0.45594000000E+02  0.51100000000E-03 0. -1.
         23    2    1    2    0    0 -0.17763568394E-14  0.00000000000E+00  0.00000000000E+00  0.91188000000E+02  0.91188000000E+02 0.  0.
    9900012    2    3    3    0    0 -0.12034698906E+02  0.77674087592E+01 -0.33920698508E+02  0.54367076548E+02  0.39999982607E+02 0.  0.
        -12    1    3    3    0    0  0.12034698906E+02 -0.77674087592E+01  0.33920698508E+02  0.36820923452E+02  0.00000000000E+00 0.  1.
         11    1    4    4    0    0 -0.39998719864E+01  0.10598880672E+02 -0.20458476941E+02  0.23385562350E+02  0.51100000000E-03 0. -1.
        -11    1    4    4    0    0 -0.13822059581E+02 -0.55135115552E+01 -0.17850097963E+02  0.23239495225E+02  0.51100000000E-03 0.  1.
         12    1    4    4    0    0  0.57872326617E+01  0.26820396422E+01  0.43878763961E+01  0.77420189738E+01  0.00000000000E+00 0. -1.
</event>
<event>
 8    1  0.1248739E-006  0.9118800E+02  0.7816164E-02  0.1184000E+00
        -11   -1    0    0    0    0  0.00000000000E+00  0.00000000000E+00  0.45593999997E+02  0.45594000000E+02  0.51100000000E-03 0. -1.
         11   -1    0    0    0    0 -0.00000000000E+00 -0.00000000000E+00 -0.45593999997E+02  0.45594000000E+02  0.51100000000E-03 0.  1.
         23    2    1    2    0    0  0.00000000000E+00  0.00000000000E+00  0.35527136788E-14  0.91188000000E+02  0.91188000000E+02 0.  0.
    9900012    2    3    3    0    0 -0.32465508326E+02 -0.21543428212E+01 -0.17237476413E+02  0.54367068222E+02  0.39999963626E+02 0.  0.
         12    1    3    3    0    0  0.32465508326E+02  0.21543428212E+01  0.17237476413E+02  0.36820931778E+02  0.00000000000E+00 0. -1.
         11    1    4    4    0    0 -0.15856898304E+02  0.87651678951E+01 -0.18462604124E+02  0.25867685311E+02  0.51100000000E-03 0. -1.
        -11    1    4    4    0    0 -0.19766338382E+02 -0.52139369772E+01 -0.30973971763E+01  0.20675762172E+02  0.51100000000E-03 0.  1.
         12    1    4    4    0    0  0.31577283599E+01 -0.57055737391E+01  0.43225248866E+01  0.78236207400E+01  0.00000000000E+00 0. -1.
</event>
<event>
 8    1  0.1248739E-006  0.9118800E+02  0.7816164E-02  0.1184000E+00
        -11   -1    0    0    0    0  0.00000000000E+00  0.00000000000E+00  0.45593999997E+02  0.45594000000E+02  0.51100000000E-03 0. -1.
         11   -1    0    0    0    0 -0.00000000000E+00 -0.00000000000E+00 -0.45593999997E+02  0.45594000000E+02  0.51100000000E-03 0.  1.
         23    2    1    2    0    0 -0.35527136788E-14 -0.44408920985E-15  0.00000000000E+00  0.91188000000E+02  0.91188000000E+02 0.  0.
    9900012    2    3    3    0    0 -0.17935873289E+02  0.27345152012E+01  0.32040712365E+02  0.54367076969E+02  0.39999983565E+02 0.  0.
        -12    1    3    3    0    0  0.17935873289E+02 -0.27345152012E+01 -0.32040712365E+02  0.36820923031E+02  0.00000000000E+00 0.  1.
         11    1    4    4    0    0  0.54354871790E+01  0.83213036920E+01  0.14008037558E+02  0.17175963801E+02  0.51100000000E-03 0. -1.
        -11    1    4    4    0    0 -0.75013403641E+01  0.39399794361E+00 -0.46761394767E+01  0.88482553255E+01  0.51100000000E-03 0.  1.
         12    1    4    4    0    0 -0.15870020103E+02 -0.59807864345E+01  0.22708814284E+02  0.28342857842E+02  0.00000000000E+00 0. -1.
</event>
<event>
 8    1  0.1248739E-006  0.9118800E+02  0.7816164E-02  0.1184000E+00
        -11   -1    0    0    0    0  0.00000000000E+00  0.00000000000E+00  0.45593999997E+02  0.45594000000E+02  0.51100000000E-03 0.  1.
         11   -1    0    0    0    0 -0.00000000000E+00 -0.00000000000E+00 -0.45593999997E+02  0.45594000000E+02  0.51100000000E-03 0. -1.
         23    2    1    2    0    0  0.88817841970E-15  0.00000000000E+00  0.00000000000E+00  0.91188000000E+02  0.91188000000E+02 0.  0.
    9900012    2    3    3    0    0  0.68437892820E+01  0.79378484701E+01  0.35297775397E+02  0.54367084231E+02  0.40000000121E+02 0.  0.
         12    1    3    3    0    0 -0.68437892820E+01 -0.79378484701E+01 -0.35297775397E+02  0.36820915769E+02  0.00000000000E+00 0. -1.
         11    1    4    4    0    0 -0.94900544279E+01  0.62606962581E+00  0.39960191034E+01  0.10316068299E+02  0.51100000000E-03 0. -1.
        -11    1    4    4    0    0  0.96048830040E+01  0.18224170178E+01  0.33661249250E+02  0.35052170869E+02  0.51100000000E-03 0.  1.
        -12    1    4    4    0    0  0.67289607060E+01  0.54893618265E+01 -0.23594929561E+01  0.89988450623E+01  0.00000000000E+00 0.  1.
</event>
<event>
 8    1  0.1248739E-006  0.9118800E+02  0.7816164E-02  0.1184000E+00
        -11   -1    0    0    0    0  0.00000000000E+00  0.00000000000E+00  0.45593999997E+02  0.45594000000E+02  0.51100000000E-03 0.  1.
         11   -1    0    0    0    0 -0.00000000000E+00 -0.00000000000E+00 -0.45593999997E+02  0.45594000000E+02  0.51100000000E-03 0. -1.
         23    2    1    2    0    0  0.00000000000E+00  0.00000000000E+00  0.00000000000E+00  0.91188000000E+02  0.91188000000E+02 0.  0.
    9900012    2    3    3    0    0 -0.33577425380E+02 -0.42556514493E+01 -0.14499166689E+02  0.54367083402E+02  0.39999998232E+02 0.  0.
        -12    1    3    3    0    0  0.33577425380E+02  0.42556514493E+01  0.14499166689E+02  0.36820916598E+02  0.00000000000E+00 0.  1.
         11    1    4    4    0    0  0.45285976021E+01 -0.40347583454E+01 -0.37629141487E+01  0.71377163224E+01  0.51100000000E-03 0. -1.
        -11    1    4    4    0    0  0.10341073773E+01 -0.16323099858E+01 -0.77084328188E+01  0.79469334174E+01  0.51100000000E-03 0.  1.
         12    1    4    4    0    0 -0.39140130360E+02  0.14114168819E+01 -0.30278197217E+01  0.39282433662E+02  0.00000000000E+00 0. -1.
</event>
<event>
 8    1  0.1248739E-006  0.9118800E+02  0.7816164E-02  0.1184000E+00
        -11   -1    0    0    0    0  0.00000000000E+00  0.00000000000E+00  0.45593999997E+02  0.45594000000E+02  0.51100000000E-03 0. -1.
         11   -1    0    0    0    0 -0.00000000000E+00 -0.00000000000E+00 -0.45593999997E+02  0.45594000000E+02  0.51100000000E-03 0.  1.
         23    2    1    2    0    0 -0.35527136788E-14  0.35527136788E-14  0.00000000000E+00  0.91188000000E+02  0.91188000000E+02 0.  0.
    9900012    2    3    3    0    0  0.16420339620E+02 -0.23206374338E+02 -0.23401102287E+02  0.54367150588E+02  0.40000151395E+02 0.  0.
         12    1    3    3    0    0 -0.16420339620E+02  0.23206374338E+02  0.23401102287E+02  0.36820849412E+02  0.00000000000E+00 0. -1.
         11    1    4    4    0    0  0.90257481331E+01  0.63768602646E+01 -0.64149165729E+01  0.12778091841E+02  0.51100000000E-03 0. -1.
        -11    1    4    4    0    0  0.13958682018E+02 -0.10415713763E+02 -0.53240775283E+01  0.18212020718E+02  0.51100000000E-03 0.  1.
        -12    1    4    4    0    0 -0.65640905304E+01 -0.19167520840E+02 -0.11662108186E+02  0.23377038029E+02  0.00000000000E+00 0.  1.
</event>
<event>
 8    1  0.1248739E-006  0.9118800E+02  0.7816164E-02  0.1184000E+00
        -11   -1    0    0    0    0  0.00000000000E+00  0.00000000000E+00  0.45593999997E+02  0.45594000000E+02  0.51100000000E-03 0.  1.
         11   -1    0    0    0    0 -0.00000000000E+00 -0.00000000000E+00 -0.45593999997E+02  0.45594000000E+02  0.51100000000E-03 0. -1.
         23    2    1    2    0    0  0.00000000000E+00  0.00000000000E+00  0.00000000000E+00  0.91188000000E+02  0.91188000000E+02 0.  0.
    9900012    2    3    3    0    0 -0.97864161151E+01 -0.34756539505E+02  0.72103752377E+01  0.54367075380E+02  0.39999979945E+02 0.  0.
         12    1    3    3    0    0  0.97864161151E+01  0.34756539505E+02 -0.72103752377E+01  0.36820924620E+02  0.00000000000E+00 0. -1.
         11    1    4    4    0    0  0.76815500040E+01 -0.89101138435E+00 -0.97874557873E+00  0.77947453403E+01  0.51100000000E-03 0. -1.
        -11    1    4    4    0    0 -0.38677705969E+01 -0.31241737492E+02  0.24369515951E+01  0.31574428645E+02  0.51100000000E-03 0.  1.
        -12    1    4    4    0    0 -0.13600195522E+02 -0.26237906288E+01  0.57521692213E+01  0.14997901395E+02  0.00000000000E+00 0.  1.
</event>
<event>
 8    1  0.1248739E-006  0.9118800E+02  0.7816164E-02  0.1184000E+00
        -11   -1    0    0    0    0  0.00000000000E+00  0.00000000000E+00  0.45593999997E+02  0.45594000000E+02  0.51100000000E-03 0.  1.
         11   -1    0    0    0    0 -0.00000000000E+00 -0.00000000000E+00 -0.45593999997E+02  0.45594000000E+02  0.51100000000E-03 0. -1.
         23    2    1    2    0    0 -0.35527136788E-14  0.00000000000E+00  0.00000000000E+00  0.91188000000E+02  0.91188000000E+02 0.  0.
    9900012    2    3    3    0    0 -0.28789960072E+02  0.17412996068E+02  0.14956768624E+02  0.54367093430E+02  0.40000021092E+02 0.  0.
         12    1    3    3    0    0  0.28789960072E+02 -0.17412996068E+02 -0.14956768624E+02  0.36820906570E+02  0.00000000000E+00 0. -1.
         11    1    4    4    0    0 -0.11207396411E+02  0.10575322945E+01  0.16610955758E+02  0.20066089812E+02  0.51100000000E-03 0. -1.
        -11    1    4    4    0    0 -0.67957745210E+01  0.15001221355E+02  0.92621902544E+01  0.18894638448E+02  0.51100000000E-03 0.  1.
         12    1    4    4    0    0 -0.10786789139E+02  0.13542424182E+01 -0.10916377389E+02  0.15406365170E+02  0.00000000000E+00 0. -1.
</event>
<event>
 8    1  0.1248739E-006  0.9118800E+02  0.7816164E-02  0.1184000E+00
        -11   -1    0    0    0    0  0.00000000000E+00  0.00000000000E+00  0.45593999997E+02  0.45594000000E+02  0.51100000000E-03 0.  1.
         11   -1    0    0    0    0 -0.00000000000E+00 -0.00000000000E+00 -0.45593999997E+02  0.45594000000E+02  0.51100000000E-03 0. -1.
         23    2    1    2    0    0 -0.71054273576E-14  0.00000000000E+00  0.00000000000E+00  0.91188000000E+02  0.91188000000E+02 0.  0.
    9900012    2    3    3    0    0  0.32593945875E+02  0.16763182873E+02 -0.35231862244E+01  0.54367048778E+02  0.39999919299E+02 0.  0.
        -12    1    3    3    0    0 -0.32593945875E+02 -0.16763182873E+02  0.35231862244E+01  0.36820951222E+02  0.00000000000E+00 0.  1.
         11    1    4    4    0    0  0.93105241581E+01 -0.39116206855E+01  0.50320076505E+01  0.11283073063E+02  0.51100000000E-03 0.  1.
        -11    1    4    4    0    0  0.27581902001E+02  0.24100536089E+02 -0.64145913721E+01  0.37185267789E+02  0.51100000000E-03 0. -1.
         12    1    4    4    0    0 -0.42984802845E+01 -0.34257325304E+01 -0.21406025027E+01  0.58987079264E+01  0.00000000000E+00 0. -1.
</event>
<event>
 8    1  0.1248739E-006  0.9118800E+02  0.7816164E-02  0.1184000E+00
        -11   -1    0    0    0    0  0.00000000000E+00  0.00000000000E+00  0.45593999997E+02  0.45594000000E+02  0.51100000000E-03 0.  1.
         11   -1    0    0    0    0 -0.00000000000E+00 -0.00000000000E+00 -0.45593999997E+02  0.45594000000E+02  0.51100000000E-03 0. -1.
         23    2    1    2    0    0  0.00000000000E+00  0.26645352591E-14 -0.35527136788E-14  0.91188000000E+02  0.91188000000E+02 0.  0.
    9900012    2    3    3    0    0  0.19266512366E+02  0.59077361713E+01 -0.30816899943E+02  0.54367066178E+02  0.39999958967E+02 0.  0.
        -12    1    3    3    0    0 -0.19266512366E+02 -0.59077361713E+01  0.30816899943E+02  0.36820933822E+02  0.00000000000E+00 0.  1.
         11    1    4    4    0    0 -0.44501196193E+01 -0.99143413927E+01  0.14879990057E+01  0.10968676820E+02  0.51100000000E-03 0. -1.
        -11    1    4    4    0    0  0.11094875453E+02  0.54778930878E+01 -0.10957124854E+02  0.16527618078E+02  0.51100000000E-03 0.  1.
         12    1    4    4    0    0  0.12621756532E+02  0.10344184476E+02 -0.21347774094E+02  0.26870771281E+02  0.00000000000E+00 0. -1.
</event>
<event>
 8    1  0.1248739E-006  0.9118800E+02  0.7816164E-02  0.1184000E+00
        -11   -1    0    0    0    0  0.00000000000E+00  0.00000000000E+00  0.45593999997E+02  0.45594000000E+02  0.51100000000E-03 0.  1.
         11   -1    0    0    0    0 -0.00000000000E+00 -0.00000000000E+00 -0.45593999997E+02  0.45594000000E+02  0.51100000000E-03 0. -1.
         23    2    1    2    0    0  0.35527136788E-14  0.71054273576E-14 -0.35527136788E-14  0.91188000000E+02  0.91188000000E+02 0.  0.
    9900012    2    3    3    0    0  0.16349591629E+02  0.26526725655E+02 -0.19616421712E+02  0.54367077670E+02  0.39999985165E+02 0.  0.
        -12    1    3    3    0    0 -0.16349591629E+02 -0.26526725655E+02  0.19616421712E+02  0.36820922330E+02  0.00000000000E+00 0.  1.
         11    1    4    4    0    0 -0.67743334604E+01  0.17520336703E+01 -0.21949439407E+01  0.73334163238E+01  0.51100000000E-03 0. -1.
        -11    1    4    4    0    0  0.15243061539E+02 -0.17599980615E+01 -0.10205551739E+02  0.18428288168E+02  0.51100000000E-03 0.  1.
         12    1    4    4    0    0  0.78808635508E+01  0.26534690047E+02 -0.72159260329E+01  0.28605373179E+02  0.00000000000E+00 0. -1.
</event>
<event>
 8    1  0.1248739E-006  0.9118800E+02  0.7816164E-02  0.1184000E+00
        -11   -1    0    0    0    0  0.00000000000E+00  0.00000000000E+00  0.45593999997E+02  0.45594000000E+02  0.51100000000E-03 0. -1.
         11   -1    0    0    0    0 -0.00000000000E+00 -0.00000000000E+00 -0.45593999997E+02  0.45594000000E+02  0.51100000000E-03 0.  1.
         23    2    1    2    0    0  0.00000000000E+00 -0.88817841970E-15 -0.71054273576E-14  0.91188000000E+02  0.91188000000E+02 0.  0.
    9900012    2    3    3    0    0  0.21383774906E+01 -0.41231133551E+01 -0.36526787526E+02  0.54367096576E+02  0.40000028264E+02 0.  0.
         12    1    3    3    0    0 -0.21383774906E+01  0.41231133551E+01  0.36526787526E+02  0.36820903424E+02  0.00000000000E+00 0. -1.
         11    1    4    4    0    0  0.62990660946E+01 -0.51108006568E+01 -0.24624074738E+02  0.25925731889E+02  0.51100000000E-03 0.  1.
        -11    1    4    4    0    0 -0.10875086748E+02 -0.49246375862E+01 -0.14820928085E+02  0.19031013549E+02  0.51100000000E-03 0. -1.
        -12    1    4    4    0    0  0.67143981442E+01  0.59123248879E+01  0.29182152975E+01  0.94103511380E+01  0.00000000000E+00 0.  1.
</event>
<event>
 8    1  0.1248739E-006  0.9118800E+02  0.7816164E-02  0.1184000E+00
        -11   -1    0    0    0    0  0.00000000000E+00  0.00000000000E+00  0.45593999997E+02  0.45594000000E+02  0.51100000000E-03 0.  1.
         11   -1    0    0    0    0 -0.00000000000E+00 -0.00000000000E+00 -0.45593999997E+02  0.45594000000E+02  0.51100000000E-03 0. -1.
         23    2    1    2    0    0 -0.44408920985E-15 -0.22204460493E-14  0.00000000000E+00  0.91188000000E+02  0.91188000000E+02 0.  0.
    9900012    2    3    3    0    0 -0.34348061111E+01  0.84624482363E+00  0.36650604748E+02  0.54367070466E+02  0.39999968742E+02 0.  0.
         12    1    3    3    0    0  0.34348061111E+01 -0.84624482363E+00 -0.36650604748E+02  0.36820929534E+02  0.00000000000E+00 0. -1.
         11    1    4    4    0    0 -0.56183632345E+01 -0.12647852964E+02  0.19513462703E+02  0.23922989298E+02  0.51100000000E-03 0. -1.
        -11    1    4    4    0    0 -0.86064610958E+01  0.11055328306E+02  0.10846945647E+02  0.17718568979E+02  0.51100000000E-03 0.  1.
        -12    1    4    4    0    0  0.10790018219E+02  0.24387694812E+01  0.62901963987E+01  0.12725512190E+02  0.00000000000E+00 0.  1.
</event>
<event>
 8    1  0.1248739E-006  0.9118800E+02  0.7816164E-02  0.1184000E+00
        -11   -1    0    0    0    0  0.00000000000E+00  0.00000000000E+00  0.45593999997E+02  0.45594000000E+02  0.51100000000E-03 0.  1.
         11   -1    0    0    0    0 -0.00000000000E+00 -0.00000000000E+00 -0.45593999997E+02  0.45594000000E+02  0.51100000000E-03 0. -1.
         23    2    1    2    0    0 -0.35527136788E-14  0.26645352591E-14  0.00000000000E+00  0.91188000000E+02  0.91188000000E+02 0.  0.
    9900012    2    3    3    0    0  0.24296114175E+02  0.66316799735E+01  0.26860736007E+02  0.54367089064E+02  0.40000011140E+02 0.  0.
         12    1    3    3    0    0 -0.24296114175E+02 -0.66316799735E+01 -0.26860736007E+02  0.36820910936E+02  0.00000000000E+00 0. -1.
         11    1    4    4    0    0  0.16844858186E+02 -0.94130358939E+01  0.75869230306E+01  0.20734413264E+02  0.51100000000E-03 0. -1.
        -11    1    4    4    0    0  0.82194641215E+01  0.20516795986E+02  0.18897630039E+02  0.29079527667E+02  0.51100000000E-03 0.  1.
         12    1    4    4    0    0 -0.76820813252E+00 -0.44720801189E+01  0.37618293743E+00  0.45531481337E+01  0.00000000000E+00 0. -1.
</event>
<event>
 8    1  0.1248739E-006  0.9118800E+02  0.7816164E-02  0.1184000E+00
        -11   -1    0    0    0    0  0.00000000000E+00  0.00000000000E+00  0.45593999997E+02  0.45594000000E+02  0.51100000000E-03 0.  1.
         11   -1    0    0    0    0 -0.00000000000E+00 -0.00000000000E+00 -0.45593999997E+02  0.45594000000E+02  0.51100000000E-03 0. -1.
         23    2    1    2    0    0 -0.88817841970E-15  0.71054273576E-14  0.00000000000E+00  0.91188000000E+02  0.91188000000E+02 0.  0.
    9900012    2    3    3    0    0  0.45422801606E+01 -0.19414307729E+02  0.30955328740E+02  0.54367081610E+02  0.39999994147E+02 0.  0.
         12    1    3    3    0    0 -0.45422801606E+01  0.19414307729E+02 -0.30955328740E+02  0.36820918390E+02  0.00000000000E+00 0. -1.
         11    1    4    4    0    0  0.12988010535E+01  0.33890933683E+00 -0.37052328649E+01  0.39408748470E+01  0.51100000000E-03 0. -1.
        -11    1    4    4    0    0 -0.90905765281E+01 -0.16375805380E+01 -0.21141578796E+00  0.92393153712E+01  0.51100000000E-03 0.  1.
        -12    1    4    4    0    0  0.12334055635E+02 -0.18115636528E+02  0.34871977393E+02  0.41186891392E+02  0.00000000000E+00 0.  1.
</event>
<event>
 8    1  0.1248739E-006  0.9118800E+02  0.7816164E-02  0.1184000E+00
        -11   -1    0    0    0    0  0.00000000000E+00  0.00000000000E+00  0.45593999997E+02  0.45594000000E+02  0.51100000000E-03 0.  1.
         11   -1    0    0    0    0 -0.00000000000E+00 -0.00000000000E+00 -0.45593999997E+02  0.45594000000E+02  0.51100000000E-03 0. -1.
         23    2    1    2    0    0  0.00000000000E+00 -0.17763568394E-14  0.00000000000E+00  0.91188000000E+02  0.91188000000E+02 0.  0.
    9900012    2    3    3    0    0 -0.12093504707E+02 -0.11183136023E+02  0.32931217729E+02  0.54367075399E+02  0.39999979986E+02 0.  0.
         12    1    3    3    0    0  0.12093504707E+02  0.11183136023E+02 -0.32931217729E+02  0.36820924601E+02  0.00000000000E+00 0. -1.
         11    1    4    4    0    0 -0.24321069355E+01  0.75496603887E+01  0.93236490807E+01  0.12241035437E+02  0.51100000000E-03 0. -1.
        -11    1    4    4    0    0 -0.11715979514E+02 -0.17906061738E+02  0.29148021978E+02  0.36159347456E+02  0.51100000000E-03 0.  1.
        -12    1    4    4    0    0  0.20545817420E+01 -0.82673467334E+00 -0.55404533300E+01  0.59666925056E+01  0.00000000000E+00 0.  1.
</event>
<event>
 8    1  0.1248739E-006  0.9118800E+02  0.7816164E-02  0.1184000E+00
        -11   -1    0    0    0    0  0.00000000000E+00  0.00000000000E+00  0.45593999997E+02  0.45594000000E+02  0.51100000000E-03 0.  1.
         11   -1    0    0    0    0 -0.00000000000E+00 -0.00000000000E+00 -0.45593999997E+02  0.45594000000E+02  0.51100000000E-03 0. -1.
         23    2    1    2    0    0  0.00000000000E+00  0.00000000000E+00  0.17763568394E-14  0.91188000000E+02  0.91188000000E+02 0.  0.
    9900012    2    3    3    0    0  0.14609948640E+02 -0.33343910904E+02 -0.55238797510E+01  0.54367078757E+02  0.39999987643E+02 0.  0.
         12    1    3    3    0    0 -0.14609948640E+02  0.33343910904E+02  0.55238797510E+01  0.36820921243E+02  0.00000000000E+00 0. -1.
         11    1    4    4    0    0  0.27164811124E+01 -0.18172481592E+02 -0.85857248751E+01  0.20281346817E+02  0.51100000000E-03 0. -1.
        -11    1    4    4    0    0  0.15265712788E+02 -0.29061415153E+01 -0.77738042682E+01  0.17375836052E+02  0.51100000000E-03 0.  1.
        -12    1    4    4    0    0 -0.33722452602E+01 -0.12265287797E+02  0.10835649392E+02  0.16709895888E+02  0.00000000000E+00 0.  1.
</event>
<event>
 8    1  0.1248739E-006  0.9118800E+02  0.7816164E-02  0.1184000E+00
        -11   -1    0    0    0    0  0.00000000000E+00  0.00000000000E+00  0.45593999997E+02  0.45594000000E+02  0.51100000000E-03 0. -1.
         11   -1    0    0    0    0 -0.00000000000E+00 -0.00000000000E+00 -0.45593999997E+02  0.45594000000E+02  0.51100000000E-03 0.  1.
         23    2    1    2    0    0  0.00000000000E+00  0.00000000000E+00  0.35527136788E-14  0.91188000000E+02  0.91188000000E+02 0.  0.
    9900012    2    3    3    0    0 -0.23214955652E+02 -0.96371748744E+01  0.26906740998E+02  0.54367054648E+02  0.39999932680E+02 0.  0.
        -12    1    3    3    0    0  0.23214955652E+02  0.96371748744E+01 -0.26906740998E+02  0.36820945352E+02  0.00000000000E+00 0.  1.
         11    1    4    4    0    0  0.14874436548E+00 -0.14753412199E+02  0.20521380154E+02  0.25274737191E+02  0.51100000000E-03 0.  1.
        -11    1    4    4    0    0 -0.16103732155E+02  0.41739529745E+01  0.11445516051E+02  0.20192867817E+02  0.51100000000E-03 0. -1.
        -12    1    4    4    0    0 -0.72599678623E+01  0.94228435058E+00 -0.50601552064E+01  0.88994496387E+01  0.00000000000E+00 0.  1.
</event>
<event>
 8    1  0.1248739E-006  0.9118800E+02  0.7816164E-02  0.1184000E+00
        -11   -1    0    0    0    0  0.00000000000E+00  0.00000000000E+00  0.45593999997E+02  0.45594000000E+02  0.51100000000E-03 0. -1.
         11   -1    0    0    0    0 -0.00000000000E+00 -0.00000000000E+00 -0.45593999997E+02  0.45594000000E+02  0.51100000000E-03 0.  1.
         23    2    1    2    0    0  0.00000000000E+00  0.00000000000E+00  0.44408920985E-15  0.91188000000E+02  0.91188000000E+02 0.  0.
    9900012    2    3    3    0    0 -0.36550322415E+02 -0.21888721190E+01 -0.38807184025E+01  0.54367119984E+02  0.40000081628E+02 0.  0.
        -12    1    3    3    0    0  0.36550322415E+02  0.21888721190E+01  0.38807184025E+01  0.36820880016E+02  0.00000000000E+00 0.  1.
         11    1    4    4    0    0  0.20759604629E+01 -0.11697166062E+02 -0.10175924341E+01  0.11923455890E+02  0.51100000000E-03 0. -1.
        -11    1    4    4    0    0 -0.52611387062E+01  0.71604214019E+01 -0.10441447825E+01  0.89465889436E+01  0.51100000000E-03 0.  1.
         12    1    4    4    0    0 -0.33365144172E+02  0.23478725412E+01 -0.18189811860E+01  0.33497075151E+02  0.00000000000E+00 0. -1.
</event>
<event>
 8    1  0.1248739E-006  0.9118800E+02  0.7816164E-02  0.1184000E+00
        -11   -1    0    0    0    0  0.00000000000E+00  0.00000000000E+00  0.45593999997E+02  0.45594000000E+02  0.51100000000E-03 0.  1.
         11   -1    0    0    0    0 -0.00000000000E+00 -0.00000000000E+00 -0.45593999997E+02  0.45594000000E+02  0.51100000000E-03 0. -1.
         23    2    1    2    0    0 -0.35527136788E-14  0.35527136788E-14 -0.35527136788E-14  0.91188000000E+02  0.91188000000E+02 0.  0.
    9900012    2    3    3    0    0  0.22648349040E+02  0.21198504660E+02 -0.19835713659E+02  0.54367084063E+02  0.39999999739E+02 0.  0.
        -12    1    3    3    0    0 -0.22648349040E+02 -0.21198504660E+02  0.19835713659E+02  0.36820915937E+02  0.00000000000E+00 0.  1.
         11    1    4    4    0    0  0.17913416356E+02  0.22054032590E+02 -0.12538895421E+02  0.31056315584E+02  0.51100000000E-03 0. -1.
        -11    1    4    4    0    0 -0.25672967542E+01 -0.88397825414E+01 -0.83651984888E+01  0.12438219890E+02  0.51100000000E-03 0.  1.
        -12    1    4    4    0    0  0.73022294379E+01  0.79842546123E+01  0.10683802511E+01  0.10872548590E+02  0.00000000000E+00 0.  1.
</event>
<event>
 8    1  0.1248739E-006  0.9118800E+02  0.7816164E-02  0.1184000E+00
        -11   -1    0    0    0    0  0.00000000000E+00  0.00000000000E+00  0.45593999997E+02  0.45594000000E+02  0.51100000000E-03 0.  1.
         11   -1    0    0    0    0 -0.00000000000E+00 -0.00000000000E+00 -0.45593999997E+02  0.45594000000E+02  0.51100000000E-03 0. -1.
         23    2    1    2    0    0  0.00000000000E+00 -0.44408920985E-15  0.00000000000E+00  0.91188000000E+02  0.91188000000E+02 0.  0.
    9900012    2    3    3    0    0 -0.34572530637E+02 -0.21863687541E+01  0.12479566512E+02  0.54367086605E+02  0.40000005533E+02 0.  0.
        -12    1    3    3    0    0  0.34572530637E+02  0.21863687541E+01 -0.12479566512E+02  0.36820913395E+02  0.00000000000E+00 0.  1.
         11    1    4    4    0    0 -0.55094498416E+00 -0.10258158816E+02 -0.12475737636E+01  0.10348420326E+02  0.51100000000E-03 0. -1.
        -11    1    4    4    0    0 -0.16132838956E+02 -0.32021947038E+01  0.15755957643E+02  0.22776583265E+02  0.51100000000E-03 0.  1.
         12    1    4    4    0    0 -0.17888746696E+02  0.11273984766E+02 -0.20288173680E+01  0.21242083014E+02  0.00000000000E+00 0. -1.
</event>
<event>
 8    1  0.1248739E-006  0.9118800E+02  0.7816164E-02  0.1184000E+00
        -11   -1    0    0    0    0  0.00000000000E+00  0.00000000000E+00  0.45593999997E+02  0.45594000000E+02  0.51100000000E-03 0.  1.
         11   -1    0    0    0    0 -0.00000000000E+00 -0.00000000000E+00 -0.45593999997E+02  0.45594000000E+02  0.51100000000E-03 0. -1.
         23    2    1    2    0    0  0.88817841970E-15  0.00000000000E+00 -0.71054273576E-14  0.91188000000E+02  0.91188000000E+02 0.  0.
    9900012    2    3    3    0    0  0.69064450266E+01 -0.11433028594E+02 -0.34312736602E+02  0.54367122514E+02  0.40000087395E+02 0.  0.
        -12    1    3    3    0    0 -0.69064450266E+01  0.11433028594E+02  0.34312736602E+02  0.36820877486E+02  0.00000000000E+00 0.  1.
         11    1    4    4    0    0  0.12668709354E+02 -0.20608094772E+01 -0.30064979595E+02  0.32690153421E+02  0.51100000000E-03 0. -1.
        -11    1    4    4    0    0  0.17805227264E+01 -0.12190800453E+02 -0.55633182410E+01  0.13518002329E+02  0.51100000000E-03 0.  1.
        -12    1    4    4    0    0 -0.75427870536E+01  0.28185813361E+01  0.13155612345E+01  0.81589667634E+01  0.00000000000E+00 0.  1.
</event>
<event>
 8    1  0.1248739E-006  0.9118800E+02  0.7816164E-02  0.1184000E+00
        -11   -1    0    0    0    0  0.00000000000E+00  0.00000000000E+00  0.45593999997E+02  0.45594000000E+02  0.51100000000E-03 0.  1.
         11   -1    0    0    0    0 -0.00000000000E+00 -0.00000000000E+00 -0.45593999997E+02  0.45594000000E+02  0.51100000000E-03 0. -1.
         23    2    1    2    0    0 -0.35527136788E-14  0.00000000000E+00 -0.17763568394E-14  0.91188000000E+02  0.91188000000E+02 0.  0.
    9900012    2    3    3    0    0 -0.26926850979E+02 -0.19511879331E+02 -0.15811709185E+02  0.54367097159E+02  0.40000029593E+02 0.  0.
        -12    1    3    3    0    0  0.26926850979E+02  0.19511879331E+02  0.15811709185E+02  0.36820902841E+02  0.00000000000E+00 0.  1.
         11    1    4    4    0    0 -0.11338075028E+02 -0.44910440729E+01 -0.17865526898E+02  0.21630961000E+02  0.51100000000E-03 0. -1.
        -11    1    4    4    0    0 -0.10402986220E+02  0.41853886845E+01 -0.40570631311E+01  0.11924737408E+02  0.51100000000E-03 0.  1.
        -12    1    4    4    0    0 -0.51857897311E+01 -0.19206223943E+02  0.61108808438E+01  0.20811398751E+02  0.00000000000E+00 0.  1.
</event>
<event>
 8    1  0.1248739E-006  0.9118800E+02  0.7816164E-02  0.1184000E+00
        -11   -1    0    0    0    0  0.00000000000E+00  0.00000000000E+00  0.45593999997E+02  0.45594000000E+02  0.51100000000E-03 0. -1.
         11   -1    0    0    0    0 -0.00000000000E+00 -0.00000000000E+00 -0.45593999997E+02  0.45594000000E+02  0.51100000000E-03 0.  1.
         23    2    1    2    0    0 -0.88817841970E-15  0.00000000000E+00 -0.71054273576E-14  0.91188000000E+02  0.91188000000E+02 0.  0.
    9900012    2    3    3    0    0  0.57148690971E+01 -0.16931918781E+02 -0.32193624223E+02  0.54367095027E+02  0.40000024733E+02 0.  0.
         12    1    3    3    0    0 -0.57148690971E+01  0.16931918781E+02  0.32193624223E+02  0.36820904973E+02  0.00000000000E+00 0. -1.
         11    1    4    4    0    0 -0.15154530736E+01 -0.16631046222E+02 -0.31334860387E+02  0.35507207327E+02  0.51100000000E-03 0. -1.
        -11    1    4    4    0    0  0.88317071398E+01 -0.20132408546E+01 -0.75358918577E+01  0.11783117418E+02  0.51100000000E-03 0.  1.
         12    1    4    4    0    0 -0.16013849690E+01  0.17123682952E+01  0.66771280218E+01  0.70767702815E+01  0.00000000000E+00 0. -1.
</event>
<event>
 8    1  0.1248739E-006  0.9118800E+02  0.7816164E-02  0.1184000E+00
        -11   -1    0    0    0    0  0.00000000000E+00  0.00000000000E+00  0.45593999997E+02  0.45594000000E+02  0.51100000000E-03 0.  1.
         11   -1    0    0    0    0 -0.00000000000E+00 -0.00000000000E+00 -0.45593999997E+02  0.45594000000E+02  0.51100000000E-03 0. -1.
         23    2    1    2    0    0  0.00000000000E+00 -0.35527136788E-14  0.88817841970E-15  0.91188000000E+02  0.91188000000E+02 0.  0.
    9900012    2    3    3    0    0  0.22615085897E+02 -0.28600432139E+02  0.51335034840E+01  0.54367086286E+02  0.40000004807E+02 0.  0.
        -12    1    3    3    0    0 -0.22615085897E+02  0.28600432139E+02 -0.51335034840E+01  0.36820913714E+02  0.00000000000E+00 0.  1.
         11    1    4    4    0    0  0.20267164435E+02 -0.33493457249E+02  0.31502794291E+01  0.39274596031E+02  0.51100000000E-03 0.  1.
        -11    1    4    4    0    0  0.25332876642E+01  0.52338608154E+00 -0.56955958358E+01  0.62555009045E+01  0.51100000000E-03 0. -1.
        -12    1    4    4    0    0 -0.18536620139E+00  0.43696390280E+01  0.76788198907E+01  0.88369893503E+01  0.00000000000E+00 0.  1.
</event>
<event>
 8    1  0.1248739E-006  0.9118800E+02  0.7816164E-02  0.1184000E+00
        -11   -1    0    0    0    0  0.00000000000E+00  0.00000000000E+00  0.45593999997E+02  0.45594000000E+02  0.51100000000E-03 0. -1.
         11   -1    0    0    0    0 -0.00000000000E+00 -0.00000000000E+00 -0.45593999997E+02  0.45594000000E+02  0.51100000000E-03 0.  1.
         23    2    1    2    0    0  0.00000000000E+00  0.17763568394E-14 -0.88817841970E-15  0.91188000000E+02  0.91188000000E+02 0.  0.
    9900012    2    3    3    0    0 -0.34630531397E+02  0.10955739120E+02  0.60396910822E+01  0.54367084844E+02  0.40000001519E+02 0.  0.
        -12    1    3    3    0    0  0.34630531397E+02 -0.10955739120E+02 -0.60396910822E+01  0.36820915156E+02  0.00000000000E+00 0.  1.
         11    1    4    4    0    0 -0.30095468046E+02  0.10024600314E+02 -0.65979195506E+01  0.32400036281E+02  0.51100000000E-03 0. -1.
        -11    1    4    4    0    0 -0.84111434832E+00 -0.44871123567E+01 -0.26877020080E+01  0.52976780756E+01  0.51100000000E-03 0.  1.
         12    1    4    4    0    0 -0.36939490032E+01  0.54182511628E+01  0.15325312641E+02  0.16669370487E+02  0.00000000000E+00 0. -1.
</event>
<event>
 8    1  0.1248739E-006  0.9118800E+02  0.7816164E-02  0.1184000E+00
        -11   -1    0    0    0    0  0.00000000000E+00  0.00000000000E+00  0.45593999997E+02  0.45594000000E+02  0.51100000000E-03 0.  1.
         11   -1    0    0    0    0 -0.00000000000E+00 -0.00000000000E+00 -0.45593999997E+02  0.45594000000E+02  0.51100000000E-03 0. -1.
         23    2    1    2    0    0  0.00000000000E+00  0.17763568394E-14  0.00000000000E+00  0.91188000000E+02  0.91188000000E+02 0.  0.
    9900012    2    3    3    0    0 -0.19824042844E+02  0.87156485917E+01  0.29779589317E+02  0.54367093643E+02  0.40000021578E+02 0.  0.
         12    1    3    3    0    0  0.19824042844E+02 -0.87156485917E+01 -0.29779589317E+02  0.36820906357E+02  0.00000000000E+00 0. -1.
         11    1    4    4    0    0 -0.35762436883E+01  0.99547262317E+01  0.84009207673E+01  0.13507833404E+02  0.51100000000E-03 0. -1.
        -11    1    4    4    0    0 -0.12069991176E+02  0.88441641041E+01  0.25189422648E+02  0.29298650810E+02  0.51100000000E-03 0.  1.
        -12    1    4    4    0    0 -0.41778079800E+01 -0.10083241744E+02 -0.38107540982E+01  0.11560609430E+02  0.00000000000E+00 0.  1.
</event>
<event>
 8    1  0.1248739E-006  0.9118800E+02  0.7816164E-02  0.1184000E+00
        -11   -1    0    0    0    0  0.00000000000E+00  0.00000000000E+00  0.45593999997E+02  0.45594000000E+02  0.51100000000E-03 0. -1.
         11   -1    0    0    0    0 -0.00000000000E+00 -0.00000000000E+00 -0.45593999997E+02  0.45594000000E+02  0.51100000000E-03 0.  1.
         23    2    1    2    0    0  0.00000000000E+00 -0.35527136788E-14  0.00000000000E+00  0.91188000000E+02  0.91188000000E+02 0.  0.
    9900012    2    3    3    0    0 -0.12725041561E+02  0.25771751789E+02 -0.23014552036E+02  0.54367089115E+02  0.40000011256E+02 0.  0.
         12    1    3    3    0    0  0.12725041561E+02 -0.25771751789E+02  0.23014552036E+02  0.36820910885E+02  0.00000000000E+00 0. -1.
         11    1    4    4    0    0  0.35563956380E+01 -0.26440447742E+01 -0.14153669675E+02  0.14831226794E+02  0.51100000000E-03 0. -1.
        -11    1    4    4    0    0 -0.61342495653E+01  0.19518550217E+02 -0.14325072830E+02  0.24976199313E+02  0.51100000000E-03 0.  1.
         12    1    4    4    0    0 -0.10147187634E+02  0.88972463463E+01  0.54641904688E+01  0.14559663008E+02  0.00000000000E+00 0. -1.
</event>
<event>
 8    1  0.1248739E-006  0.9118800E+02  0.7816164E-02  0.1184000E+00
        -11   -1    0    0    0    0  0.00000000000E+00  0.00000000000E+00  0.45593999997E+02  0.45594000000E+02  0.51100000000E-03 0. -1.
         11   -1    0    0    0    0 -0.00000000000E+00 -0.00000000000E+00 -0.45593999997E+02  0.45594000000E+02  0.51100000000E-03 0.  1.
         23    2    1    2    0    0  0.00000000000E+00  0.00000000000E+00  0.00000000000E+00  0.91188000000E+02  0.91188000000E+02 0.  0.
    9900012    2    3    3    0    0 -0.19701550544E+02 -0.21436973771E+02 -0.22540723375E+02  0.54367093594E+02  0.40000021465E+02 0.  0.
         12    1    3    3    0    0  0.19701550544E+02  0.21436973771E+02  0.22540723375E+02  0.36820906406E+02  0.00000000000E+00 0. -1.
         11    1    4    4    0    0 -0.11413289952E+02  0.86058207338E+00 -0.47153625679E+01  0.12378951226E+02  0.51100000000E-03 0. -1.
        -11    1    4    4    0    0  0.29668011523E+01 -0.24239412285E+02 -0.18363127277E+02  0.30554139828E+02  0.51100000000E-03 0.  1.
        -12    1    4    4    0    0 -0.11255061744E+02  0.19418564403E+01  0.53776646945E+00  0.11434002540E+02  0.00000000000E+00 0.  1.
</event>
<event>
 8    1  0.1248739E-006  0.9118800E+02  0.7816164E-02  0.1184000E+00
        -11   -1    0    0    0    0  0.00000000000E+00  0.00000000000E+00  0.45593999997E+02  0.45594000000E+02  0.51100000000E-03 0.  1.
         11   -1    0    0    0    0 -0.00000000000E+00 -0.00000000000E+00 -0.45593999997E+02  0.45594000000E+02  0.51100000000E-03 0. -1.
         23    2    1    2    0    0  0.35527136788E-14 -0.24424906542E-14  0.00000000000E+00  0.91188000000E+02  0.91188000000E+02 0.  0.
    9900012    2    3    3    0    0  0.10768872003E+02 -0.14751375333E+01 -0.35180050047E+02  0.54367074478E+02  0.39999977888E+02 0.  0.
        -12    1    3    3    0    0 -0.10768872003E+02  0.14751375333E+01  0.35180050047E+02  0.36820925522E+02  0.00000000000E+00 0.  1.
         11    1    4    4    0    0  0.32850400307E+01  0.14237779603E+01 -0.13461828035E+02  0.13929804234E+02  0.51100000000E-03 0. -1.
        -11    1    4    4    0    0 -0.68858282462E+01  0.97099784975E+01 -0.16988020199E+02  0.20743460261E+02  0.51100000000E-03 0.  1.
        -12    1    4    4    0    0  0.14369660218E+02 -0.12608893991E+02 -0.47302018129E+01  0.19693809983E+02  0.00000000000E+00 0.  1.
</event>
<event>
 8    1  0.1248739E-006  0.9118800E+02  0.7816164E-02  0.1184000E+00
        -11   -1    0    0    0    0  0.00000000000E+00  0.00000000000E+00  0.45593999997E+02  0.45594000000E+02  0.51100000000E-03 0. -1.
         11   -1    0    0    0    0 -0.00000000000E+00 -0.00000000000E+00 -0.45593999997E+02  0.45594000000E+02  0.51100000000E-03 0.  1.
         23    2    1    2    0    0  0.00000000000E+00  0.17763568394E-14  0.00000000000E+00  0.91188000000E+02  0.91188000000E+02 0.  0.
    9900012    2    3    3    0    0  0.21140974668E+02  0.14827208977E+02 -0.26248652815E+02  0.54367099542E+02  0.40000035026E+02 0.  0.
         12    1    3    3    0    0 -0.21140974668E+02 -0.14827208977E+02  0.26248652815E+02  0.36820900458E+02  0.00000000000E+00 0. -1.
         11    1    4    4    0    0  0.19606330326E+02  0.25909218215E+01 -0.28346571698E+01  0.19978897524E+02  0.51100000000E-03 0. -1.
        -11    1    4    4    0    0  0.77934273921E+01  0.92114624956E+00 -0.19274719404E+02  0.20811074679E+02  0.51100000000E-03 0.  1.
        -12    1    4    4    0    0 -0.62587830504E+01  0.11315140906E+02 -0.41392762412E+01  0.13577127340E+02  0.00000000000E+00 0.  1.
</event>
<event>
 8    1  0.1248739E-006  0.9118800E+02  0.7816164E-02  0.1184000E+00
        -11   -1    0    0    0    0  0.00000000000E+00  0.00000000000E+00  0.45593999997E+02  0.45594000000E+02  0.51100000000E-03 0.  1.
         11   -1    0    0    0    0 -0.00000000000E+00 -0.00000000000E+00 -0.45593999997E+02  0.45594000000E+02  0.51100000000E-03 0. -1.
         23    2    1    2    0    0  0.00000000000E+00  0.71054273576E-14  0.35527136788E-14  0.91188000000E+02  0.91188000000E+02 0.  0.
    9900012    2    3    3    0    0  0.14355464585E+02  0.24609030970E+02 -0.23325848617E+02  0.54367095849E+02  0.40000026608E+02 0.  0.
        -12    1    3    3    0    0 -0.14355464585E+02 -0.24609030970E+02  0.23325848617E+02  0.36820904151E+02  0.00000000000E+00 0.  1.
         11    1    4    4    0    0  0.18423541636E+02  0.23913337418E+02 -0.20804968273E+02  0.36662259859E+02  0.51100000000E-03 0. -1.
        -11    1    4    4    0    0  0.39319799609E+01 -0.19487793420E+01 -0.69242691266E+01  0.81977869291E+01  0.51100000000E-03 0.  1.
        -12    1    4    4    0    0 -0.80000570123E+01  0.26444728940E+01  0.44033887816E+01  0.95070490610E+01  0.00000000000E+00 0.  1.
</event>
<event>
 8    1  0.1248739E-006  0.9118800E+02  0.7816164E-02  0.1184000E+00
        -11   -1    0    0    0    0  0.00000000000E+00  0.00000000000E+00  0.45593999997E+02  0.45594000000E+02  0.51100000000E-03 0.  1.
         11   -1    0    0    0    0 -0.00000000000E+00 -0.00000000000E+00 -0.45593999997E+02  0.45594000000E+02  0.51100000000E-03 0. -1.
         23    2    1    2    0    0  0.00000000000E+00  0.00000000000E+00 -0.17763568394E-14  0.91188000000E+02  0.91188000000E+02 0.  0.
    9900012    2    3    3    0    0 -0.13402569793E+02  0.31591466126E+02 -0.13346495364E+02  0.54367101755E+02  0.40000040072E+02 0.  0.
         12    1    3    3    0    0  0.13402569793E+02 -0.31591466126E+02  0.13346495364E+02  0.36820898245E+02  0.00000000000E+00 0. -1.
         11    1    4    4    0    0  0.69183961018E+01  0.69362303581E+01  0.11921479041E+01  0.98689773071E+01  0.51100000000E-03 0. -1.
        -11    1    4    4    0    0 -0.32258362141E+01  0.19796408945E+02 -0.17331006723E+02  0.26507878464E+02  0.51100000000E-03 0.  1.
        -12    1    4    4    0    0 -0.17095129681E+02  0.48588268229E+01  0.27923634548E+01  0.17990245984E+02  0.00000000000E+00 0.  1.
</event>
<event>
 8    1  0.1248739E-006  0.9118800E+02  0.7816164E-02  0.1184000E+00
        -11   -1    0    0    0    0  0.00000000000E+00  0.00000000000E+00  0.45593999997E+02  0.45594000000E+02  0.51100000000E-03 0.  1.
         11   -1    0    0    0    0 -0.00000000000E+00 -0.00000000000E+00 -0.45593999997E+02  0.45594000000E+02  0.51100000000E-03 0. -1.
         23    2    1    2    0    0  0.00000000000E+00 -0.44408920985E-15  0.00000000000E+00  0.91188000000E+02  0.91188000000E+02 0.  0.
    9900012    2    3    3    0    0 -0.34391512614E+02 -0.16574701544E+01  0.13048270829E+02  0.54367072271E+02  0.39999972855E+02 0.  0.
        -12    1    3    3    0    0  0.34391512614E+02  0.16574701544E+01 -0.13048270829E+02  0.36820927729E+02  0.00000000000E+00 0.  1.
         11    1    4    4    0    0 -0.92674352757E+01  0.13108791585E+01 -0.11784302680E+02  0.15049038198E+02  0.51100000000E-03 0. -1.
        -11    1    4    4    0    0 -0.34715498475E+00 -0.36501874663E+01 -0.70046835060E+00  0.37329668219E+01  0.51100000000E-03 0.  1.
         12    1    4    4    0    0 -0.24776922354E+02  0.68183815333E+00  0.25533041860E+02  0.35585067251E+02  0.00000000000E+00 0. -1.
</event>
<event>
 8    1  0.1248739E-006  0.9118800E+02  0.7816164E-02  0.1184000E+00
        -11   -1    0    0    0    0  0.00000000000E+00  0.00000000000E+00  0.45593999997E+02  0.45594000000E+02  0.51100000000E-03 0.  1.
         11   -1    0    0    0    0 -0.00000000000E+00 -0.00000000000E+00 -0.45593999997E+02  0.45594000000E+02  0.51100000000E-03 0. -1.
         23    2    1    2    0    0  0.00000000000E+00  0.14432899320E-14  0.00000000000E+00  0.91188000000E+02  0.91188000000E+02 0.  0.
    9900012    2    3    3    0    0 -0.25773932535E+02 -0.73246140478E+00  0.26285959953E+02  0.54367030584E+02  0.39999877823E+02 0.  0.
         12    1    3    3    0    0  0.25773932535E+02  0.73246140478E+00 -0.26285959953E+02  0.36820969416E+02  0.00000000000E+00 0. -1.
         11    1    4    4    0    0  0.18301266145E+01  0.54390483885E+01 -0.34351722974E+00  0.57489664416E+01  0.51100000000E-03 0. -1.
        -11    1    4    4    0    0 -0.17843082428E+02  0.74915904950E+01  0.29294797912E+01  0.19572464607E+02  0.51100000000E-03 0.  1.
        -12    1    4    4    0    0 -0.97609767220E+01 -0.13663100288E+02  0.23699997392E+02  0.29045599536E+02  0.00000000000E+00 0.  1.
</event>
<event>
 8    1  0.1248739E-006  0.9118800E+02  0.7816164E-02  0.1184000E+00
        -11   -1    0    0    0    0  0.00000000000E+00  0.00000000000E+00  0.45593999997E+02  0.45594000000E+02  0.51100000000E-03 0. -1.
         11   -1    0    0    0    0 -0.00000000000E+00 -0.00000000000E+00 -0.45593999997E+02  0.45594000000E+02  0.51100000000E-03 0.  1.
         23    2    1    2    0    0  0.00000000000E+00  0.17763568394E-14  0.00000000000E+00  0.91188000000E+02  0.91188000000E+02 0.  0.
    9900012    2    3    3    0    0 -0.23714734399E+02  0.12856662677E+02 -0.25061912055E+02  0.54367057064E+02  0.39999938189E+02 0.  0.
         12    1    3    3    0    0  0.23714734399E+02 -0.12856662677E+02  0.25061912055E+02  0.36820942936E+02  0.00000000000E+00 0. -1.
         11    1    4    4    0    0  0.14867995535E+01  0.16923546879E+00 -0.70306095135E+00  0.16533325493E+01  0.51100000000E-03 0. -1.
        -11    1    4    4    0    0 -0.76348282110E+01  0.17400266185E+02 -0.28315658843E+02  0.34100387111E+02  0.51100000000E-03 0.  1.
        -12    1    4    4    0    0 -0.17566705742E+02 -0.47128389764E+01  0.39568077390E+01  0.18613337404E+02  0.00000000000E+00 0.  1.
</event>
<event>
 8    1  0.1248739E-006  0.9118800E+02  0.7816164E-02  0.1184000E+00
        -11   -1    0    0    0    0  0.00000000000E+00  0.00000000000E+00  0.45593999997E+02  0.45594000000E+02  0.51100000000E-03 0.  1.
         11   -1    0    0    0    0 -0.00000000000E+00 -0.00000000000E+00 -0.45593999997E+02  0.45594000000E+02  0.51100000000E-03 0. -1.
         23    2    1    2    0    0 -0.88817841970E-15 -0.88817841970E-15 -0.71054273576E-14  0.91188000000E+02  0.91188000000E+02 0.  0.
    9900012    2    3    3    0    0  0.33380755768E+01  0.74399335253E+01  0.35906610754E+02  0.54367081282E+02  0.39999993398E+02 0.  0.
         12    1    3    3    0    0 -0.33380755768E+01 -0.74399335253E+01 -0.35906610754E+02  0.36820918718E+02  0.00000000000E+00 0. -1.
         11    1    4    4    0    0  0.12261201957E+02 -0.55282762042E+01  0.90784173540E+01  0.16227032173E+02  0.51100000000E-03 0. -1.
        -11    1    4    4    0    0 -0.25844167320E+01 -0.21843392266E+01  0.20112546544E+02  0.20395221903E+02  0.51100000000E-03 0.  1.
         12    1    4    4    0    0 -0.63387096487E+01  0.15152548956E+02  0.67156468556E+01  0.17744827206E+02  0.00000000000E+00 0. -1.
</event>
<event>
 8    1  0.1248739E-006  0.9118800E+02  0.7816164E-02  0.1184000E+00
        -11   -1    0    0    0    0  0.00000000000E+00  0.00000000000E+00  0.45593999997E+02  0.45594000000E+02  0.51100000000E-03 0. -1.
         11   -1    0    0    0    0 -0.00000000000E+00 -0.00000000000E+00 -0.45593999997E+02  0.45594000000E+02  0.51100000000E-03 0.  1.
         23    2    1    2    0    0 -0.88817841970E-15 -0.44408920985E-15  0.00000000000E+00  0.91188000000E+02  0.91188000000E+02 0.  0.
    9900012    2    3    3    0    0  0.23685258923E+01 -0.25786308611E+01  0.36654078279E+02  0.54367072438E+02  0.39999973237E+02 0.  0.
        -12    1    3    3    0    0 -0.23685258923E+01  0.25786308611E+01 -0.36654078279E+02  0.36820927562E+02  0.00000000000E+00 0.  1.
         11    1    4    4    0    0  0.17808613917E+02  0.10671263742E+01  0.17485046065E+02  0.24980238680E+02  0.51100000000E-03 0. -1.
        -11    1    4    4    0    0 -0.17122342117E+02 -0.61646663146E+01  0.12545491267E+02  0.22103553147E+02  0.51100000000E-03 0.  1.
        -12    1    4    4    0    0  0.16822540921E+01  0.25189090793E+01  0.66235409475E+01  0.72832806114E+01  0.00000000000E+00 0.  1.
</event>
<event>
 8    1  0.1248739E-006  0.9118800E+02  0.7816164E-02  0.1184000E+00
        -11   -1    0    0    0    0  0.00000000000E+00  0.00000000000E+00  0.45593999997E+02  0.45594000000E+02  0.51100000000E-03 0.  1.
         11   -1    0    0    0    0 -0.00000000000E+00 -0.00000000000E+00 -0.45593999997E+02  0.45594000000E+02  0.51100000000E-03 0. -1.
         23    2    1    2    0    0  0.00000000000E+00  0.00000000000E+00  0.00000000000E+00  0.91188000000E+02  0.91188000000E+02 0.  0.
    9900012    2    3    3    0    0 -0.14395430584E+02  0.32821940013E+02 -0.84422530608E+01  0.54367084685E+02  0.40000001156E+02 0.  0.
        -12    1    3    3    0    0  0.14395430584E+02 -0.32821940013E+02  0.84422530608E+01  0.36820915315E+02  0.00000000000E+00 0.  1.
         11    1    4    4    0    0 -0.19129863035E+02  0.30657182906E+02 -0.15121148986E+02  0.39172230858E+02  0.51100000000E-03 0. -1.
        -11    1    4    4    0    0  0.72215463687E+01  0.54156810123E+01  0.64518901552E+01  0.11095369287E+02  0.51100000000E-03 0.  1.
         12    1    4    4    0    0 -0.24871139172E+01 -0.32509239051E+01  0.22700577036E+00  0.40994845400E+01  0.00000000000E+00 0. -1.
</event>
<event>
 8    1  0.1248739E-006  0.9118800E+02  0.7816164E-02  0.1184000E+00
        -11   -1    0    0    0    0  0.00000000000E+00  0.00000000000E+00  0.45593999997E+02  0.45594000000E+02  0.51100000000E-03 0.  1.
         11   -1    0    0    0    0 -0.00000000000E+00 -0.00000000000E+00 -0.45593999997E+02  0.45594000000E+02  0.51100000000E-03 0. -1.
         23    2    1    2    0    0 -0.35527136788E-14  0.86736173799E-16  0.35527136788E-14  0.91188000000E+02  0.91188000000E+02 0.  0.
    9900012    2    3    3    0    0  0.26830191955E+02  0.17220339034E-01  0.25217459697E+02  0.54367085149E+02  0.40000002214E+02 0.  0.
        -12    1    3    3    0    0 -0.26830191955E+02 -0.17220339034E-01 -0.25217459697E+02  0.36820914851E+02  0.00000000000E+00 0.  1.
         11    1    4    4    0    0  0.57377263333E+00  0.66758451385E+00  0.37090746417E+01  0.38121016614E+01  0.51100000000E-03 0. -1.
        -11    1    4    4    0    0  0.24790142029E+02  0.77355660101E+01  0.29203197038E+02  0.39079621811E+02  0.51100000000E-03 0.  1.
         12    1    4    4    0    0  0.14662772925E+01 -0.83859301849E+01 -0.76948119827E+01  0.11475361677E+02  0.00000000000E+00 0. -1.
</event>
<event>
 8    1  0.1248739E-006  0.9118800E+02  0.7816164E-02  0.1184000E+00
        -11   -1    0    0    0    0  0.00000000000E+00  0.00000000000E+00  0.45593999997E+02  0.45594000000E+02  0.51100000000E-03 0.  1.
         11   -1    0    0    0    0 -0.00000000000E+00 -0.00000000000E+00 -0.45593999997E+02  0.45594000000E+02  0.51100000000E-03 0. -1.
         23    2    1    2    0    0  0.35527136788E-14  0.00000000000E+00  0.71054273576E-14  0.91188000000E+02  0.91188000000E+02 0.  0.
    9900012    2    3    3    0    0 -0.11239399283E+02 -0.88606814639E+01 -0.33925622468E+02  0.54367032711E+02  0.39999882672E+02 0.  0.
        -12    1    3    3    0    0  0.11239399283E+02  0.88606814639E+01  0.33925622468E+02  0.36820967289E+02  0.00000000000E+00 0.  1.
         11    1    4    4    0    0 -0.82538191757E+01 -0.21532453575E+02 -0.14067752582E+02  0.27012473987E+02  0.51100000000E-03 0. -1.
        -11    1    4    4    0    0  0.38402941738E+01 -0.24537425854E+00 -0.65266575266E+01  0.75766302931E+01  0.51100000000E-03 0.  1.
        -12    1    4    4    0    0 -0.68258742810E+01  0.12917146370E+02 -0.13331212360E+02  0.19777928431E+02  0.00000000000E+00 0.  1.
</event>
<event>
 8    1  0.1248739E-006  0.9118800E+02  0.7816164E-02  0.1184000E+00
        -11   -1    0    0    0    0  0.00000000000E+00  0.00000000000E+00  0.45593999997E+02  0.45594000000E+02  0.51100000000E-03 0. -1.
         11   -1    0    0    0    0 -0.00000000000E+00 -0.00000000000E+00 -0.45593999997E+02  0.45594000000E+02  0.51100000000E-03 0.  1.
         23    2    1    2    0    0  0.00000000000E+00  0.00000000000E+00  0.88817841970E-15  0.91188000000E+02  0.91188000000E+02 0.  0.
    9900012    2    3    3    0    0 -0.96196103763E+01  0.35100204636E+02  0.55873562439E+01  0.54367084489E+02  0.40000000709E+02 0.  0.
        -12    1    3    3    0    0  0.96196103763E+01 -0.35100204636E+02 -0.55873562439E+01  0.36820915511E+02  0.00000000000E+00 0.  1.
         11    1    4    4    0    0 -0.55300810780E+01  0.50349272018E+01 -0.51602957625E+01  0.90863051498E+01  0.51100000000E-03 0. -1.
        -11    1    4    4    0    0 -0.57529324236E+00  0.17326592003E+02 -0.10493458267E+02  0.20264610024E+02  0.51100000000E-03 0.  1.
         12    1    4    4    0    0 -0.35142360559E+01  0.12738685432E+02  0.21241110273E+02  0.25016169315E+02  0.00000000000E+00 0. -1.
</event>
<event>
 8    1  0.1248739E-006  0.9118800E+02  0.7816164E-02  0.1184000E+00
        -11   -1    0    0    0    0  0.00000000000E+00  0.00000000000E+00  0.45593999997E+02  0.45594000000E+02  0.51100000000E-03 0.  1.
         11   -1    0    0    0    0 -0.00000000000E+00 -0.00000000000E+00 -0.45593999997E+02  0.45594000000E+02  0.51100000000E-03 0. -1.
         23    2    1    2    0    0  0.00000000000E+00  0.00000000000E+00 -0.35527136788E-14  0.91188000000E+02  0.91188000000E+02 0.  0.
    9900012    2    3    3    0    0 -0.73770937042E+01 -0.18788559106E+02 -0.30795276899E+02  0.54367074644E+02  0.39999978265E+02 0.  0.
        -12    1    3    3    0    0  0.73770937042E+01  0.18788559106E+02  0.30795276899E+02  0.36820925356E+02  0.00000000000E+00 0.  1.
         11    1    4    4    0    0 -0.25151452412E+01 -0.13488748098E+02 -0.21805611800E+02  0.25763481657E+02  0.51100000000E-03 0. -1.
        -11    1    4    4    0    0 -0.15304340794E+02 -0.47152001246E+01 -0.22752888033E+01  0.16175070286E+02  0.51100000000E-03 0.  1.
         12    1    4    4    0    0  0.10442392331E+02 -0.58461088352E+00 -0.67143762956E+01  0.12428522701E+02  0.00000000000E+00 0. -1.
</event>
<event>
 8    1  0.1248739E-006  0.9118800E+02  0.7816164E-02  0.1184000E+00
        -11   -1    0    0    0    0  0.00000000000E+00  0.00000000000E+00  0.45593999997E+02  0.45594000000E+02  0.51100000000E-03 0. -1.
         11   -1    0    0    0    0 -0.00000000000E+00 -0.00000000000E+00 -0.45593999997E+02  0.45594000000E+02  0.51100000000E-03 0.  1.
         23    2    1    2    0    0  0.00000000000E+00 -0.71054273576E-14  0.11102230246E-15  0.91188000000E+02  0.91188000000E+02 0.  0.
    9900012    2    3    3    0    0 -0.18922339126E+02  0.31577463420E+02  0.76722927581E+00  0.54367085362E+02  0.40000002700E+02 0.  0.
        -12    1    3    3    0    0  0.18922339126E+02 -0.31577463420E+02 -0.76722927581E+00  0.36820914638E+02  0.00000000000E+00 0.  1.
         11    1    4    4    0    0 -0.98894789182E+01  0.17897582716E+02 -0.58075329559E+01  0.21256827130E+02  0.51100000000E-03 0. -1.
        -11    1    4    4    0    0 -0.16015572307E+02  0.71565823329E-01 -0.99049338264E+00  0.16046331525E+02  0.51100000000E-03 0.  1.
         12    1    4    4    0    0  0.69827120996E+01  0.13608314881E+02  0.75652556144E+01  0.17063926707E+02  0.00000000000E+00 0. -1.
</event>
<event>
 8    1  0.1248739E-006  0.9118800E+02  0.7816164E-02  0.1184000E+00
        -11   -1    0    0    0    0  0.00000000000E+00  0.00000000000E+00  0.45593999997E+02  0.45594000000E+02  0.51100000000E-03 0. -1.
         11   -1    0    0    0    0 -0.00000000000E+00 -0.00000000000E+00 -0.45593999997E+02  0.45594000000E+02  0.51100000000E-03 0.  1.
         23    2    1    2    0    0 -0.35527136788E-14 -0.35527136788E-14 -0.88817841970E-15  0.91188000000E+02  0.91188000000E+02 0.  0.
    9900012    2    3    3    0    0  0.23328388211E+02  0.28384595784E+02  0.24249181540E+01  0.54367092863E+02  0.40000019800E+02 0.  0.
         12    1    3    3    0    0 -0.23328388211E+02 -0.28384595784E+02 -0.24249181540E+01  0.36820907137E+02  0.00000000000E+00 0. -1.
         11    1    4    4    0    0  0.82305821569E+01  0.15384806138E+02 -0.26333693463E+01  0.17645661702E+02  0.51100000000E-03 0. -1.
        -11    1    4    4    0    0  0.94371484577E+01  0.10302272160E+02 -0.12081580319E+02  0.18470548610E+02  0.51100000000E-03 0.  1.
         12    1    4    4    0    0  0.56606575967E+01  0.26975174858E+01  0.17139867820E+02  0.18250882551E+02  0.00000000000E+00 0. -1.
</event>
<event>
 8    1  0.1248739E-006  0.9118800E+02  0.7816164E-02  0.1184000E+00
        -11   -1    0    0    0    0  0.00000000000E+00  0.00000000000E+00  0.45593999997E+02  0.45594000000E+02  0.51100000000E-03 0.  1.
         11   -1    0    0    0    0 -0.00000000000E+00 -0.00000000000E+00 -0.45593999997E+02  0.45594000000E+02  0.51100000000E-03 0. -1.
         23    2    1    2    0    0 -0.88817841970E-15  0.88817841970E-15  0.00000000000E+00  0.91188000000E+02  0.91188000000E+02 0.  0.
    9900012    2    3    3    0    0 -0.40705967026E+01 -0.42558636535E+01  0.36346898523E+02  0.54367093369E+02  0.40000020952E+02 0.  0.
         12    1    3    3    0    0  0.40705967026E+01  0.42558636535E+01 -0.36346898523E+02  0.36820906631E+02  0.00000000000E+00 0. -1.
         11    1    4    4    0    0 -0.93025309097E+01 -0.30307569549E+01  0.14011380055E+02  0.17089217078E+02  0.51100000000E-03 0. -1.
        -11    1    4    4    0    0 -0.98474672240E+01  0.54870880011E+01  0.16055266481E+02  0.19617653465E+02  0.51100000000E-03 0.  1.
        -12    1    4    4    0    0  0.15079401431E+02 -0.67121946997E+01  0.62802519874E+01  0.17660222825E+02  0.00000000000E+00 0.  1.
</event>
<event>
 8    1  0.1248739E-006  0.9118800E+02  0.7816164E-02  0.1184000E+00
        -11   -1    0    0    0    0  0.00000000000E+00  0.00000000000E+00  0.45593999997E+02  0.45594000000E+02  0.51100000000E-03 0.  1.
         11   -1    0    0    0    0 -0.00000000000E+00 -0.00000000000E+00 -0.45593999997E+02  0.45594000000E+02  0.51100000000E-03 0. -1.
         23    2    1    2    0    0  0.17763568394E-14  0.44408920985E-15  0.00000000000E+00  0.91188000000E+02  0.91188000000E+02 0.  0.
    9900012    2    3    3    0    0 -0.15848024063E+02  0.27749020119E+01 -0.33119782752E+02  0.54367082610E+02  0.39999996425E+02 0.  0.
        -12    1    3    3    0    0  0.15848024063E+02 -0.27749020119E+01  0.33119782752E+02  0.36820917390E+02  0.00000000000E+00 0.  1.
         11    1    4    4    0    0  0.12262663771E+02  0.51782982448E+01 -0.82551961572E+01  0.15663203993E+02  0.51100000000E-03 0. -1.
        -11    1    4    4    0    0 -0.80540548007E+01  0.14159284834E+01 -0.28034209442E+01  0.86447568765E+01  0.51100000000E-03 0.  1.
         12    1    4    4    0    0 -0.20056633033E+02 -0.38193247163E+01 -0.22061165651E+02  0.30059121740E+02  0.00000000000E+00 0. -1.
</event>
<event>
 8    1  0.1248739E-006  0.9118800E+02  0.7816164E-02  0.1184000E+00
        -11   -1    0    0    0    0  0.00000000000E+00  0.00000000000E+00  0.45593999997E+02  0.45594000000E+02  0.51100000000E-03 0. -1.
         11   -1    0    0    0    0 -0.00000000000E+00 -0.00000000000E+00 -0.45593999997E+02  0.45594000000E+02  0.51100000000E-03 0.  1.
         23    2    1    2    0    0  0.00000000000E+00 -0.35527136788E-14  0.17763568394E-14  0.91188000000E+02  0.91188000000E+02 0.  0.
    9900012    2    3    3    0    0  0.32842816847E+02 -0.10773241214E+02 -0.12691137429E+02  0.54367104927E+02  0.40000047302E+02 0.  0.
         12    1    3    3    0    0 -0.32842816847E+02  0.10773241214E+02  0.12691137429E+02  0.36820895073E+02  0.00000000000E+00 0. -1.
         11    1    4    4    0    0  0.14372415794E+02 -0.18171540871E+02  0.45175660620E+01  0.23604652863E+02  0.51100000000E-03 0. -1.
        -11    1    4    4    0    0  0.91162262085E+01  0.11771898615E+02 -0.78760395232E+01  0.16843846832E+02  0.51100000000E-03 0.  1.
        -12    1    4    4    0    0  0.93541748448E+01 -0.43735989577E+01 -0.93326639678E+01  0.13918605232E+02  0.00000000000E+00 0.  1.
</event>
<event>
 8    1  0.1248739E-006  0.9118800E+02  0.7816164E-02  0.1184000E+00
        -11   -1    0    0    0    0  0.00000000000E+00  0.00000000000E+00  0.45593999997E+02  0.45594000000E+02  0.51100000000E-03 0.  1.
         11   -1    0    0    0    0 -0.00000000000E+00 -0.00000000000E+00 -0.45593999997E+02  0.45594000000E+02  0.51100000000E-03 0. -1.
         23    2    1    2    0    0  0.17763568394E-14  0.71054273576E-14  0.00000000000E+00  0.91188000000E+02  0.91188000000E+02 0.  0.
    9900012    2    3    3    0    0  0.14446754528E+02  0.33122871386E+02 -0.70672724069E+01  0.54367086588E+02  0.40000005495E+02 0.  0.
         12    1    3    3    0    0 -0.14446754528E+02 -0.33122871386E+02  0.70672724069E+01  0.36820913412E+02  0.00000000000E+00 0. -1.
         11    1    4    4    0    0  0.39422925540E+01  0.18188272516E+02 -0.13501796269E+02  0.22992464645E+02  0.51100000000E-03 0. -1.
        -11    1    4    4    0    0 -0.57687375827E+01  0.46431264817E+01 -0.50426327454E+01  0.89590793103E+01  0.51100000000E-03 0.  1.
        -12    1    4    4    0    0  0.16273199557E+02  0.10291472388E+02  0.11477156608E+02  0.22415542633E+02  0.00000000000E+00 0.  1.
</event>
<event>
 8    1  0.1248739E-006  0.9118800E+02  0.7816164E-02  0.1184000E+00
        -11   -1    0    0    0    0  0.00000000000E+00  0.00000000000E+00  0.45593999997E+02  0.45594000000E+02  0.51100000000E-03 0.  1.
         11   -1    0    0    0    0 -0.00000000000E+00 -0.00000000000E+00 -0.45593999997E+02  0.45594000000E+02  0.51100000000E-03 0. -1.
         23    2    1    2    0    0  0.22204460493E-15  0.00000000000E+00 -0.26645352591E-14  0.91188000000E+02  0.91188000000E+02 0.  0.
    9900012    2    3    3    0    0 -0.12496082658E+01 -0.36527952942E+02 -0.44639776306E+01  0.54367082531E+02  0.39999996247E+02 0.  0.
         12    1    3    3    0    0  0.12496082658E+01  0.36527952942E+02  0.44639776306E+01  0.36820917469E+02  0.00000000000E+00 0. -1.
         11    1    4    4    0    0  0.79587697299E+01 -0.21279888576E+02 -0.14880637922E+02  0.27158959087E+02  0.51100000000E-03 0. -1.
        -11    1    4    4    0    0  0.34261957260E+01  0.17508210257E+01  0.72209148358E+00  0.39147934541E+01  0.51100000000E-03 0.  1.
         12    1    4    4    0    0 -0.12634573722E+02 -0.16998885391E+02  0.96945688082E+01  0.23293329990E+02  0.00000000000E+00 0. -1.
</event>
<event>
 8    1  0.1248739E-006  0.9118800E+02  0.7816164E-02  0.1184000E+00
        -11   -1    0    0    0    0  0.00000000000E+00  0.00000000000E+00  0.45593999997E+02  0.45594000000E+02  0.51100000000E-03 0. -1.
         11   -1    0    0    0    0 -0.00000000000E+00 -0.00000000000E+00 -0.45593999997E+02  0.45594000000E+02  0.51100000000E-03 0.  1.
         23    2    1    2    0    0  0.00000000000E+00 -0.35527136788E-14  0.00000000000E+00  0.91188000000E+02  0.91188000000E+02 0.  0.
    9900012    2    3    3    0    0 -0.90793341676E+01  0.30101592214E+02  0.19163531683E+02  0.54367066968E+02  0.39999960767E+02 0.  0.
         12    1    3    3    0    0  0.90793341676E+01 -0.30101592214E+02 -0.19163531683E+02  0.36820933032E+02  0.00000000000E+00 0. -1.
         11    1    4    4    0    0 -0.16037818558E+01 -0.52016167525E+01 -0.69629406823E+01  0.88380697150E+01  0.51100000000E-03 0. -1.
        -11    1    4    4    0    0 -0.17671471474E+01  0.18574938604E+01 -0.21766517806E+00  0.25730275694E+01  0.51100000000E-03 0.  1.
        -12    1    4    4    0    0 -0.57084051644E+01  0.33445715107E+02  0.26344137544E+02  0.42955969683E+02  0.00000000000E+00 0.  1.
</event>
<event>
 8    1  0.1248739E-006  0.9118800E+02  0.7816164E-02  0.1184000E+00
        -11   -1    0    0    0    0  0.00000000000E+00  0.00000000000E+00  0.45593999997E+02  0.45594000000E+02  0.51100000000E-03 0. -1.
         11   -1    0    0    0    0 -0.00000000000E+00 -0.00000000000E+00 -0.45593999997E+02  0.45594000000E+02  0.51100000000E-03 0.  1.
         23    2    1    2    0    0  0.35527136788E-14  0.00000000000E+00  0.00000000000E+00  0.91188000000E+02  0.91188000000E+02 0.  0.
    9900012    2    3    3    0    0 -0.28255721725E+02 -0.18523225406E+02  0.14638471020E+02  0.54367074924E+02  0.39999978905E+02 0.  0.
        -12    1    3    3    0    0  0.28255721725E+02  0.18523225406E+02 -0.14638471020E+02  0.36820925076E+02  0.00000000000E+00 0.  1.
         11    1    4    4    0    0 -0.76521521769E+01  0.70188432224E+01 -0.16558408925E+01  0.10514818232E+02  0.51100000000E-03 0.  1.
        -11    1    4    4    0    0 -0.14230655320E+02 -0.29409108596E+02  0.10208036236E+02  0.34228806922E+02  0.51100000000E-03 0. -1.
         12    1    4    4    0    0 -0.63729142279E+01  0.38670399683E+01  0.60862756765E+01  0.96234497704E+01  0.00000000000E+00 0. -1.
</event>
<event>
 8    1  0.1248739E-006  0.9118800E+02  0.7816164E-02  0.1184000E+00
        -11   -1    0    0    0    0  0.00000000000E+00  0.00000000000E+00  0.45593999997E+02  0.45594000000E+02  0.51100000000E-03 0.  1.
         11   -1    0    0    0    0 -0.00000000000E+00 -0.00000000000E+00 -0.45593999997E+02  0.45594000000E+02  0.51100000000E-03 0. -1.
         23    2    1    2    0    0 -0.22204460493E-15  0.00000000000E+00 -0.88817841970E-15  0.91188000000E+02  0.91188000000E+02 0.  0.
    9900012    2    3    3    0    0 -0.91582235506E+00  0.36699530282E+02  0.28435087060E+01  0.54367084812E+02  0.40000001447E+02 0.  0.
         12    1    3    3    0    0  0.91582235506E+00 -0.36699530282E+02 -0.28435087060E+01  0.36820915188E+02  0.00000000000E+00 0. -1.
         11    1    4    4    0    0  0.82415699098E+01  0.77608261015E+01 -0.11306919043E+02  0.16000009840E+02  0.51100000000E-03 0. -1.
        -11    1    4    4    0    0  0.27017801228E+01  0.15734745434E+02  0.49294682792E+00  0.15972627415E+02  0.51100000000E-03 0.  1.
         12    1    4    4    0    0 -0.11859172388E+02  0.13203958746E+02  0.13657480921E+02  0.22394447558E+02  0.00000000000E+00 0. -1.
</event>
<event>
 8    1  0.1248739E-006  0.9118800E+02  0.7816164E-02  0.1184000E+00
        -11   -1    0    0    0    0  0.00000000000E+00  0.00000000000E+00  0.45593999997E+02  0.45594000000E+02  0.51100000000E-03 0. -1.
         11   -1    0    0    0    0 -0.00000000000E+00 -0.00000000000E+00 -0.45593999997E+02  0.45594000000E+02  0.51100000000E-03 0.  1.
         23    2    1    2    0    0 -0.44408920985E-15 -0.71054273576E-14  0.88817841970E-15  0.91188000000E+02  0.91188000000E+02 0.  0.
    9900012    2    3    3    0    0  0.40429276148E+00 -0.36307246028E+02  0.61155098019E+01  0.54367095246E+02  0.40000025231E+02 0.  0.
        -12    1    3    3    0    0 -0.40429276148E+00  0.36307246028E+02 -0.61155098019E+01  0.36820904754E+02  0.00000000000E+00 0.  1.
         11    1    4    4    0    0 -0.94993555410E+01 -0.19053754244E+02  0.59437827253E+01  0.22104566493E+02  0.51100000000E-03 0. -1.
        -11    1    4    4    0    0 -0.40188144242E+01 -0.90331571182E+00  0.83280649228E+01  0.92910448428E+01  0.51100000000E-03 0.  1.
         12    1    4    4    0    0  0.13922462727E+02 -0.16350176072E+02 -0.81563378461E+01  0.22971483910E+02  0.00000000000E+00 0. -1.
</event>
<event>
 8    1  0.1248739E-006  0.9118800E+02  0.7816164E-02  0.1184000E+00
        -11   -1    0    0    0    0  0.00000000000E+00  0.00000000000E+00  0.45593999997E+02  0.45594000000E+02  0.51100000000E-03 0.  1.
         11   -1    0    0    0    0 -0.00000000000E+00 -0.00000000000E+00 -0.45593999997E+02  0.45594000000E+02  0.51100000000E-03 0. -1.
         23    2    1    2    0    0 -0.71054273576E-14  0.00000000000E+00  0.00000000000E+00  0.91188000000E+02  0.91188000000E+02 0.  0.
    9900012    2    3    3    0    0  0.18600164230E+02  0.12064948890E+02  0.29398151625E+02  0.54367076328E+02  0.39999982105E+02 0.  0.
         12    1    3    3    0    0 -0.18600164230E+02 -0.12064948890E+02 -0.29398151625E+02  0.36820923672E+02  0.00000000000E+00 0. -1.
         11    1    4    4    0    0 -0.18433682175E+01 -0.12451866290E+02  0.51217468621E+01  0.13589675186E+02  0.51100000000E-03 0. -1.
        -11    1    4    4    0    0  0.44292276613E+01  0.30165433972E+01  0.14102623467E+01  0.55413384565E+01  0.51100000000E-03 0.  1.
         12    1    4    4    0    0  0.16014304786E+02  0.21500271783E+02  0.22866142416E+02  0.35236062685E+02  0.00000000000E+00 0. -1.
</event>
<event>
 8    1  0.1248739E-006  0.9118800E+02  0.7816164E-02  0.1184000E+00
        -11   -1    0    0    0    0  0.00000000000E+00  0.00000000000E+00  0.45593999997E+02  0.45594000000E+02  0.51100000000E-03 0.  1.
         11   -1    0    0    0    0 -0.00000000000E+00 -0.00000000000E+00 -0.45593999997E+02  0.45594000000E+02  0.51100000000E-03 0. -1.
         23    2    1    2    0    0  0.26645352591E-14  0.00000000000E+00 -0.35527136788E-14  0.91188000000E+02  0.91188000000E+02 0.  0.
    9900012    2    3    3    0    0  0.43322175350E+01 -0.24099259663E+02 -0.27499752148E+02  0.54367098418E+02  0.40000032463E+02 0.  0.
        -12    1    3    3    0    0 -0.43322175350E+01  0.24099259663E+02  0.27499752148E+02  0.36820901582E+02  0.00000000000E+00 0.  1.
         11    1    4    4    0    0 -0.37062295886E+01 -0.23729580568E+02 -0.77936594585E+01  0.25250153657E+02  0.51100000000E-03 0. -1.
        -11    1    4    4    0    0 -0.39260107168E+01  0.46639974147E+01 -0.13324239848E+02  0.14652706229E+02  0.51100000000E-03 0.  1.
        -12    1    4    4    0    0  0.11964457840E+02 -0.50336765105E+01 -0.63818528416E+01  0.14464238532E+02  0.00000000000E+00 0.  1.
</event>
<event>
 8    1  0.1248739E-006  0.9118800E+02  0.7816164E-02  0.1184000E+00
        -11   -1    0    0    0    0  0.00000000000E+00  0.00000000000E+00  0.45593999997E+02  0.45594000000E+02  0.51100000000E-03 0. -1.
         11   -1    0    0    0    0 -0.00000000000E+00 -0.00000000000E+00 -0.45593999997E+02  0.45594000000E+02  0.51100000000E-03 0.  1.
         23    2    1    2    0    0  0.35527136788E-14  0.00000000000E+00 -0.17763568394E-14  0.91188000000E+02  0.91188000000E+02 0.  0.
    9900012    2    3    3    0    0  0.19461860159E+02  0.27164499512E+02 -0.15463214574E+02  0.54367013598E+02  0.39999839100E+02 0.  0.
         12    1    3    3    0    0 -0.19461860159E+02 -0.27164499512E+02  0.15463214574E+02  0.36820986402E+02  0.00000000000E+00 0. -1.
         11    1    4    4    0    0 -0.62560951474E+01  0.37977925397E+01  0.33496381594E+01  0.80487285162E+01  0.51100000000E-03 0. -1.
        -11    1    4    4    0    0  0.18159024667E+02  0.26840322696E+02 -0.93695338742E+01  0.33733385015E+02  0.51100000000E-03 0.  1.
         12    1    4    4    0    0  0.75589306400E+01 -0.34736157237E+01 -0.94433188595E+01  0.12584900067E+02  0.00000000000E+00 0. -1.
</event>
<event>
 8    1  0.1248739E-006  0.9118800E+02  0.7816164E-02  0.1184000E+00
        -11   -1    0    0    0    0  0.00000000000E+00  0.00000000000E+00  0.45593999997E+02  0.45594000000E+02  0.51100000000E-03 0. -1.
         11   -1    0    0    0    0 -0.00000000000E+00 -0.00000000000E+00 -0.45593999997E+02  0.45594000000E+02  0.51100000000E-03 0.  1.
         23    2    1    2    0    0  0.00000000000E+00  0.88817841970E-15  0.00000000000E+00  0.91188000000E+02  0.91188000000E+02 0.  0.
    9900012    2    3    3    0    0 -0.89641747641E+01  0.67533099965E+01  0.35068736518E+02  0.54367083307E+02  0.39999998016E+02 0.  0.
        -12    1    3    3    0    0  0.89641747641E+01 -0.67533099965E+01 -0.35068736518E+02  0.36820916693E+02  0.00000000000E+00 0.  1.
         11    1    4    4    0    0 -0.33091493000E+01  0.35044852127E+01  0.60594293875E+01  0.77426462181E+01  0.51100000000E-03 0. -1.
        -11    1    4    4    0    0 -0.18708648899E+02 -0.69139088378E+01  0.15258034281E+02  0.25112213949E+02  0.51100000000E-03 0.  1.
        -12    1    4    4    0    0  0.13053623435E+02  0.10162733622E+02  0.13751272849E+02  0.21512223140E+02  0.00000000000E+00 0.  1.
</event>
<event>
 8    1  0.1248739E-006  0.9118800E+02  0.7816164E-02  0.1184000E+00
        -11   -1    0    0    0    0  0.00000000000E+00  0.00000000000E+00  0.45593999997E+02  0.45594000000E+02  0.51100000000E-03 0. -1.
         11   -1    0    0    0    0 -0.00000000000E+00 -0.00000000000E+00 -0.45593999997E+02  0.45594000000E+02  0.51100000000E-03 0.  1.
         23    2    1    2    0    0  0.00000000000E+00  0.00000000000E+00  0.00000000000E+00  0.91188000000E+02  0.91188000000E+02 0.  0.
    9900012    2    3    3    0    0 -0.21989374817E+02 -0.18874112449E+02  0.22715992512E+02  0.54367067891E+02  0.39999962871E+02 0.  0.
        -12    1    3    3    0    0  0.21989374817E+02  0.18874112449E+02 -0.22715992512E+02  0.36820932109E+02  0.00000000000E+00 0.  1.
         11    1    4    4    0    0 -0.10624237510E+02 -0.21041822783E+02  0.12515124697E+02  0.26688219783E+02  0.51100000000E-03 0. -1.
        -11    1    4    4    0    0 -0.11193183708E+02  0.70852859829E+01 -0.30069696443E+01  0.13584200591E+02  0.51100000000E-03 0.  1.
        -12    1    4    4    0    0 -0.17195359830E+00 -0.49175756492E+01  0.13207837459E+02  0.14094647517E+02  0.00000000000E+00 0.  1.
</event>
<event>
 8    1  0.1248739E-006  0.9118800E+02  0.7816164E-02  0.1184000E+00
        -11   -1    0    0    0    0  0.00000000000E+00  0.00000000000E+00  0.45593999997E+02  0.45594000000E+02  0.51100000000E-03 0. -1.
         11   -1    0    0    0    0 -0.00000000000E+00 -0.00000000000E+00 -0.45593999997E+02  0.45594000000E+02  0.51100000000E-03 0.  1.
         23    2    1    2    0    0 -0.35527136788E-14 -0.71054273576E-14  0.00000000000E+00  0.91188000000E+02  0.91188000000E+02 0.  0.
    9900012    2    3    3    0    0 -0.16064666180E+02 -0.29247911592E+02  0.15564938514E+02  0.54367066512E+02  0.39999959727E+02 0.  0.
        -12    1    3    3    0    0  0.16064666180E+02  0.29247911592E+02 -0.15564938514E+02  0.36820933488E+02  0.00000000000E+00 0.  1.
         11    1    4    4    0    0 -0.39635886046E+01  0.22515890223E+01 -0.51791252311E+01  0.68994946317E+01  0.51100000000E-03 0. -1.
        -11    1    4    4    0    0  0.49194056858E+01 -0.38653049653E+01 -0.33027633603E+01  0.70745587037E+01  0.51100000000E-03 0.  1.
         12    1    4    4    0    0 -0.17020483262E+02 -0.27634195649E+02  0.24046827105E+02  0.40393013176E+02  0.00000000000E+00 0. -1.
</event>
<event>
 8    1  0.1248739E-006  0.9118800E+02  0.7816164E-02  0.1184000E+00
        -11   -1    0    0    0    0  0.00000000000E+00  0.00000000000E+00  0.45593999997E+02  0.45594000000E+02  0.51100000000E-03 0. -1.
         11   -1    0    0    0    0 -0.00000000000E+00 -0.00000000000E+00 -0.45593999997E+02  0.45594000000E+02  0.51100000000E-03 0.  1.
         23    2    1    2    0    0  0.35527136788E-14  0.00000000000E+00 -0.35527136788E-14  0.91188000000E+02  0.91188000000E+02 0.  0.
    9900012    2    3    3    0    0  0.21201333488E+02  0.24619988885E+02  0.17324545894E+02  0.54367078165E+02  0.39999986293E+02 0.  0.
        -12    1    3    3    0    0 -0.21201333488E+02 -0.24619988885E+02 -0.17324545894E+02  0.36820921835E+02  0.00000000000E+00 0.  1.
         11    1    4    4    0    0  0.15419436791E+02  0.26018887646E+02  0.99784694490E+01  0.31848255810E+02  0.51100000000E-03 0. -1.
        -11    1    4    4    0    0  0.89944849522E+01  0.72356289429E+01  0.65481559355E+01  0.13271527123E+02  0.51100000000E-03 0.  1.
        -12    1    4    4    0    0 -0.32125882558E+01 -0.86345277044E+01  0.79792050955E+00  0.92472952326E+01  0.00000000000E+00 0.  1.
</event>
<event>
 8    1  0.1248739E-006  0.9118800E+02  0.7816164E-02  0.1184000E+00
        -11   -1    0    0    0    0  0.00000000000E+00  0.00000000000E+00  0.45593999997E+02  0.45594000000E+02  0.51100000000E-03 0.  1.
         11   -1    0    0    0    0 -0.00000000000E+00 -0.00000000000E+00 -0.45593999997E+02  0.45594000000E+02  0.51100000000E-03 0. -1.
         23    2    1    2    0    0  0.00000000000E+00  0.35527136788E-14  0.00000000000E+00  0.91188000000E+02  0.91188000000E+02 0.  0.
    9900012    2    3    3    0    0 -0.20164860875E+02 -0.20912531272E+02 -0.22623526241E+02  0.54367088579E+02  0.40000010033E+02 0.  0.
         12    1    3    3    0    0  0.20164860875E+02  0.20912531272E+02  0.22623526241E+02  0.36820911421E+02  0.00000000000E+00 0. -1.
         11    1    4    4    0    0  0.19315668492E+01 -0.43766088743E+01  0.66321344533E+01  0.81774606939E+01  0.51100000000E-03 0. -1.
        -11    1    4    4    0    0 -0.81274261821E+00 -0.14321715876E+02 -0.11780682156E+02  0.18562235009E+02  0.51100000000E-03 0.  1.
         12    1    4    4    0    0 -0.21283685106E+02 -0.22142065218E+01 -0.17474978539E+02  0.27627392876E+02  0.00000000000E+00 0. -1.
</event>
<event>
 8    1  0.1248739E-006  0.9118800E+02  0.7816164E-02  0.1184000E+00
        -11   -1    0    0    0    0  0.00000000000E+00  0.00000000000E+00  0.45593999997E+02  0.45594000000E+02  0.51100000000E-03 0. -1.
         11   -1    0    0    0    0 -0.00000000000E+00 -0.00000000000E+00 -0.45593999997E+02  0.45594000000E+02  0.51100000000E-03 0.  1.
         23    2    1    2    0    0  0.82572837456E-15  0.35527136788E-14  0.00000000000E+00  0.91188000000E+02  0.91188000000E+02 0.  0.
    9900012    2    3    3    0    0  0.45344395701E-01 -0.18136654118E+02  0.32044344383E+02  0.54367078153E+02  0.39999986266E+02 0.  0.
        -12    1    3    3    0    0 -0.45344395701E-01  0.18136654118E+02 -0.32044344383E+02  0.36820921847E+02  0.00000000000E+00 0.  1.
         11    1    4    4    0    0  0.32566424288E+00 -0.22814824767E+02  0.29865764265E+02  0.37584387207E+02  0.51100000000E-03 0. -1.
        -11    1    4    4    0    0 -0.74146509497E+01  0.26183535311E+01  0.44271312773E+01  0.90239855677E+01  0.51100000000E-03 0.  1.
        -12    1    4    4    0    0  0.71343311025E+01  0.20598171179E+01 -0.22485511591E+01  0.77587053787E+01  0.00000000000E+00 0.  1.
</event>
<event>
 8    1  0.1248739E-006  0.9118800E+02  0.7816164E-02  0.1184000E+00
        -11   -1    0    0    0    0  0.00000000000E+00  0.00000000000E+00  0.45593999997E+02  0.45594000000E+02  0.51100000000E-03 0.  1.
         11   -1    0    0    0    0 -0.00000000000E+00 -0.00000000000E+00 -0.45593999997E+02  0.45594000000E+02  0.51100000000E-03 0. -1.
         23    2    1    2    0    0  0.35527136788E-14  0.17763568394E-14  0.00000000000E+00  0.91188000000E+02  0.91188000000E+02 0.  0.
    9900012    2    3    3    0    0 -0.30218610229E+02  0.12743715449E+02  0.16739575968E+02  0.54367080794E+02  0.39999992286E+02 0.  0.
         12    1    3    3    0    0  0.30218610229E+02 -0.12743715449E+02 -0.16739575968E+02  0.36820919206E+02  0.00000000000E+00 0. -1.
         11    1    4    4    0    0 -0.67912742836E+01  0.13973433256E+02 -0.11952732184E+01  0.15582263047E+02  0.51100000000E-03 0. -1.
        -11    1    4    4    0    0 -0.65784042339E+01  0.10590801349E+02  0.17254141314E+01  0.12586402571E+02  0.51100000000E-03 0.  1.
        -12    1    4    4    0    0 -0.16848931711E+02 -0.11820519156E+02  0.16209435055E+02  0.26198415176E+02  0.00000000000E+00 0.  1.
</event>
<event>
 8    1  0.1248739E-006  0.9118800E+02  0.7816164E-02  0.1184000E+00
        -11   -1    0    0    0    0  0.00000000000E+00  0.00000000000E+00  0.45593999997E+02  0.45594000000E+02  0.51100000000E-03 0.  1.
         11   -1    0    0    0    0 -0.00000000000E+00 -0.00000000000E+00 -0.45593999997E+02  0.45594000000E+02  0.51100000000E-03 0. -1.
         23    2    1    2    0    0  0.00000000000E+00  0.71054273576E-14  0.17763568394E-14  0.91188000000E+02  0.91188000000E+02 0.  0.
    9900012    2    3    3    0    0  0.60436856412E+01 -0.34209357100E+02 -0.12205425051E+02  0.54367100364E+02  0.40000036899E+02 0.  0.
        -12    1    3    3    0    0 -0.60436856412E+01  0.34209357100E+02  0.12205425051E+02  0.36820899636E+02  0.00000000000E+00 0.  1.
         11    1    4    4    0    0  0.58462491655E+01 -0.10950536149E+02 -0.23909721969E+01  0.12641582953E+02  0.51100000000E-03 0. -1.
        -11    1    4    4    0    0  0.64278233843E+01 -0.24794988785E+02  0.45291412593E+01  0.26011949237E+02  0.51100000000E-03 0.  1.
         12    1    4    4    0    0 -0.62303869086E+01  0.15361678337E+01 -0.14343594114E+02  0.15713568174E+02  0.00000000000E+00 0. -1.
</event>
<event>
 8    1  0.1248739E-006  0.9118800E+02  0.7816164E-02  0.1184000E+00
        -11   -1    0    0    0    0  0.00000000000E+00  0.00000000000E+00  0.45593999997E+02  0.45594000000E+02  0.51100000000E-03 0. -1.
         11   -1    0    0    0    0 -0.00000000000E+00 -0.00000000000E+00 -0.45593999997E+02  0.45594000000E+02  0.51100000000E-03 0.  1.
         23    2    1    2    0    0  0.00000000000E+00  0.35527136788E-14 -0.35527136788E-14  0.91188000000E+02  0.91188000000E+02 0.  0.
    9900012    2    3    3    0    0  0.14124162919E+02 -0.16502369486E+02  0.29731460843E+02  0.54367082838E+02  0.39999996945E+02 0.  0.
        -12    1    3    3    0    0 -0.14124162919E+02  0.16502369486E+02 -0.29731460843E+02  0.36820917162E+02  0.00000000000E+00 0.  1.
         11    1    4    4    0    0  0.32770499274E+01 -0.86437228234E+01  0.13380141925E+02  0.16262877933E+02  0.51100000000E-03 0. -1.
        -11    1    4    4    0    0 -0.96859924998E+01  0.39256046496E+01  0.27753780885E+01  0.10813489093E+02  0.51100000000E-03 0.  1.
         12    1    4    4    0    0  0.20533105492E+02 -0.11784251312E+02  0.13575940830E+02  0.27290715812E+02  0.00000000000E+00 0. -1.
</event>
<event>
 8    1  0.1248739E-006  0.9118800E+02  0.7816164E-02  0.1184000E+00
        -11   -1    0    0    0    0  0.00000000000E+00  0.00000000000E+00  0.45593999997E+02  0.45594000000E+02  0.51100000000E-03 0.  1.
         11   -1    0    0    0    0 -0.00000000000E+00 -0.00000000000E+00 -0.45593999997E+02  0.45594000000E+02  0.51100000000E-03 0. -1.
         23    2    1    2    0    0  0.00000000000E+00  0.17763568394E-14  0.17763568394E-14  0.91188000000E+02  0.91188000000E+02 0.  0.
    9900012    2    3    3    0    0 -0.32048543386E+02  0.12649620538E+02 -0.12986115659E+02  0.54367336877E+02  0.40000576074E+02 0.  0.
        -12    1    3    3    0    0  0.32048543386E+02 -0.12649620538E+02  0.12986115659E+02  0.36820663123E+02  0.00000000000E+00 0.  1.
         11    1    4    4    0    0 -0.19415520102E+02  0.81000624742E+01 -0.22560242476E+02  0.30847009154E+02  0.51100000000E-03 0. -1.
        -11    1    4    4    0    0  0.29592423948E+01  0.26949510198E+00 -0.20469975968E+01  0.36083157544E+01  0.51100000000E-03 0.  1.
        -12    1    4    4    0    0 -0.15592265679E+02  0.42800629615E+01  0.11621124415E+02  0.19912011968E+02  0.00000000000E+00 0.  1.
</event>
<event>
 8    1  0.1248739E-006  0.9118800E+02  0.7816164E-02  0.1184000E+00
        -11   -1    0    0    0    0  0.00000000000E+00  0.00000000000E+00  0.45593999997E+02  0.45594000000E+02  0.51100000000E-03 0.  1.
         11   -1    0    0    0    0 -0.00000000000E+00 -0.00000000000E+00 -0.45593999997E+02  0.45594000000E+02  0.51100000000E-03 0. -1.
         23    2    1    2    0    0 -0.35527136788E-14  0.11102230246E-14  0.00000000000E+00  0.91188000000E+02  0.91188000000E+02 0.  0.
    9900012    2    3    3    0    0 -0.30457491203E+02  0.12940631437E+01  0.20650556112E+02  0.54367097817E+02  0.40000031093E+02 0.  0.
         12    1    3    3    0    0  0.30457491203E+02 -0.12940631437E+01 -0.20650556112E+02  0.36820902183E+02  0.00000000000E+00 0. -1.
         11    1    4    4    0    0 -0.20880422715E+02 -0.76391987183E+01  0.12980626066E+02  0.25745797000E+02  0.51100000000E-03 0. -1.
        -11    1    4    4    0    0  0.70882223812E+01  0.82159021330E+01  0.22468648086E+01  0.11081170792E+02  0.51100000000E-03 0.  1.
        -12    1    4    4    0    0 -0.16665290869E+02  0.71735972897E+00  0.54230652376E+01  0.17540130026E+02  0.00000000000E+00 0.  1.
</event>
<event>
 8    1  0.1248739E-006  0.9118800E+02  0.7816164E-02  0.1184000E+00
        -11   -1    0    0    0    0  0.00000000000E+00  0.00000000000E+00  0.45593999997E+02  0.45594000000E+02  0.51100000000E-03 0.  1.
         11   -1    0    0    0    0 -0.00000000000E+00 -0.00000000000E+00 -0.45593999997E+02  0.45594000000E+02  0.51100000000E-03 0. -1.
         23    2    1    2    0    0  0.88817841970E-15  0.00000000000E+00 -0.35527136788E-14  0.91188000000E+02  0.91188000000E+02 0.  0.
    9900012    2    3    3    0    0  0.71455346181E+01 -0.30093947932E+02  0.19976869414E+02  0.54367086395E+02  0.40000005055E+02 0.  0.
         12    1    3    3    0    0 -0.71455346181E+01  0.30093947932E+02 -0.19976869414E+02  0.36820913605E+02  0.00000000000E+00 0. -1.
         11    1    4    4    0    0 -0.81676275127E+01 -0.22316789022E+01  0.17997108408E+01  0.86561821423E+01  0.51100000000E-03 0.  1.
        -11    1    4    4    0    0  0.16775288345E+02 -0.25902971457E+02  0.24195647323E+02  0.39214838760E+02  0.51100000000E-03 0. -1.
         12    1    4    4    0    0 -0.14621262139E+01 -0.19592975734E+01 -0.60184887503E+01  0.64960654925E+01  0.00000000000E+00 0. -1.
</event>
<event>
 8    1  0.1248739E-006  0.9118800E+02  0.7816164E-02  0.1184000E+00
        -11   -1    0    0    0    0  0.00000000000E+00  0.00000000000E+00  0.45593999997E+02  0.45594000000E+02  0.51100000000E-03 0. -1.
         11   -1    0    0    0    0 -0.00000000000E+00 -0.00000000000E+00 -0.45593999997E+02  0.45594000000E+02  0.51100000000E-03 0.  1.
         23    2    1    2    0    0  0.00000000000E+00 -0.88817841970E-15 -0.35527136788E-14  0.91188000000E+02  0.91188000000E+02 0.  0.
    9900012    2    3    3    0    0  0.20443846404E+02  0.59678203878E+01 -0.30036878326E+02  0.54367084809E+02  0.40000001438E+02 0.  0.
         12    1    3    3    0    0 -0.20443846404E+02 -0.59678203878E+01  0.30036878326E+02  0.36820915191E+02  0.00000000000E+00 0. -1.
         11    1    4    4    0    0  0.16823641757E+02 -0.89553650947E+00 -0.17874527875E+02  0.24562891821E+02  0.51100000000E-03 0. -1.
        -11    1    4    4    0    0  0.52947699375E+01 -0.28699651630E+01 -0.17549515818E+02  0.18554158413E+02  0.51100000000E-03 0.  1.
        -12    1    4    4    0    0 -0.16745652910E+01  0.97333220602E+01  0.53871653664E+01  0.11250034574E+02  0.00000000000E+00 0.  1.
</event>
<event>
 8    1  0.1248739E-006  0.9118800E+02  0.7816164E-02  0.1184000E+00
        -11   -1    0    0    0    0  0.00000000000E+00  0.00000000000E+00  0.45593999997E+02  0.45594000000E+02  0.51100000000E-03 0. -1.
         11   -1    0    0    0    0 -0.00000000000E+00 -0.00000000000E+00 -0.45593999997E+02  0.45594000000E+02  0.51100000000E-03 0.  1.
         23    2    1    2    0    0 -0.55511151231E-16 -0.44408920985E-15  0.00000000000E+00  0.91188000000E+02  0.91188000000E+02 0.  0.
    9900012    2    3    3    0    0  0.48568694525E+00 -0.26150715774E+01  0.36724725441E+02  0.54367082713E+02  0.39999996660E+02 0.  0.
        -12    1    3    3    0    0 -0.48568694525E+00  0.26150715774E+01 -0.36724725441E+02  0.36820917287E+02  0.00000000000E+00 0.  1.
         11    1    4    4    0    0  0.22032731363E+01 -0.30428815105E+01  0.36226428073E+02  0.36420703337E+02  0.51100000000E-03 0. -1.
        -11    1    4    4    0    0  0.11521290240E+01 -0.72319714250E+01  0.47489182671E+01  0.87281748922E+01  0.51100000000E-03 0.  1.
        -12    1    4    4    0    0 -0.28697152150E+01  0.76597813581E+01 -0.42506208989E+01  0.92182044832E+01  0.00000000000E+00 0.  1.
</event>
<event>
 8    1  0.1248739E-006  0.9118800E+02  0.7816164E-02  0.1184000E+00
        -11   -1    0    0    0    0  0.00000000000E+00  0.00000000000E+00  0.45593999997E+02  0.45594000000E+02  0.51100000000E-03 0.  1.
         11   -1    0    0    0    0 -0.00000000000E+00 -0.00000000000E+00 -0.45593999997E+02  0.45594000000E+02  0.51100000000E-03 0. -1.
         23    2    1    2    0    0  0.00000000000E+00  0.35527136788E-14  0.00000000000E+00  0.91188000000E+02  0.91188000000E+02 0.  0.
    9900012    2    3    3    0    0 -0.18406505660E+02  0.24789005199E+02  0.20062073121E+02  0.54367068354E+02  0.39999963927E+02 0.  0.
         12    1    3    3    0    0  0.18406505660E+02 -0.24789005199E+02 -0.20062073121E+02  0.36820931646E+02  0.00000000000E+00 0. -1.
         11    1    4    4    0    0  0.72866032660E-01 -0.83313187735E+01  0.10660765479E+01  0.83995655501E+01  0.51100000000E-03 0. -1.
        -11    1    4    4    0    0 -0.21754735412E+02  0.31231135786E+02  0.16902463551E+02  0.41645475501E+02  0.51100000000E-03 0.  1.
         12    1    4    4    0    0  0.32753637192E+01  0.18891881859E+01  0.20935330223E+01  0.43220273033E+01  0.00000000000E+00 0. -1.
</event>
<event>
 8    1  0.1248739E-006  0.9118800E+02  0.7816164E-02  0.1184000E+00
        -11   -1    0    0    0    0  0.00000000000E+00  0.00000000000E+00  0.45593999997E+02  0.45594000000E+02  0.51100000000E-03 0. -1.
         11   -1    0    0    0    0 -0.00000000000E+00 -0.00000000000E+00 -0.45593999997E+02  0.45594000000E+02  0.51100000000E-03 0.  1.
         23    2    1    2    0    0 -0.44408920985E-15  0.71054273576E-14  0.66613381478E-15  0.91188000000E+02  0.91188000000E+02 0.  0.
    9900012    2    3    3    0    0 -0.27307798171E+01 -0.36691003196E+02 -0.14467870276E+01  0.54367081127E+02  0.39999993046E+02 0.  0.
         12    1    3    3    0    0  0.27307798171E+01  0.36691003196E+02  0.14467870276E+01  0.36820918873E+02  0.00000000000E+00 0. -1.
         11    1    4    4    0    0  0.17769020613E+01 -0.83693673647E+01  0.12718352460E+01  0.86499281023E+01  0.51100000000E-03 0. -1.
        -11    1    4    4    0    0 -0.34850751406E+01 -0.17499447945E+02  0.16068424399E+02  0.24011886433E+02  0.51100000000E-03 0.  1.
         12    1    4    4    0    0 -0.10226067378E+01 -0.10822187886E+02 -0.18787046672E+02  0.21705266592E+02  0.00000000000E+00 0. -1.
</event>
<event>
 8    1  0.1248739E-006  0.9118800E+02  0.7816164E-02  0.1184000E+00
        -11   -1    0    0    0    0  0.00000000000E+00  0.00000000000E+00  0.45593999997E+02  0.45594000000E+02  0.51100000000E-03 0. -1.
         11   -1    0    0    0    0 -0.00000000000E+00 -0.00000000000E+00 -0.45593999997E+02  0.45594000000E+02  0.51100000000E-03 0.  1.
         23    2    1    2    0    0 -0.17763568394E-14 -0.35527136788E-14  0.35527136788E-14  0.91188000000E+02  0.91188000000E+02 0.  0.
    9900012    2    3    3    0    0 -0.13193226569E+02 -0.21400897251E+02  0.26902069281E+02  0.54367068968E+02  0.39999965327E+02 0.  0.
        -12    1    3    3    0    0  0.13193226569E+02  0.21400897251E+02 -0.26902069281E+02  0.36820931032E+02  0.00000000000E+00 0.  1.
         11    1    4    4    0    0 -0.42032723733E+01  0.51289361805E+01  0.25903607718E+01  0.71192312912E+01  0.51100000000E-03 0. -1.
        -11    1    4    4    0    0 -0.16475330211E+01 -0.17753148565E+02 -0.25871674961E+01  0.18016161770E+02  0.51100000000E-03 0.  1.
        -12    1    4    4    0    0 -0.73424211744E+01 -0.87766848667E+01  0.26898876006E+02  0.29231675907E+02  0.00000000000E+00 0.  1.
</event>
<event>
 8    1  0.1248739E-006  0.9118800E+02  0.7816164E-02  0.1184000E+00
        -11   -1    0    0    0    0  0.00000000000E+00  0.00000000000E+00  0.45593999997E+02  0.45594000000E+02  0.51100000000E-03 0.  1.
         11   -1    0    0    0    0 -0.00000000000E+00 -0.00000000000E+00 -0.45593999997E+02  0.45594000000E+02  0.51100000000E-03 0. -1.
         23    2    1    2    0    0  0.00000000000E+00  0.00000000000E+00  0.35527136788E-14  0.91188000000E+02  0.91188000000E+02 0.  0.
    9900012    2    3    3    0    0 -0.24336003455E+02 -0.86928014970E+01  0.26229289374E+02  0.54367061893E+02  0.39999949197E+02 0.  0.
         12    1    3    3    0    0  0.24336003455E+02  0.86928014970E+01 -0.26229289374E+02  0.36820938107E+02  0.00000000000E+00 0. -1.
         11    1    4    4    0    0 -0.76863020337E+01 -0.85307150273E+01  0.16443384407E+02  0.20055852733E+02  0.51100000000E-03 0. -1.
        -11    1    4    4    0    0 -0.93023932873E+01 -0.11434344603E+02  0.13879966467E+02  0.20246783121E+02  0.51100000000E-03 0.  1.
         12    1    4    4    0    0 -0.73473081343E+01  0.11272258133E+02 -0.40940615000E+01  0.14064426039E+02  0.00000000000E+00 0. -1.
</event>
<event>
 8    1  0.1248739E-006  0.9118800E+02  0.7816164E-02  0.1184000E+00
        -11   -1    0    0    0    0  0.00000000000E+00  0.00000000000E+00  0.45593999997E+02  0.45594000000E+02  0.51100000000E-03 0. -1.
         11   -1    0    0    0    0 -0.00000000000E+00 -0.00000000000E+00 -0.45593999997E+02  0.45594000000E+02  0.51100000000E-03 0.  1.
         23    2    1    2    0    0 -0.88817841970E-15 -0.35527136788E-14  0.00000000000E+00  0.91188000000E+02  0.91188000000E+02 0.  0.
    9900012    2    3    3    0    0 -0.27066049042E+01 -0.22962078950E+02  0.28656518243E+02  0.54367098088E+02  0.40000031710E+02 0.  0.
        -12    1    3    3    0    0  0.27066049042E+01  0.22962078950E+02 -0.28656518243E+02  0.36820901912E+02  0.00000000000E+00 0.  1.
         11    1    4    4    0    0  0.83576123072E+01 -0.56184754521E+01  0.14458659249E+02  0.17620152594E+02  0.51100000000E-03 0. -1.
        -11    1    4    4    0    0 -0.77372829647E+01 -0.24362831307E+02  0.79239336831E+01  0.26761947281E+02  0.51100000000E-03 0.  1.
        -12    1    4    4    0    0 -0.33269342467E+01  0.70192278089E+01  0.62739253108E+01  0.99849982133E+01  0.00000000000E+00 0.  1.
</event>
<event>
 8    1  0.1248739E-006  0.9118800E+02  0.7816164E-02  0.1184000E+00
        -11   -1    0    0    0    0  0.00000000000E+00  0.00000000000E+00  0.45593999997E+02  0.45594000000E+02  0.51100000000E-03 0. -1.
         11   -1    0    0    0    0 -0.00000000000E+00 -0.00000000000E+00 -0.45593999997E+02  0.45594000000E+02  0.51100000000E-03 0.  1.
         23    2    1    2    0    0 -0.35527136788E-14 -0.17763568394E-14  0.17763568394E-14  0.91188000000E+02  0.91188000000E+02 0.  0.
    9900012    2    3    3    0    0 -0.31487652740E+02 -0.13711504947E+02  0.13278043917E+02  0.54367026449E+02  0.39999868396E+02 0.  0.
         12    1    3    3    0    0  0.31487652740E+02  0.13711504947E+02 -0.13278043917E+02  0.36820973551E+02  0.00000000000E+00 0. -1.
         11    1    4    4    0    0  0.39752908545E+01 -0.28090595414E+01  0.24247876490E+01  0.54381383110E+01  0.51100000000E-03 0. -1.
        -11    1    4    4    0    0 -0.26922084259E+02  0.59804768242E+01  0.11773158632E+02  0.29986196630E+02  0.51100000000E-03 0.  1.
        -12    1    4    4    0    0 -0.85408593348E+01 -0.16882922230E+02 -0.91990236460E+00  0.18942691508E+02  0.00000000000E+00 0.  1.
</event>
<event>
 8    1  0.1248739E-006  0.9118800E+02  0.7816164E-02  0.1184000E+00
        -11   -1    0    0    0    0  0.00000000000E+00  0.00000000000E+00  0.45593999997E+02  0.45594000000E+02  0.51100000000E-03 0.  1.
         11   -1    0    0    0    0 -0.00000000000E+00 -0.00000000000E+00 -0.45593999997E+02  0.45594000000E+02  0.51100000000E-03 0. -1.
         23    2    1    2    0    0  0.88817841970E-15  0.00000000000E+00  0.00000000000E+00  0.91188000000E+02  0.91188000000E+02 0.  0.
    9900012    2    3    3    0    0  0.32553917278E+01 -0.19078489857E+02 -0.31324008521E+02  0.54367083929E+02  0.39999999433E+02 0.  0.
        -12    1    3    3    0    0 -0.32553917278E+01  0.19078489857E+02  0.31324008521E+02  0.36820916071E+02  0.00000000000E+00 0.  1.
         11    1    4    4    0    0 -0.99035421864E+01 -0.97874635192E+01 -0.20344899854E+02  0.24653388009E+02  0.51100000000E-03 0. -1.
        -11    1    4    4    0    0  0.16141991907E+02 -0.30471409085E+00 -0.13373712384E+01  0.16200164057E+02  0.51100000000E-03 0.  1.
        -12    1    4    4    0    0 -0.29830579924E+01 -0.89863122468E+01 -0.96417374279E+01  0.13513531863E+02  0.00000000000E+00 0.  1.
</event>
<event>
 8    1  0.1248739E-006  0.9118800E+02  0.7816164E-02  0.1184000E+00
        -11   -1    0    0    0    0  0.00000000000E+00  0.00000000000E+00  0.45593999997E+02  0.45594000000E+02  0.51100000000E-03 0. -1.
         11   -1    0    0    0    0 -0.00000000000E+00 -0.00000000000E+00 -0.45593999997E+02  0.45594000000E+02  0.51100000000E-03 0.  1.
         23    2    1    2    0    0 -0.71054273576E-14  0.00000000000E+00  0.00000000000E+00  0.91188000000E+02  0.91188000000E+02 0.  0.
    9900012    2    3    3    0    0  0.33847758243E+02  0.97830134663E+01 -0.10695690739E+02  0.54367137830E+02  0.40000122311E+02 0.  0.
         12    1    3    3    0    0 -0.33847758243E+02 -0.97830134663E+01  0.10695690739E+02  0.36820862170E+02  0.00000000000E+00 0. -1.
         11    1    4    4    0    0  0.13113135291E+01 -0.32227515127E+01  0.77247449344E+01  0.84721517366E+01  0.51100000000E-03 0. -1.
        -11    1    4    4    0    0  0.14994131905E+02  0.18122868396E+02 -0.79179521428E+01  0.24818467254E+02  0.51100000000E-03 0.  1.
        -12    1    4    4    0    0  0.17542312809E+02 -0.51171034167E+01 -0.10502483530E+02  0.21076518839E+02  0.00000000000E+00 0.  1.
</event>
<event>
 8    1  0.1248739E-006  0.9118800E+02  0.7816164E-02  0.1184000E+00
        -11   -1    0    0    0    0  0.00000000000E+00  0.00000000000E+00  0.45593999997E+02  0.45594000000E+02  0.51100000000E-03 0.  1.
         11   -1    0    0    0    0 -0.00000000000E+00 -0.00000000000E+00 -0.45593999997E+02  0.45594000000E+02  0.51100000000E-03 0. -1.
         23    2    1    2    0    0  0.10658141036E-13  0.71054273576E-14  0.17763568394E-14  0.91188000000E+02  0.91188000000E+02 0.  0.
    9900012    2    3    3    0    0  0.24867018913E+02  0.25211158495E+02  0.10090020593E+02  0.54367086678E+02  0.40000005701E+02 0.  0.
         12    1    3    3    0    0 -0.24867018913E+02 -0.25211158495E+02 -0.10090020593E+02  0.36820913322E+02  0.00000000000E+00 0. -1.
         11    1    4    4    0    0  0.99261463454E+00  0.66827867523E+01  0.11430677398E+01  0.68521184102E+01  0.51100000000E-03 0. -1.
        -11    1    4    4    0    0  0.31696671118E+02  0.13624224786E+02  0.13711579143E+02  0.37125541933E+02  0.51100000000E-03 0.  1.
         12    1    4    4    0    0 -0.78222668395E+01  0.49041469572E+01 -0.47646262903E+01  0.10389426335E+02  0.00000000000E+00 0. -1.
</event>
<event>
 8    1  0.1248739E-006  0.9118800E+02  0.7816164E-02  0.1184000E+00
        -11   -1    0    0    0    0  0.00000000000E+00  0.00000000000E+00  0.45593999997E+02  0.45594000000E+02  0.51100000000E-03 0.  1.
         11   -1    0    0    0    0 -0.00000000000E+00 -0.00000000000E+00 -0.45593999997E+02  0.45594000000E+02  0.51100000000E-03 0. -1.
         23    2    1    2    0    0 -0.35527136788E-14  0.00000000000E+00  0.35527136788E-14  0.91188000000E+02  0.91188000000E+02 0.  0.
    9900012    2    3    3    0    0  0.25263867730E+02 -0.20497212308E+02 -0.17244736592E+02  0.54367086579E+02  0.40000005474E+02 0.  0.
        -12    1    3    3    0    0 -0.25263867730E+02  0.20497212308E+02  0.17244736592E+02  0.36820913421E+02  0.00000000000E+00 0.  1.
         11    1    4    4    0    0  0.77808027524E+01 -0.16522542406E+02 -0.46683511060E+01  0.18850167144E+02  0.51100000000E-03 0. -1.
        -11    1    4    4    0    0  0.19657521721E+02 -0.12053787519E+02 -0.37615738731E+01  0.23363676766E+02  0.51100000000E-03 0.  1.
         12    1    4    4    0    0 -0.21744567439E+01  0.80791176171E+01 -0.88148116126E+01  0.12153242669E+02  0.00000000000E+00 0. -1.
</event>
<event>
 8    1  0.1248739E-006  0.9118800E+02  0.7816164E-02  0.1184000E+00
        -11   -1    0    0    0    0  0.00000000000E+00  0.00000000000E+00  0.45593999997E+02  0.45594000000E+02  0.51100000000E-03 0.  1.
         11   -1    0    0    0    0 -0.00000000000E+00 -0.00000000000E+00 -0.45593999997E+02  0.45594000000E+02  0.51100000000E-03 0. -1.
         23    2    1    2    0    0  0.00000000000E+00  0.17763568394E-14 -0.71054273576E-14  0.91188000000E+02  0.91188000000E+02 0.  0.
    9900012    2    3    3    0    0  0.14995330351E+02  0.84271306421E+01  0.32556143670E+02  0.54367096238E+02  0.40000027494E+02 0.  0.
         12    1    3    3    0    0 -0.14995330351E+02 -0.84271306421E+01 -0.32556143670E+02  0.36820903762E+02  0.00000000000E+00 0. -1.
         11    1    4    4    0    0  0.64526109835E+01  0.30388455655E+01  0.26962524134E+01  0.76249949648E+01  0.51100000000E-03 0. -1.
        -11    1    4    4    0    0 -0.69654523065E+01 -0.10787566120E+02  0.15495006527E+02  0.20124222622E+02  0.51100000000E-03 0.  1.
        -12    1    4    4    0    0  0.15508171674E+02  0.16175851196E+02  0.14364884730E+02  0.26617878651E+02  0.00000000000E+00 0.  1.
</event>
<event>
 8    1  0.1248739E-006  0.9118800E+02  0.7816164E-02  0.1184000E+00
        -11   -1    0    0    0    0  0.00000000000E+00  0.00000000000E+00  0.45593999997E+02  0.45594000000E+02  0.51100000000E-03 0.  1.
         11   -1    0    0    0    0 -0.00000000000E+00 -0.00000000000E+00 -0.45593999997E+02  0.45594000000E+02  0.51100000000E-03 0. -1.
         23    2    1    2    0    0  0.00000000000E+00 -0.35527136788E-14  0.00000000000E+00  0.91188000000E+02  0.91188000000E+02 0.  0.
    9900012    2    3    3    0    0 -0.27612408573E+02  0.23631167807E+02  0.59079366389E+01  0.54367069615E+02  0.39999966801E+02 0.  0.
        -12    1    3    3    0    0  0.27612408573E+02 -0.23631167807E+02 -0.59079366389E+01  0.36820930385E+02  0.00000000000E+00 0.  1.
         11    1    4    4    0    0 -0.74970488684E+01 -0.48194710897E+01  0.76818262574E+01  0.11766201521E+02  0.51100000000E-03 0. -1.
        -11    1    4    4    0    0 -0.17595854961E+02  0.12550826091E+02  0.88047379809E+01  0.23337968175E+02  0.51100000000E-03 0.  1.
        -12    1    4    4    0    0 -0.25195047439E+01  0.15899812805E+02 -0.10578627599E+02  0.19262899919E+02  0.00000000000E+00 0.  1.
</event>
<event>
 8    1  0.1248739E-006  0.9118800E+02  0.7816164E-02  0.1184000E+00
        -11   -1    0    0    0    0  0.00000000000E+00  0.00000000000E+00  0.45593999997E+02  0.45594000000E+02  0.51100000000E-03 0.  1.
         11   -1    0    0    0    0 -0.00000000000E+00 -0.00000000000E+00 -0.45593999997E+02  0.45594000000E+02  0.51100000000E-03 0. -1.
         23    2    1    2    0    0  0.00000000000E+00  0.00000000000E+00 -0.17763568394E-14  0.91188000000E+02  0.91188000000E+02 0.  0.
    9900012    2    3    3    0    0  0.27751805772E+02  0.20768968069E+02  0.12420423625E+02  0.54367086359E+02  0.40000004973E+02 0.  0.
         12    1    3    3    0    0 -0.27751805772E+02 -0.20768968069E+02 -0.12420423625E+02  0.36820913641E+02  0.00000000000E+00 0. -1.
         11    1    4    4    0    0  0.21094512085E+02  0.37654698938E+01  0.15934241202E+02  0.26703131775E+02  0.51100000000E-03 0. -1.
        -11    1    4    4    0    0  0.76495075848E+01 -0.15115113005E+01  0.24723845746E+01  0.81799950151E+01  0.51100000000E-03 0.  1.
         12    1    4    4    0    0 -0.99221389776E+00  0.18515009476E+02 -0.59862021509E+01  0.19483959570E+02  0.00000000000E+00 0. -1.
</event>
<event>
 8    1  0.1248739E-006  0.9118800E+02  0.7816164E-02  0.1184000E+00
        -11   -1    0    0    0    0  0.00000000000E+00  0.00000000000E+00  0.45593999997E+02  0.45594000000E+02  0.51100000000E-03 0. -1.
         11   -1    0    0    0    0 -0.00000000000E+00 -0.00000000000E+00 -0.45593999997E+02  0.45594000000E+02  0.51100000000E-03 0.  1.
         23    2    1    2    0    0 -0.35527136788E-14  0.00000000000E+00  0.00000000000E+00  0.91188000000E+02  0.91188000000E+02 0.  0.
    9900012    2    3    3    0    0 -0.25103832882E+02 -0.16437458970E+02  0.21339801393E+02  0.54367087379E+02  0.40000007298E+02 0.  0.
        -12    1    3    3    0    0  0.25103832882E+02  0.16437458970E+02 -0.21339801393E+02  0.36820912621E+02  0.00000000000E+00 0.  1.
         11    1    4    4    0    0 -0.46909111362E+01  0.71748144537E+01  0.11254133505E+02  0.14147018447E+02  0.51100000000E-03 0. -1.
        -11    1    4    4    0    0 -0.70395413358E+00 -0.61012207243E+01 -0.66028971766E+01  0.90176880149E+01  0.51100000000E-03 0.  1.
        -12    1    4    4    0    0 -0.19708967612E+02 -0.17511052699E+02  0.16688565064E+02  0.31202380917E+02  0.00000000000E+00 0.  1.
</event>
<event>
 8    1  0.1248739E-006  0.9118800E+02  0.7816164E-02  0.1184000E+00
        -11   -1    0    0    0    0  0.00000000000E+00  0.00000000000E+00  0.45593999997E+02  0.45594000000E+02  0.51100000000E-03 0.  1.
         11   -1    0    0    0    0 -0.00000000000E+00 -0.00000000000E+00 -0.45593999997E+02  0.45594000000E+02  0.51100000000E-03 0. -1.
         23    2    1    2    0    0  0.00000000000E+00  0.00000000000E+00 -0.17763568394E-14  0.91188000000E+02  0.91188000000E+02 0.  0.
    9900012    2    3    3    0    0  0.32081579184E+02  0.14414612511E+02  0.10898161163E+02  0.54367099773E+02  0.40000035553E+02 0.  0.
        -12    1    3    3    0    0 -0.32081579184E+02 -0.14414612511E+02 -0.10898161163E+02  0.36820900227E+02  0.00000000000E+00 0.  1.
         11    1    4    4    0    0  0.39280419132E+01 -0.66898228081E+01 -0.81563839312E+01  0.11256546609E+02  0.51100000000E-03 0. -1.
        -11    1    4    4    0    0  0.52342126517E+01 -0.19176943378E+01  0.26131927247E+00  0.55805753897E+01  0.51100000000E-03 0.  1.
        -12    1    4    4    0    0  0.22919324619E+02  0.23022129656E+02  0.18793225822E+02  0.37529977774E+02  0.00000000000E+00 0.  1.
</event>
<event>
 8    1  0.1248739E-006  0.9118800E+02  0.7816164E-02  0.1184000E+00
        -11   -1    0    0    0    0  0.00000000000E+00  0.00000000000E+00  0.45593999997E+02  0.45594000000E+02  0.51100000000E-03 0.  1.
         11   -1    0    0    0    0 -0.00000000000E+00 -0.00000000000E+00 -0.45593999997E+02  0.45594000000E+02  0.51100000000E-03 0. -1.
         23    2    1    2    0    0  0.00000000000E+00  0.35527136788E-14  0.00000000000E+00  0.91188000000E+02  0.91188000000E+02 0.  0.
    9900012    2    3    3    0    0 -0.98026600995E+01 -0.25040426780E+02  0.25152819733E+02  0.54367089381E+02  0.40000011861E+02 0.  0.
         12    1    3    3    0    0  0.98026600995E+01  0.25040426780E+02 -0.25152819733E+02  0.36820910619E+02  0.00000000000E+00 0. -1.
         11    1    4    4    0    0 -0.30934613003E+01 -0.74306770917E+00 -0.31305694164E+01  0.44634199409E+01  0.51100000000E-03 0. -1.
        -11    1    4    4    0    0  0.80932984042E+01 -0.22347314894E+02  0.25234200030E+02  0.34665095030E+02  0.51100000000E-03 0.  1.
        -12    1    4    4    0    0 -0.14802497203E+02 -0.19500441765E+01  0.30491891188E+01  0.15238574409E+02  0.00000000000E+00 0.  1.
</event>
<event>
 8    1  0.1248739E-006  0.9118800E+02  0.7816164E-02  0.1184000E+00
        -11   -1    0    0    0    0  0.00000000000E+00  0.00000000000E+00  0.45593999997E+02  0.45594000000E+02  0.51100000000E-03 0.  1.
         11   -1    0    0    0    0 -0.00000000000E+00 -0.00000000000E+00 -0.45593999997E+02  0.45594000000E+02  0.51100000000E-03 0. -1.
         23    2    1    2    0    0  0.17763568394E-14  0.17763568394E-14 -0.71054273576E-14  0.91188000000E+02  0.91188000000E+02 0.  0.
    9900012    2    3    3    0    0 -0.80246733942E+01 -0.15997838134E+02  0.32178398286E+02  0.54367142809E+02  0.40000133661E+02 0.  0.
         12    1    3    3    0    0  0.80246733942E+01  0.15997838134E+02 -0.32178398286E+02  0.36820857191E+02  0.00000000000E+00 0. -1.
         11    1    4    4    0    0 -0.70124445478E+01 -0.15838270419E+02  0.28559330824E+02  0.33401505442E+02  0.51100000000E-03 0.  1.
        -11    1    4    4    0    0 -0.75192823491E+01  0.61874579944E+01  0.61658289628E+01  0.11525696965E+02  0.51100000000E-03 0. -1.
         12    1    4    4    0    0  0.65070535027E+01 -0.63470257098E+01 -0.25467615007E+01  0.94399404018E+01  0.00000000000E+00 0. -1.
</event>
<event>
 8    1  0.1248739E-006  0.9118800E+02  0.7816164E-02  0.1184000E+00
        -11   -1    0    0    0    0  0.00000000000E+00  0.00000000000E+00  0.45593999997E+02  0.45594000000E+02  0.51100000000E-03 0.  1.
         11   -1    0    0    0    0 -0.00000000000E+00 -0.00000000000E+00 -0.45593999997E+02  0.45594000000E+02  0.51100000000E-03 0. -1.
         23    2    1    2    0    0  0.00000000000E+00 -0.35527136788E-14  0.00000000000E+00  0.91188000000E+02  0.91188000000E+02 0.  0.
    9900012    2    3    3    0    0  0.34914454763E+01 -0.16814196052E+02 -0.32571038793E+02  0.54367082732E+02  0.39999996704E+02 0.  0.
        -12    1    3    3    0    0 -0.34914454763E+01  0.16814196052E+02  0.32571038793E+02  0.36820917268E+02  0.00000000000E+00 0.  1.
         11    1    4    4    0    0  0.88568171718E+01  0.98148903219E+01 -0.49138371591E+01  0.14103938398E+02  0.51100000000E-03 0. -1.
        -11    1    4    4    0    0 -0.82632024790E+01 -0.18943361312E+02 -0.22563432578E+02  0.30598038221E+02  0.51100000000E-03 0.  1.
         12    1    4    4    0    0  0.28978307836E+01 -0.76857250619E+01 -0.50937690566E+01  0.96651061132E+01  0.00000000000E+00 0. -1.
</event>
<event>
 8    1  0.1248739E-006  0.9118800E+02  0.7816164E-02  0.1184000E+00
        -11   -1    0    0    0    0  0.00000000000E+00  0.00000000000E+00  0.45593999997E+02  0.45594000000E+02  0.51100000000E-03 0.  1.
         11   -1    0    0    0    0 -0.00000000000E+00 -0.00000000000E+00 -0.45593999997E+02  0.45594000000E+02  0.51100000000E-03 0. -1.
         23    2    1    2    0    0  0.17763568394E-14 -0.35527136788E-14  0.35527136788E-14  0.91188000000E+02  0.91188000000E+02 0.  0.
    9900012    2    3    3    0    0  0.13529146589E+02 -0.20893321718E+02  0.27133218715E+02  0.54367078534E+02  0.39999987133E+02 0.  0.
         12    1    3    3    0    0 -0.13529146589E+02  0.20893321718E+02 -0.27133218715E+02  0.36820921466E+02  0.00000000000E+00 0. -1.
         11    1    4    4    0    0 -0.31148866403E+01 -0.20668428164E+02  0.50441449486E+01  0.21501856666E+02  0.51100000000E-03 0. -1.
        -11    1    4    4    0    0 -0.35642637814E+00  0.44721301059E+01  0.11377159487E+02  0.12229748391E+02  0.51100000000E-03 0.  1.
        -12    1    4    4    0    0  0.17000459607E+02 -0.46970236599E+01  0.10711914279E+02  0.20635473477E+02  0.00000000000E+00 0.  1.
</event>
<event>
 8    1  0.1248739E-006  0.9118800E+02  0.7816164E-02  0.1184000E+00
        -11   -1    0    0    0    0  0.00000000000E+00  0.00000000000E+00  0.45593999997E+02  0.45594000000E+02  0.51100000000E-03 0. -1.
         11   -1    0    0    0    0 -0.00000000000E+00 -0.00000000000E+00 -0.45593999997E+02  0.45594000000E+02  0.51100000000E-03 0.  1.
         23    2    1    2    0    0  0.00000000000E+00 -0.88817841970E-15  0.10658141036E-13  0.91188000000E+02  0.91188000000E+02 0.  0.
    9900012    2    3    3    0    0 -0.18237417191E+02 -0.43116776502E+01 -0.31695198589E+02  0.54367087958E+02  0.40000008619E+02 0.  0.
         12    1    3    3    0    0  0.18237417191E+02  0.43116776502E+01  0.31695198589E+02  0.36820912042E+02  0.00000000000E+00 0. -1.
         11    1    4    4    0    0 -0.58568214163E+01 -0.64344649724E+01  0.40197406625E+01  0.95845193848E+01  0.51100000000E-03 0. -1.
        -11    1    4    4    0    0 -0.60450070120E+00  0.61783314047E+01  0.74651737030E+00  0.62525585554E+01  0.51100000000E-03 0.  1.
         12    1    4    4    0    0 -0.11776095074E+02 -0.40555440825E+01 -0.36461456622E+02  0.38530010018E+02  0.00000000000E+00 0. -1.
</event>
<event>
 8    1  0.1248739E-006  0.9118800E+02  0.7816164E-02  0.1184000E+00
        -11   -1    0    0    0    0  0.00000000000E+00  0.00000000000E+00  0.45593999997E+02  0.45594000000E+02  0.51100000000E-03 0. -1.
         11   -1    0    0    0    0 -0.00000000000E+00 -0.00000000000E+00 -0.45593999997E+02  0.45594000000E+02  0.51100000000E-03 0.  1.
         23    2    1    2    0    0  0.00000000000E+00  0.00000000000E+00  0.00000000000E+00  0.91188000000E+02  0.91188000000E+02 0.  0.
    9900012    2    3    3    0    0  0.24058855666E+02 -0.53660831152E+01  0.27352458913E+02  0.54367076702E+02  0.39999982957E+02 0.  0.
        -12    1    3    3    0    0 -0.24058855666E+02  0.53660831152E+01 -0.27352458913E+02  0.36820923298E+02  0.00000000000E+00 0.  1.
         11    1    4    4    0    0  0.24542638005E+02  0.18980612878E+00  0.16912341790E+02  0.29806113663E+02  0.51100000000E-03 0. -1.
        -11    1    4    4    0    0  0.99094035137E+01  0.78366173324E+00  0.34454078353E+01  0.10520515155E+02  0.51100000000E-03 0.  1.
         12    1    4    4    0    0 -0.10393185853E+02 -0.63395509772E+01  0.69947092881E+01  0.14040447884E+02  0.00000000000E+00 0. -1.
</event>
<event>
 8    1  0.1248739E-006  0.9118800E+02  0.7816164E-02  0.1184000E+00
        -11   -1    0    0    0    0  0.00000000000E+00  0.00000000000E+00  0.45593999997E+02  0.45594000000E+02  0.51100000000E-03 0. -1.
         11   -1    0    0    0    0 -0.00000000000E+00 -0.00000000000E+00 -0.45593999997E+02  0.45594000000E+02  0.51100000000E-03 0.  1.
         23    2    1    2    0    0  0.00000000000E+00  0.71054273576E-14  0.00000000000E+00  0.91188000000E+02  0.91188000000E+02 0.  0.
    9900012    2    3    3    0    0  0.49108364385E+01  0.32519252134E+02  0.16558070053E+02  0.54366976688E+02  0.39999754954E+02 0.  0.
        -12    1    3    3    0    0 -0.49108364385E+01 -0.32519252134E+02 -0.16558070053E+02  0.36821023312E+02  0.00000000000E+00 0.  1.
         11    1    4    4    0    0  0.28746659021E+01 -0.37121066341E+01 -0.11170095833E+01  0.48260905899E+01  0.51100000000E-03 0. -1.
        -11    1    4    4    0    0 -0.91229858997E+01  0.71509094421E+01 -0.32236501078E+01  0.12031471143E+02  0.51100000000E-03 0.  1.
         12    1    4    4    0    0  0.11159156436E+02  0.29080449326E+02  0.20898729744E+02  0.37509414955E+02  0.00000000000E+00 0. -1.
</event>
<event>
 8    1  0.1248739E-006  0.9118800E+02  0.7816164E-02  0.1184000E+00
        -11   -1    0    0    0    0  0.00000000000E+00  0.00000000000E+00  0.45593999997E+02  0.45594000000E+02  0.51100000000E-03 0.  1.
         11   -1    0    0    0    0 -0.00000000000E+00 -0.00000000000E+00 -0.45593999997E+02  0.45594000000E+02  0.51100000000E-03 0. -1.
         23    2    1    2    0    0  0.35527136788E-14  0.00000000000E+00  0.00000000000E+00  0.91188000000E+02  0.91188000000E+02 0.  0.
    9900012    2    3    3    0    0 -0.89501213468E+01  0.28048501433E+02  0.22112358240E+02  0.54367088935E+02  0.40000010845E+02 0.  0.
        -12    1    3    3    0    0  0.89501213468E+01 -0.28048501433E+02 -0.22112358240E+02  0.36820911065E+02  0.00000000000E+00 0.  1.
         11    1    4    4    0    0  0.31840868762E+01  0.17781304375E+02  0.95515367081E+01  0.20433919062E+02  0.51100000000E-03 0. -1.
        -11    1    4    4    0    0  0.85141259407E+01  0.34688523377E+01  0.68262606663E+01  0.11450812723E+02  0.51100000000E-03 0.  1.
         12    1    4    4    0    0 -0.20648334164E+02  0.67983447203E+01  0.57345608656E+01  0.22482357149E+02  0.00000000000E+00 0. -1.
</event>
<event>
 8    1  0.1248739E-006  0.9118800E+02  0.7816164E-02  0.1184000E+00
        -11   -1    0    0    0    0  0.00000000000E+00  0.00000000000E+00  0.45593999997E+02  0.45594000000E+02  0.51100000000E-03 0. -1.
         11   -1    0    0    0    0 -0.00000000000E+00 -0.00000000000E+00 -0.45593999997E+02  0.45594000000E+02  0.51100000000E-03 0.  1.
         23    2    1    2    0    0  0.00000000000E+00  0.00000000000E+00 -0.35527136788E-14  0.91188000000E+02  0.91188000000E+02 0.  0.
    9900012    2    3    3    0    0  0.28888976373E+02 -0.11100789778E+02 -0.19949442888E+02  0.54367071697E+02  0.39999971547E+02 0.  0.
         12    1    3    3    0    0 -0.28888976373E+02  0.11100789778E+02  0.19949442888E+02  0.36820928303E+02  0.00000000000E+00 0. -1.
         11    1    4    4    0    0  0.29559366870E+02  0.26643655317E+01 -0.32462645866E+01  0.29856209529E+02  0.51100000000E-03 0. -1.
        -11    1    4    4    0    0  0.26396630169E+01 -0.49651212498E+00  0.28648143226E+00  0.27011880729E+01  0.51100000000E-03 0.  1.
        -12    1    4    4    0    0 -0.33100535139E+01 -0.13268643185E+02 -0.16989659734E+02  0.21809674094E+02  0.00000000000E+00 0.  1.
</event>
<event>
 8    1  0.1248739E-006  0.9118800E+02  0.7816164E-02  0.1184000E+00
        -11   -1    0    0    0    0  0.00000000000E+00  0.00000000000E+00  0.45593999997E+02  0.45594000000E+02  0.51100000000E-03 0.  1.
         11   -1    0    0    0    0 -0.00000000000E+00 -0.00000000000E+00 -0.45593999997E+02  0.45594000000E+02  0.51100000000E-03 0. -1.
         23    2    1    2    0    0  0.00000000000E+00  0.00000000000E+00 -0.44408920985E-15  0.91188000000E+02  0.91188000000E+02 0.  0.
    9900012    2    3    3    0    0 -0.36308723840E+02  0.54939532919E+01 -0.26971061775E+01  0.54367063953E+02  0.39999953893E+02 0.  0.
        -12    1    3    3    0    0  0.36308723840E+02 -0.54939532919E+01  0.26971061775E+01  0.36820936047E+02  0.00000000000E+00 0.  1.
         11    1    4    4    0    0 -0.20217860379E+02 -0.79975369863E+00  0.10022286987E+02  0.22579807816E+02  0.51100000000E-03 0. -1.
        -11    1    4    4    0    0  0.37480362056E+01  0.72699405627E+01  0.39890126501E-01  0.81793277638E+01  0.51100000000E-03 0.  1.
         12    1    4    4    0    0 -0.19838899667E+02 -0.97623357220E+00 -0.12759283291E+02  0.23607928373E+02  0.00000000000E+00 0. -1.
</event>
<event>
 8    1  0.1248739E-006  0.9118800E+02  0.7816164E-02  0.1184000E+00
        -11   -1    0    0    0    0  0.00000000000E+00  0.00000000000E+00  0.45593999997E+02  0.45594000000E+02  0.51100000000E-03 0. -1.
         11   -1    0    0    0    0 -0.00000000000E+00 -0.00000000000E+00 -0.45593999997E+02  0.45594000000E+02  0.51100000000E-03 0.  1.
         23    2    1    2    0    0  0.00000000000E+00 -0.88817841970E-15  0.00000000000E+00  0.91188000000E+02  0.91188000000E+02 0.  0.
    9900012    2    3    3    0    0  0.35535256704E+02  0.77376454469E+01 -0.57578535889E+01  0.54367102346E+02  0.40000041419E+02 0.  0.
        -12    1    3    3    0    0 -0.35535256704E+02 -0.77376454469E+01  0.57578535889E+01  0.36820897654E+02  0.00000000000E+00 0.  1.
         11    1    4    4    0    0  0.88172225667E+01 -0.93660226062E+01 -0.95637837619E+01  0.16029090846E+02  0.51100000000E-03 0. -1.
        -11    1    4    4    0    0 -0.28720140672E+01  0.32883528594E+01  0.36352517543E+01  0.56812661360E+01  0.51100000000E-03 0.  1.
         12    1    4    4    0    0  0.29590048205E+02  0.13815315194E+02  0.17067841872E+00  0.32656745364E+02  0.00000000000E+00 0. -1.
</event>
<event>
 8    1  0.1248739E-006  0.9118800E+02  0.7816164E-02  0.1184000E+00
        -11   -1    0    0    0    0  0.00000000000E+00  0.00000000000E+00  0.45593999997E+02  0.45594000000E+02  0.51100000000E-03 0. -1.
         11   -1    0    0    0    0 -0.00000000000E+00 -0.00000000000E+00 -0.45593999997E+02  0.45594000000E+02  0.51100000000E-03 0.  1.
         23    2    1    2    0    0  0.00000000000E+00  0.17763568394E-14  0.17763568394E-14  0.91188000000E+02  0.91188000000E+02 0.  0.
    9900012    2    3    3    0    0 -0.31710733523E+02 -0.10770173814E+02 -0.15304145255E+02  0.54367025997E+02  0.39999867366E+02 0.  0.
         12    1    3    3    0    0  0.31710733523E+02  0.10770173814E+02  0.15304145255E+02  0.36820974003E+02  0.00000000000E+00 0. -1.
         11    1    4    4    0    0 -0.37249350847E+01 -0.24182250175E+01  0.46077441986E+01  0.63995515844E+01  0.51100000000E-03 0. -1.
        -11    1    4    4    0    0 -0.61273305627E+00  0.87348773127E+01  0.19755022592E+01  0.89764209407E+01  0.51100000000E-03 0.  1.
        -12    1    4    4    0    0 -0.27373065382E+02 -0.17086826109E+02 -0.21887391713E+02  0.38991053472E+02  0.00000000000E+00 0.  1.
</event>
<event>
 8    1  0.1248739E-006  0.9118800E+02  0.7816164E-02  0.1184000E+00
        -11   -1    0    0    0    0  0.00000000000E+00  0.00000000000E+00  0.45593999997E+02  0.45594000000E+02  0.51100000000E-03 0.  1.
         11   -1    0    0    0    0 -0.00000000000E+00 -0.00000000000E+00 -0.45593999997E+02  0.45594000000E+02  0.51100000000E-03 0. -1.
         23    2    1    2    0    0  0.00000000000E+00  0.00000000000E+00  0.00000000000E+00  0.91188000000E+02  0.91188000000E+02 0.  0.
    9900012    2    3    3    0    0 -0.14888547620E+02 -0.12994303792E+02 -0.31068617732E+02  0.54367084897E+02  0.40000001640E+02 0.  0.
        -12    1    3    3    0    0  0.14888547620E+02  0.12994303792E+02  0.31068617732E+02  0.36820915103E+02  0.00000000000E+00 0.  1.
         11    1    4    4    0    0 -0.21390007011E+02 -0.16354021525E+02 -0.25578696127E+02  0.37138337548E+02  0.51100000000E-03 0. -1.
        -11    1    4    4    0    0 -0.25239449885E+01  0.61627420572E+01 -0.89224595360E+00  0.67190617702E+01  0.51100000000E-03 0.  1.
         12    1    4    4    0    0  0.90254043798E+01 -0.28030243247E+01 -0.45976756508E+01  0.10509685579E+02  0.00000000000E+00 0. -1.
</event>
<event>
 8    1  0.1248739E-006  0.9118800E+02  0.7816164E-02  0.1184000E+00
        -11   -1    0    0    0    0  0.00000000000E+00  0.00000000000E+00  0.45593999997E+02  0.45594000000E+02  0.51100000000E-03 0. -1.
         11   -1    0    0    0    0 -0.00000000000E+00 -0.00000000000E+00 -0.45593999997E+02  0.45594000000E+02  0.51100000000E-03 0.  1.
         23    2    1    2    0    0  0.35527136788E-14  0.00000000000E+00  0.00000000000E+00  0.91188000000E+02  0.91188000000E+02 0.  0.
    9900012    2    3    3    0    0  0.20047700686E+02  0.26853454423E+02 -0.15256540830E+02  0.54367077207E+02  0.39999984109E+02 0.  0.
        -12    1    3    3    0    0 -0.20047700686E+02 -0.26853454423E+02  0.15256540830E+02  0.36820922793E+02  0.00000000000E+00 0.  1.
         11    1    4    4    0    0  0.10568258167E+02 -0.81894439968E+01 -0.90389632969E+01  0.16138709100E+02  0.51100000000E-03 0. -1.
        -11    1    4    4    0    0 -0.15755508360E+01  0.54611567980E+01  0.11531330290E+01  0.57996818924E+01  0.51100000000E-03 0.  1.
        -12    1    4    4    0    0  0.11054993355E+02  0.29581741622E+02 -0.73707105619E+01  0.32428686215E+02  0.00000000000E+00 0.  1.
</event>
<event>
 8    1  0.1248739E-006  0.9118800E+02  0.7816164E-02  0.1184000E+00
        -11   -1    0    0    0    0  0.00000000000E+00  0.00000000000E+00  0.45593999997E+02  0.45594000000E+02  0.51100000000E-03 0.  1.
         11   -1    0    0    0    0 -0.00000000000E+00 -0.00000000000E+00 -0.45593999997E+02  0.45594000000E+02  0.51100000000E-03 0. -1.
         23    2    1    2    0    0 -0.17763568394E-14 -0.35527136788E-14 -0.35527136788E-14  0.91188000000E+02  0.91188000000E+02 0.  0.
    9900012    2    3    3    0    0 -0.13469909557E+02  0.30581486167E+02 -0.15463332357E+02  0.54367076502E+02  0.39999982502E+02 0.  0.
        -12    1    3    3    0    0  0.13469909557E+02 -0.30581486167E+02  0.15463332357E+02  0.36820923498E+02  0.00000000000E+00 0.  1.
         11    1    4    4    0    0  0.37978657128E+01  0.24658571660E+02 -0.10461246975E+02  0.27053772913E+02  0.51100000000E-03 0. -1.
        -11    1    4    4    0    0 -0.98299114890E+01  0.13119118272E+02 -0.42586827413E+01  0.16937378872E+02  0.51100000000E-03 0.  1.
        -12    1    4    4    0    0 -0.74378637808E+01 -0.71962037650E+01 -0.74340264067E+00  0.10375924717E+02  0.00000000000E+00 0.  1.
</event>
<event>
 8    1  0.1248739E-006  0.9118800E+02  0.7816164E-02  0.1184000E+00
        -11   -1    0    0    0    0  0.00000000000E+00  0.00000000000E+00  0.45593999997E+02  0.45594000000E+02  0.51100000000E-03 0.  1.
         11   -1    0    0    0    0 -0.00000000000E+00 -0.00000000000E+00 -0.45593999997E+02  0.45594000000E+02  0.51100000000E-03 0. -1.
         23    2    1    2    0    0  0.00000000000E+00 -0.17763568394E-14 -0.17763568394E-14  0.91188000000E+02  0.91188000000E+02 0.  0.
    9900012    2    3    3    0    0 -0.35259634353E+02  0.99183104409E+01  0.37634140088E+01  0.54367109439E+02  0.40000057588E+02 0.  0.
         12    1    3    3    0    0  0.35259634353E+02 -0.99183104409E+01 -0.37634140088E+01  0.36820890561E+02  0.00000000000E+00 0. -1.
         11    1    4    4    0    0 -0.15021284198E+02  0.52544669756E+01 -0.14414290461E+02  0.21471380298E+02  0.51100000000E-03 0. -1.
        -11    1    4    4    0    0 -0.53809080683E+01  0.10165348248E+02  0.64757454935E+01  0.13199384705E+02  0.51100000000E-03 0.  1.
         12    1    4    4    0    0 -0.14857442086E+02 -0.55015047825E+01  0.11701958976E+02  0.19696344435E+02  0.00000000000E+00 0. -1.
</event>
<event>
 8    1  0.1248739E-006  0.9118800E+02  0.7816164E-02  0.1184000E+00
        -11   -1    0    0    0    0  0.00000000000E+00  0.00000000000E+00  0.45593999997E+02  0.45594000000E+02  0.51100000000E-03 0. -1.
         11   -1    0    0    0    0 -0.00000000000E+00 -0.00000000000E+00 -0.45593999997E+02  0.45594000000E+02  0.51100000000E-03 0.  1.
         23    2    1    2    0    0  0.17763568394E-14  0.00000000000E+00 -0.17763568394E-14  0.91188000000E+02  0.91188000000E+02 0.  0.
    9900012    2    3    3    0    0 -0.86285140155E+01  0.33756836422E+02  0.11908196837E+02  0.54367076447E+02  0.39999982377E+02 0.  0.
        -12    1    3    3    0    0  0.86285140155E+01 -0.33756836422E+02 -0.11908196837E+02  0.36820923553E+02  0.00000000000E+00 0.  1.
         11    1    4    4    0    0  0.17036039707E+01  0.36036836055E+02  0.45845583523E+01  0.36367210436E+02  0.51100000000E-03 0. -1.
        -11    1    4    4    0    0 -0.86419826185E+01 -0.34142076387E+01  0.10629074264E+02  0.14117999056E+02  0.51100000000E-03 0.  1.
         12    1    4    4    0    0 -0.16901353677E+01  0.11342080060E+01 -0.33054357796E+01  0.38818669549E+01  0.00000000000E+00 0. -1.
</event>
<event>
 8    1  0.1248739E-006  0.9118800E+02  0.7816164E-02  0.1184000E+00
        -11   -1    0    0    0    0  0.00000000000E+00  0.00000000000E+00  0.45593999997E+02  0.45594000000E+02  0.51100000000E-03 0.  1.
         11   -1    0    0    0    0 -0.00000000000E+00 -0.00000000000E+00 -0.45593999997E+02  0.45594000000E+02  0.51100000000E-03 0. -1.
         23    2    1    2    0    0  0.00000000000E+00  0.00000000000E+00  0.00000000000E+00  0.91188000000E+02  0.91188000000E+02 0.  0.
    9900012    2    3    3    0    0  0.29475862028E+02 -0.11178307622E+02 -0.19026268502E+02  0.54367083435E+02  0.39999998307E+02 0.  0.
        -12    1    3    3    0    0 -0.29475862028E+02  0.11178307622E+02  0.19026268502E+02  0.36820916565E+02  0.00000000000E+00 0.  1.
         11    1    4    4    0    0  0.13483276489E+02 -0.14451904981E+02 -0.37652412771E+01  0.20120470785E+02  0.51100000000E-03 0. -1.
        -11    1    4    4    0    0  0.86438549997E+01 -0.44399197221E+01 -0.20266366963E+02  0.22475647856E+02  0.51100000000E-03 0.  1.
        -12    1    4    4    0    0  0.73487305395E+01  0.77135170818E+01  0.50053397376E+01  0.11770964795E+02  0.00000000000E+00 0.  1.
</event>
<event>
 8    1  0.1248739E-006  0.9118800E+02  0.7816164E-02  0.1184000E+00
        -11   -1    0    0    0    0  0.00000000000E+00  0.00000000000E+00  0.45593999997E+02  0.45594000000E+02  0.51100000000E-03 0.  1.
         11   -1    0    0    0    0 -0.00000000000E+00 -0.00000000000E+00 -0.45593999997E+02  0.45594000000E+02  0.51100000000E-03 0. -1.
         23    2    1    2    0    0  0.35527136788E-14  0.00000000000E+00  0.00000000000E+00  0.91188000000E+02  0.91188000000E+02 0.  0.
    9900012    2    3    3    0    0 -0.20247649370E+02 -0.29570391520E+02 -0.84500914138E+01  0.54367090118E+02  0.40000013542E+02 0.  0.
        -12    1    3    3    0    0  0.20247649370E+02  0.29570391520E+02  0.84500914138E+01  0.36820909882E+02  0.00000000000E+00 0.  1.
         11    1    4    4    0    0 -0.33957416210E+01 -0.10195775804E+02 -0.99001132691E+01  0.14611541617E+02  0.51100000000E-03 0. -1.
        -11    1    4    4    0    0 -0.24528277154E+02 -0.76877092084E+01  0.18095253167E+01  0.25768423218E+02  0.51100000000E-03 0.  1.
        -12    1    4    4    0    0  0.76763694050E+01 -0.11686906507E+02 -0.35950346142E+00  0.13987125283E+02  0.00000000000E+00 0.  1.
</event>
<event>
 8    1  0.1248739E-006  0.9118800E+02  0.7816164E-02  0.1184000E+00
        -11   -1    0    0    0    0  0.00000000000E+00  0.00000000000E+00  0.45593999997E+02  0.45594000000E+02  0.51100000000E-03 0.  1.
         11   -1    0    0    0    0 -0.00000000000E+00 -0.00000000000E+00 -0.45593999997E+02  0.45594000000E+02  0.51100000000E-03 0. -1.
         23    2    1    2    0    0 -0.13322676296E-14  0.17763568394E-14  0.00000000000E+00  0.91188000000E+02  0.91188000000E+02 0.  0.
    9900012    2    3    3    0    0 -0.33965101365E+01 -0.15506156119E+02  0.33223602020E+02  0.54367015631E+02  0.39999843734E+02 0.  0.
         12    1    3    3    0    0  0.33965101365E+01  0.15506156119E+02 -0.33223602020E+02  0.36820984369E+02  0.00000000000E+00 0. -1.
         11    1    4    4    0    0 -0.12253404499E+02  0.31713772210E+01  0.17274740752E+02  0.21415420230E+02  0.51100000000E-03 0. -1.
        -11    1    4    4    0    0 -0.38632516446E+01 -0.18098583216E+01  0.10201276338E+02  0.11057411072E+02  0.51100000000E-03 0.  1.
         12    1    4    4    0    0  0.12720146007E+02 -0.16867675018E+02  0.57475849294E+01  0.21894184330E+02  0.00000000000E+00 0. -1.
</event>
<event>
 8    1  0.1248739E-006  0.9118800E+02  0.7816164E-02  0.1184000E+00
        -11   -1    0    0    0    0  0.00000000000E+00  0.00000000000E+00  0.45593999997E+02  0.45594000000E+02  0.51100000000E-03 0.  1.
         11   -1    0    0    0    0 -0.00000000000E+00 -0.00000000000E+00 -0.45593999997E+02  0.45594000000E+02  0.51100000000E-03 0. -1.
         23    2    1    2    0    0  0.00000000000E+00  0.00000000000E+00  0.35527136788E-14  0.91188000000E+02  0.91188000000E+02 0.  0.
    9900012    2    3    3    0    0  0.10365046898E+02  0.26577647108E+02  0.23280399635E+02  0.54367047674E+02  0.39999916783E+02 0.  0.
         12    1    3    3    0    0 -0.10365046898E+02 -0.26577647108E+02 -0.23280399635E+02  0.36820952326E+02  0.00000000000E+00 0. -1.
         11    1    4    4    0    0  0.36340364665E+01 -0.50326162457E+01  0.10689946936E+01  0.62989044470E+01  0.51100000000E-03 0. -1.
        -11    1    4    4    0    0 -0.75202107812E+01  0.10070439697E+02 -0.19286036861E+01  0.12715613958E+02  0.51100000000E-03 0.  1.
         12    1    4    4    0    0  0.14251221212E+02  0.21539823657E+02  0.24140008628E+02  0.35352529270E+02  0.00000000000E+00 0. -1.
</event>
<event>
 8    1  0.1248739E-006  0.9118800E+02  0.7816164E-02  0.1184000E+00
        -11   -1    0    0    0    0  0.00000000000E+00  0.00000000000E+00  0.45593999997E+02  0.45594000000E+02  0.51100000000E-03 0.  1.
         11   -1    0    0    0    0 -0.00000000000E+00 -0.00000000000E+00 -0.45593999997E+02  0.45594000000E+02  0.51100000000E-03 0. -1.
         23    2    1    2    0    0  0.00000000000E+00  0.00000000000E+00 -0.35527136788E-14  0.91188000000E+02  0.91188000000E+02 0.  0.
    9900012    2    3    3    0    0 -0.38301065815E+01  0.17948839997E+02 -0.31920986709E+02  0.54367082492E+02  0.39999996156E+02 0.  0.
        -12    1    3    3    0    0  0.38301065815E+01 -0.17948839997E+02  0.31920986709E+02  0.36820917508E+02  0.00000000000E+00 0.  1.
         11    1    4    4    0    0 -0.32628582710E+01  0.30707721773E+01  0.19315987203E+01  0.48792376187E+01  0.51100000000E-03 0. -1.
        -11    1    4    4    0    0  0.12546348173E+02  0.17595234378E+02 -0.14772392606E+02  0.26176835349E+02  0.51100000000E-03 0.  1.
         12    1    4    4    0    0 -0.13113596484E+02 -0.27171665586E+01 -0.19080192824E+02  0.23311009524E+02  0.00000000000E+00 0. -1.
</event>
<event>
 8    1  0.1248739E-006  0.9118800E+02  0.7816164E-02  0.1184000E+00
        -11   -1    0    0    0    0  0.00000000000E+00  0.00000000000E+00  0.45593999997E+02  0.45594000000E+02  0.51100000000E-03 0.  1.
         11   -1    0    0    0    0 -0.00000000000E+00 -0.00000000000E+00 -0.45593999997E+02  0.45594000000E+02  0.51100000000E-03 0. -1.
         23    2    1    2    0    0  0.88817841970E-15  0.00000000000E+00  0.35527136788E-14  0.91188000000E+02  0.91188000000E+02 0.  0.
    9900012    2    3    3    0    0 -0.13800418436E+01 -0.25259702691E+02 -0.26754858624E+02  0.54367088068E+02  0.40000008868E+02 0.  0.
        -12    1    3    3    0    0  0.13800418436E+01  0.25259702691E+02  0.26754858624E+02  0.36820911932E+02  0.00000000000E+00 0.  1.
         11    1    4    4    0    0  0.13301817350E+02 -0.37134239098E+01 -0.16778705007E+02  0.21731378325E+02  0.51100000000E-03 0. -1.
        -11    1    4    4    0    0 -0.44318809579E+00 -0.15551551058E+02 -0.60727356690E+01  0.16701056097E+02  0.51100000000E-03 0.  1.
         12    1    4    4    0    0 -0.14238671098E+02 -0.59947277231E+01 -0.39034179487E+01  0.15934653645E+02  0.00000000000E+00 0. -1.
</event>
<event>
 8    1  0.1248739E-006  0.9118800E+02  0.7816164E-02  0.1184000E+00
        -11   -1    0    0    0    0  0.00000000000E+00  0.00000000000E+00  0.45593999997E+02  0.45594000000E+02  0.51100000000E-03 0.  1.
         11   -1    0    0    0    0 -0.00000000000E+00 -0.00000000000E+00 -0.45593999997E+02  0.45594000000E+02  0.51100000000E-03 0. -1.
         23    2    1    2    0    0  0.00000000000E+00  0.00000000000E+00  0.00000000000E+00  0.91188000000E+02  0.91188000000E+02 0.  0.
    9900012    2    3    3    0    0 -0.24355072979E+02  0.66113101443E+01 -0.26812335113E+02  0.54367077743E+02  0.39999985331E+02 0.  0.
        -12    1    3    3    0    0  0.24355072979E+02 -0.66113101443E+01  0.26812335113E+02  0.36820922257E+02  0.00000000000E+00 0.  1.
         11    1    4    4    0    0 -0.71878806612E+01  0.18798781585E+01 -0.64462914009E+01  0.98363734871E+01  0.51100000000E-03 0. -1.
        -11    1    4    4    0    0 -0.11978278698E+02 -0.46683170725E+01  0.73493391585E+01  0.14808279144E+02  0.51100000000E-03 0.  1.
         12    1    4    4    0    0 -0.51889136191E+01  0.93997490582E+01 -0.27715382871E+02  0.29722425113E+02  0.00000000000E+00 0. -1.
</event>
<event>
 8    1  0.1248739E-006  0.9118800E+02  0.7816164E-02  0.1184000E+00
        -11   -1    0    0    0    0  0.00000000000E+00  0.00000000000E+00  0.45593999997E+02  0.45594000000E+02  0.51100000000E-03 0.  1.
         11   -1    0    0    0    0 -0.00000000000E+00 -0.00000000000E+00 -0.45593999997E+02  0.45594000000E+02  0.51100000000E-03 0. -1.
         23    2    1    2    0    0  0.35527136788E-14  0.00000000000E+00  0.00000000000E+00  0.91188000000E+02  0.91188000000E+02 0.  0.
    9900012    2    3    3    0    0 -0.10265303518E+02  0.33756006469E+02 -0.10532716326E+02  0.54367047510E+02  0.39999916409E+02 0.  0.
        -12    1    3    3    0    0  0.10265303518E+02 -0.33756006469E+02  0.10532716326E+02  0.36820952490E+02  0.00000000000E+00 0.  1.
         11    1    4    4    0    0  0.93306461750E+01  0.14470712517E+01 -0.86328460303E+01  0.12793787715E+02  0.51100000000E-03 0. -1.
        -11    1    4    4    0    0  0.10471076097E+00  0.14435015517E+02 -0.37307682382E+01  0.14909703861E+02  0.51100000000E-03 0.  1.
         12    1    4    4    0    0 -0.19700660454E+02  0.17873919701E+02  0.18308979428E+01  0.26663555934E+02  0.00000000000E+00 0. -1.
</event>
<event>
 8    1  0.1248739E-006  0.9118800E+02  0.7816164E-02  0.1184000E+00
        -11   -1    0    0    0    0  0.00000000000E+00  0.00000000000E+00  0.45593999997E+02  0.45594000000E+02  0.51100000000E-03 0.  1.
         11   -1    0    0    0    0 -0.00000000000E+00 -0.00000000000E+00 -0.45593999997E+02  0.45594000000E+02  0.51100000000E-03 0. -1.
         23    2    1    2    0    0  0.00000000000E+00  0.00000000000E+00  0.35527136788E-14  0.91188000000E+02  0.91188000000E+02 0.  0.
    9900012    2    3    3    0    0 -0.24540892293E+02 -0.22082324060E+02 -0.16306258932E+02  0.54367102254E+02  0.40000041209E+02 0.  0.
         12    1    3    3    0    0  0.24540892293E+02  0.22082324060E+02  0.16306258932E+02  0.36820897746E+02  0.00000000000E+00 0. -1.
         11    1    4    4    0    0 -0.31150234809E+01  0.46927484788E+01  0.12937136826E+01  0.57791828943E+01  0.51100000000E-03 0. -1.
        -11    1    4    4    0    0 -0.28928634200E+02 -0.22255219418E+02 -0.14890685097E+02  0.39419451682E+02  0.51100000000E-03 0.  1.
        -12    1    4    4    0    0  0.75027653877E+01 -0.45198531214E+01 -0.27092875176E+01  0.91684676776E+01  0.00000000000E+00 0.  1.
</event>
<event>
 8    1  0.1248739E-006  0.9118800E+02  0.7816164E-02  0.1184000E+00
        -11   -1    0    0    0    0  0.00000000000E+00  0.00000000000E+00  0.45593999997E+02  0.45594000000E+02  0.51100000000E-03 0. -1.
         11   -1    0    0    0    0 -0.00000000000E+00 -0.00000000000E+00 -0.45593999997E+02  0.45594000000E+02  0.51100000000E-03 0.  1.
         23    2    1    2    0    0 -0.17763568394E-14  0.00000000000E+00 -0.71054273576E-14  0.91188000000E+02  0.91188000000E+02 0.  0.
    9900012    2    3    3    0    0  0.11275518861E+01 -0.29226848388E+01  0.36687417230E+02  0.54367081450E+02  0.39999993781E+02 0.  0.
        -12    1    3    3    0    0 -0.11275518861E+01  0.29226848388E+01 -0.36687417230E+02  0.36820918550E+02  0.00000000000E+00 0.  1.
         11    1    4    4    0    0 -0.10453254057E+02  0.30592096495E+01  0.39496528678E+01  0.11585725791E+02  0.51100000000E-03 0. -1.
        -11    1    4    4    0    0  0.56380778259E+01 -0.49006267266E+01 -0.18289607548E+01  0.76908492112E+01  0.51100000000E-03 0.  1.
         12    1    4    4    0    0  0.59427281176E+01 -0.10812677617E+01  0.34566725116E+02  0.35090506447E+02  0.00000000000E+00 0. -1.
</event>
<event>
 8    1  0.1248739E-006  0.9118800E+02  0.7816164E-02  0.1184000E+00
        -11   -1    0    0    0    0  0.00000000000E+00  0.00000000000E+00  0.45593999997E+02  0.45594000000E+02  0.51100000000E-03 0.  1.
         11   -1    0    0    0    0 -0.00000000000E+00 -0.00000000000E+00 -0.45593999997E+02  0.45594000000E+02  0.51100000000E-03 0. -1.
         23    2    1    2    0    0  0.00000000000E+00 -0.71054273576E-14  0.00000000000E+00  0.91188000000E+02  0.91188000000E+02 0.  0.
    9900012    2    3    3    0    0 -0.20794462558E+02  0.28505021121E+02  0.10527708129E+02  0.54367101850E+02  0.40000040286E+02 0.  0.
         12    1    3    3    0    0  0.20794462558E+02 -0.28505021121E+02 -0.10527708129E+02  0.36820898150E+02  0.00000000000E+00 0. -1.
         11    1    4    4    0    0  0.86493594699E+01 -0.28920522447E+01  0.18428866665E+01  0.93043869735E+01  0.51100000000E-03 0. -1.
        -11    1    4    4    0    0 -0.12250242451E+02  0.17000909518E+02  0.85653006423E+01  0.22637661980E+02  0.51100000000E-03 0.  1.
        -12    1    4    4    0    0 -0.17193579577E+02  0.14396163847E+02  0.11952081998E+00  0.22425052896E+02  0.00000000000E+00 0.  1.
</event>
<event>
 8    1  0.1248739E-006  0.9118800E+02  0.7816164E-02  0.1184000E+00
        -11   -1    0    0    0    0  0.00000000000E+00  0.00000000000E+00  0.45593999997E+02  0.45594000000E+02  0.51100000000E-03 0. -1.
         11   -1    0    0    0    0 -0.00000000000E+00 -0.00000000000E+00 -0.45593999997E+02  0.45594000000E+02  0.51100000000E-03 0.  1.
         23    2    1    2    0    0 -0.71054273576E-14  0.17763568394E-14  0.00000000000E+00  0.91188000000E+02  0.91188000000E+02 0.  0.
    9900012    2    3    3    0    0 -0.17788732842E+02 -0.11842947935E+02  0.29984753908E+02  0.54367083405E+02  0.39999998239E+02 0.  0.
        -12    1    3    3    0    0  0.17788732842E+02  0.11842947935E+02 -0.29984753908E+02  0.36820916595E+02  0.00000000000E+00 0.  1.
         11    1    4    4    0    0 -0.51505509944E+00  0.51866675990E+01 -0.39789882255E+00  0.52273440935E+01  0.51100000000E-03 0. -1.
        -11    1    4    4    0    0 -0.29296594814E+01 -0.19788617194E+02  0.62989095420E+01  0.20972566290E+02  0.51100000000E-03 0.  1.
         12    1    4    4    0    0 -0.14344018261E+02  0.27590016598E+01  0.24083743189E+02  0.28167173022E+02  0.00000000000E+00 0. -1.
</event>
<event>
 8    1  0.1248739E-006  0.9118800E+02  0.7816164E-02  0.1184000E+00
        -11   -1    0    0    0    0  0.00000000000E+00  0.00000000000E+00  0.45593999997E+02  0.45594000000E+02  0.51100000000E-03 0.  1.
         11   -1    0    0    0    0 -0.00000000000E+00 -0.00000000000E+00 -0.45593999997E+02  0.45594000000E+02  0.51100000000E-03 0. -1.
         23    2    1    2    0    0  0.17763568394E-14 -0.17763568394E-14  0.00000000000E+00  0.91188000000E+02  0.91188000000E+02 0.  0.
    9900012    2    3    3    0    0  0.14769613086E+02 -0.91536101220E+01 -0.32463049761E+02  0.54367086802E+02  0.40000005982E+02 0.  0.
        -12    1    3    3    0    0 -0.14769613086E+02  0.91536101220E+01  0.32463049761E+02  0.36820913198E+02  0.00000000000E+00 0.  1.
         11    1    4    4    0    0  0.12090401273E+02 -0.16874240984E+02 -0.14290502592E+02  0.25201910172E+02  0.51100000000E-03 0. -1.
        -11    1    4    4    0    0  0.50291177775E+01  0.64808232885E+01 -0.22577160819E+02  0.24021267390E+02  0.51100000000E-03 0.  1.
         12    1    4    4    0    0 -0.23499059649E+01  0.12398075739E+01  0.44046136498E+01  0.51439092399E+01  0.00000000000E+00 0. -1.
</event>
<event>
 8    1  0.1248739E-006  0.9118800E+02  0.7816164E-02  0.1184000E+00
        -11   -1    0    0    0    0  0.00000000000E+00  0.00000000000E+00  0.45593999997E+02  0.45594000000E+02  0.51100000000E-03 0.  1.
         11   -1    0    0    0    0 -0.00000000000E+00 -0.00000000000E+00 -0.45593999997E+02  0.45594000000E+02  0.51100000000E-03 0. -1.
         23    2    1    2    0    0  0.00000000000E+00 -0.88817841970E-15 -0.35527136788E-14  0.91188000000E+02  0.91188000000E+02 0.  0.
    9900012    2    3    3    0    0 -0.30477914703E+02 -0.79311961373E+01  0.19078048164E+02  0.54367094545E+02  0.40000023634E+02 0.  0.
         12    1    3    3    0    0  0.30477914703E+02  0.79311961373E+01 -0.19078048164E+02  0.36820905455E+02  0.00000000000E+00 0. -1.
         11    1    4    4    0    0 -0.98757983649E+01 -0.16047575055E+02  0.10020409199E+02  0.21341618010E+02  0.51100000000E-03 0. -1.
        -11    1    4    4    0    0 -0.23836616495E+02  0.37376416085E+01  0.11879423962E+02  0.26893771857E+02  0.51100000000E-03 0.  1.
        -12    1    4    4    0    0  0.32345001573E+01  0.43787373095E+01 -0.28217849972E+01  0.61317046785E+01  0.00000000000E+00 0.  1.
</event>
<event>
 8    1  0.1248739E-006  0.9118800E+02  0.7816164E-02  0.1184000E+00
        -11   -1    0    0    0    0  0.00000000000E+00  0.00000000000E+00  0.45593999997E+02  0.45594000000E+02  0.51100000000E-03 0. -1.
         11   -1    0    0    0    0 -0.00000000000E+00 -0.00000000000E+00 -0.45593999997E+02  0.45594000000E+02  0.51100000000E-03 0.  1.
         23    2    1    2    0    0  0.00000000000E+00  0.17763568394E-14  0.00000000000E+00  0.91188000000E+02  0.91188000000E+02 0.  0.
    9900012    2    3    3    0    0  0.33672884672E+02  0.10787328741E+02  0.10273773921E+02  0.54367081298E+02  0.39999993435E+02 0.  0.
        -12    1    3    3    0    0 -0.33672884672E+02 -0.10787328741E+02 -0.10273773921E+02  0.36820918702E+02  0.00000000000E+00 0.  1.
         11    1    4    4    0    0  0.17841767913E+02  0.17790919295E+02  0.13856705411E+02  0.28755065236E+02  0.51100000000E-03 0. -1.
        -11    1    4    4    0    0  0.16242643100E+02 -0.85734138135E+00  0.30621116845E+01  0.16550982368E+02  0.51100000000E-03 0.  1.
        -12    1    4    4    0    0 -0.41152634070E+00 -0.61462491720E+01 -0.66450431748E+01  0.90610336943E+01  0.00000000000E+00 0.  1.
</event>
<event>
 8    1  0.1248739E-006  0.9118800E+02  0.7816164E-02  0.1184000E+00
        -11   -1    0    0    0    0  0.00000000000E+00  0.00000000000E+00  0.45593999997E+02  0.45594000000E+02  0.51100000000E-03 0.  1.
         11   -1    0    0    0    0 -0.00000000000E+00 -0.00000000000E+00 -0.45593999997E+02  0.45594000000E+02  0.51100000000E-03 0. -1.
         23    2    1    2    0    0  0.00000000000E+00  0.88817841970E-15 -0.17763568394E-14  0.91188000000E+02  0.91188000000E+02 0.  0.
    9900012    2    3    3    0    0  0.34172585451E+02 -0.48543482372E+01  0.12823708712E+02  0.54367111929E+02  0.40000063265E+02 0.  0.
         12    1    3    3    0    0 -0.34172585451E+02  0.48543482372E+01 -0.12823708712E+02  0.36820888071E+02  0.00000000000E+00 0. -1.
         11    1    4    4    0    0  0.21415791964E+01  0.14480751168E+01 -0.10505134082E+02  0.10818554679E+02  0.51100000000E-03 0. -1.
        -11    1    4    4    0    0  0.33185846140E+02 -0.84989457202E+01  0.22207955495E+02  0.40825552659E+02  0.51100000000E-03 0.  1.
        -12    1    4    4    0    0 -0.11548398852E+01  0.21965223663E+01  0.11208872990E+01  0.27230045911E+01  0.00000000000E+00 0.  1.
</event>
<event>
 8    1  0.1248739E-006  0.9118800E+02  0.7816164E-02  0.1184000E+00
        -11   -1    0    0    0    0  0.00000000000E+00  0.00000000000E+00  0.45593999997E+02  0.45594000000E+02  0.51100000000E-03 0. -1.
         11   -1    0    0    0    0 -0.00000000000E+00 -0.00000000000E+00 -0.45593999997E+02  0.45594000000E+02  0.51100000000E-03 0.  1.
         23    2    1    2    0    0  0.00000000000E+00  0.00000000000E+00  0.88817841970E-15  0.91188000000E+02  0.91188000000E+02 0.  0.
    9900012    2    3    3    0    0  0.25544766242E+02  0.25547275674E+02 -0.71121180937E+01  0.54367073878E+02  0.39999976520E+02 0.  0.
        -12    1    3    3    0    0 -0.25544766242E+02 -0.25547275674E+02  0.71121180937E+01  0.36820926122E+02  0.00000000000E+00 0.  1.
         11    1    4    4    0    0  0.27703257063E+02  0.26067830263E+02 -0.16540394060E+02  0.41479957358E+02  0.51100000000E-03 0. -1.
        -11    1    4    4    0    0  0.10351884109E+01  0.33407026687E+01  0.55095774378E+01  0.65258986486E+01  0.51100000000E-03 0.  1.
        -12    1    4    4    0    0 -0.31936792326E+01 -0.38612572581E+01  0.39186985282E+01  0.63612178715E+01  0.00000000000E+00 0.  1.
</event>
<event>
 8    1  0.1248739E-006  0.9118800E+02  0.7816164E-02  0.1184000E+00
        -11   -1    0    0    0    0  0.00000000000E+00  0.00000000000E+00  0.45593999997E+02  0.45594000000E+02  0.51100000000E-03 0. -1.
         11   -1    0    0    0    0 -0.00000000000E+00 -0.00000000000E+00 -0.45593999997E+02  0.45594000000E+02  0.51100000000E-03 0.  1.
         23    2    1    2    0    0  0.00000000000E+00 -0.88817841970E-15  0.00000000000E+00  0.91188000000E+02  0.91188000000E+02 0.  0.
    9900012    2    3    3    0    0 -0.20267758864E+02 -0.59905908540E+01 -0.30151432829E+02  0.54367107428E+02  0.40000053005E+02 0.  0.
         12    1    3    3    0    0  0.20267758864E+02  0.59905908540E+01  0.30151432829E+02  0.36820892572E+02  0.00000000000E+00 0. -1.
         11    1    4    4    0    0  0.39217822210E+01 -0.19658735788E+01  0.61766649121E+01  0.75760295944E+01  0.51100000000E-03 0. -1.
        -11    1    4    4    0    0 -0.92285218667E+01 -0.83545343696E+01 -0.23579730292E+02  0.26663974597E+02  0.51100000000E-03 0.  1.
        -12    1    4    4    0    0 -0.14961019218E+02  0.43298170944E+01 -0.12748367448E+02  0.20127103237E+02  0.00000000000E+00 0.  1.
</event>
<event>
 8    1  0.1248739E-006  0.9118800E+02  0.7816164E-02  0.1184000E+00
        -11   -1    0    0    0    0  0.00000000000E+00  0.00000000000E+00  0.45593999997E+02  0.45594000000E+02  0.51100000000E-03 0.  1.
         11   -1    0    0    0    0 -0.00000000000E+00 -0.00000000000E+00 -0.45593999997E+02  0.45594000000E+02  0.51100000000E-03 0. -1.
         23    2    1    2    0    0  0.88817841970E-15  0.00000000000E+00  0.00000000000E+00  0.91188000000E+02  0.91188000000E+02 0.  0.
    9900012    2    3    3    0    0 -0.77430195968E+01 -0.25778213730E+02 -0.25125868435E+02  0.54367083116E+02  0.39999997580E+02 0.  0.
        -12    1    3    3    0    0  0.77430195968E+01  0.25778213730E+02  0.25125868435E+02  0.36820916884E+02  0.00000000000E+00 0.  1.
         11    1    4    4    0    0  0.28011805628E+01 -0.40574909925E+01 -0.37076781803E+01  0.61690131666E+01  0.51100000000E-03 0. -1.
        -11    1    4    4    0    0  0.56527837531E+01  0.27542377796E+01  0.55149761641E+01  0.83638957584E+01  0.51100000000E-03 0.  1.
         12    1    4    4    0    0 -0.16196983913E+02 -0.24474960517E+02 -0.26933166418E+02  0.39834174191E+02  0.00000000000E+00 0. -1.
</event>
<event>
 8    1  0.1248739E-006  0.9118800E+02  0.7816164E-02  0.1184000E+00
        -11   -1    0    0    0    0  0.00000000000E+00  0.00000000000E+00  0.45593999997E+02  0.45594000000E+02  0.51100000000E-03 0.  1.
         11   -1    0    0    0    0 -0.00000000000E+00 -0.00000000000E+00 -0.45593999997E+02  0.45594000000E+02  0.51100000000E-03 0. -1.
         23    2    1    2    0    0  0.00000000000E+00  0.17763568394E-14 -0.35527136788E-14  0.91188000000E+02  0.91188000000E+02 0.  0.
    9900012    2    3    3    0    0  0.20191636033E+02  0.14073643236E+02 -0.27386286774E+02  0.54367105077E+02  0.40000047645E+02 0.  0.
        -12    1    3    3    0    0 -0.20191636033E+02 -0.14073643236E+02  0.27386286774E+02  0.36820894923E+02  0.00000000000E+00 0.  1.
         11    1    4    4    0    0 -0.22355055434E+01 -0.79796414838E+00 -0.41499187284E+01  0.47808009298E+01  0.51100000000E-03 0. -1.
        -11    1    4    4    0    0  0.15510123140E+02 -0.62959520000E+01  0.87806816505E+00  0.16762277154E+02  0.51100000000E-03 0.  1.
        -12    1    4    4    0    0  0.69170184360E+01  0.21167559385E+02 -0.24114436211E+02  0.32824026994E+02  0.00000000000E+00 0.  1.
</event>
<event>
 8    1  0.1248739E-006  0.9118800E+02  0.7816164E-02  0.1184000E+00
        -11   -1    0    0    0    0  0.00000000000E+00  0.00000000000E+00  0.45593999997E+02  0.45594000000E+02  0.51100000000E-03 0.  1.
         11   -1    0    0    0    0 -0.00000000000E+00 -0.00000000000E+00 -0.45593999997E+02  0.45594000000E+02  0.51100000000E-03 0. -1.
         23    2    1    2    0    0  0.71054273576E-14 -0.88817841970E-15  0.00000000000E+00  0.91188000000E+02  0.91188000000E+02 0.  0.
    9900012    2    3    3    0    0  0.30814981284E+02  0.16784567934E+01  0.20085197044E+02  0.54366872518E+02  0.39999517475E+02 0.  0.
         12    1    3    3    0    0 -0.30814981284E+02 -0.16784567934E+01 -0.20085197044E+02  0.36821127482E+02  0.00000000000E+00 0. -1.
         11    1    4    4    0    0  0.11099956559E+02 -0.16193128497E+01  0.34779248056E+01  0.11744239904E+02  0.51100000000E-03 0. -1.
        -11    1    4    4    0    0 -0.69957550930E+01  0.89125042071E+01  0.15082493105E+01  0.11430141592E+02  0.51100000000E-03 0.  1.
        -12    1    4    4    0    0  0.26710779818E+02 -0.56147345640E+01  0.15099022928E+02  0.31192491021E+02  0.00000000000E+00 0.  1.
</event>
<event>
 8    1  0.1248739E-006  0.9118800E+02  0.7816164E-02  0.1184000E+00
        -11   -1    0    0    0    0  0.00000000000E+00  0.00000000000E+00  0.45593999997E+02  0.45594000000E+02  0.51100000000E-03 0. -1.
         11   -1    0    0    0    0 -0.00000000000E+00 -0.00000000000E+00 -0.45593999997E+02  0.45594000000E+02  0.51100000000E-03 0.  1.
         23    2    1    2    0    0  0.00000000000E+00 -0.71054273576E-14  0.00000000000E+00  0.91188000000E+02  0.91188000000E+02 0.  0.
    9900012    2    3    3    0    0 -0.10626865283E+02  0.33053859534E+02  0.12259341875E+02  0.54367090735E+02  0.40000014949E+02 0.  0.
        -12    1    3    3    0    0  0.10626865283E+02 -0.33053859534E+02 -0.12259341875E+02  0.36820909265E+02  0.00000000000E+00 0.  1.
         11    1    4    4    0    0 -0.32179889431E+01  0.11219867967E+02  0.67906590730E+00  0.11691963941E+02  0.51100000000E-03 0. -1.
        -11    1    4    4    0    0  0.67877111788E+01  0.51552968929E+01 -0.91590635635E+01  0.12511536865E+02  0.51100000000E-03 0.  1.
         12    1    4    4    0    0 -0.14196587519E+02  0.16678694674E+02  0.20739339531E+02  0.30163589929E+02  0.00000000000E+00 0. -1.
</event>
<event>
 8    1  0.1248739E-006  0.9118800E+02  0.7816164E-02  0.1184000E+00
        -11   -1    0    0    0    0  0.00000000000E+00  0.00000000000E+00  0.45593999997E+02  0.45594000000E+02  0.51100000000E-03 0.  1.
         11   -1    0    0    0    0 -0.00000000000E+00 -0.00000000000E+00 -0.45593999997E+02  0.45594000000E+02  0.51100000000E-03 0. -1.
         23    2    1    2    0    0  0.00000000000E+00 -0.17763568394E-14  0.17763568394E-14  0.91188000000E+02  0.91188000000E+02 0.  0.
    9900012    2    3    3    0    0  0.34361986231E+02  0.60541712845E+01 -0.11763532978E+02  0.54367084805E+02  0.40000001430E+02 0.  0.
        -12    1    3    3    0    0 -0.34361986231E+02 -0.60541712845E+01  0.11763532978E+02  0.36820915195E+02  0.00000000000E+00 0.  1.
         11    1    4    4    0    0  0.20481442218E+02 -0.13597443162E+02  0.74694863199E+00  0.24595484715E+02  0.51100000000E-03 0. -1.
        -11    1    4    4    0    0  0.91288735242E+01  0.66256579466E+01 -0.11114979845E+02  0.15835985989E+02  0.51100000000E-03 0.  1.
         12    1    4    4    0    0  0.47516704889E+01  0.13025956500E+02 -0.13955017658E+01  0.13935614100E+02  0.00000000000E+00 0. -1.
</event>
<event>
 8    1  0.1248739E-006  0.9118800E+02  0.7816164E-02  0.1184000E+00
        -11   -1    0    0    0    0  0.00000000000E+00  0.00000000000E+00  0.45593999997E+02  0.45594000000E+02  0.51100000000E-03 0.  1.
         11   -1    0    0    0    0 -0.00000000000E+00 -0.00000000000E+00 -0.45593999997E+02  0.45594000000E+02  0.51100000000E-03 0. -1.
         23    2    1    2    0    0 -0.88817841970E-15 -0.35527136788E-14  0.00000000000E+00  0.91188000000E+02  0.91188000000E+02 0.  0.
    9900012    2    3    3    0    0  0.19658634476E+01 -0.80073894029E+01 -0.35885892834E+02  0.54367079199E+02  0.39999988649E+02 0.  0.
        -12    1    3    3    0    0 -0.19658634476E+01  0.80073894029E+01  0.35885892834E+02  0.36820920801E+02  0.00000000000E+00 0.  1.
         11    1    4    4    0    0  0.10783903826E+02 -0.19022748472E+02 -0.20994116633E+02  0.30313536162E+02  0.51100000000E-03 0. -1.
        -11    1    4    4    0    0  0.14833181766E+01  0.70151069680E+01 -0.28670795969E+01  0.77221826099E+01  0.51100000000E-03 0.  1.
        -12    1    4    4    0    0 -0.10301358555E+02  0.40002521015E+01 -0.12024696604E+02  0.16331360427E+02  0.00000000000E+00 0.  1.
</event>
<event>
 8    1  0.1248739E-006  0.9118800E+02  0.7816164E-02  0.1184000E+00
        -11   -1    0    0    0    0  0.00000000000E+00  0.00000000000E+00  0.45593999997E+02  0.45594000000E+02  0.51100000000E-03 0.  1.
         11   -1    0    0    0    0 -0.00000000000E+00 -0.00000000000E+00 -0.45593999997E+02  0.45594000000E+02  0.51100000000E-03 0. -1.
         23    2    1    2    0    0 -0.26645352591E-14  0.00000000000E+00 -0.35527136788E-14  0.91188000000E+02  0.91188000000E+02 0.  0.
    9900012    2    3    3    0    0  0.25834729239E+01 -0.29769510551E+02  0.21514677977E+02  0.54367089375E+02  0.40000011848E+02 0.  0.
         12    1    3    3    0    0 -0.25834729239E+01  0.29769510551E+02 -0.21514677977E+02  0.36820910625E+02  0.00000000000E+00 0. -1.
         11    1    4    4    0    0  0.82361383030E+01 -0.86270556118E+01 -0.10761681520E+01  0.11975733833E+02  0.51100000000E-03 0. -1.
        -11    1    4    4    0    0  0.69655339799E+01 -0.15805568624E+02  0.22904785015E+02  0.28687346340E+02  0.51100000000E-03 0.  1.
         12    1    4    4    0    0 -0.12618199359E+02 -0.53368863152E+01 -0.31393888606E+00  0.13704009203E+02  0.00000000000E+00 0. -1.
</event>
<event>
 8    1  0.1248739E-006  0.9118800E+02  0.7816164E-02  0.1184000E+00
        -11   -1    0    0    0    0  0.00000000000E+00  0.00000000000E+00  0.45593999997E+02  0.45594000000E+02  0.51100000000E-03 0.  1.
         11   -1    0    0    0    0 -0.00000000000E+00 -0.00000000000E+00 -0.45593999997E+02  0.45594000000E+02  0.51100000000E-03 0. -1.
         23    2    1    2    0    0  0.00000000000E+00  0.00000000000E+00  0.00000000000E+00  0.91188000000E+02  0.91188000000E+02 0.  0.
    9900012    2    3    3    0    0  0.10094634669E+02 -0.25461489190E+02 -0.24608760451E+02  0.54367079699E+02  0.39999989789E+02 0.  0.
        -12    1    3    3    0    0 -0.10094634669E+02  0.25461489190E+02  0.24608760451E+02  0.36820920301E+02  0.00000000000E+00 0.  1.
         11    1    4    4    0    0 -0.11109954017E+02 -0.13900152310E+02 -0.17788567818E+02  0.25161050411E+02  0.51100000000E-03 0. -1.
        -11    1    4    4    0    0 -0.15730546422E+01  0.79896726335E+00 -0.23012765160E+01  0.28997798985E+01  0.51100000000E-03 0.  1.
         12    1    4    4    0    0  0.22777643328E+02 -0.12360304144E+02 -0.45189161174E+01  0.26306249390E+02  0.00000000000E+00 0. -1.
</event>
<event>
 8    1  0.1248739E-006  0.9118800E+02  0.7816164E-02  0.1184000E+00
        -11   -1    0    0    0    0  0.00000000000E+00  0.00000000000E+00  0.45593999997E+02  0.45594000000E+02  0.51100000000E-03 0.  1.
         11   -1    0    0    0    0 -0.00000000000E+00 -0.00000000000E+00 -0.45593999997E+02  0.45594000000E+02  0.51100000000E-03 0. -1.
         23    2    1    2    0    0  0.00000000000E+00  0.00000000000E+00  0.00000000000E+00  0.91188000000E+02  0.91188000000E+02 0.  0.
    9900012    2    3    3    0    0  0.17057353250E+02  0.24129400472E+02  0.21968025060E+02  0.54367144604E+02  0.40000137754E+02 0.  0.
        -12    1    3    3    0    0 -0.17057353250E+02 -0.24129400472E+02 -0.21968025060E+02  0.36820855396E+02  0.00000000000E+00 0.  1.
         11    1    4    4    0    0  0.64510491538E+01  0.14507900280E+02  0.21385760798E+02  0.26635426989E+02  0.51100000000E-03 0. -1.
        -11    1    4    4    0    0 -0.31980891922E+01  0.67263065079E+01  0.87041525355E+01  0.11455707981E+02  0.51100000000E-03 0.  1.
        -12    1    4    4    0    0  0.13804393288E+02  0.28951936842E+01 -0.81218882728E+01  0.16276009635E+02  0.00000000000E+00 0.  1.
</event>
<event>
 8    1  0.1248739E-006  0.9118800E+02  0.7816164E-02  0.1184000E+00
        -11   -1    0    0    0    0  0.00000000000E+00  0.00000000000E+00  0.45593999997E+02  0.45594000000E+02  0.51100000000E-03 0.  1.
         11   -1    0    0    0    0 -0.00000000000E+00 -0.00000000000E+00 -0.45593999997E+02  0.45594000000E+02  0.51100000000E-03 0. -1.
         23    2    1    2    0    0  0.00000000000E+00  0.00000000000E+00  0.00000000000E+00  0.91188000000E+02  0.91188000000E+02 0.  0.
    9900012    2    3    3    0    0  0.48612389651E+01  0.33436077810E+02 -0.14634545042E+02  0.54367179094E+02  0.40000216380E+02 0.  0.
        -12    1    3    3    0    0 -0.48612389651E+01 -0.33436077810E+02  0.14634545042E+02  0.36820820906E+02  0.00000000000E+00 0.  1.
         11    1    4    4    0    0  0.66823721891E+01  0.88857484954E+01 -0.42704137219E+01  0.11909956256E+02  0.51100000000E-03 0. -1.
        -11    1    4    4    0    0 -0.79741050072E+01  0.31097071017E+02 -0.69558979070E+01  0.32848115508E+02  0.51100000000E-03 0.  1.
        -12    1    4    4    0    0  0.61529717832E+01 -0.65467417019E+01 -0.34082334136E+01  0.96091073299E+01  0.00000000000E+00 0.  1.
</event>
<event>
 8    1  0.1248739E-006  0.9118800E+02  0.7816164E-02  0.1184000E+00
        -11   -1    0    0    0    0  0.00000000000E+00  0.00000000000E+00  0.45593999997E+02  0.45594000000E+02  0.51100000000E-03 0. -1.
         11   -1    0    0    0    0 -0.00000000000E+00 -0.00000000000E+00 -0.45593999997E+02  0.45594000000E+02  0.51100000000E-03 0.  1.
         23    2    1    2    0    0  0.00000000000E+00 -0.26645352591E-14  0.00000000000E+00  0.91188000000E+02  0.91188000000E+02 0.  0.
    9900012    2    3    3    0    0  0.12067386823E+02 -0.61870347471E+01  0.34232716195E+02  0.54367080921E+02  0.39999992576E+02 0.  0.
        -12    1    3    3    0    0 -0.12067386823E+02  0.61870347471E+01 -0.34232716195E+02  0.36820919079E+02  0.00000000000E+00 0.  1.
         11    1    4    4    0    0  0.62644667494E+01  0.29696933122E+01  0.23903748745E+02  0.24888789170E+02  0.51100000000E-03 0. -1.
        -11    1    4    4    0    0  0.10651827055E+02  0.50495696626E+01  0.80997647871E+01  0.14302648820E+02  0.51100000000E-03 0.  1.
        -12    1    4    4    0    0 -0.48489069820E+01 -0.14206297722E+02  0.22292026636E+01  0.15175642932E+02  0.00000000000E+00 0.  1.
</event>
<event>
 8    1  0.1248739E-006  0.9118800E+02  0.7816164E-02  0.1184000E+00
        -11   -1    0    0    0    0  0.00000000000E+00  0.00000000000E+00  0.45593999997E+02  0.45594000000E+02  0.51100000000E-03 0. -1.
         11   -1    0    0    0    0 -0.00000000000E+00 -0.00000000000E+00 -0.45593999997E+02  0.45594000000E+02  0.51100000000E-03 0.  1.
         23    2    1    2    0    0  0.00000000000E+00  0.00000000000E+00  0.00000000000E+00  0.91188000000E+02  0.91188000000E+02 0.  0.
    9900012    2    3    3    0    0 -0.14681262661E+02  0.10694863045E+02 -0.32029079135E+02  0.54367061947E+02  0.39999949321E+02 0.  0.
         12    1    3    3    0    0  0.14681262661E+02 -0.10694863045E+02  0.32029079135E+02  0.36820938053E+02  0.00000000000E+00 0. -1.
         11    1    4    4    0    0 -0.85508855681E+01 -0.61965533018E+00  0.63935129864E+01  0.10694794308E+02  0.51100000000E-03 0. -1.
        -11    1    4    4    0    0  0.28062974391E+01  0.64367040684E+01 -0.28868633223E+02  0.29710342459E+02  0.51100000000E-03 0.  1.
        -12    1    4    4    0    0 -0.89366745322E+01  0.48778143072E+01 -0.95539588975E+01  0.13961925180E+02  0.00000000000E+00 0.  1.
</event>
<event>
 8    1  0.1248739E-006  0.9118800E+02  0.7816164E-02  0.1184000E+00
        -11   -1    0    0    0    0  0.00000000000E+00  0.00000000000E+00  0.45593999997E+02  0.45594000000E+02  0.51100000000E-03 0.  1.
         11   -1    0    0    0    0 -0.00000000000E+00 -0.00000000000E+00 -0.45593999997E+02  0.45594000000E+02  0.51100000000E-03 0. -1.
         23    2    1    2    0    0  0.00000000000E+00 -0.17763568394E-14 -0.17763568394E-14  0.91188000000E+02  0.91188000000E+02 0.  0.
    9900012    2    3    3    0    0  0.33952439232E+02 -0.10325840068E+02  0.98177698397E+01  0.54367086004E+02  0.40000004163E+02 0.  0.
         12    1    3    3    0    0 -0.33952439232E+02  0.10325840068E+02 -0.98177698397E+01  0.36820913996E+02  0.00000000000E+00 0. -1.
         11    1    4    4    0    0  0.31976841593E+02 -0.86230602524E+01  0.20021058866E+02  0.38700366468E+02  0.51100000000E-03 0.  1.
        -11    1    4    4    0    0 -0.97932578123E+00  0.24675907777E+01 -0.10216272199E+02  0.10555581516E+02  0.51100000000E-03 0. -1.
        -12    1    4    4    0    0  0.29549234199E+01 -0.41703705930E+01  0.12983173075E-01  0.51111380204E+01  0.00000000000E+00 0.  1.
</event>
<event>
 8    1  0.1248739E-006  0.9118800E+02  0.7816164E-02  0.1184000E+00
        -11   -1    0    0    0    0  0.00000000000E+00  0.00000000000E+00  0.45593999997E+02  0.45594000000E+02  0.51100000000E-03 0. -1.
         11   -1    0    0    0    0 -0.00000000000E+00 -0.00000000000E+00 -0.45593999997E+02  0.45594000000E+02  0.51100000000E-03 0.  1.
         23    2    1    2    0    0 -0.26645352591E-14  0.00000000000E+00  0.00000000000E+00  0.91188000000E+02  0.91188000000E+02 0.  0.
    9900012    2    3    3    0    0 -0.53080513815E+01 -0.27561392459E+02  0.23832207348E+02  0.54367083786E+02  0.39999999107E+02 0.  0.
         12    1    3    3    0    0  0.53080513815E+01  0.27561392459E+02 -0.23832207348E+02  0.36820916214E+02  0.00000000000E+00 0. -1.
         11    1    4    4    0    0 -0.61415403461E+01 -0.27450867429E+00  0.35624356049E+01  0.71052670981E+01  0.51100000000E-03 0. -1.
        -11    1    4    4    0    0 -0.13913364989E+02 -0.23301132028E+02  0.10339421760E+02  0.29041833994E+02  0.51100000000E-03 0.  1.
        -12    1    4    4    0    0  0.14746853954E+02 -0.39857517562E+01  0.99303499831E+01  0.18219982694E+02  0.00000000000E+00 0.  1.
</event>
<event>
 8    1  0.1248739E-006  0.9118800E+02  0.7816164E-02  0.1184000E+00
        -11   -1    0    0    0    0  0.00000000000E+00  0.00000000000E+00  0.45593999997E+02  0.45594000000E+02  0.51100000000E-03 0. -1.
         11   -1    0    0    0    0 -0.00000000000E+00 -0.00000000000E+00 -0.45593999997E+02  0.45594000000E+02  0.51100000000E-03 0.  1.
         23    2    1    2    0    0  0.17763568394E-14  0.17763568394E-14  0.00000000000E+00  0.91188000000E+02  0.91188000000E+02 0.  0.
    9900012    2    3    3    0    0 -0.12439577239E+02  0.10878250620E+02  0.32904378917E+02  0.54367115025E+02  0.40000070323E+02 0.  0.
        -12    1    3    3    0    0  0.12439577239E+02 -0.10878250620E+02 -0.32904378917E+02  0.36820884975E+02  0.00000000000E+00 0.  1.
         11    1    4    4    0    0  0.15785295913E+01  0.40034609849E+01  0.35421328481E+01  0.55737026206E+01  0.51100000000E-03 0. -1.
        -11    1    4    4    0    0  0.18975299742E+01  0.89229876198E+01  0.31325579411E+02  0.32626863989E+02  0.51100000000E-03 0.  1.
        -12    1    4    4    0    0 -0.15915636804E+02 -0.20481979851E+01 -0.19633333423E+01  0.16166548416E+02  0.00000000000E+00 0.  1.
</event>
<event>
 8    1  0.1248739E-006  0.9118800E+02  0.7816164E-02  0.1184000E+00
        -11   -1    0    0    0    0  0.00000000000E+00  0.00000000000E+00  0.45593999997E+02  0.45594000000E+02  0.51100000000E-03 0.  1.
         11   -1    0    0    0    0 -0.00000000000E+00 -0.00000000000E+00 -0.45593999997E+02  0.45594000000E+02  0.51100000000E-03 0. -1.
         23    2    1    2    0    0  0.00000000000E+00  0.00000000000E+00  0.00000000000E+00  0.91188000000E+02  0.91188000000E+02 0.  0.
    9900012    2    3    3    0    0  0.22402408680E+02 -0.29047035611E+02 -0.31907904861E+01  0.54367091044E+02  0.40000015652E+02 0.  0.
         12    1    3    3    0    0 -0.22402408680E+02  0.29047035611E+02  0.31907904861E+01  0.36820908956E+02  0.00000000000E+00 0. -1.
         11    1    4    4    0    0  0.10139413050E+02  0.59407374333E+01 -0.79625743847E+01  0.14195162885E+02  0.51100000000E-03 0. -1.
        -11    1    4    4    0    0 -0.27927423148E+01 -0.12021459820E+02  0.26930129922E+01  0.12631992126E+02  0.51100000000E-03 0.  1.
        -12    1    4    4    0    0  0.15055737945E+02 -0.22966313224E+02  0.20787709064E+01  0.27539936032E+02  0.00000000000E+00 0.  1.
</event>
<event>
 8    1  0.1248739E-006  0.9118800E+02  0.7816164E-02  0.1184000E+00
        -11   -1    0    0    0    0  0.00000000000E+00  0.00000000000E+00  0.45593999997E+02  0.45594000000E+02  0.51100000000E-03 0. -1.
         11   -1    0    0    0    0 -0.00000000000E+00 -0.00000000000E+00 -0.45593999997E+02  0.45594000000E+02  0.51100000000E-03 0.  1.
         23    2    1    2    0    0 -0.35527136788E-14 -0.17763568394E-14  0.00000000000E+00  0.91188000000E+02  0.91188000000E+02 0.  0.
    9900012    2    3    3    0    0  0.29534192452E+02  0.14217430784E+02 -0.16774266567E+02  0.54367083651E+02  0.39999998800E+02 0.  0.
         12    1    3    3    0    0 -0.29534192452E+02 -0.14217430784E+02  0.16774266567E+02  0.36820916349E+02  0.00000000000E+00 0. -1.
         11    1    4    4    0    0  0.96122172190E+01  0.15446018447E+02 -0.18252428236E+02  0.25770629455E+02  0.51100000000E-03 0. -1.
        -11    1    4    4    0    0  0.20340431592E+02  0.29132227659E+01  0.69764452802E+01  0.21700018738E+02  0.51100000000E-03 0.  1.
         12    1    4    4    0    0 -0.41845635881E+00 -0.41418104290E+01 -0.54982836117E+01  0.68964354581E+01  0.00000000000E+00 0. -1.
</event>
<event>
 8    1  0.1248739E-006  0.9118800E+02  0.7816164E-02  0.1184000E+00
        -11   -1    0    0    0    0  0.00000000000E+00  0.00000000000E+00  0.45593999997E+02  0.45594000000E+02  0.51100000000E-03 0.  1.
         11   -1    0    0    0    0 -0.00000000000E+00 -0.00000000000E+00 -0.45593999997E+02  0.45594000000E+02  0.51100000000E-03 0. -1.
         23    2    1    2    0    0  0.17763568394E-14  0.35527136788E-14  0.35527136788E-14  0.91188000000E+02  0.91188000000E+02 0.  0.
    9900012    2    3    3    0    0 -0.10345458096E+02 -0.21573543118E+02 -0.27987944167E+02  0.54367200381E+02  0.40000264908E+02 0.  0.
        -12    1    3    3    0    0  0.10345458096E+02  0.21573543118E+02  0.27987944167E+02  0.36820799619E+02  0.00000000000E+00 0.  1.
         11    1    4    4    0    0  0.38755627053E+00 -0.96185769397E+00  0.11573254734E+01  0.15539538600E+01  0.51100000000E-03 0. -1.
        -11    1    4    4    0    0  0.18339157028E+01 -0.28244880903E+02 -0.13553585022E+02  0.31382100173E+02  0.51100000000E-03 0.  1.
         12    1    4    4    0    0 -0.12566930069E+02  0.76331954788E+01 -0.15591684618E+02  0.21431146349E+02  0.00000000000E+00 0. -1.
</event>
<event>
 8    1  0.1248739E-006  0.9118800E+02  0.7816164E-02  0.1184000E+00
        -11   -1    0    0    0    0  0.00000000000E+00  0.00000000000E+00  0.45593999997E+02  0.45594000000E+02  0.51100000000E-03 0. -1.
         11   -1    0    0    0    0 -0.00000000000E+00 -0.00000000000E+00 -0.45593999997E+02  0.45594000000E+02  0.51100000000E-03 0.  1.
         23    2    1    2    0    0  0.35527136788E-14  0.00000000000E+00  0.00000000000E+00  0.91188000000E+02  0.91188000000E+02 0.  0.
    9900012    2    3    3    0    0  0.27098396437E+02  0.12768065081E+02 -0.21411087773E+02  0.54367064991E+02  0.39999956259E+02 0.  0.
         12    1    3    3    0    0 -0.27098396437E+02 -0.12768065081E+02  0.21411087773E+02  0.36820935009E+02  0.00000000000E+00 0. -1.
         11    1    4    4    0    0  0.62755822534E+01  0.93475273815E+01  0.82813732704E+01  0.13976421011E+02  0.51100000000E-03 0. -1.
        -11    1    4    4    0    0 -0.21321502756E+01  0.38365293110E+01 -0.40526070723E+01  0.59739975139E+01  0.51100000000E-03 0.  1.
        -12    1    4    4    0    0  0.22954964459E+02 -0.41599161116E+00 -0.25639853971E+02  0.34416646466E+02  0.00000000000E+00 0.  1.
</event>
<event>
 8    1  0.1248739E-006  0.9118800E+02  0.7816164E-02  0.1184000E+00
        -11   -1    0    0    0    0  0.00000000000E+00  0.00000000000E+00  0.45593999997E+02  0.45594000000E+02  0.51100000000E-03 0. -1.
         11   -1    0    0    0    0 -0.00000000000E+00 -0.00000000000E+00 -0.45593999997E+02  0.45594000000E+02  0.51100000000E-03 0.  1.
         23    2    1    2    0    0 -0.35527136788E-14  0.00000000000E+00  0.00000000000E+00  0.91188000000E+02  0.91188000000E+02 0.  0.
    9900012    2    3    3    0    0 -0.23910556419E+02 -0.16566507142E+02  0.22574673505E+02  0.54367085413E+02  0.40000002817E+02 0.  0.
        -12    1    3    3    0    0  0.23910556419E+02  0.16566507142E+02 -0.22574673505E+02  0.36820914587E+02  0.00000000000E+00 0.  1.
         11    1    4    4    0    0 -0.11826746487E+02  0.95976568512E+01  0.34231931501E+01  0.15611060217E+02  0.51100000000E-03 0. -1.
        -11    1    4    4    0    0  0.10457520485E+01  0.83813008452E+00  0.56999343762E+01  0.58553660466E+01  0.51100000000E-03 0.  1.
        -12    1    4    4    0    0 -0.13129561980E+02 -0.27002294077E+02  0.13451545979E+02  0.32900659149E+02  0.00000000000E+00 0.  1.
</event>
<event>
 8    1  0.1248739E-006  0.9118800E+02  0.7816164E-02  0.1184000E+00
        -11   -1    0    0    0    0  0.00000000000E+00  0.00000000000E+00  0.45593999997E+02  0.45594000000E+02  0.51100000000E-03 0.  1.
         11   -1    0    0    0    0 -0.00000000000E+00 -0.00000000000E+00 -0.45593999997E+02  0.45594000000E+02  0.51100000000E-03 0. -1.
         23    2    1    2    0    0  0.00000000000E+00  0.00000000000E+00  0.35527136788E-14  0.91188000000E+02  0.91188000000E+02 0.  0.
    9900012    2    3    3    0    0  0.23286392202E+02 -0.16491394463E+02 -0.23271389198E+02  0.54367085993E+02  0.40000004138E+02 0.  0.
        -12    1    3    3    0    0 -0.23286392202E+02  0.16491394463E+02  0.23271389198E+02  0.36820914007E+02  0.00000000000E+00 0.  1.
         11    1    4    4    0    0  0.10371719858E+02  0.13609943765E+01 -0.93748422420E+01  0.14046798419E+02  0.51100000000E-03 0. -1.
        -11    1    4    4    0    0  0.21742423145E+02 -0.13672238454E+02 -0.16092639873E+02  0.30309010655E+02  0.51100000000E-03 0.  1.
        -12    1    4    4    0    0 -0.88277508006E+01 -0.41801503852E+01  0.21960929170E+01  0.10011276919E+02  0.00000000000E+00 0.  1.
</event>
<event>
 8    1  0.1248739E-006  0.9118800E+02  0.7816164E-02  0.1184000E+00
        -11   -1    0    0    0    0  0.00000000000E+00  0.00000000000E+00  0.45593999997E+02  0.45594000000E+02  0.51100000000E-03 0.  1.
         11   -1    0    0    0    0 -0.00000000000E+00 -0.00000000000E+00 -0.45593999997E+02  0.45594000000E+02  0.51100000000E-03 0. -1.
         23    2    1    2    0    0  0.35527136788E-14  0.00000000000E+00 -0.35527136788E-14  0.91188000000E+02  0.91188000000E+02 0.  0.
    9900012    2    3    3    0    0  0.22581642872E+02  0.55945357148E+01 -0.28540322702E+02  0.54367089574E+02  0.40000012301E+02 0.  0.
        -12    1    3    3    0    0 -0.22581642872E+02 -0.55945357148E+01  0.28540322702E+02  0.36820910426E+02  0.00000000000E+00 0.  1.
         11    1    4    4    0    0 -0.17577003748E+01  0.11403289152E+02 -0.52618766636E+01  0.12681161633E+02  0.51100000000E-03 0.  1.
        -11    1    4    4    0    0  0.58816300546E+01  0.11974849364E+01 -0.20965978363E+02  0.21808250531E+02  0.51100000000E-03 0. -1.
        -12    1    4    4    0    0  0.18457713192E+02 -0.70062383734E+01 -0.23124676759E+01  0.19877677409E+02  0.00000000000E+00 0.  1.
</event>
<event>
 8    1  0.1248739E-006  0.9118800E+02  0.7816164E-02  0.1184000E+00
        -11   -1    0    0    0    0  0.00000000000E+00  0.00000000000E+00  0.45593999997E+02  0.45594000000E+02  0.51100000000E-03 0.  1.
         11   -1    0    0    0    0 -0.00000000000E+00 -0.00000000000E+00 -0.45593999997E+02  0.45594000000E+02  0.51100000000E-03 0. -1.
         23    2    1    2    0    0  0.17763568394E-14  0.35527136788E-14  0.00000000000E+00  0.91188000000E+02  0.91188000000E+02 0.  0.
    9900012    2    3    3    0    0 -0.10281399521E+02 -0.22683421298E+02  0.27120766412E+02  0.54367071866E+02  0.39999971933E+02 0.  0.
         12    1    3    3    0    0  0.10281399521E+02  0.22683421298E+02 -0.27120766412E+02  0.36820928134E+02  0.00000000000E+00 0. -1.
         11    1    4    4    0    0 -0.75661491896E+01  0.20108251187E+01  0.20559049113E+02  0.21999193892E+02  0.51100000000E-03 0.  1.
        -11    1    4    4    0    0 -0.32439219878E+01 -0.12940070505E+02 -0.64561930887E+01  0.14820623604E+02  0.51100000000E-03 0. -1.
        -12    1    4    4    0    0  0.52867165597E+00 -0.11754175911E+02  0.13017910388E+02  0.17547254370E+02  0.00000000000E+00 0.  1.
</event>
<event>
 8    1  0.1248739E-006  0.9118800E+02  0.7816164E-02  0.1184000E+00
        -11   -1    0    0    0    0  0.00000000000E+00  0.00000000000E+00  0.45593999997E+02  0.45594000000E+02  0.51100000000E-03 0. -1.
         11   -1    0    0    0    0 -0.00000000000E+00 -0.00000000000E+00 -0.45593999997E+02  0.45594000000E+02  0.51100000000E-03 0.  1.
         23    2    1    2    0    0  0.00000000000E+00  0.00000000000E+00 -0.55511151231E-15  0.91188000000E+02  0.91188000000E+02 0.  0.
    9900012    2    3    3    0    0 -0.82148422534E+01 -0.35891100142E+02 -0.35637233176E+00  0.54367058894E+02  0.39999942362E+02 0.  0.
        -12    1    3    3    0    0  0.82148422534E+01  0.35891100142E+02  0.35637233176E+00  0.36820941106E+02  0.00000000000E+00 0.  1.
         11    1    4    4    0    0 -0.41902117288E+01 -0.51530152629E+01  0.64827495555E+01  0.92810281054E+01  0.51100000000E-03 0. -1.
        -11    1    4    4    0    0 -0.11687192892E+02 -0.73031200347E+01  0.83628923164E+01  0.16120298015E+02  0.51100000000E-03 0.  1.
        -12    1    4    4    0    0  0.76625623672E+01 -0.23434964845E+02 -0.15202014204E+02  0.28965732774E+02  0.00000000000E+00 0.  1.
</event>
<event>
 8    1  0.1248739E-006  0.9118800E+02  0.7816164E-02  0.1184000E+00
        -11   -1    0    0    0    0  0.00000000000E+00  0.00000000000E+00  0.45593999997E+02  0.45594000000E+02  0.51100000000E-03 0.  1.
         11   -1    0    0    0    0 -0.00000000000E+00 -0.00000000000E+00 -0.45593999997E+02  0.45594000000E+02  0.51100000000E-03 0. -1.
         23    2    1    2    0    0  0.00000000000E+00 -0.17763568394E-14 -0.35527136788E-14  0.91188000000E+02  0.91188000000E+02 0.  0.
    9900012    2    3    3    0    0 -0.29588737582E+02  0.98676934193E+01 -0.19568179061E+02  0.54367103801E+02  0.40000044736E+02 0.  0.
        -12    1    3    3    0    0  0.29588737582E+02 -0.98676934193E+01  0.19568179061E+02  0.36820896199E+02  0.00000000000E+00 0.  1.
         11    1    4    4    0    0 -0.28905506822E+02  0.15875964573E+02 -0.12291841560E+02  0.35194657904E+02  0.51100000000E-03 0. -1.
        -11    1    4    4    0    0  0.59592128716E+00  0.24904459441E+01  0.41489268280E+01  0.48755550726E+01  0.51100000000E-03 0.  1.
         12    1    4    4    0    0 -0.12791520468E+01 -0.84987170976E+01 -0.11425264329E+02  0.14296890825E+02  0.00000000000E+00 0. -1.
</event>
<event>
 8    1  0.1248739E-006  0.9118800E+02  0.7816164E-02  0.1184000E+00
        -11   -1    0    0    0    0  0.00000000000E+00  0.00000000000E+00  0.45593999997E+02  0.45594000000E+02  0.51100000000E-03 0. -1.
         11   -1    0    0    0    0 -0.00000000000E+00 -0.00000000000E+00 -0.45593999997E+02  0.45594000000E+02  0.51100000000E-03 0.  1.
         23    2    1    2    0    0  0.00000000000E+00  0.00000000000E+00  0.00000000000E+00  0.91188000000E+02  0.91188000000E+02 0.  0.
    9900012    2    3    3    0    0 -0.25966660894E+02  0.96161284900E+01  0.24270196964E+02  0.54367083854E+02  0.39999999263E+02 0.  0.
        -12    1    3    3    0    0  0.25966660894E+02 -0.96161284900E+01 -0.24270196964E+02  0.36820916146E+02  0.00000000000E+00 0.  1.
         11    1    4    4    0    0 -0.99227205223E+01 -0.13797682774E+01  0.12874155505E+02  0.16312817761E+02  0.51100000000E-03 0. -1.
        -11    1    4    4    0    0 -0.42332627368E+01 -0.99818704626E+01  0.85591514370E+01  0.13813664427E+02  0.51100000000E-03 0.  1.
        -12    1    4    4    0    0 -0.11810677635E+02  0.20977767230E+02  0.28368900221E+01  0.24240601666E+02  0.00000000000E+00 0.  1.
</event>
<event>
 8    1  0.1248739E-006  0.9118800E+02  0.7816164E-02  0.1184000E+00
        -11   -1    0    0    0    0  0.00000000000E+00  0.00000000000E+00  0.45593999997E+02  0.45594000000E+02  0.51100000000E-03 0.  1.
         11   -1    0    0    0    0 -0.00000000000E+00 -0.00000000000E+00 -0.45593999997E+02  0.45594000000E+02  0.51100000000E-03 0. -1.
         23    2    1    2    0    0  0.00000000000E+00  0.71054273576E-14  0.17763568394E-14  0.91188000000E+02  0.91188000000E+02 0.  0.
    9900012    2    3    3    0    0  0.45039371500E+01  0.35902074630E+02  0.68216807656E+01  0.54367085548E+02  0.40000003125E+02 0.  0.
         12    1    3    3    0    0 -0.45039371500E+01 -0.35902074630E+02 -0.68216807656E+01  0.36820914452E+02  0.00000000000E+00 0. -1.
         11    1    4    4    0    0 -0.75234608677E+00  0.25174784344E+01  0.17850469732E+02  0.18042809987E+02  0.51100000000E-03 0. -1.
        -11    1    4    4    0    0  0.28674074933E+01  0.18003139766E+02 -0.98322086429E+01  0.20712493675E+02  0.51100000000E-03 0.  1.
        -12    1    4    4    0    0  0.23888757434E+01  0.15381456430E+02 -0.11965803235E+01  0.15611781887E+02  0.00000000000E+00 0.  1.
</event>
<event>
 8    1  0.1248739E-006  0.9118800E+02  0.7816164E-02  0.1184000E+00
        -11   -1    0    0    0    0  0.00000000000E+00  0.00000000000E+00  0.45593999997E+02  0.45594000000E+02  0.51100000000E-03 0.  1.
         11   -1    0    0    0    0 -0.00000000000E+00 -0.00000000000E+00 -0.45593999997E+02  0.45594000000E+02  0.51100000000E-03 0. -1.
         23    2    1    2    0    0 -0.44408920985E-15  0.00000000000E+00  0.35527136788E-14  0.91188000000E+02  0.91188000000E+02 0.  0.
    9900012    2    3    3    0    0 -0.52377572902E+00  0.30794198819E+02 -0.20179771665E+02  0.54367079230E+02  0.39999988720E+02 0.  0.
        -12    1    3    3    0    0  0.52377572902E+00 -0.30794198819E+02  0.20179771665E+02  0.36820920770E+02  0.00000000000E+00 0.  1.
         11    1    4    4    0    0 -0.51003353137E+01  0.13896748491E+02  0.42794274107E+01  0.15409300378E+02  0.51100000000E-03 0. -1.
        -11    1    4    4    0    0  0.70195933636E+01  0.14436874469E+01  0.26639325646E+01  0.76456171370E+01  0.51100000000E-03 0.  1.
         12    1    4    4    0    0 -0.24430337789E+01  0.15453762881E+02 -0.27123131640E+02  0.31312161714E+02  0.00000000000E+00 0. -1.
</event>
<event>
 8    1  0.1248739E-006  0.9118800E+02  0.7816164E-02  0.1184000E+00
        -11   -1    0    0    0    0  0.00000000000E+00  0.00000000000E+00  0.45593999997E+02  0.45594000000E+02  0.51100000000E-03 0.  1.
         11   -1    0    0    0    0 -0.00000000000E+00 -0.00000000000E+00 -0.45593999997E+02  0.45594000000E+02  0.51100000000E-03 0. -1.
         23    2    1    2    0    0  0.35527136788E-14  0.00000000000E+00  0.35527136788E-14  0.91188000000E+02  0.91188000000E+02 0.  0.
    9900012    2    3    3    0    0 -0.19745844247E+02 -0.15670989070E+02 -0.26838436164E+02  0.54367083129E+02  0.39999997610E+02 0.  0.
        -12    1    3    3    0    0  0.19745844247E+02  0.15670989070E+02  0.26838436164E+02  0.36820916871E+02  0.00000000000E+00 0.  1.
         11    1    4    4    0    0 -0.20946195561E+02 -0.50490718431E+00 -0.13639945504E+02  0.25000923050E+02  0.51100000000E-03 0. -1.
        -11    1    4    4    0    0  0.72926067096E+01 -0.19109857871E+01  0.24936614671E+01  0.79405495448E+01  0.51100000000E-03 0.  1.
         12    1    4    4    0    0 -0.60922553957E+01 -0.13255096098E+02 -0.15692152127E+02  0.21425610534E+02  0.00000000000E+00 0. -1.
</event>
<event>
 8    1  0.1248739E-006  0.9118800E+02  0.7816164E-02  0.1184000E+00
        -11   -1    0    0    0    0  0.00000000000E+00  0.00000000000E+00  0.45593999997E+02  0.45594000000E+02  0.51100000000E-03 0.  1.
         11   -1    0    0    0    0 -0.00000000000E+00 -0.00000000000E+00 -0.45593999997E+02  0.45594000000E+02  0.51100000000E-03 0. -1.
         23    2    1    2    0    0  0.35527136788E-14  0.00000000000E+00  0.00000000000E+00  0.91188000000E+02  0.91188000000E+02 0.  0.
    9900012    2    3    3    0    0 -0.31870834851E+02  0.11322062428E+02 -0.14554765666E+02  0.54367076392E+02  0.39999982251E+02 0.  0.
        -12    1    3    3    0    0  0.31870834851E+02 -0.11322062428E+02  0.14554765666E+02  0.36820923608E+02  0.00000000000E+00 0.  1.
         11    1    4    4    0    0  0.12570126324E+01  0.10125052235E+02 -0.28098806858E+01  0.10582636404E+02  0.51100000000E-03 0. -1.
        -11    1    4    4    0    0 -0.94585047644E+00 -0.11598427782E+01  0.65309157855E+01  0.67002037023E+01  0.51100000000E-03 0.  1.
         12    1    4    4    0    0 -0.32181997007E+02  0.23568529710E+01 -0.18275800765E+02  0.37084236286E+02  0.00000000000E+00 0. -1.
</event>
<event>
 8    1  0.1248739E-006  0.9118800E+02  0.7816164E-02  0.1184000E+00
        -11   -1    0    0    0    0  0.00000000000E+00  0.00000000000E+00  0.45593999997E+02  0.45594000000E+02  0.51100000000E-03 0. -1.
         11   -1    0    0    0    0 -0.00000000000E+00 -0.00000000000E+00 -0.45593999997E+02  0.45594000000E+02  0.51100000000E-03 0.  1.
         23    2    1    2    0    0  0.00000000000E+00 -0.88817841970E-15  0.00000000000E+00  0.91188000000E+02  0.91188000000E+02 0.  0.
    9900012    2    3    3    0    0  0.53887278695E+01  0.61023276458E+01  0.35909637491E+02  0.54367097573E+02  0.40000030538E+02 0.  0.
        -12    1    3    3    0    0 -0.53887278695E+01 -0.61023276458E+01 -0.35909637491E+02  0.36820902427E+02  0.00000000000E+00 0.  1.
         11    1    4    4    0    0  0.10335393504E+00  0.13629140781E+02  0.35674862471E+02  0.38189788858E+02  0.51100000000E-03 0. -1.
        -11    1    4    4    0    0  0.35945095772E+01  0.16539878867E+01  0.44325692287E+01  0.59417039020E+01  0.51100000000E-03 0.  1.
        -12    1    4    4    0    0  0.16908643572E+01 -0.91808010220E+01 -0.41977942082E+01  0.10235604813E+02  0.00000000000E+00 0.  1.
</event>
<event>
 8    1  0.1248739E-006  0.9118800E+02  0.7816164E-02  0.1184000E+00
        -11   -1    0    0    0    0  0.00000000000E+00  0.00000000000E+00  0.45593999997E+02  0.45594000000E+02  0.51100000000E-03 0.  1.
         11   -1    0    0    0    0 -0.00000000000E+00 -0.00000000000E+00 -0.45593999997E+02  0.45594000000E+02  0.51100000000E-03 0. -1.
         23    2    1    2    0    0  0.00000000000E+00  0.00000000000E+00  0.00000000000E+00  0.91188000000E+02  0.91188000000E+02 0.  0.
    9900012    2    3    3    0    0  0.33004445461E+02  0.98753441534E+01  0.12998631931E+02  0.54367078306E+02  0.39999986614E+02 0.  0.
        -12    1    3    3    0    0 -0.33004445461E+02 -0.98753441534E+01 -0.12998631931E+02  0.36820921694E+02  0.00000000000E+00 0.  1.
         11    1    4    4    0    0  0.29076222182E+02 -0.16077435930E+01  0.22587561972E+02  0.36853893851E+02  0.51100000000E-03 0. -1.
        -11    1    4    4    0    0  0.39086127508E+01  0.59545058052E+01 -0.85138451389E+00  0.71734405184E+01  0.51100000000E-03 0.  1.
        -12    1    4    4    0    0  0.19610527405E-01  0.55285819412E+01 -0.87375455268E+01  0.10339743937E+02  0.00000000000E+00 0.  1.
</event>
<event>
 8    1  0.1248739E-006  0.9118800E+02  0.7816164E-02  0.1184000E+00
        -11   -1    0    0    0    0  0.00000000000E+00  0.00000000000E+00  0.45593999997E+02  0.45594000000E+02  0.51100000000E-03 0. -1.
         11   -1    0    0    0    0 -0.00000000000E+00 -0.00000000000E+00 -0.45593999997E+02  0.45594000000E+02  0.51100000000E-03 0.  1.
         23    2    1    2    0    0  0.35527136788E-14 -0.35527136788E-14  0.00000000000E+00  0.91188000000E+02  0.91188000000E+02 0.  0.
    9900012    2    3    3    0    0 -0.23008055193E+02 -0.16433604347E+02  0.23587312834E+02  0.54366874510E+02  0.39999522018E+02 0.  0.
        -12    1    3    3    0    0  0.23008055193E+02  0.16433604347E+02 -0.23587312834E+02  0.36821125490E+02  0.00000000000E+00 0.  1.
         11    1    4    4    0    0  0.69921002892E+01  0.51349200282E+01  0.51008632930E+01  0.10063581706E+02  0.51100000000E-03 0.  1.
        -11    1    4    4    0    0 -0.18088736185E+02 -0.21826531769E+02  0.13023796755E+02  0.31196460504E+02  0.51100000000E-03 0. -1.
        -12    1    4    4    0    0 -0.11911419297E+02  0.25800739402E+00  0.54626527865E+01  0.13106832300E+02  0.00000000000E+00 0.  1.
</event>
<event>
 8    1  0.1248739E-006  0.9118800E+02  0.7816164E-02  0.1184000E+00
        -11   -1    0    0    0    0  0.00000000000E+00  0.00000000000E+00  0.45593999997E+02  0.45594000000E+02  0.51100000000E-03 0.  1.
         11   -1    0    0    0    0 -0.00000000000E+00 -0.00000000000E+00 -0.45593999997E+02  0.45594000000E+02  0.51100000000E-03 0. -1.
         23    2    1    2    0    0 -0.35527136788E-14  0.00000000000E+00 -0.17763568394E-14  0.91188000000E+02  0.91188000000E+02 0.  0.
    9900012    2    3    3    0    0  0.28585057211E+02  0.16890867129E+02  0.15917729951E+02  0.54367068250E+02  0.39999963689E+02 0.  0.
         12    1    3    3    0    0 -0.28585057211E+02 -0.16890867129E+02 -0.15917729951E+02  0.36820931750E+02  0.00000000000E+00 0. -1.
         11    1    4    4    0    0  0.12987512112E+02  0.13741709454E+02  0.18532567119E+01  0.18998542320E+02  0.51100000000E-03 0. -1.
        -11    1    4    4    0    0  0.21874352971E+02 -0.31123820382E+01  0.14606035821E+02  0.26486043920E+02  0.51100000000E-03 0.  1.
         12    1    4    4    0    0 -0.62768078715E+01  0.62615397130E+01 -0.54156258152E+00  0.88824820103E+01  0.00000000000E+00 0. -1.
</event>
<event>
 8    1  0.1248739E-006  0.9118800E+02  0.7816164E-02  0.1184000E+00
        -11   -1    0    0    0    0  0.00000000000E+00  0.00000000000E+00  0.45593999997E+02  0.45594000000E+02  0.51100000000E-03 0.  1.
         11   -1    0    0    0    0 -0.00000000000E+00 -0.00000000000E+00 -0.45593999997E+02  0.45594000000E+02  0.51100000000E-03 0. -1.
         23    2    1    2    0    0  0.00000000000E+00  0.00000000000E+00  0.00000000000E+00  0.91188000000E+02  0.91188000000E+02 0.  0.
    9900012    2    3    3    0    0  0.21504725595E+02 -0.12421461687E+02 -0.27185179041E+02  0.54367083487E+02  0.39999998426E+02 0.  0.
        -12    1    3    3    0    0 -0.21504725595E+02  0.12421461687E+02  0.27185179041E+02  0.36820916513E+02  0.00000000000E+00 0.  1.
         11    1    4    4    0    0  0.24937249954E+02 -0.10939420198E+02 -0.33043319122E+02  0.42818200433E+02  0.51100000000E-03 0. -1.
        -11    1    4    4    0    0 -0.63400628668E+01 -0.25799726485E+01  0.40328647429E+01  0.79445990659E+01  0.51100000000E-03 0.  1.
         12    1    4    4    0    0  0.29075385081E+01  0.10979311595E+01  0.18252753378E+01  0.36042839880E+01  0.00000000000E+00 0. -1.
</event>
<event>
 8    1  0.1248739E-006  0.9118800E+02  0.7816164E-02  0.1184000E+00
        -11   -1    0    0    0    0  0.00000000000E+00  0.00000000000E+00  0.45593999997E+02  0.45594000000E+02  0.51100000000E-03 0. -1.
         11   -1    0    0    0    0 -0.00000000000E+00 -0.00000000000E+00 -0.45593999997E+02  0.45594000000E+02  0.51100000000E-03 0.  1.
         23    2    1    2    0    0  0.00000000000E+00  0.00000000000E+00  0.35527136788E-14  0.91188000000E+02  0.91188000000E+02 0.  0.
    9900012    2    3    3    0    0  0.62632349391E+01 -0.21180405236E+02  0.29460848150E+02  0.54367092195E+02  0.40000018277E+02 0.  0.
        -12    1    3    3    0    0 -0.62632349391E+01  0.21180405236E+02 -0.29460848150E+02  0.36820907805E+02  0.00000000000E+00 0.  1.
         11    1    4    4    0    0 -0.12706409465E+02 -0.17011090507E+02  0.84448332702E+01  0.22850497827E+02  0.51100000000E-03 0. -1.
        -11    1    4    4    0    0  0.44170340259E+01 -0.68716473948E+01  0.44531772368E+01  0.93037903710E+01  0.51100000000E-03 0.  1.
        -12    1    4    4    0    0  0.14552610378E+02  0.27023326650E+01  0.16562837643E+02  0.22212803997E+02  0.00000000000E+00 0.  1.
</event>
<event>
 8    1  0.1248739E-006  0.9118800E+02  0.7816164E-02  0.1184000E+00
        -11   -1    0    0    0    0  0.00000000000E+00  0.00000000000E+00  0.45593999997E+02  0.45594000000E+02  0.51100000000E-03 0. -1.
         11   -1    0    0    0    0 -0.00000000000E+00 -0.00000000000E+00 -0.45593999997E+02  0.45594000000E+02  0.51100000000E-03 0.  1.
         23    2    1    2    0    0  0.00000000000E+00  0.00000000000E+00  0.00000000000E+00  0.91188000000E+02  0.91188000000E+02 0.  0.
    9900012    2    3    3    0    0  0.24318125359E+02 -0.18541209735E+02 -0.20509313220E+02  0.54367087353E+02  0.40000007239E+02 0.  0.
         12    1    3    3    0    0 -0.24318125359E+02  0.18541209735E+02  0.20509313220E+02  0.36820912647E+02  0.00000000000E+00 0. -1.
         11    1    4    4    0    0  0.52275392709E+01  0.61278746283E+01 -0.64416289555E+01  0.10313709233E+02  0.51100000000E-03 0. -1.
        -11    1    4    4    0    0  0.14724405424E+02  0.15458164045E+01 -0.78583964792E+01  0.16761624591E+02  0.51100000000E-03 0.  1.
        -12    1    4    4    0    0  0.43661806642E+01 -0.26214900768E+02 -0.62092877851E+01  0.27291753529E+02  0.00000000000E+00 0.  1.
</event>
<event>
 8    1  0.1248739E-006  0.9118800E+02  0.7816164E-02  0.1184000E+00
        -11   -1    0    0    0    0  0.00000000000E+00  0.00000000000E+00  0.45593999997E+02  0.45594000000E+02  0.51100000000E-03 0. -1.
         11   -1    0    0    0    0 -0.00000000000E+00 -0.00000000000E+00 -0.45593999997E+02  0.45594000000E+02  0.51100000000E-03 0.  1.
         23    2    1    2    0    0 -0.35527136788E-14  0.00000000000E+00 -0.17763568394E-14  0.91188000000E+02  0.91188000000E+02 0.  0.
    9900012    2    3    3    0    0 -0.28388407221E+02  0.20375629026E+02  0.11606537986E+02  0.54367086829E+02  0.40000006043E+02 0.  0.
        -12    1    3    3    0    0  0.28388407221E+02 -0.20375629026E+02 -0.11606537986E+02  0.36820913171E+02  0.00000000000E+00 0.  1.
         11    1    4    4    0    0 -0.29941378643E+02  0.50738677093E+01  0.19807555862E+02  0.36256993230E+02  0.51100000000E-03 0. -1.
        -11    1    4    4    0    0  0.29230204023E+01  0.83506484505E+01 -0.60044293638E+01  0.10692546472E+02  0.51100000000E-03 0.  1.
         12    1    4    4    0    0 -0.13700489802E+01  0.69511128658E+01 -0.21965885120E+01  0.74175471264E+01  0.00000000000E+00 0. -1.
</event>
<event>
 8    1  0.1248739E-006  0.9118800E+02  0.7816164E-02  0.1184000E+00
        -11   -1    0    0    0    0  0.00000000000E+00  0.00000000000E+00  0.45593999997E+02  0.45594000000E+02  0.51100000000E-03 0. -1.
         11   -1    0    0    0    0 -0.00000000000E+00 -0.00000000000E+00 -0.45593999997E+02  0.45594000000E+02  0.51100000000E-03 0.  1.
         23    2    1    2    0    0  0.00000000000E+00 -0.17763568394E-14 -0.35527136788E-14  0.91188000000E+02  0.91188000000E+02 0.  0.
    9900012    2    3    3    0    0 -0.21731028466E+02  0.44885439434E+01  0.29383616249E+02  0.54367061273E+02  0.39999947783E+02 0.  0.
        -12    1    3    3    0    0  0.21731028466E+02 -0.44885439434E+01 -0.29383616249E+02  0.36820938727E+02  0.00000000000E+00 0.  1.
         11    1    4    4    0    0 -0.48402014249E+01 -0.59449134047E+01  0.36799940965E+01  0.85036405165E+01  0.51100000000E-03 0. -1.
        -11    1    4    4    0    0  0.79363750912E+01 -0.17298385998E+01  0.12672569476E-01  0.81227182657E+01  0.51100000000E-03 0.  1.
        -12    1    4    4    0    0 -0.24827202132E+02  0.12163295948E+02  0.25690949583E+02  0.37740702491E+02  0.00000000000E+00 0.  1.
</event>
<event>
 8    1  0.1248739E-006  0.9118800E+02  0.7816164E-02  0.1184000E+00
        -11   -1    0    0    0    0  0.00000000000E+00  0.00000000000E+00  0.45593999997E+02  0.45594000000E+02  0.51100000000E-03 0. -1.
         11   -1    0    0    0    0 -0.00000000000E+00 -0.00000000000E+00 -0.45593999997E+02  0.45594000000E+02  0.51100000000E-03 0.  1.
         23    2    1    2    0    0  0.00000000000E+00  0.00000000000E+00  0.00000000000E+00  0.91188000000E+02  0.91188000000E+02 0.  0.
    9900012    2    3    3    0    0  0.29285083338E+02 -0.21702785644E+02  0.52108237291E+01  0.54367086177E+02  0.40000004558E+02 0.  0.
        -12    1    3    3    0    0 -0.29285083338E+02  0.21702785644E+02 -0.52108237291E+01  0.36820913823E+02  0.00000000000E+00 0.  1.
         11    1    4    4    0    0  0.11906578902E+02  0.57403637282E+01  0.70514735796E+01  0.14981377666E+02  0.51100000000E-03 0. -1.
        -11    1    4    4    0    0  0.28571005411E+01 -0.92231368057E+01 -0.10742561207E+02  0.14444095596E+02  0.51100000000E-03 0.  1.
         12    1    4    4    0    0  0.14521403895E+02 -0.18220012567E+02  0.89019113561E+01  0.24941612915E+02  0.00000000000E+00 0. -1.
</event>
<event>
 8    1  0.1248739E-006  0.9118800E+02  0.7816164E-02  0.1184000E+00
        -11   -1    0    0    0    0  0.00000000000E+00  0.00000000000E+00  0.45593999997E+02  0.45594000000E+02  0.51100000000E-03 0. -1.
         11   -1    0    0    0    0 -0.00000000000E+00 -0.00000000000E+00 -0.45593999997E+02  0.45594000000E+02  0.51100000000E-03 0.  1.
         23    2    1    2    0    0  0.00000000000E+00  0.00000000000E+00  0.00000000000E+00  0.91188000000E+02  0.91188000000E+02 0.  0.
    9900012    2    3    3    0    0 -0.22698414759E+01  0.13094665511E+02 -0.34338819409E+02  0.54367123264E+02  0.40000089106E+02 0.  0.
         12    1    3    3    0    0  0.22698414759E+01 -0.13094665511E+02  0.34338819409E+02  0.36820876736E+02  0.00000000000E+00 0. -1.
         11    1    4    4    0    0 -0.49459932857E+01  0.11489115460E+02 -0.62066828772E+01  0.13963722148E+02  0.51100000000E-03 0. -1.
        -11    1    4    4    0    0 -0.42932326317E+01  0.10755035010E+02 -0.26326668417E+02  0.28761016927E+02  0.51100000000E-03 0.  1.
        -12    1    4    4    0    0  0.69693844415E+01 -0.91494849582E+01 -0.18054681148E+01  0.11642384189E+02  0.00000000000E+00 0.  1.
</event>
<event>
 8    1  0.1248739E-006  0.9118800E+02  0.7816164E-02  0.1184000E+00
        -11   -1    0    0    0    0  0.00000000000E+00  0.00000000000E+00  0.45593999997E+02  0.45594000000E+02  0.51100000000E-03 0.  1.
         11   -1    0    0    0    0 -0.00000000000E+00 -0.00000000000E+00 -0.45593999997E+02  0.45594000000E+02  0.51100000000E-03 0. -1.
         23    2    1    2    0    0  0.00000000000E+00 -0.71054273576E-14 -0.17763568394E-14  0.91188000000E+02  0.91188000000E+02 0.  0.
    9900012    2    3    3    0    0  0.15913731911E+02  0.30431134084E+02  0.13284519882E+02  0.54367092169E+02  0.40000018219E+02 0.  0.
        -12    1    3    3    0    0 -0.15913731911E+02 -0.30431134084E+02 -0.13284519882E+02  0.36820907831E+02  0.00000000000E+00 0.  1.
         11    1    4    4    0    0  0.59341130493E+01  0.38037164101E+01 -0.27766271246E+01  0.75757253555E+01  0.51100000000E-03 0. -1.
        -11    1    4    4    0    0  0.21045540860E+02  0.18787187112E+02  0.17428742416E+02  0.33160733589E+02  0.51100000000E-03 0.  1.
         12    1    4    4    0    0 -0.11065921998E+02  0.78402305617E+01 -0.13675954100E+01  0.13630633225E+02  0.00000000000E+00 0. -1.
</event>
<event>
 8    1  0.1248739E-006  0.9118800E+02  0.7816164E-02  0.1184000E+00
        -11   -1    0    0    0    0  0.00000000000E+00  0.00000000000E+00  0.45593999997E+02  0.45594000000E+02  0.51100000000E-03 0. -1.
         11   -1    0    0    0    0 -0.00000000000E+00 -0.00000000000E+00 -0.45593999997E+02  0.45594000000E+02  0.51100000000E-03 0.  1.
         23    2    1    2    0    0  0.13322676296E-14 -0.35527136788E-14  0.00000000000E+00  0.91188000000E+02  0.91188000000E+02 0.  0.
    9900012    2    3    3    0    0  0.20273690847E+01  0.16348422252E+02 -0.32930290046E+02  0.54367012261E+02  0.39999836051E+02 0.  0.
         12    1    3    3    0    0 -0.20273690847E+01 -0.16348422252E+02  0.32930290046E+02  0.36820987739E+02  0.00000000000E+00 0. -1.
         11    1    4    4    0    0 -0.72718833583E+01  0.79801570368E+01  0.53390407986E+01  0.12044440660E+02  0.51100000000E-03 0. -1.
        -11    1    4    4    0    0  0.71337887750E+01 -0.79787640198E+00 -0.86430172527E+01  0.11235181197E+02  0.51100000000E-03 0.  1.
        -12    1    4    4    0    0  0.21654636681E+01  0.91661416173E+01 -0.29626313592E+02  0.31087390404E+02  0.00000000000E+00 0.  1.
</event>
<event>
 8    1  0.1248739E-006  0.9118800E+02  0.7816164E-02  0.1184000E+00
        -11   -1    0    0    0    0  0.00000000000E+00  0.00000000000E+00  0.45593999997E+02  0.45594000000E+02  0.51100000000E-03 0.  1.
         11   -1    0    0    0    0 -0.00000000000E+00 -0.00000000000E+00 -0.45593999997E+02  0.45594000000E+02  0.51100000000E-03 0. -1.
         23    2    1    2    0    0  0.00000000000E+00  0.00000000000E+00  0.35527136788E-14  0.91188000000E+02  0.91188000000E+02 0.  0.
    9900012    2    3    3    0    0  0.21602027410E+02  0.23968052570E+02  0.17738739069E+02  0.54367109245E+02  0.40000057146E+02 0.  0.
         12    1    3    3    0    0 -0.21602027410E+02 -0.23968052570E+02 -0.17738739069E+02  0.36820890755E+02  0.00000000000E+00 0. -1.
         11    1    4    4    0    0 -0.34542375763E+01  0.38823331868E+01  0.42352165964E+01  0.67038293599E+01  0.51100000000E-03 0. -1.
        -11    1    4    4    0    0 -0.32766619910E+00  0.95932166721E+01  0.17448417598E+02  0.19914428141E+02  0.51100000000E-03 0.  1.
        -12    1    4    4    0    0  0.25383931186E+02  0.10492502711E+02 -0.39448951249E+01  0.27748851744E+02  0.00000000000E+00 0.  1.
</event>
<event>
 8    1  0.1248739E-006  0.9118800E+02  0.7816164E-02  0.1184000E+00
        -11   -1    0    0    0    0  0.00000000000E+00  0.00000000000E+00  0.45593999997E+02  0.45594000000E+02  0.51100000000E-03 0. -1.
         11   -1    0    0    0    0 -0.00000000000E+00 -0.00000000000E+00 -0.45593999997E+02  0.45594000000E+02  0.51100000000E-03 0.  1.
         23    2    1    2    0    0 -0.33306690739E-15  0.35527136788E-14 -0.35527136788E-14  0.91188000000E+02  0.91188000000E+02 0.  0.
    9900012    2    3    3    0    0 -0.64742859804E+00  0.30973045729E+02 -0.19900522721E+02  0.54367088414E+02  0.40000009656E+02 0.  0.
         12    1    3    3    0    0  0.64742859804E+00 -0.30973045729E+02  0.19900522721E+02  0.36820911586E+02  0.00000000000E+00 0. -1.
         11    1    4    4    0    0  0.90090783313E+01  0.15517089466E+02 -0.17190949112E+02  0.24848989708E+02  0.51100000000E-03 0. -1.
        -11    1    4    4    0    0  0.15435707161E+01  0.49012995269E+01 -0.10924801152E+02  0.12072970972E+02  0.51100000000E-03 0.  1.
         12    1    4    4    0    0 -0.11200077645E+02  0.10554656736E+02  0.82152275432E+01  0.17445127734E+02  0.00000000000E+00 0. -1.
</event>
<event>
 8    1  0.1248739E-006  0.9118800E+02  0.7816164E-02  0.1184000E+00
        -11   -1    0    0    0    0  0.00000000000E+00  0.00000000000E+00  0.45593999997E+02  0.45594000000E+02  0.51100000000E-03 0. -1.
         11   -1    0    0    0    0 -0.00000000000E+00 -0.00000000000E+00 -0.45593999997E+02  0.45594000000E+02  0.51100000000E-03 0.  1.
         23    2    1    2    0    0  0.00000000000E+00  0.00000000000E+00  0.00000000000E+00  0.91188000000E+02  0.91188000000E+02 0.  0.
    9900012    2    3    3    0    0  0.35593888713E+02  0.90479480231E+01  0.26437704668E+01  0.54367084756E+02  0.40000001318E+02 0.  0.
        -12    1    3    3    0    0 -0.35593888713E+02 -0.90479480231E+01 -0.26437704668E+01  0.36820915244E+02  0.00000000000E+00 0.  1.
         11    1    4    4    0    0  0.31804183112E+01 -0.86644906928E+01  0.12625994143E+00  0.92306230252E+01  0.51100000000E-03 0. -1.
        -11    1    4    4    0    0  0.36542434944E+02  0.16679419378E+02 -0.43634941969E-01  0.40169073760E+02  0.51100000000E-03 0.  1.
         12    1    4    4    0    0 -0.41289645428E+01  0.10330193383E+01  0.25611454673E+01  0.49673879709E+01  0.00000000000E+00 0. -1.
</event>
<event>
 8    1  0.1248739E-006  0.9118800E+02  0.7816164E-02  0.1184000E+00
        -11   -1    0    0    0    0  0.00000000000E+00  0.00000000000E+00  0.45593999997E+02  0.45594000000E+02  0.51100000000E-03 0.  1.
         11   -1    0    0    0    0 -0.00000000000E+00 -0.00000000000E+00 -0.45593999997E+02  0.45594000000E+02  0.51100000000E-03 0. -1.
         23    2    1    2    0    0 -0.13322676296E-14  0.00000000000E+00  0.71054273576E-14  0.91188000000E+02  0.91188000000E+02 0.  0.
    9900012    2    3    3    0    0 -0.27006567951E+01  0.75220203616E+01 -0.35943078564E+02  0.54367092432E+02  0.40000018818E+02 0.  0.
        -12    1    3    3    0    0  0.27006567951E+01 -0.75220203616E+01  0.35943078564E+02  0.36820907568E+02  0.00000000000E+00 0.  1.
         11    1    4    4    0    0 -0.10917627762E+02  0.87041413269E+01 -0.10503188999E+02  0.17472082062E+02  0.51100000000E-03 0. -1.
        -11    1    4    4    0    0  0.84437446967E+01  0.42538943943E+01  0.13567512895E+01  0.95516080502E+01  0.51100000000E-03 0.  1.
         12    1    4    4    0    0 -0.22677372972E+00 -0.54360153597E+01 -0.26796640855E+02  0.27343402320E+02  0.00000000000E+00 0. -1.
</event>
<event>
 8    1  0.1248739E-006  0.9118800E+02  0.7816164E-02  0.1184000E+00
        -11   -1    0    0    0    0  0.00000000000E+00  0.00000000000E+00  0.45593999997E+02  0.45594000000E+02  0.51100000000E-03 0.  1.
         11   -1    0    0    0    0 -0.00000000000E+00 -0.00000000000E+00 -0.45593999997E+02  0.45594000000E+02  0.51100000000E-03 0. -1.
         23    2    1    2    0    0  0.00000000000E+00  0.71054273576E-14  0.17763568394E-14  0.91188000000E+02  0.91188000000E+02 0.  0.
    9900012    2    3    3    0    0  0.91506972228E+01 -0.34163735574E+02  0.10241270223E+02  0.54367086054E+02  0.40000004278E+02 0.  0.
        -12    1    3    3    0    0 -0.91506972228E+01  0.34163735574E+02 -0.10241270223E+02  0.36820913946E+02  0.00000000000E+00 0.  1.
         11    1    4    4    0    0  0.61277465748E+00 -0.39043243494E+01 -0.13439450747E+02  0.14008500207E+02  0.51100000000E-03 0. -1.
        -11    1    4    4    0    0  0.28010681893E+01 -0.36939829350E+01  0.72334495227E+01  0.85915240314E+01  0.51100000000E-03 0.  1.
         12    1    4    4    0    0  0.57368543761E+01 -0.26565428289E+02  0.16447271448E+02  0.31767061816E+02  0.00000000000E+00 0. -1.
</event>
<event>
 8    1  0.1248739E-006  0.9118800E+02  0.7816164E-02  0.1184000E+00
        -11   -1    0    0    0    0  0.00000000000E+00  0.00000000000E+00  0.45593999997E+02  0.45594000000E+02  0.51100000000E-03 0.  1.
         11   -1    0    0    0    0 -0.00000000000E+00 -0.00000000000E+00 -0.45593999997E+02  0.45594000000E+02  0.51100000000E-03 0. -1.
         23    2    1    2    0    0  0.00000000000E+00  0.00000000000E+00  0.00000000000E+00  0.91188000000E+02  0.91188000000E+02 0.  0.
    9900012    2    3    3    0    0 -0.21747491769E+02 -0.59564265995E+01  0.29109243200E+02  0.54367075843E+02  0.39999980999E+02 0.  0.
         12    1    3    3    0    0  0.21747491769E+02  0.59564265995E+01 -0.29109243200E+02  0.36820924157E+02  0.00000000000E+00 0. -1.
         11    1    4    4    0    0  0.32848569181E+00  0.54498747927E+01 -0.49823163379E+01  0.73913810927E+01  0.51100000000E-03 0. -1.
        -11    1    4    4    0    0 -0.29636252021E+00  0.38246975852E+01  0.11404303130E+02  0.12032218104E+02  0.51100000000E-03 0.  1.
         12    1    4    4    0    0 -0.21779614941E+02 -0.15230998977E+02  0.22687256408E+02  0.34943476647E+02  0.00000000000E+00 0. -1.
</event>
<event>
 8    1  0.1248739E-006  0.9118800E+02  0.7816164E-02  0.1184000E+00
        -11   -1    0    0    0    0  0.00000000000E+00  0.00000000000E+00  0.45593999997E+02  0.45594000000E+02  0.51100000000E-03 0.  1.
         11   -1    0    0    0    0 -0.00000000000E+00 -0.00000000000E+00 -0.45593999997E+02  0.45594000000E+02  0.51100000000E-03 0. -1.
         23    2    1    2    0    0  0.00000000000E+00  0.00000000000E+00  0.00000000000E+00  0.91188000000E+02  0.91188000000E+02 0.  0.
    9900012    2    3    3    0    0  0.32011270231E+02 -0.20091826735E+01 -0.18083743801E+02  0.54367081670E+02  0.39999994283E+02 0.  0.
        -12    1    3    3    0    0 -0.32011270231E+02  0.20091826735E+01  0.18083743801E+02  0.36820918330E+02  0.00000000000E+00 0.  1.
         11    1    4    4    0    0  0.10417120741E+02 -0.53175566256E+01 -0.10539166093E+02  0.15743787194E+02  0.51100000000E-03 0. -1.
        -11    1    4    4    0    0  0.18470730583E+02 -0.81067250073E+01  0.56016421006E+01  0.20934786197E+02  0.51100000000E-03 0.  1.
         12    1    4    4    0    0  0.31234189066E+01  0.11415098959E+02 -0.13146219808E+02  0.17688508279E+02  0.00000000000E+00 0. -1.
</event>
<event>
 8    1  0.1248739E-006  0.9118800E+02  0.7816164E-02  0.1184000E+00
        -11   -1    0    0    0    0  0.00000000000E+00  0.00000000000E+00  0.45593999997E+02  0.45594000000E+02  0.51100000000E-03 0. -1.
         11   -1    0    0    0    0 -0.00000000000E+00 -0.00000000000E+00 -0.45593999997E+02  0.45594000000E+02  0.51100000000E-03 0.  1.
         23    2    1    2    0    0  0.00000000000E+00 -0.35527136788E-14  0.35527136788E-14  0.91188000000E+02  0.91188000000E+02 0.  0.
    9900012    2    3    3    0    0  0.15748868858E+02  0.23283620533E+02 -0.23782797060E+02  0.54367145971E+02  0.40000140869E+02 0.  0.
         12    1    3    3    0    0 -0.15748868858E+02 -0.23283620533E+02  0.23782797060E+02  0.36820854029E+02  0.00000000000E+00 0. -1.
         11    1    4    4    0    0  0.85531428110E+01 -0.28311393491E+01 -0.11915583783E+01  0.90879818216E+01  0.51100000000E-03 0. -1.
        -11    1    4    4    0    0  0.46058157586E+01  0.60985143260E+01 -0.23862145449E+02  0.25056085118E+02  0.51100000000E-03 0.  1.
         12    1    4    4    0    0  0.25899102887E+01  0.20016245556E+02  0.12709067671E+01  0.20223079031E+02  0.00000000000E+00 0. -1.
</event>
<event>
 8    1  0.1248739E-006  0.9118800E+02  0.7816164E-02  0.1184000E+00
        -11   -1    0    0    0    0  0.00000000000E+00  0.00000000000E+00  0.45593999997E+02  0.45594000000E+02  0.51100000000E-03 0.  1.
         11   -1    0    0    0    0 -0.00000000000E+00 -0.00000000000E+00 -0.45593999997E+02  0.45594000000E+02  0.51100000000E-03 0. -1.
         23    2    1    2    0    0  0.00000000000E+00  0.00000000000E+00  0.88817841970E-15  0.91188000000E+02  0.91188000000E+02 0.  0.
    9900012    2    3    3    0    0 -0.22288500377E+02 -0.28476477911E+02 -0.69347610757E+01  0.54367109809E+02  0.40000058431E+02 0.  0.
        -12    1    3    3    0    0  0.22288500377E+02  0.28476477911E+02  0.69347610757E+01  0.36820890191E+02  0.00000000000E+00 0.  1.
         11    1    4    4    0    0 -0.18632929315E+01 -0.29020126349E+02 -0.13816071098E+02  0.32195083704E+02  0.51100000000E-03 0. -1.
        -11    1    4    4    0    0 -0.88996233836E+01 -0.20302822451E+01  0.42683538519E+01  0.10076913577E+02  0.51100000000E-03 0.  1.
         12    1    4    4    0    0 -0.11525584062E+02  0.25739306825E+01  0.26129561705E+01  0.12095112528E+02  0.00000000000E+00 0. -1.
</event>
<event>
 8    1  0.1248739E-006  0.9118800E+02  0.7816164E-02  0.1184000E+00
        -11   -1    0    0    0    0  0.00000000000E+00  0.00000000000E+00  0.45593999997E+02  0.45594000000E+02  0.51100000000E-03 0.  1.
         11   -1    0    0    0    0 -0.00000000000E+00 -0.00000000000E+00 -0.45593999997E+02  0.45594000000E+02  0.51100000000E-03 0. -1.
         23    2    1    2    0    0  0.00000000000E+00  0.17763568394E-14  0.00000000000E+00  0.91188000000E+02  0.91188000000E+02 0.  0.
    9900012    2    3    3    0    0 -0.27069425380E+02  0.56766586848E+01  0.24306430039E+02  0.54367071366E+02  0.39999970793E+02 0.  0.
        -12    1    3    3    0    0  0.27069425380E+02 -0.56766586848E+01 -0.24306430039E+02  0.36820928634E+02  0.00000000000E+00 0.  1.
         11    1    4    4    0    0  0.26308018998E-01  0.10135219560E+02 -0.41545476632E-01  0.10135338866E+02  0.51100000000E-03 0. -1.
        -11    1    4    4    0    0 -0.24933553023E+02 -0.67957680763E+01  0.72513231961E+01  0.26841129232E+02  0.51100000000E-03 0.  1.
        -12    1    4    4    0    0 -0.21621803760E+01  0.23372072010E+01  0.17096652319E+02  0.17390603268E+02  0.00000000000E+00 0.  1.
</event>
<event>
 8    1  0.1248739E-006  0.9118800E+02  0.7816164E-02  0.1184000E+00
        -11   -1    0    0    0    0  0.00000000000E+00  0.00000000000E+00  0.45593999997E+02  0.45594000000E+02  0.51100000000E-03 0. -1.
         11   -1    0    0    0    0 -0.00000000000E+00 -0.00000000000E+00 -0.45593999997E+02  0.45594000000E+02  0.51100000000E-03 0.  1.
         23    2    1    2    0    0  0.00000000000E+00  0.00000000000E+00  0.00000000000E+00  0.91188000000E+02  0.91188000000E+02 0.  0.
    9900012    2    3    3    0    0  0.17480488408E+02 -0.23385991173E+02 -0.22434513192E+02  0.54367089632E+02  0.40000012435E+02 0.  0.
         12    1    3    3    0    0 -0.17480488408E+02  0.23385991173E+02  0.22434513192E+02  0.36820910368E+02  0.00000000000E+00 0. -1.
         11    1    4    4    0    0  0.60800707027E+01 -0.20335910335E+01  0.95838688835E+00  0.64823805759E+01  0.51100000000E-03 0. -1.
        -11    1    4    4    0    0  0.21061002134E+02 -0.54174524262E+01 -0.18668412690E+02  0.28660499547E+02  0.51100000000E-03 0.  1.
         12    1    4    4    0    0 -0.96605844292E+01 -0.15934947713E+02 -0.47244873908E+01  0.19224209509E+02  0.00000000000E+00 0. -1.
</event>
<event>
 8    1  0.1248739E-006  0.9118800E+02  0.7816164E-02  0.1184000E+00
        -11   -1    0    0    0    0  0.00000000000E+00  0.00000000000E+00  0.45593999997E+02  0.45594000000E+02  0.51100000000E-03 0. -1.
         11   -1    0    0    0    0 -0.00000000000E+00 -0.00000000000E+00 -0.45593999997E+02  0.45594000000E+02  0.51100000000E-03 0.  1.
         23    2    1    2    0    0 -0.15543122345E-14  0.35527136788E-14  0.00000000000E+00  0.91188000000E+02  0.91188000000E+02 0.  0.
    9900012    2    3    3    0    0 -0.11816299677E+01  0.28500322520E+02  0.23283350187E+02  0.54367095217E+02  0.40000025166E+02 0.  0.
        -12    1    3    3    0    0  0.11816299677E+01 -0.28500322520E+02 -0.23283350187E+02  0.36820904783E+02  0.00000000000E+00 0.  1.
         11    1    4    4    0    0  0.89945365649E+00  0.36206866154E+01  0.75196389164E+01  0.83942455373E+01  0.51100000000E-03 0. -1.
        -11    1    4    4    0    0  0.14629881474E+02  0.15721140206E+02  0.16218283056E+02  0.26911343090E+02  0.51100000000E-03 0.  1.
        -12    1    4    4    0    0 -0.16710965099E+02  0.91584956978E+01 -0.45457178510E+00  0.19061506590E+02  0.00000000000E+00 0.  1.
</event>
<event>
 8    1  0.1248739E-006  0.9118800E+02  0.7816164E-02  0.1184000E+00
        -11   -1    0    0    0    0  0.00000000000E+00  0.00000000000E+00  0.45593999997E+02  0.45594000000E+02  0.51100000000E-03 0.  1.
         11   -1    0    0    0    0 -0.00000000000E+00 -0.00000000000E+00 -0.45593999997E+02  0.45594000000E+02  0.51100000000E-03 0. -1.
         23    2    1    2    0    0  0.00000000000E+00  0.00000000000E+00 -0.35527136788E-14  0.91188000000E+02  0.91188000000E+02 0.  0.
    9900012    2    3    3    0    0  0.20879377746E+01 -0.25251061357E+02  0.26717087123E+02  0.54367104734E+02  0.40000046862E+02 0.  0.
         12    1    3    3    0    0 -0.20879377746E+01  0.25251061357E+02 -0.26717087123E+02  0.36820895266E+02  0.00000000000E+00 0. -1.
         11    1    4    4    0    0  0.12649188483E+02  0.10685834596E+01  0.20365676825E+02  0.23998013098E+02  0.51100000000E-03 0. -1.
        -11    1    4    4    0    0 -0.89918356798E+01 -0.26507645298E+02  0.53499301670E+01  0.28497896786E+02  0.51100000000E-03 0.  1.
        -12    1    4    4    0    0 -0.15694150284E+01  0.18800048132E+00  0.10014801317E+01  0.18711948500E+01  0.00000000000E+00 0.  1.
</event>
<event>
 8    1  0.1248739E-006  0.9118800E+02  0.7816164E-02  0.1184000E+00
        -11   -1    0    0    0    0  0.00000000000E+00  0.00000000000E+00  0.45593999997E+02  0.45594000000E+02  0.51100000000E-03 0.  1.
         11   -1    0    0    0    0 -0.00000000000E+00 -0.00000000000E+00 -0.45593999997E+02  0.45594000000E+02  0.51100000000E-03 0. -1.
         23    2    1    2    0    0  0.17763568394E-14  0.00000000000E+00  0.71054273576E-14  0.91188000000E+02  0.91188000000E+02 0.  0.
    9900012    2    3    3    0    0  0.14521593312E+02 -0.85736725390E+01  0.32732092090E+02  0.54367158270E+02  0.40000168907E+02 0.  0.
         12    1    3    3    0    0 -0.14521593312E+02  0.85736725390E+01 -0.32732092090E+02  0.36820841730E+02  0.00000000000E+00 0. -1.
         11    1    4    4    0    0 -0.51307951034E+01  0.42196454576E+01 -0.22523536202E+00  0.66468938167E+01  0.51100000000E-03 0. -1.
        -11    1    4    4    0    0  0.10773683358E+02 -0.87232856886E+01  0.35084786308E+02  0.37724132818E+02  0.51100000000E-03 0.  1.
         12    1    4    4    0    0  0.88787050572E+01 -0.40700323080E+01 -0.21274588563E+01  0.99961316351E+01  0.00000000000E+00 0. -1.
</event>
<event>
 8    1  0.1248739E-006  0.9118800E+02  0.7816164E-02  0.1184000E+00
        -11   -1    0    0    0    0  0.00000000000E+00  0.00000000000E+00  0.45593999997E+02  0.45594000000E+02  0.51100000000E-03 0.  1.
         11   -1    0    0    0    0 -0.00000000000E+00 -0.00000000000E+00 -0.45593999997E+02  0.45594000000E+02  0.51100000000E-03 0. -1.
         23    2    1    2    0    0  0.00000000000E+00  0.00000000000E+00  0.00000000000E+00  0.91188000000E+02  0.91188000000E+02 0.  0.
    9900012    2    3    3    0    0  0.18591334269E+02 -0.29890332250E+02  0.10803481720E+02  0.54367015640E+02  0.39999843755E+02 0.  0.
         12    1    3    3    0    0 -0.18591334269E+02  0.29890332250E+02 -0.10803481720E+02  0.36820984360E+02  0.00000000000E+00 0. -1.
         11    1    4    4    0    0  0.57474959346E+01 -0.30937274171E+02  0.47726194512E+01  0.31826506867E+02  0.51100000000E-03 0. -1.
        -11    1    4    4    0    0  0.15507738239E+02 -0.20593648192E+01  0.48895896953E+00  0.15651517814E+02  0.51100000000E-03 0.  1.
         12    1    4    4    0    0 -0.26638999045E+01  0.31063067400E+01  0.55419032990E+01  0.68889909595E+01  0.00000000000E+00 0. -1.
</event>
<event>
 8    1  0.1248739E-006  0.9118800E+02  0.7816164E-02  0.1184000E+00
        -11   -1    0    0    0    0  0.00000000000E+00  0.00000000000E+00  0.45593999997E+02  0.45594000000E+02  0.51100000000E-03 0. -1.
         11   -1    0    0    0    0 -0.00000000000E+00 -0.00000000000E+00 -0.45593999997E+02  0.45594000000E+02  0.51100000000E-03 0.  1.
         23    2    1    2    0    0  0.00000000000E+00  0.22204460493E-15  0.00000000000E+00  0.91188000000E+02  0.91188000000E+02 0.  0.
    9900012    2    3    3    0    0  0.30856219472E+02 -0.18727085663E+01  0.20004187164E+02  0.54367070876E+02  0.39999969675E+02 0.  0.
        -12    1    3    3    0    0 -0.30856219472E+02  0.18727085663E+01 -0.20004187164E+02  0.36820929124E+02  0.00000000000E+00 0.  1.
         11    1    4    4    0    0  0.24636025310E+02  0.14528508390E+02  0.20052315726E+02  0.34930025269E+02  0.51100000000E-03 0. -1.
        -11    1    4    4    0    0  0.44696251261E+01 -0.19778543469E+01  0.37147113786E+00  0.49017800494E+01  0.51100000000E-03 0.  1.
        -12    1    4    4    0    0  0.17505690367E+01 -0.14423362609E+02 -0.41959969976E+00  0.14535265557E+02  0.00000000000E+00 0.  1.
</event>
<event>
 8    1  0.1248739E-006  0.9118800E+02  0.7816164E-02  0.1184000E+00
        -11   -1    0    0    0    0  0.00000000000E+00  0.00000000000E+00  0.45593999997E+02  0.45594000000E+02  0.51100000000E-03 0.  1.
         11   -1    0    0    0    0 -0.00000000000E+00 -0.00000000000E+00 -0.45593999997E+02  0.45594000000E+02  0.51100000000E-03 0. -1.
         23    2    1    2    0    0 -0.22204460493E-15 -0.71054273576E-14  0.35527136788E-14  0.91188000000E+02  0.91188000000E+02 0.  0.
    9900012    2    3    3    0    0  0.17377410826E+01 -0.25058671458E+02 -0.26922529672E+02  0.54367090678E+02  0.40000014819E+02 0.  0.
        -12    1    3    3    0    0 -0.17377410826E+01  0.25058671458E+02  0.26922529672E+02  0.36820909322E+02  0.00000000000E+00 0.  1.
         11    1    4    4    0    0 -0.30520409694E+01 -0.32370335995E+02 -0.14573195686E+02  0.35630487497E+02  0.51100000000E-03 0. -1.
        -11    1    4    4    0    0 -0.21828949447E+01  0.35287332228E+01 -0.93968943130E+01  0.10272225245E+02  0.51100000000E-03 0.  1.
        -12    1    4    4    0    0  0.69726769967E+01  0.37829313139E+01 -0.29524396736E+01  0.84643779366E+01  0.00000000000E+00 0.  1.
</event>
<event>
 8    1  0.1248739E-006  0.9118800E+02  0.7816164E-02  0.1184000E+00
        -11   -1    0    0    0    0  0.00000000000E+00  0.00000000000E+00  0.45593999997E+02  0.45594000000E+02  0.51100000000E-03 0.  1.
         11   -1    0    0    0    0 -0.00000000000E+00 -0.00000000000E+00 -0.45593999997E+02  0.45594000000E+02  0.51100000000E-03 0. -1.
         23    2    1    2    0    0  0.00000000000E+00 -0.88817841970E-15  0.00000000000E+00  0.91188000000E+02  0.91188000000E+02 0.  0.
    9900012    2    3    3    0    0  0.30603843573E+02 -0.71851407005E+01  0.19171834569E+02  0.54367072132E+02  0.39999972539E+02 0.  0.
         12    1    3    3    0    0 -0.30603843573E+02  0.71851407005E+01 -0.19171834569E+02  0.36820927868E+02  0.00000000000E+00 0. -1.
         11    1    4    4    0    0  0.45226320312E+01  0.16101792125E+01 -0.11203545465E+01  0.49297131922E+01  0.51100000000E-03 0. -1.
        -11    1    4    4    0    0  0.32969726779E+02 -0.11074074908E+02  0.22995475789E+02  0.41694483160E+02  0.51100000000E-03 0.  1.
        -12    1    4    4    0    0 -0.68885152378E+01  0.22787549948E+01 -0.27032866730E+01  0.77428757799E+01  0.00000000000E+00 0.  1.
</event>
<event>
 8    1  0.1248739E-006  0.9118800E+02  0.7816164E-02  0.1184000E+00
        -11   -1    0    0    0    0  0.00000000000E+00  0.00000000000E+00  0.45593999997E+02  0.45594000000E+02  0.51100000000E-03 0.  1.
         11   -1    0    0    0    0 -0.00000000000E+00 -0.00000000000E+00 -0.45593999997E+02  0.45594000000E+02  0.51100000000E-03 0. -1.
         23    2    1    2    0    0  0.00000000000E+00 -0.88817841970E-15 -0.35527136788E-14  0.91188000000E+02  0.91188000000E+02 0.  0.
    9900012    2    3    3    0    0 -0.21719283715E+02  0.46151041476E+01 -0.29372698139E+02  0.54367056674E+02  0.39999937300E+02 0.  0.
        -12    1    3    3    0    0  0.21719283715E+02 -0.46151041476E+01  0.29372698139E+02  0.36820943326E+02  0.00000000000E+00 0.  1.
         11    1    4    4    0    0 -0.18705551364E+02  0.10857410868E+02 -0.11162614988E+02  0.24338960459E+02  0.51100000000E-03 0. -1.
        -11    1    4    4    0    0  0.93089240298E+00  0.81807461463E+01 -0.10055476851E+02  0.12996298824E+02  0.51100000000E-03 0.  1.
         12    1    4    4    0    0 -0.39446247542E+01 -0.14423052867E+02 -0.81546063012E+01  0.17031797391E+02  0.00000000000E+00 0. -1.
</event>
<event>
 8    1  0.1248739E-006  0.9118800E+02  0.7816164E-02  0.1184000E+00
        -11   -1    0    0    0    0  0.00000000000E+00  0.00000000000E+00  0.45593999997E+02  0.45594000000E+02  0.51100000000E-03 0. -1.
         11   -1    0    0    0    0 -0.00000000000E+00 -0.00000000000E+00 -0.45593999997E+02  0.45594000000E+02  0.51100000000E-03 0.  1.
         23    2    1    2    0    0  0.00000000000E+00  0.00000000000E+00  0.00000000000E+00  0.91188000000E+02  0.91188000000E+02 0.  0.
    9900012    2    3    3    0    0  0.29316198282E+02 -0.19751941487E+02  0.10305381248E+02  0.54367088049E+02  0.40000008826E+02 0.  0.
         12    1    3    3    0    0 -0.29316198282E+02  0.19751941487E+02 -0.10305381248E+02  0.36820911951E+02  0.00000000000E+00 0. -1.
         11    1    4    4    0    0  0.10688564112E+02 -0.29489238253E+01  0.73494314283E+01  0.13302469586E+02  0.51100000000E-03 0. -1.
        -11    1    4    4    0    0  0.95494853064E+01 -0.24495314631E+02 -0.49848832541E+01  0.26759337992E+02  0.51100000000E-03 0.  1.
        -12    1    4    4    0    0  0.90781488633E+01  0.76922969687E+01  0.79408330737E+01  0.14305280471E+02  0.00000000000E+00 0.  1.
</event>
<event>
 8    1  0.1248739E-006  0.9118800E+02  0.7816164E-02  0.1184000E+00
        -11   -1    0    0    0    0  0.00000000000E+00  0.00000000000E+00  0.45593999997E+02  0.45594000000E+02  0.51100000000E-03 0. -1.
         11   -1    0    0    0    0 -0.00000000000E+00 -0.00000000000E+00 -0.45593999997E+02  0.45594000000E+02  0.51100000000E-03 0.  1.
         23    2    1    2    0    0  0.00000000000E+00  0.00000000000E+00  0.00000000000E+00  0.91188000000E+02  0.91188000000E+02 0.  0.
    9900012    2    3    3    0    0 -0.20861827501E+02  0.64148571558E+01 -0.29654898124E+02  0.54367092600E+02  0.40000019200E+02 0.  0.
         12    1    3    3    0    0  0.20861827501E+02 -0.64148571558E+01  0.29654898124E+02  0.36820907400E+02  0.00000000000E+00 0. -1.
         11    1    4    4    0    0 -0.58912075032E+01 -0.54705521052E+01 -0.45402671461E+01  0.92329460196E+01  0.51100000000E-03 0. -1.
        -11    1    4    4    0    0 -0.24094955365E+02  0.27650504869E+01 -0.13403200811E+02  0.27710253887E+02  0.51100000000E-03 0.  1.
         12    1    4    4    0    0  0.91243353667E+01  0.91203587741E+01 -0.11711430167E+02  0.17423892694E+02  0.00000000000E+00 0. -1.
</event>
<event>
 8    1  0.1248739E-006  0.9118800E+02  0.7816164E-02  0.1184000E+00
        -11   -1    0    0    0    0  0.00000000000E+00  0.00000000000E+00  0.45593999997E+02  0.45594000000E+02  0.51100000000E-03 0.  1.
         11   -1    0    0    0    0 -0.00000000000E+00 -0.00000000000E+00 -0.45593999997E+02  0.45594000000E+02  0.51100000000E-03 0. -1.
         23    2    1    2    0    0  0.00000000000E+00  0.00000000000E+00 -0.35527136788E-14  0.91188000000E+02  0.91188000000E+02 0.  0.
    9900012    2    3    3    0    0 -0.21342067569E+02 -0.23642149245E+02  0.18475416175E+02  0.54367135373E+02  0.40000116710E+02 0.  0.
         12    1    3    3    0    0  0.21342067569E+02  0.23642149245E+02 -0.18475416175E+02  0.36820864627E+02  0.00000000000E+00 0. -1.
         11    1    4    4    0    0 -0.12670098871E+02 -0.22706409534E+02 -0.94015211540E+00  0.26019153053E+02  0.51100000000E-03 0. -1.
        -11    1    4    4    0    0 -0.16991908171E+01 -0.25060679784E+01 -0.33330355725E+01  0.45029715227E+01  0.51100000000E-03 0.  1.
        -12    1    4    4    0    0 -0.69727778810E+01  0.15703282675E+01  0.22748603863E+02  0.23845010798E+02  0.00000000000E+00 0.  1.
</event>
<event>
 8    1  0.1248739E-006  0.9118800E+02  0.7816164E-02  0.1184000E+00
        -11   -1    0    0    0    0  0.00000000000E+00  0.00000000000E+00  0.45593999997E+02  0.45594000000E+02  0.51100000000E-03 0.  1.
         11   -1    0    0    0    0 -0.00000000000E+00 -0.00000000000E+00 -0.45593999997E+02  0.45594000000E+02  0.51100000000E-03 0. -1.
         23    2    1    2    0    0  0.00000000000E+00  0.00000000000E+00  0.00000000000E+00  0.91188000000E+02  0.91188000000E+02 0.  0.
    9900012    2    3    3    0    0 -0.32824259157E+02  0.15710014688E+02 -0.56169773335E+01  0.54366987180E+02  0.39999778875E+02 0.  0.
         12    1    3    3    0    0  0.32824259157E+02 -0.15710014688E+02  0.56169773335E+01  0.36821012820E+02  0.00000000000E+00 0. -1.
         11    1    4    4    0    0 -0.23588435676E+00  0.75286302736E+01 -0.72132416187E+01  0.10429130843E+02  0.51100000000E-03 0. -1.
        -11    1    4    4    0    0 -0.31483140082E+02  0.16323289355E+02 -0.46668624728E+00  0.35466261166E+02  0.51100000000E-03 0.  1.
         12    1    4    4    0    0 -0.11052347181E+01 -0.81419049409E+01  0.20629505325E+01  0.84715951714E+01  0.00000000000E+00 0. -1.
</event>
<event>
 8    1  0.1248739E-006  0.9118800E+02  0.7816164E-02  0.1184000E+00
        -11   -1    0    0    0    0  0.00000000000E+00  0.00000000000E+00  0.45593999997E+02  0.45594000000E+02  0.51100000000E-03 0.  1.
         11   -1    0    0    0    0 -0.00000000000E+00 -0.00000000000E+00 -0.45593999997E+02  0.45594000000E+02  0.51100000000E-03 0. -1.
         23    2    1    2    0    0  0.17763568394E-14 -0.66613381478E-15  0.00000000000E+00  0.91188000000E+02  0.91188000000E+02 0.  0.
    9900012    2    3    3    0    0 -0.10008289119E+02 -0.11097280737E+01 -0.35417307899E+02  0.54367040666E+02  0.39999900805E+02 0.  0.
        -12    1    3    3    0    0  0.10008289119E+02  0.11097280737E+01  0.35417307899E+02  0.36820959334E+02  0.00000000000E+00 0.  1.
         11    1    4    4    0    0  0.33636083272E+00 -0.47883234428E+01 -0.26694497255E+02  0.27122635638E+02  0.51100000000E-03 0. -1.
        -11    1    4    4    0    0 -0.10974421134E+02 -0.19647548088E+01 -0.15058477141E+02  0.18736486190E+02  0.51100000000E-03 0.  1.
        -12    1    4    4    0    0  0.62977118184E+00  0.56433501780E+01  0.63356664975E+01  0.85079188372E+01  0.00000000000E+00 0.  1.
</event>
<event>
 8    1  0.1248739E-006  0.9118800E+02  0.7816164E-02  0.1184000E+00
        -11   -1    0    0    0    0  0.00000000000E+00  0.00000000000E+00  0.45593999997E+02  0.45594000000E+02  0.51100000000E-03 0. -1.
         11   -1    0    0    0    0 -0.00000000000E+00 -0.00000000000E+00 -0.45593999997E+02  0.45594000000E+02  0.51100000000E-03 0.  1.
         23    2    1    2    0    0  0.35527136788E-14  0.00000000000E+00  0.44408920985E-15  0.91188000000E+02  0.91188000000E+02 0.  0.
    9900012    2    3    3    0    0  0.76684384575E+01 -0.35807940425E+02 -0.38425797413E+01  0.54367096087E+02  0.40000027150E+02 0.  0.
         12    1    3    3    0    0 -0.76684384575E+01  0.35807940425E+02  0.38425797413E+01  0.36820903913E+02  0.00000000000E+00 0. -1.
         11    1    4    4    0    0 -0.99341036488E+01 -0.36815750323E+01  0.29162835469E+01  0.10988408438E+02  0.51100000000E-03 0. -1.
        -11    1    4    4    0    0  0.49928690262E+01 -0.26519272622E+02 -0.10696413956E+02  0.29027811376E+02  0.51100000000E-03 0.  1.
         12    1    4    4    0    0  0.12609673080E+02 -0.56070927715E+01  0.39375506683E+01  0.14350876273E+02  0.00000000000E+00 0. -1.
</event>
<event>
 8    1  0.1248739E-006  0.9118800E+02  0.7816164E-02  0.1184000E+00
        -11   -1    0    0    0    0  0.00000000000E+00  0.00000000000E+00  0.45593999997E+02  0.45594000000E+02  0.51100000000E-03 0.  1.
         11   -1    0    0    0    0 -0.00000000000E+00 -0.00000000000E+00 -0.45593999997E+02  0.45594000000E+02  0.51100000000E-03 0. -1.
         23    2    1    2    0    0  0.00000000000E+00 -0.17763568394E-14  0.00000000000E+00  0.91188000000E+02  0.91188000000E+02 0.  0.
    9900012    2    3    3    0    0  0.14502877286E+02  0.14176117281E+02 -0.30732491959E+02  0.54367057416E+02  0.39999938992E+02 0.  0.
        -12    1    3    3    0    0 -0.14502877286E+02 -0.14176117281E+02  0.30732491959E+02  0.36820942584E+02  0.00000000000E+00 0.  1.
         11    1    4    4    0    0 -0.20388801860E+01 -0.55834748430E+00 -0.86353698512E+01  0.88903541580E+01  0.51100000000E-03 0. -1.
        -11    1    4    4    0    0  0.22351221844E+02  0.20683038151E+02 -0.21217945815E+02  0.37115581768E+02  0.51100000000E-03 0.  1.
        -12    1    4    4    0    0 -0.58094643725E+01 -0.59485733861E+01 -0.87917629372E+00  0.83611214906E+01  0.00000000000E+00 0.  1.
</event>
<event>
 8    1  0.1248739E-006  0.9118800E+02  0.7816164E-02  0.1184000E+00
        -11   -1    0    0    0    0  0.00000000000E+00  0.00000000000E+00  0.45593999997E+02  0.45594000000E+02  0.51100000000E-03 0.  1.
         11   -1    0    0    0    0 -0.00000000000E+00 -0.00000000000E+00 -0.45593999997E+02  0.45594000000E+02  0.51100000000E-03 0. -1.
         23    2    1    2    0    0 -0.35527136788E-14 -0.35527136788E-14  0.35527136788E-14  0.91188000000E+02  0.91188000000E+02 0.  0.
    9900012    2    3    3    0    0 -0.22479281347E+02 -0.22005844705E+02  0.19136428065E+02  0.54367106881E+02  0.40000051755E+02 0.  0.
        -12    1    3    3    0    0  0.22479281347E+02  0.22005844705E+02 -0.19136428065E+02  0.36820893119E+02  0.00000000000E+00 0.  1.
         11    1    4    4    0    0 -0.12087457543E+02 -0.74511868348E+01  0.16103975177E+02  0.21470091567E+02  0.51100000000E-03 0. -1.
        -11    1    4    4    0    0 -0.39722855057E+01 -0.19681746687E+01  0.14207331853E+02  0.14882911083E+02  0.51100000000E-03 0.  1.
         12    1    4    4    0    0 -0.64195382979E+01 -0.12586483201E+02 -0.11174878966E+02  0.18014104231E+02  0.00000000000E+00 0. -1.
</event>
<event>
 8    1  0.1248739E-006  0.9118800E+02  0.7816164E-02  0.1184000E+00
        -11   -1    0    0    0    0  0.00000000000E+00  0.00000000000E+00  0.45593999997E+02  0.45594000000E+02  0.51100000000E-03 0. -1.
         11   -1    0    0    0    0 -0.00000000000E+00 -0.00000000000E+00 -0.45593999997E+02  0.45594000000E+02  0.51100000000E-03 0.  1.
         23    2    1    2    0    0  0.00000000000E+00  0.17763568394E-14  0.71054273576E-14  0.91188000000E+02  0.91188000000E+02 0.  0.
    9900012    2    3    3    0    0 -0.17687190215E+02  0.41521393978E+01 -0.32026595622E+02  0.54367084932E+02  0.40000001720E+02 0.  0.
         12    1    3    3    0    0  0.17687190215E+02 -0.41521393978E+01  0.32026595622E+02  0.36820915068E+02  0.00000000000E+00 0. -1.
         11    1    4    4    0    0  0.58392038837E+01  0.10566029993E+02 -0.15785088952E+02  0.19872250131E+02  0.51100000000E-03 0. -1.
        -11    1    4    4    0    0 -0.66324050640E+01  0.19211019091E+01  0.30343502330E+01  0.75423279613E+01  0.51100000000E-03 0.  1.
        -12    1    4    4    0    0 -0.16893989035E+02 -0.83349925047E+01 -0.19275856904E+02  0.26952506839E+02  0.00000000000E+00 0.  1.
</event>
<event>
 8    1  0.1248739E-006  0.9118800E+02  0.7816164E-02  0.1184000E+00
        -11   -1    0    0    0    0  0.00000000000E+00  0.00000000000E+00  0.45593999997E+02  0.45594000000E+02  0.51100000000E-03 0. -1.
         11   -1    0    0    0    0 -0.00000000000E+00 -0.00000000000E+00 -0.45593999997E+02  0.45594000000E+02  0.51100000000E-03 0.  1.
         23    2    1    2    0    0 -0.35527136788E-14  0.00000000000E+00  0.00000000000E+00  0.91188000000E+02  0.91188000000E+02 0.  0.
    9900012    2    3    3    0    0 -0.22469387722E+02 -0.28848425075E+02 -0.43213746797E+01  0.54367091632E+02  0.40000016994E+02 0.  0.
         12    1    3    3    0    0  0.22469387722E+02  0.28848425075E+02  0.43213746797E+01  0.36820908368E+02  0.00000000000E+00 0. -1.
         11    1    4    4    0    0 -0.22462999753E+02 -0.16297742376E+02  0.40207519210E+01  0.28042275420E+02  0.51100000000E-03 0. -1.
        -11    1    4    4    0    0  0.21219216171E+01 -0.17678898999E+02 -0.20346028951E+01  0.17921652557E+02  0.51100000000E-03 0.  1.
        -12    1    4    4    0    0 -0.21283095863E+01  0.51282163003E+01 -0.63075237055E+01  0.84031636551E+01  0.00000000000E+00 0.  1.
</event>
<event>
 8    1  0.1248739E-006  0.9118800E+02  0.7816164E-02  0.1184000E+00
        -11   -1    0    0    0    0  0.00000000000E+00  0.00000000000E+00  0.45593999997E+02  0.45594000000E+02  0.51100000000E-03 0.  1.
         11   -1    0    0    0    0 -0.00000000000E+00 -0.00000000000E+00 -0.45593999997E+02  0.45594000000E+02  0.51100000000E-03 0. -1.
         23    2    1    2    0    0  0.00000000000E+00 -0.71054273576E-14  0.35527136788E-14  0.91188000000E+02  0.91188000000E+02 0.  0.
    9900012    2    3    3    0    0  0.71038422730E+01 -0.21240428363E+02  0.29226010554E+02  0.54367081149E+02  0.39999993096E+02 0.  0.
        -12    1    3    3    0    0 -0.71038422730E+01  0.21240428363E+02 -0.29226010554E+02  0.36820918851E+02  0.00000000000E+00 0.  1.
         11    1    4    4    0    0 -0.57210687695E+01 -0.27065683717E+01  0.25217455453E+01  0.68128805268E+01  0.51100000000E-03 0. -1.
        -11    1    4    4    0    0 -0.71327498771E+01 -0.29742367967E+01  0.19901782664E+02  0.21349547039E+02  0.51100000000E-03 0.  1.
         12    1    4    4    0    0  0.19957660920E+02 -0.15559623195E+02  0.68024823455E+01  0.26204653583E+02  0.00000000000E+00 0. -1.
</event>
<event>
 8    1  0.1248739E-006  0.9118800E+02  0.7816164E-02  0.1184000E+00
        -11   -1    0    0    0    0  0.00000000000E+00  0.00000000000E+00  0.45593999997E+02  0.45594000000E+02  0.51100000000E-03 0.  1.
         11   -1    0    0    0    0 -0.00000000000E+00 -0.00000000000E+00 -0.45593999997E+02  0.45594000000E+02  0.51100000000E-03 0. -1.
         23    2    1    2    0    0 -0.33306690739E-15  0.00000000000E+00  0.53290705182E-14  0.91188000000E+02  0.91188000000E+02 0.  0.
    9900012    2    3    3    0    0  0.68711809959E+00  0.35071703120E+02  0.11192590580E+02  0.54367210018E+02  0.40000286876E+02 0.  0.
        -12    1    3    3    0    0 -0.68711809959E+00 -0.35071703120E+02 -0.11192590580E+02  0.36820789982E+02  0.00000000000E+00 0.  1.
         11    1    4    4    0    0  0.45516662400E+01  0.12529549627E+02  0.21486951315E+02  0.25286287914E+02  0.51100000000E-03 0.  1.
        -11    1    4    4    0    0  0.21742838989E+01  0.20258342433E+02 -0.57005351747E+01  0.21157127644E+02  0.51100000000E-03 0. -1.
        -12    1    4    4    0    0 -0.60388320393E+01  0.22838110602E+01 -0.45938255602E+01  0.79237944594E+01  0.00000000000E+00 0.  1.
</event>
<event>
 8    1  0.1248739E-006  0.9118800E+02  0.7816164E-02  0.1184000E+00
        -11   -1    0    0    0    0  0.00000000000E+00  0.00000000000E+00  0.45593999997E+02  0.45594000000E+02  0.51100000000E-03 0. -1.
         11   -1    0    0    0    0 -0.00000000000E+00 -0.00000000000E+00 -0.45593999997E+02  0.45594000000E+02  0.51100000000E-03 0.  1.
         23    2    1    2    0    0  0.00000000000E+00  0.17763568394E-14  0.35527136788E-14  0.91188000000E+02  0.91188000000E+02 0.  0.
    9900012    2    3    3    0    0  0.34368627264E+02 -0.36233021882E+01 -0.12706232322E+02  0.54367092915E+02  0.40000019919E+02 0.  0.
        -12    1    3    3    0    0 -0.34368627264E+02  0.36233021882E+01  0.12706232322E+02  0.36820907085E+02  0.00000000000E+00 0.  1.
         11    1    4    4    0    0  0.16243539475E+02  0.12624928454E+02  0.74520155623E+00  0.20586323585E+02  0.51100000000E-03 0. -1.
        -11    1    4    4    0    0 -0.36223987568E+01 -0.21739118799E+00 -0.66497094988E-01  0.36295252866E+01  0.51100000000E-03 0.  1.
        -12    1    4    4    0    0  0.21747486546E+02 -0.16030839454E+02 -0.13384936783E+02  0.30151244043E+02  0.00000000000E+00 0.  1.
</event>
<event>
 8    1  0.1248739E-006  0.9118800E+02  0.7816164E-02  0.1184000E+00
        -11   -1    0    0    0    0  0.00000000000E+00  0.00000000000E+00  0.45593999997E+02  0.45594000000E+02  0.51100000000E-03 0.  1.
         11   -1    0    0    0    0 -0.00000000000E+00 -0.00000000000E+00 -0.45593999997E+02  0.45594000000E+02  0.51100000000E-03 0. -1.
         23    2    1    2    0    0  0.00000000000E+00 -0.35527136788E-14  0.00000000000E+00  0.91188000000E+02  0.91188000000E+02 0.  0.
    9900012    2    3    3    0    0  0.20048400787E+02  0.21421141442E+02 -0.22248073051E+02  0.54367076203E+02  0.39999981819E+02 0.  0.
        -12    1    3    3    0    0 -0.20048400787E+02 -0.21421141442E+02  0.22248073051E+02  0.36820923797E+02  0.00000000000E+00 0.  1.
         11    1    4    4    0    0  0.11268097082E+02 -0.36599079895E+01 -0.17564729934E+02  0.21186898694E+02  0.51100000000E-03 0. -1.
        -11    1    4    4    0    0  0.96903824724E+01  0.28256277669E+01  0.11383362771E+01  0.10157927667E+02  0.51100000000E-03 0.  1.
        -12    1    4    4    0    0 -0.91007876772E+00  0.22255421665E+02 -0.58216793944E+01  0.23022249843E+02  0.00000000000E+00 0.  1.
</event>
<event>
 8    1  0.1248739E-006  0.9118800E+02  0.7816164E-02  0.1184000E+00
        -11   -1    0    0    0    0  0.00000000000E+00  0.00000000000E+00  0.45593999997E+02  0.45594000000E+02  0.51100000000E-03 0. -1.
         11   -1    0    0    0    0 -0.00000000000E+00 -0.00000000000E+00 -0.45593999997E+02  0.45594000000E+02  0.51100000000E-03 0.  1.
         23    2    1    2    0    0  0.00000000000E+00 -0.35527136788E-14  0.44408920985E-15  0.91188000000E+02  0.91188000000E+02 0.  0.
    9900012    2    3    3    0    0  0.19419221250E+02  0.31118468404E+02  0.32118116405E+01  0.54367068945E+02  0.39999965274E+02 0.  0.
        -12    1    3    3    0    0 -0.19419221250E+02 -0.31118468404E+02 -0.32118116405E+01  0.36820931055E+02  0.00000000000E+00 0.  1.
         11    1    4    4    0    0  0.15207589034E+02 -0.39446640023E+01  0.32779566499E+01  0.16049178745E+02  0.51100000000E-03 0.  1.
        -11    1    4    4    0    0  0.47754914530E+01  0.19759885286E+01 -0.72890666223E+00  0.52193059372E+01  0.51100000000E-03 0. -1.
         12    1    4    4    0    0 -0.56385923715E+00  0.33087143877E+02  0.66276165285E+00  0.33098584263E+02  0.00000000000E+00 0. -1.
</event>
<event>
 8    1  0.1248739E-006  0.9118800E+02  0.7816164E-02  0.1184000E+00
        -11   -1    0    0    0    0  0.00000000000E+00  0.00000000000E+00  0.45593999997E+02  0.45594000000E+02  0.51100000000E-03 0.  1.
         11   -1    0    0    0    0 -0.00000000000E+00 -0.00000000000E+00 -0.45593999997E+02  0.45594000000E+02  0.51100000000E-03 0. -1.
         23    2    1    2    0    0  0.00000000000E+00 -0.19984014443E-14  0.00000000000E+00  0.91188000000E+02  0.91188000000E+02 0.  0.
    9900012    2    3    3    0    0  0.35831662423E+02  0.12504373441E+01 -0.83850706779E+01  0.54367067967E+02  0.39999963043E+02 0.  0.
         12    1    3    3    0    0 -0.35831662423E+02 -0.12504373441E+01  0.83850706779E+01  0.36820932033E+02  0.00000000000E+00 0. -1.
         11    1    4    4    0    0  0.42131302777E+00  0.64352528645E+01  0.18949207834E+01  0.67216597008E+01  0.51100000000E-03 0. -1.
        -11    1    4    4    0    0  0.11494046341E+02  0.12140168603E+02 -0.62096033483E+01  0.17834123724E+02  0.51100000000E-03 0.  1.
        -12    1    4    4    0    0  0.23916303055E+02 -0.17324984123E+02 -0.40703881130E+01  0.29811284542E+02  0.00000000000E+00 0.  1.
</event>
<event>
 8    1  0.1248739E-006  0.9118800E+02  0.7816164E-02  0.1184000E+00
        -11   -1    0    0    0    0  0.00000000000E+00  0.00000000000E+00  0.45593999997E+02  0.45594000000E+02  0.51100000000E-03 0.  1.
         11   -1    0    0    0    0 -0.00000000000E+00 -0.00000000000E+00 -0.45593999997E+02  0.45594000000E+02  0.51100000000E-03 0. -1.
         23    2    1    2    0    0  0.00000000000E+00  0.14432899320E-14  0.71054273576E-14  0.91188000000E+02  0.91188000000E+02 0.  0.
    9900012    2    3    3    0    0 -0.44983109296E+01  0.32779469728E+00 -0.36543645084E+02  0.54367078684E+02  0.39999987475E+02 0.  0.
        -12    1    3    3    0    0  0.44983109296E+01 -0.32779469728E+00  0.36543645084E+02  0.36820921316E+02  0.00000000000E+00 0.  1.
         11    1    4    4    0    0 -0.71400898351E+01 -0.58539710197E+01 -0.18165444622E+02  0.20377272588E+02  0.51100000000E-03 0. -1.
        -11    1    4    4    0    0  0.59529567261E+01 -0.86522127276E+01 -0.48620591788E+00  0.10513556740E+02  0.51100000000E-03 0.  1.
        -12    1    4    4    0    0 -0.33111778206E+01  0.14833978445E+02 -0.17891994544E+02  0.23476249356E+02  0.00000000000E+00 0.  1.
</event>
<event>
 8    1  0.1248739E-006  0.9118800E+02  0.7816164E-02  0.1184000E+00
        -11   -1    0    0    0    0  0.00000000000E+00  0.00000000000E+00  0.45593999997E+02  0.45594000000E+02  0.51100000000E-03 0. -1.
         11   -1    0    0    0    0 -0.00000000000E+00 -0.00000000000E+00 -0.45593999997E+02  0.45594000000E+02  0.51100000000E-03 0.  1.
         23    2    1    2    0    0  0.00000000000E+00  0.00000000000E+00 -0.71054273576E-14  0.91188000000E+02  0.91188000000E+02 0.  0.
    9900012    2    3    3    0    0  0.11489724038E+02  0.41834221976E+01 -0.34731333089E+02  0.54367078259E+02  0.39999986506E+02 0.  0.
         12    1    3    3    0    0 -0.11489724038E+02 -0.41834221976E+01  0.34731333089E+02  0.36820921741E+02  0.00000000000E+00 0. -1.
         11    1    4    4    0    0 -0.52362975227E+01  0.37375954959E+01 -0.25225635622E+01  0.69102647578E+01  0.51100000000E-03 0.  1.
        -11    1    4    4    0    0 -0.13290804660E+01 -0.11279936237E+02 -0.41541591474E+01  0.12093818871E+02  0.51100000000E-03 0. -1.
        -12    1    4    4    0    0  0.18055102027E+02  0.11725762939E+02 -0.28054610379E+02  0.35362994630E+02  0.00000000000E+00 0.  1.
</event>
<event>
 8    1  0.1248739E-006  0.9118800E+02  0.7816164E-02  0.1184000E+00
        -11   -1    0    0    0    0  0.00000000000E+00  0.00000000000E+00  0.45593999997E+02  0.45594000000E+02  0.51100000000E-03 0.  1.
         11   -1    0    0    0    0 -0.00000000000E+00 -0.00000000000E+00 -0.45593999997E+02  0.45594000000E+02  0.51100000000E-03 0. -1.
         23    2    1    2    0    0  0.00000000000E+00  0.00000000000E+00  0.00000000000E+00  0.91188000000E+02  0.91188000000E+02 0.  0.
    9900012    2    3    3    0    0 -0.14334288086E+02 -0.20686324993E+01  0.33853241231E+02  0.54366905541E+02  0.39999592759E+02 0.  0.
         12    1    3    3    0    0  0.14334288086E+02  0.20686324993E+01 -0.33853241231E+02  0.36821094459E+02  0.00000000000E+00 0. -1.
         11    1    4    4    0    0 -0.17656698271E+01  0.16816857049E+01  0.22207787635E+02  0.22341250830E+02  0.51100000000E-03 0. -1.
        -11    1    4    4    0    0  0.38365855996E+01 -0.22436314329E+01  0.14623871550E+02  0.15284334805E+02  0.51100000000E-03 0.  1.
         12    1    4    4    0    0 -0.16405203858E+02 -0.15066867713E+01 -0.29784179541E+01  0.16741319905E+02  0.00000000000E+00 0. -1.
</event>
<event>
 8    1  0.1248739E-006  0.9118800E+02  0.7816164E-02  0.1184000E+00
        -11   -1    0    0    0    0  0.00000000000E+00  0.00000000000E+00  0.45593999997E+02  0.45594000000E+02  0.51100000000E-03 0.  1.
         11   -1    0    0    0    0 -0.00000000000E+00 -0.00000000000E+00 -0.45593999997E+02  0.45594000000E+02  0.51100000000E-03 0. -1.
         23    2    1    2    0    0  0.17763568394E-14  0.00000000000E+00  0.00000000000E+00  0.91188000000E+02  0.91188000000E+02 0.  0.
    9900012    2    3    3    0    0 -0.89908565535E+01 -0.22724115962E+02  0.27541914597E+02  0.54367109089E+02  0.40000056790E+02 0.  0.
         12    1    3    3    0    0  0.89908565535E+01  0.22724115962E+02 -0.27541914597E+02  0.36820890911E+02  0.00000000000E+00 0. -1.
         11    1    4    4    0    0 -0.11056336584E+02 -0.97077203049E+01  0.12823766081E+02  0.19517463691E+02  0.51100000000E-03 0.  1.
        -11    1    4    4    0    0  0.82707442656E+01  0.54408198978E+01  0.11396530684E+02  0.15095981046E+02  0.51100000000E-03 0. -1.
         12    1    4    4    0    0 -0.62052642348E+01 -0.18457215555E+02  0.33216178323E+01  0.19753664351E+02  0.00000000000E+00 0. -1.
</event>
<event>
 8    1  0.1248739E-006  0.9118800E+02  0.7816164E-02  0.1184000E+00
        -11   -1    0    0    0    0  0.00000000000E+00  0.00000000000E+00  0.45593999997E+02  0.45594000000E+02  0.51100000000E-03 0. -1.
         11   -1    0    0    0    0 -0.00000000000E+00 -0.00000000000E+00 -0.45593999997E+02  0.45594000000E+02  0.51100000000E-03 0.  1.
         23    2    1    2    0    0  0.00000000000E+00 -0.71054273576E-14  0.00000000000E+00  0.91188000000E+02  0.91188000000E+02 0.  0.
    9900012    2    3    3    0    0  0.24430548386E+02  0.18943981448E+02  0.20001339802E+02  0.54367085815E+02  0.40000003732E+02 0.  0.
        -12    1    3    3    0    0 -0.24430548386E+02 -0.18943981448E+02 -0.20001339802E+02  0.36820914185E+02  0.00000000000E+00 0.  1.
         11    1    4    4    0    0  0.15729958249E+02  0.24281436268E+02  0.10444531588E+01  0.28950140180E+02  0.51100000000E-03 0. -1.
        -11    1    4    4    0    0  0.53822666215E+01 -0.95602700604E+01  0.93685378156E+01  0.14426955974E+02  0.51100000000E-03 0.  1.
        -12    1    4    4    0    0  0.33183235152E+01  0.42228152402E+01  0.95883488277E+01  0.10989989661E+02  0.00000000000E+00 0.  1.
</event>
<event>
 8    1  0.1248739E-006  0.9118800E+02  0.7816164E-02  0.1184000E+00
        -11   -1    0    0    0    0  0.00000000000E+00  0.00000000000E+00  0.45593999997E+02  0.45594000000E+02  0.51100000000E-03 0.  1.
         11   -1    0    0    0    0 -0.00000000000E+00 -0.00000000000E+00 -0.45593999997E+02  0.45594000000E+02  0.51100000000E-03 0. -1.
         23    2    1    2    0    0  0.00000000000E+00 -0.17763568394E-14  0.00000000000E+00  0.91188000000E+02  0.91188000000E+02 0.  0.
    9900012    2    3    3    0    0  0.12235992152E+02  0.82283038848E+01  0.33739524449E+02  0.54367082048E+02  0.39999995145E+02 0.  0.
         12    1    3    3    0    0 -0.12235992152E+02 -0.82283038848E+01 -0.33739524449E+02  0.36820917952E+02  0.00000000000E+00 0. -1.
         11    1    4    4    0    0  0.12396922835E+02 -0.14143063961E+02  0.13152289224E+02  0.22949785752E+02  0.51100000000E-03 0. -1.
        -11    1    4    4    0    0 -0.16682871202E+01  0.81033877685E+01  0.12375030849E+02  0.14885881365E+02  0.51100000000E-03 0.  1.
         12    1    4    4    0    0  0.15073564375E+01  0.14267980077E+02  0.82122043767E+01  0.16531414931E+02  0.00000000000E+00 0. -1.
</event>
<event>
 8    1  0.1248739E-006  0.9118800E+02  0.7816164E-02  0.1184000E+00
        -11   -1    0    0    0    0  0.00000000000E+00  0.00000000000E+00  0.45593999997E+02  0.45594000000E+02  0.51100000000E-03 0.  1.
         11   -1    0    0    0    0 -0.00000000000E+00 -0.00000000000E+00 -0.45593999997E+02  0.45594000000E+02  0.51100000000E-03 0. -1.
         23    2    1    2    0    0 -0.44408920985E-15  0.00000000000E+00  0.17763568394E-14  0.91188000000E+02  0.91188000000E+02 0.  0.
    9900012    2    3    3    0    0  0.18294509658E+01  0.36306311988E+02  0.58553275421E+01  0.54367081467E+02  0.39999993820E+02 0.  0.
        -12    1    3    3    0    0 -0.18294509658E+01 -0.36306311988E+02 -0.58553275421E+01  0.36820918533E+02  0.00000000000E+00 0.  1.
         11    1    4    4    0    0 -0.67694116698E+01  0.74866423636E+01 -0.80430346617E+01  0.12906012361E+02  0.51100000000E-03 0. -1.
        -11    1    4    4    0    0  0.16023411301E+02  0.12878745838E+02  0.11924153094E+02  0.23765462994E+02  0.51100000000E-03 0.  1.
        -12    1    4    4    0    0 -0.74245486649E+01  0.15940923786E+02  0.19742091102E+01  0.17695606111E+02  0.00000000000E+00 0.  1.
</event>
<event>
 8    1  0.1248739E-006  0.9118800E+02  0.7816164E-02  0.1184000E+00
        -11   -1    0    0    0    0  0.00000000000E+00  0.00000000000E+00  0.45593999997E+02  0.45594000000E+02  0.51100000000E-03 0. -1.
         11   -1    0    0    0    0 -0.00000000000E+00 -0.00000000000E+00 -0.45593999997E+02  0.45594000000E+02  0.51100000000E-03 0.  1.
         23    2    1    2    0    0  0.71054273576E-14 -0.44408920985E-15  0.26645352591E-14  0.91188000000E+02  0.91188000000E+02 0.  0.
    9900012    2    3    3    0    0 -0.36624093622E+02 -0.35638615309E+01 -0.13246896758E+01  0.54367080058E+02  0.39999990609E+02 0.  0.
        -12    1    3    3    0    0  0.36624093622E+02  0.35638615309E+01  0.13246896758E+01  0.36820919942E+02  0.00000000000E+00 0.  1.
         11    1    4    4    0    0 -0.63380128178E+01 -0.31246546021E+00 -0.10407167000E+02  0.12189223370E+02  0.51100000000E-03 0. -1.
        -11    1    4    4    0    0 -0.73040000449E+01  0.47286262852E+01 -0.84979583885E+01  0.12162385466E+02  0.51100000000E-03 0.  1.
         12    1    4    4    0    0 -0.22982080759E+02 -0.79800223558E+01  0.17580435713E+02  0.30015471222E+02  0.00000000000E+00 0. -1.
</event>
<event>
 8    1  0.1248739E-006  0.9118800E+02  0.7816164E-02  0.1184000E+00
        -11   -1    0    0    0    0  0.00000000000E+00  0.00000000000E+00  0.45593999997E+02  0.45594000000E+02  0.51100000000E-03 0. -1.
         11   -1    0    0    0    0 -0.00000000000E+00 -0.00000000000E+00 -0.45593999997E+02  0.45594000000E+02  0.51100000000E-03 0.  1.
         23    2    1    2    0    0  0.00000000000E+00  0.00000000000E+00  0.00000000000E+00  0.91188000000E+02  0.91188000000E+02 0.  0.
    9900012    2    3    3    0    0  0.82819128663E+01  0.30591534415E+02  0.18744280829E+02  0.54367080370E+02  0.39999991320E+02 0.  0.
        -12    1    3    3    0    0 -0.82819128663E+01 -0.30591534415E+02 -0.18744280829E+02  0.36820919630E+02  0.00000000000E+00 0.  1.
         11    1    4    4    0    0 -0.81600150128E+01 -0.19404154877E+01  0.34402155783E+01  0.90656572162E+01  0.51100000000E-03 0. -1.
        -11    1    4    4    0    0 -0.18422217929E+01 -0.15912688813E+01  0.44881136450E+01  0.51057890809E+01  0.51100000000E-03 0.  1.
         12    1    4    4    0    0  0.18284149672E+02  0.34123218784E+02  0.10815951606E+02  0.40195634073E+02  0.00000000000E+00 0. -1.
</event>
<event>
 8    1  0.1248739E-006  0.9118800E+02  0.7816164E-02  0.1184000E+00
        -11   -1    0    0    0    0  0.00000000000E+00  0.00000000000E+00  0.45593999997E+02  0.45594000000E+02  0.51100000000E-03 0.  1.
         11   -1    0    0    0    0 -0.00000000000E+00 -0.00000000000E+00 -0.45593999997E+02  0.45594000000E+02  0.51100000000E-03 0. -1.
         23    2    1    2    0    0  0.00000000000E+00 -0.88817841970E-15  0.00000000000E+00  0.91188000000E+02  0.91188000000E+02 0.  0.
    9900012    2    3    3    0    0  0.20836324008E+02 -0.66915437593E+01 -0.29611672741E+02  0.54367077706E+02  0.39999985247E+02 0.  0.
        -12    1    3    3    0    0 -0.20836324008E+02  0.66915437593E+01  0.29611672741E+02  0.36820922294E+02  0.00000000000E+00 0.  1.
         11    1    4    4    0    0 -0.80067698417E+01  0.41014853256E+01 -0.26575015630E+01  0.93804509483E+01  0.51100000000E-03 0. -1.
        -11    1    4    4    0    0  0.85691650976E+01 -0.12292789830E+02 -0.15891405039E+02  0.21842161675E+02  0.51100000000E-03 0.  1.
        -12    1    4    4    0    0  0.20273928752E+02  0.14997607449E+01 -0.11062766139E+02  0.23144465083E+02  0.00000000000E+00 0.  1.
</event>
<event>
 8    1  0.1248739E-006  0.9118800E+02  0.7816164E-02  0.1184000E+00
        -11   -1    0    0    0    0  0.00000000000E+00  0.00000000000E+00  0.45593999997E+02  0.45594000000E+02  0.51100000000E-03 0.  1.
         11   -1    0    0    0    0 -0.00000000000E+00 -0.00000000000E+00 -0.45593999997E+02  0.45594000000E+02  0.51100000000E-03 0. -1.
         23    2    1    2    0    0  0.00000000000E+00  0.00000000000E+00  0.00000000000E+00  0.91188000000E+02  0.91188000000E+02 0.  0.
    9900012    2    3    3    0    0  0.60187100711E+01 -0.12181666285E+02  0.34222241515E+02  0.54367086395E+02  0.40000005055E+02 0.  0.
         12    1    3    3    0    0 -0.60187100711E+01  0.12181666285E+02 -0.34222241515E+02  0.36820913605E+02  0.00000000000E+00 0. -1.
         11    1    4    4    0    0  0.74703727994E+01 -0.19691201470E+02  0.28592391513E+02  0.35511614125E+02  0.51100000000E-03 0. -1.
        -11    1    4    4    0    0 -0.45752410932E+01 -0.34810956926E+01  0.46380393832E+01  0.73866276380E+01  0.51100000000E-03 0.  1.
         12    1    4    4    0    0  0.31235783649E+01  0.10990630878E+02  0.99181061862E+00  0.11468844632E+02  0.00000000000E+00 0. -1.
</event>
<event>
 8    1  0.1248739E-006  0.9118800E+02  0.7816164E-02  0.1184000E+00
        -11   -1    0    0    0    0  0.00000000000E+00  0.00000000000E+00  0.45593999997E+02  0.45594000000E+02  0.51100000000E-03 0. -1.
         11   -1    0    0    0    0 -0.00000000000E+00 -0.00000000000E+00 -0.45593999997E+02  0.45594000000E+02  0.51100000000E-03 0.  1.
         23    2    1    2    0    0  0.17763568394E-14  0.00000000000E+00  0.00000000000E+00  0.91188000000E+02  0.91188000000E+02 0.  0.
    9900012    2    3    3    0    0 -0.12043163525E+02 -0.97952557623E+01  0.33388554743E+02  0.54367076451E+02  0.39999982386E+02 0.  0.
        -12    1    3    3    0    0  0.12043163525E+02  0.97952557623E+01 -0.33388554743E+02  0.36820923549E+02  0.00000000000E+00 0.  1.
         11    1    4    4    0    0 -0.16358674414E+02 -0.49082337479E+01  0.33450580024E+02  0.37558464975E+02  0.51100000000E-03 0. -1.
        -11    1    4    4    0    0  0.43427864268E+01  0.25168733560E+01 -0.56315043317E+01  0.75437581309E+01  0.51100000000E-03 0.  1.
         12    1    4    4    0    0 -0.27275537811E-01 -0.74038953704E+01  0.55694790513E+01  0.92648533455E+01  0.00000000000E+00 0. -1.
</event>
<event>
 8    1  0.1248739E-006  0.9118800E+02  0.7816164E-02  0.1184000E+00
        -11   -1    0    0    0    0  0.00000000000E+00  0.00000000000E+00  0.45593999997E+02  0.45594000000E+02  0.51100000000E-03 0. -1.
         11   -1    0    0    0    0 -0.00000000000E+00 -0.00000000000E+00 -0.45593999997E+02  0.45594000000E+02  0.51100000000E-03 0.  1.
         23    2    1    2    0    0  0.00000000000E+00  0.00000000000E+00  0.88817841970E-15  0.91188000000E+02  0.91188000000E+02 0.  0.
    9900012    2    3    3    0    0 -0.26933827013E+02 -0.24328787281E+02 -0.62015285370E+01  0.54367083603E+02  0.39999998689E+02 0.  0.
         12    1    3    3    0    0  0.26933827013E+02  0.24328787281E+02  0.62015285370E+01  0.36820916397E+02  0.00000000000E+00 0. -1.
         11    1    4    4    0    0 -0.19890453818E+01 -0.17927133185E+02  0.90880759065E+01  0.20197314914E+02  0.51100000000E-03 0. -1.
        -11    1    4    4    0    0 -0.12667157052E+02 -0.52392794696E+01  0.99312473412E+00  0.13743842772E+02  0.51100000000E-03 0.  1.
        -12    1    4    4    0    0 -0.12277624579E+02 -0.11623746260E+01 -0.16282729178E+02  0.20425925917E+02  0.00000000000E+00 0.  1.
</event>
<event>
 8    1  0.1248739E-006  0.9118800E+02  0.7816164E-02  0.1184000E+00
        -11   -1    0    0    0    0  0.00000000000E+00  0.00000000000E+00  0.45593999997E+02  0.45594000000E+02  0.51100000000E-03 0. -1.
         11   -1    0    0    0    0 -0.00000000000E+00 -0.00000000000E+00 -0.45593999997E+02  0.45594000000E+02  0.51100000000E-03 0.  1.
         23    2    1    2    0    0  0.00000000000E+00  0.00000000000E+00  0.00000000000E+00  0.91188000000E+02  0.91188000000E+02 0.  0.
    9900012    2    3    3    0    0 -0.17597314747E+02  0.27722943275E+02  0.16659871007E+02  0.54367104138E+02  0.40000045502E+02 0.  0.
        -12    1    3    3    0    0  0.17597314747E+02 -0.27722943275E+02 -0.16659871007E+02  0.36820895862E+02  0.00000000000E+00 0.  1.
         11    1    4    4    0    0 -0.65714066668E+01  0.22016495608E+02  0.74233789196E+01  0.24145724658E+02  0.51100000000E-03 0. -1.
        -11    1    4    4    0    0 -0.73391082683E+01  0.42315391503E+01  0.18387915471E+02  0.20245588887E+02  0.51100000000E-03 0.  1.
         12    1    4    4    0    0 -0.36867998119E+01  0.14749085175E+01 -0.91514233840E+01  0.99757905923E+01  0.00000000000E+00 0. -1.
</event>
<event>
 8    1  0.1248739E-006  0.9118800E+02  0.7816164E-02  0.1184000E+00
        -11   -1    0    0    0    0  0.00000000000E+00  0.00000000000E+00  0.45593999997E+02  0.45594000000E+02  0.51100000000E-03 0. -1.
         11   -1    0    0    0    0 -0.00000000000E+00 -0.00000000000E+00 -0.45593999997E+02  0.45594000000E+02  0.51100000000E-03 0.  1.
         23    2    1    2    0    0  0.00000000000E+00  0.17763568394E-14  0.35527136788E-14  0.91188000000E+02  0.91188000000E+02 0.  0.
    9900012    2    3    3    0    0 -0.18721693054E+02 -0.15897901038E+02  0.27432396103E+02  0.54367062964E+02  0.39999951640E+02 0.  0.
        -12    1    3    3    0    0  0.18721693054E+02  0.15897901038E+02 -0.27432396103E+02  0.36820937036E+02  0.00000000000E+00 0.  1.
         11    1    4    4    0    0 -0.22590964546E+01 -0.81700919205E+01 -0.67756623664E+01  0.10851890137E+02  0.51100000000E-03 0.  1.
        -11    1    4    4    0    0 -0.35339308445E+01  0.65616535363E+01  0.74254395163E+01  0.10520509333E+02  0.51100000000E-03 0. -1.
         12    1    4    4    0    0 -0.12928665755E+02 -0.14289462654E+02  0.26782618953E+02  0.32994663495E+02  0.00000000000E+00 0. -1.
</event>
<event>
 8    1  0.1248739E-006  0.9118800E+02  0.7816164E-02  0.1184000E+00
        -11   -1    0    0    0    0  0.00000000000E+00  0.00000000000E+00  0.45593999997E+02  0.45594000000E+02  0.51100000000E-03 0. -1.
         11   -1    0    0    0    0 -0.00000000000E+00 -0.00000000000E+00 -0.45593999997E+02  0.45594000000E+02  0.51100000000E-03 0.  1.
         23    2    1    2    0    0  0.00000000000E+00  0.00000000000E+00 -0.35527136788E-14  0.91188000000E+02  0.91188000000E+02 0.  0.
    9900012    2    3    3    0    0 -0.27645830024E+02  0.17552145952E+02 -0.16834789035E+02  0.54367083837E+02  0.39999999222E+02 0.  0.
         12    1    3    3    0    0  0.27645830024E+02 -0.17552145952E+02  0.16834789035E+02  0.36820916163E+02  0.00000000000E+00 0. -1.
         11    1    4    4    0    0 -0.16853040697E+02  0.21890184040E+02 -0.23588817003E+02  0.36326814144E+02  0.51100000000E-03 0. -1.
        -11    1    4    4    0    0 -0.35950343723E+01  0.40087823118E+00 -0.32313311186E+01  0.48504099366E+01  0.51100000000E-03 0.  1.
         12    1    4    4    0    0 -0.71977549556E+01 -0.47389163186E+01  0.99853590869E+01  0.13189859756E+02  0.00000000000E+00 0. -1.
</event>
<event>
 8    1  0.1248739E-006  0.9118800E+02  0.7816164E-02  0.1184000E+00
        -11   -1    0    0    0    0  0.00000000000E+00  0.00000000000E+00  0.45593999997E+02  0.45594000000E+02  0.51100000000E-03 0.  1.
         11   -1    0    0    0    0 -0.00000000000E+00 -0.00000000000E+00 -0.45593999997E+02  0.45594000000E+02  0.51100000000E-03 0. -1.
         23    2    1    2    0    0  0.00000000000E+00  0.00000000000E+00 -0.47531423242E-15  0.91188000000E+02  0.91188000000E+02 0.  0.
    9900012    2    3    3    0    0  0.34462491722E+02  0.12965816693E+02  0.27366230893E-01  0.54367129735E+02  0.40000103856E+02 0.  0.
        -12    1    3    3    0    0 -0.34462491722E+02 -0.12965816693E+02 -0.27366230893E-01  0.36820870265E+02  0.00000000000E+00 0.  1.
         11    1    4    4    0    0  0.14201223938E+02  0.16974598599E+02  0.74638534493E+01  0.23356388152E+02  0.51100000000E-03 0. -1.
        -11    1    4    4    0    0  0.50661778113E+01 -0.11694525628E+02 -0.91895923137E+00  0.12777815682E+02  0.51100000000E-03 0.  1.
         12    1    4    4    0    0  0.15195089972E+02  0.76857437220E+01 -0.65175279870E+01  0.18232925900E+02  0.00000000000E+00 0. -1.
</event>
<event>
 8    1  0.1248739E-006  0.9118800E+02  0.7816164E-02  0.1184000E+00
        -11   -1    0    0    0    0  0.00000000000E+00  0.00000000000E+00  0.45593999997E+02  0.45594000000E+02  0.51100000000E-03 0. -1.
         11   -1    0    0    0    0 -0.00000000000E+00 -0.00000000000E+00 -0.45593999997E+02  0.45594000000E+02  0.51100000000E-03 0.  1.
         23    2    1    2    0    0  0.00000000000E+00  0.00000000000E+00 -0.71054273576E-14  0.91188000000E+02  0.91188000000E+02 0.  0.
    9900012    2    3    3    0    0 -0.55523429060E+01 -0.16224647114E+02  0.32583901435E+02  0.54367104866E+02  0.40000047163E+02 0.  0.
        -12    1    3    3    0    0  0.55523429060E+01  0.16224647114E+02 -0.32583901435E+02  0.36820895134E+02  0.00000000000E+00 0.  1.
         11    1    4    4    0    0 -0.37077976620E+01 -0.37110260271E+01  0.20396897122E+02  0.21060695386E+02  0.51100000000E-03 0. -1.
        -11    1    4    4    0    0 -0.49711273986E+00 -0.17437746775E+02  0.18339783713E+02  0.25311455916E+02  0.51100000000E-03 0.  1.
        -12    1    4    4    0    0 -0.13474325041E+01  0.49241256881E+01 -0.61527793998E+01  0.79949535638E+01  0.00000000000E+00 0.  1.
</event>
<event>
 8    1  0.1248739E-006  0.9118800E+02  0.7816164E-02  0.1184000E+00
        -11   -1    0    0    0    0  0.00000000000E+00  0.00000000000E+00  0.45593999997E+02  0.45594000000E+02  0.51100000000E-03 0. -1.
         11   -1    0    0    0    0 -0.00000000000E+00 -0.00000000000E+00 -0.45593999997E+02  0.45594000000E+02  0.51100000000E-03 0.  1.
         23    2    1    2    0    0 -0.35527136788E-14 -0.88817841970E-15  0.00000000000E+00  0.91188000000E+02  0.91188000000E+02 0.  0.
    9900012    2    3    3    0    0 -0.20788049890E+02  0.64239798082E+01  0.29704775021E+02  0.54367025083E+02  0.39999865281E+02 0.  0.
        -12    1    3    3    0    0  0.20788049890E+02 -0.64239798082E+01 -0.29704775021E+02  0.36820974917E+02  0.00000000000E+00 0.  1.
         11    1    4    4    0    0  0.21513308414E+01  0.87472035677E+01  0.29185709969E+02  0.30544188666E+02  0.51100000000E-03 0.  1.
        -11    1    4    4    0    0 -0.19382728882E+02  0.31910384172E+00  0.51001667577E+00  0.19392063414E+02  0.51100000000E-03 0. -1.
        -12    1    4    4    0    0 -0.35566518487E+01 -0.26423276012E+01  0.90483767545E-02  0.44307730023E+01  0.00000000000E+00 0.  1.
</event>
<event>
 8    1  0.1248739E-006  0.9118800E+02  0.7816164E-02  0.1184000E+00
        -11   -1    0    0    0    0  0.00000000000E+00  0.00000000000E+00  0.45593999997E+02  0.45594000000E+02  0.51100000000E-03 0. -1.
         11   -1    0    0    0    0 -0.00000000000E+00 -0.00000000000E+00 -0.45593999997E+02  0.45594000000E+02  0.51100000000E-03 0.  1.
         23    2    1    2    0    0  0.88817841970E-15  0.35527136788E-14  0.35527136788E-14  0.91188000000E+02  0.91188000000E+02 0.  0.
    9900012    2    3    3    0    0 -0.61826196889E+01 -0.20626392939E+02 -0.29868170773E+02  0.54367075280E+02  0.39999979716E+02 0.  0.
         12    1    3    3    0    0  0.61826196889E+01  0.20626392939E+02  0.29868170773E+02  0.36820924720E+02  0.00000000000E+00 0. -1.
         11    1    4    4    0    0 -0.78491633063E+01 -0.17402729100E+02 -0.12570482085E+02  0.22857851274E+02  0.51100000000E-03 0. -1.
        -11    1    4    4    0    0 -0.43315706377E+01 -0.13345159445E+02 -0.12542173220E+02  0.18819189519E+02  0.51100000000E-03 0.  1.
         12    1    4    4    0    0  0.59981142551E+01  0.10121495606E+02 -0.47555154684E+01  0.12690034488E+02  0.00000000000E+00 0. -1.
</event>
<event>
 8    1  0.1248739E-006  0.9118800E+02  0.7816164E-02  0.1184000E+00
        -11   -1    0    0    0    0  0.00000000000E+00  0.00000000000E+00  0.45593999997E+02  0.45594000000E+02  0.51100000000E-03 0. -1.
         11   -1    0    0    0    0 -0.00000000000E+00 -0.00000000000E+00 -0.45593999997E+02  0.45594000000E+02  0.51100000000E-03 0.  1.
         23    2    1    2    0    0  0.00000000000E+00  0.00000000000E+00  0.00000000000E+00  0.91188000000E+02  0.91188000000E+02 0.  0.
    9900012    2    3    3    0    0 -0.16830701591E+02  0.25130051412E+02  0.21000114633E+02  0.54366853703E+02  0.39999474584E+02 0.  0.
        -12    1    3    3    0    0  0.16830701591E+02 -0.25130051412E+02 -0.21000114633E+02  0.36821146297E+02  0.00000000000E+00 0.  1.
         11    1    4    4    0    0 -0.89535433010E+01  0.27806461159E+02  0.27702898319E+02  0.40259356619E+02  0.51100000000E-03 0. -1.
        -11    1    4    4    0    0  0.13887485234E+01  0.85461970886E+00 -0.31992445348E+01  0.35908443523E+01  0.51100000000E-03 0.  1.
         12    1    4    4    0    0 -0.92659068139E+01 -0.35310294561E+01 -0.35035391515E+01  0.10516652732E+02  0.00000000000E+00 0. -1.
</event>
<event>
 8    1  0.1248739E-006  0.9118800E+02  0.7816164E-02  0.1184000E+00
        -11   -1    0    0    0    0  0.00000000000E+00  0.00000000000E+00  0.45593999997E+02  0.45594000000E+02  0.51100000000E-03 0.  1.
         11   -1    0    0    0    0 -0.00000000000E+00 -0.00000000000E+00 -0.45593999997E+02  0.45594000000E+02  0.51100000000E-03 0. -1.
         23    2    1    2    0    0  0.00000000000E+00  0.00000000000E+00  0.00000000000E+00  0.91188000000E+02  0.91188000000E+02 0.  0.
    9900012    2    3    3    0    0 -0.33949529232E+02 -0.36198396239E+01  0.13787832650E+02  0.54367107789E+02  0.40000053827E+02 0.  0.
         12    1    3    3    0    0  0.33949529232E+02  0.36198396239E+01 -0.13787832650E+02  0.36820892211E+02  0.00000000000E+00 0. -1.
         11    1    4    4    0    0  0.78190135916E+00 -0.23708588735E+01  0.27869536214E+01  0.37415841942E+01  0.51100000000E-03 0. -1.
        -11    1    4    4    0    0 -0.26419965779E+02 -0.13275833187E+02  0.17789429018E+02  0.34506899652E+02  0.51100000000E-03 0.  1.
        -12    1    4    4    0    0 -0.83114648125E+01  0.12026852437E+02 -0.67885499891E+01  0.16118623943E+02  0.00000000000E+00 0.  1.
</event>
<event>
 8    1  0.1248739E-006  0.9118800E+02  0.7816164E-02  0.1184000E+00
        -11   -1    0    0    0    0  0.00000000000E+00  0.00000000000E+00  0.45593999997E+02  0.45594000000E+02  0.51100000000E-03 0. -1.
         11   -1    0    0    0    0 -0.00000000000E+00 -0.00000000000E+00 -0.45593999997E+02  0.45594000000E+02  0.51100000000E-03 0.  1.
         23    2    1    2    0    0  0.00000000000E+00 -0.17763568394E-14 -0.71054273576E-14  0.91188000000E+02  0.91188000000E+02 0.  0.
    9900012    2    3    3    0    0 -0.95809913408E+01 -0.35790464050E+01 -0.35371939126E+02  0.54367094990E+02  0.40000024649E+02 0.  0.
         12    1    3    3    0    0  0.95809913408E+01  0.35790464050E+01  0.35371939126E+02  0.36820905010E+02  0.00000000000E+00 0. -1.
         11    1    4    4    0    0 -0.12065706232E+02 -0.78271627551E+01  0.30856363674E+01  0.14709415207E+02  0.51100000000E-03 0. -1.
        -11    1    4    4    0    0  0.46486779229E+01  0.41319472056E+00 -0.12784401108E+02  0.13609623370E+02  0.51100000000E-03 0.  1.
         12    1    4    4    0    0 -0.21639630313E+01  0.38349216295E+01 -0.25673174385E+02  0.26048056413E+02  0.00000000000E+00 0. -1.
</event>
<event>
 8    1  0.1248739E-006  0.9118800E+02  0.7816164E-02  0.1184000E+00
        -11   -1    0    0    0    0  0.00000000000E+00  0.00000000000E+00  0.45593999997E+02  0.45594000000E+02  0.51100000000E-03 0. -1.
         11   -1    0    0    0    0 -0.00000000000E+00 -0.00000000000E+00 -0.45593999997E+02  0.45594000000E+02  0.51100000000E-03 0.  1.
         23    2    1    2    0    0  0.88817841970E-15  0.44408920985E-15  0.00000000000E+00  0.91188000000E+02  0.91188000000E+02 0.  0.
    9900012    2    3    3    0    0 -0.47878707297E+01  0.26490106480E+01 -0.36412081601E+02  0.54367073205E+02  0.39999974986E+02 0.  0.
         12    1    3    3    0    0  0.47878707297E+01 -0.26490106480E+01  0.36412081601E+02  0.36820926795E+02  0.00000000000E+00 0. -1.
         11    1    4    4    0    0 -0.22604927295E+00 -0.15290956078E+02 -0.16261690220E+02  0.22322791159E+02  0.51100000000E-03 0. -1.
        -11    1    4    4    0    0  0.40711908261E+01 -0.88896254673E-01 -0.65915424645E+00  0.41251644656E+01  0.51100000000E-03 0.  1.
        -12    1    4    4    0    0 -0.86330122829E+01  0.18028862981E+02 -0.19491237134E+02  0.27919117580E+02  0.00000000000E+00 0.  1.
</event>
<event>
 8    1  0.1248739E-006  0.9118800E+02  0.7816164E-02  0.1184000E+00
        -11   -1    0    0    0    0  0.00000000000E+00  0.00000000000E+00  0.45593999997E+02  0.45594000000E+02  0.51100000000E-03 0.  1.
         11   -1    0    0    0    0 -0.00000000000E+00 -0.00000000000E+00 -0.45593999997E+02  0.45594000000E+02  0.51100000000E-03 0. -1.
         23    2    1    2    0    0 -0.71054273576E-14  0.35527136788E-14  0.00000000000E+00  0.91188000000E+02  0.91188000000E+02 0.  0.
    9900012    2    3    3    0    0 -0.25974668152E+02  0.20101171569E+02  0.16644489245E+02  0.54367088736E+02  0.40000010392E+02 0.  0.
        -12    1    3    3    0    0  0.25974668152E+02 -0.20101171569E+02 -0.16644489245E+02  0.36820911264E+02  0.00000000000E+00 0.  1.
         11    1    4    4    0    0 -0.93049421034E+00  0.10037813878E+02  0.12003116065E+02  0.15674767062E+02  0.51100000000E-03 0. -1.
        -11    1    4    4    0    0  0.11166379966E+01  0.16594238112E+01 -0.81439060427E+01  0.83859271219E+01  0.51100000000E-03 0.  1.
         12    1    4    4    0    0 -0.26160811939E+02  0.84039338796E+01  0.12785279223E+02  0.30306394552E+02  0.00000000000E+00 0. -1.
</event>
<event>
 8    1  0.1248739E-006  0.9118800E+02  0.7816164E-02  0.1184000E+00
        -11   -1    0    0    0    0  0.00000000000E+00  0.00000000000E+00  0.45593999997E+02  0.45594000000E+02  0.51100000000E-03 0.  1.
         11   -1    0    0    0    0 -0.00000000000E+00 -0.00000000000E+00 -0.45593999997E+02  0.45594000000E+02  0.51100000000E-03 0. -1.
         23    2    1    2    0    0  0.00000000000E+00  0.00000000000E+00  0.35527136788E-14  0.91188000000E+02  0.91188000000E+02 0.  0.
    9900012    2    3    3    0    0  0.19620480919E+02 -0.60583434766E+01 -0.30563263850E+02  0.54367083467E+02  0.39999998380E+02 0.  0.
        -12    1    3    3    0    0 -0.19620480919E+02  0.60583434766E+01  0.30563263850E+02  0.36820916533E+02  0.00000000000E+00 0.  1.
         11    1    4    4    0    0  0.19483170128E+02  0.13315614430E+01 -0.14370835489E+02  0.24246399466E+02  0.51100000000E-03 0. -1.
        -11    1    4    4    0    0 -0.49452283149E+01 -0.36345099282E+01  0.50565233289E+01  0.79519415203E+01  0.51100000000E-03 0.  1.
        -12    1    4    4    0    0  0.50825391055E+01 -0.37553949914E+01 -0.21248951689E+02  0.22168742481E+02  0.00000000000E+00 0.  1.
</event>
<event>
 8    1  0.1248739E-006  0.9118800E+02  0.7816164E-02  0.1184000E+00
        -11   -1    0    0    0    0  0.00000000000E+00  0.00000000000E+00  0.45593999997E+02  0.45594000000E+02  0.51100000000E-03 0. -1.
         11   -1    0    0    0    0 -0.00000000000E+00 -0.00000000000E+00 -0.45593999997E+02  0.45594000000E+02  0.51100000000E-03 0.  1.
         23    2    1    2    0    0  0.00000000000E+00  0.00000000000E+00  0.00000000000E+00  0.91188000000E+02  0.91188000000E+02 0.  0.
    9900012    2    3    3    0    0  0.25121049684E+02 -0.19549532089E+02 -0.18507589517E+02  0.54367051997E+02  0.39999926637E+02 0.  0.
         12    1    3    3    0    0 -0.25121049684E+02  0.19549532089E+02  0.18507589517E+02  0.36820948003E+02  0.00000000000E+00 0. -1.
         11    1    4    4    0    0  0.19715300433E+02  0.24062590521E+01 -0.13370776651E+02  0.23942865791E+02  0.51100000000E-03 0. -1.
        -11    1    4    4    0    0  0.11495590945E+02 -0.67865602935E+01 -0.44214220495E+01  0.14062538355E+02  0.51100000000E-03 0.  1.
        -12    1    4    4    0    0 -0.60898416938E+01 -0.15169230848E+02 -0.71539081679E+00  0.16361647851E+02  0.00000000000E+00 0.  1.
</event>
<event>
 8    1  0.1248739E-006  0.9118800E+02  0.7816164E-02  0.1184000E+00
        -11   -1    0    0    0    0  0.00000000000E+00  0.00000000000E+00  0.45593999997E+02  0.45594000000E+02  0.51100000000E-03 0. -1.
         11   -1    0    0    0    0 -0.00000000000E+00 -0.00000000000E+00 -0.45593999997E+02  0.45594000000E+02  0.51100000000E-03 0.  1.
         23    2    1    2    0    0  0.00000000000E+00  0.44408920985E-15  0.00000000000E+00  0.91188000000E+02  0.91188000000E+02 0.  0.
    9900012    2    3    3    0    0  0.30744786023E+02  0.22705201294E+01 -0.20134129367E+02  0.54367078032E+02  0.39999985989E+02 0.  0.
         12    1    3    3    0    0 -0.30744786023E+02 -0.22705201294E+01  0.20134129367E+02  0.36820921968E+02  0.00000000000E+00 0. -1.
         11    1    4    4    0    0 -0.15521871163E+01  0.33961804398E+01  0.13433823064E+01  0.39683753232E+01  0.51100000000E-03 0. -1.
        -11    1    4    4    0    0  0.35718810438E+01  0.13008062305E+02 -0.78283583451E+01  0.15596512872E+02  0.51100000000E-03 0.  1.
        -12    1    4    4    0    0  0.28725092095E+02 -0.14133722615E+02 -0.13649153328E+02  0.34802189837E+02  0.00000000000E+00 0.  1.
</event>
<event>
 8    1  0.1248739E-006  0.9118800E+02  0.7816164E-02  0.1184000E+00
        -11   -1    0    0    0    0  0.00000000000E+00  0.00000000000E+00  0.45593999997E+02  0.45594000000E+02  0.51100000000E-03 0. -1.
         11   -1    0    0    0    0 -0.00000000000E+00 -0.00000000000E+00 -0.45593999997E+02  0.45594000000E+02  0.51100000000E-03 0.  1.
         23    2    1    2    0    0 -0.35527136788E-14  0.17763568394E-14 -0.35527136788E-14  0.91188000000E+02  0.91188000000E+02 0.  0.
    9900012    2    3    3    0    0  0.20721537374E+02  0.12592121037E+02  0.27709906052E+02  0.54367047857E+02  0.39999917199E+02 0.  0.
        -12    1    3    3    0    0 -0.20721537374E+02 -0.12592121037E+02 -0.27709906052E+02  0.36820952143E+02  0.00000000000E+00 0.  1.
         11    1    4    4    0    0 -0.11685545402E+01 -0.48271612945E+00  0.15255182720E+02  0.15307486229E+02  0.51100000000E-03 0. -1.
        -11    1    4    4    0    0  0.13098146694E+02  0.12229770964E+02 -0.57544420761E+01  0.18821326960E+02  0.51100000000E-03 0.  1.
        -12    1    4    4    0    0  0.87919452199E+01  0.84506620242E+00  0.18209165408E+02  0.20238234668E+02  0.00000000000E+00 0.  1.
</event>
<event>
 8    1  0.1248739E-006  0.9118800E+02  0.7816164E-02  0.1184000E+00
        -11   -1    0    0    0    0  0.00000000000E+00  0.00000000000E+00  0.45593999997E+02  0.45594000000E+02  0.51100000000E-03 0. -1.
         11   -1    0    0    0    0 -0.00000000000E+00 -0.00000000000E+00 -0.45593999997E+02  0.45594000000E+02  0.51100000000E-03 0.  1.
         23    2    1    2    0    0  0.00000000000E+00  0.17763568394E-14  0.00000000000E+00  0.91188000000E+02  0.91188000000E+02 0.  0.
    9900012    2    3    3    0    0 -0.16854775552E+02  0.55096167815E+01  0.32269793120E+02  0.54367097186E+02  0.40000029656E+02 0.  0.
        -12    1    3    3    0    0  0.16854775552E+02 -0.55096167815E+01 -0.32269793120E+02  0.36820902814E+02  0.00000000000E+00 0.  1.
         11    1    4    4    0    0 -0.13730907385E+02 -0.10663856175E+02  0.60482730107E+00  0.17396018581E+02  0.51100000000E-03 0.  1.
        -11    1    4    4    0    0  0.11510409439E+01 -0.82605507520E+00  0.37523227582E+01  0.40108837660E+01  0.51100000000E-03 0. -1.
        -12    1    4    4    0    0 -0.42749091110E+01  0.16999528032E+02  0.27912643061E+02  0.32960194839E+02  0.00000000000E+00 0.  1.
</event>
<event>
 8    1  0.1248739E-006  0.9118800E+02  0.7816164E-02  0.1184000E+00
        -11   -1    0    0    0    0  0.00000000000E+00  0.00000000000E+00  0.45593999997E+02  0.45594000000E+02  0.51100000000E-03 0.  1.
         11   -1    0    0    0    0 -0.00000000000E+00 -0.00000000000E+00 -0.45593999997E+02  0.45594000000E+02  0.51100000000E-03 0. -1.
         23    2    1    2    0    0  0.00000000000E+00 -0.35527136788E-14  0.00000000000E+00  0.91188000000E+02  0.91188000000E+02 0.  0.
    9900012    2    3    3    0    0  0.14893769859E+02 -0.28229869834E+02 -0.18358382980E+02  0.54367079899E+02  0.39999990246E+02 0.  0.
        -12    1    3    3    0    0 -0.14893769859E+02  0.28229869834E+02  0.18358382980E+02  0.36820920101E+02  0.00000000000E+00 0.  1.
         11    1    4    4    0    0  0.24076129488E+02 -0.12755993068E+02 -0.98880317526E+01  0.28985315980E+02  0.51100000000E-03 0. -1.
        -11    1    4    4    0    0 -0.29085955503E+01 -0.14110542664E+02 -0.11354290890E+02  0.18343589186E+02  0.51100000000E-03 0.  1.
        -12    1    4    4    0    0 -0.62737640791E+01 -0.13633341013E+01  0.28839396623E+01  0.70381747327E+01  0.00000000000E+00 0.  1.
</event>
<event>
 8    1  0.1248739E-006  0.9118800E+02  0.7816164E-02  0.1184000E+00
        -11   -1    0    0    0    0  0.00000000000E+00  0.00000000000E+00  0.45593999997E+02  0.45594000000E+02  0.51100000000E-03 0.  1.
         11   -1    0    0    0    0 -0.00000000000E+00 -0.00000000000E+00 -0.45593999997E+02  0.45594000000E+02  0.51100000000E-03 0. -1.
         23    2    1    2    0    0  0.00000000000E+00  0.00000000000E+00  0.88817841970E-15  0.91188000000E+02  0.91188000000E+02 0.  0.
    9900012    2    3    3    0    0 -0.36125861142E+02 -0.14704044842E+01 -0.69671741866E+01  0.54367062359E+02  0.39999950260E+02 0.  0.
        -12    1    3    3    0    0  0.36125861142E+02  0.14704044842E+01  0.69671741866E+01  0.36820937641E+02  0.00000000000E+00 0.  1.
         11    1    4    4    0    0 -0.32199206557E+02 -0.12978982219E+02  0.68859016826E+00  0.34723436452E+02  0.51100000000E-03 0. -1.
        -11    1    4    4    0    0 -0.72875719068E+01  0.12570350701E+02 -0.66412704662E+01  0.15975884787E+02  0.51100000000E-03 0.  1.
         12    1    4    4    0    0  0.33609173220E+01 -0.10617729669E+01 -0.10144938887E+01  0.36677411207E+01  0.00000000000E+00 0. -1.
</event>
<event>
 8    1  0.1248739E-006  0.9118800E+02  0.7816164E-02  0.1184000E+00
        -11   -1    0    0    0    0  0.00000000000E+00  0.00000000000E+00  0.45593999997E+02  0.45594000000E+02  0.51100000000E-03 0. -1.
         11   -1    0    0    0    0 -0.00000000000E+00 -0.00000000000E+00 -0.45593999997E+02  0.45594000000E+02  0.51100000000E-03 0.  1.
         23    2    1    2    0    0  0.00000000000E+00 -0.88817841970E-15  0.22204460493E-15  0.91188000000E+02  0.91188000000E+02 0.  0.
    9900012    2    3    3    0    0  0.36394294679E+02  0.54963689544E+01 -0.10137435268E+01  0.54367048996E+02  0.39999919797E+02 0.  0.
        -12    1    3    3    0    0 -0.36394294679E+02 -0.54963689544E+01  0.10137435268E+01  0.36820951004E+02  0.00000000000E+00 0.  1.
         11    1    4    4    0    0 -0.50159372494E+01 -0.93356121601E+00  0.33999531560E+01  0.61311373136E+01  0.51100000000E-03 0. -1.
        -11    1    4    4    0    0 -0.22048136589E+01 -0.20165804223E+01 -0.22814724445E+01  0.37593771620E+01  0.51100000000E-03 0.  1.
         12    1    4    4    0    0  0.43615045587E+02  0.84465105927E+01 -0.21322242383E+01  0.44476534521E+02  0.00000000000E+00 0. -1.
</event>
<event>
 8    1  0.1248739E-006  0.9118800E+02  0.7816164E-02  0.1184000E+00
        -11   -1    0    0    0    0  0.00000000000E+00  0.00000000000E+00  0.45593999997E+02  0.45594000000E+02  0.51100000000E-03 0.  1.
         11   -1    0    0    0    0 -0.00000000000E+00 -0.00000000000E+00 -0.45593999997E+02  0.45594000000E+02  0.51100000000E-03 0. -1.
         23    2    1    2    0    0 -0.71054273576E-14  0.00000000000E+00  0.17763568394E-14  0.91188000000E+02  0.91188000000E+02 0.  0.
    9900012    2    3    3    0    0  0.34322877467E+02 -0.12450300821E+02 -0.47654849739E+01  0.54367085356E+02  0.40000002686E+02 0.  0.
        -12    1    3    3    0    0 -0.34322877467E+02  0.12450300821E+02  0.47654849739E+01  0.36820914644E+02  0.00000000000E+00 0.  1.
         11    1    4    4    0    0  0.23382004990E+02  0.45157787954E+01  0.67257433424E+01  0.24745626669E+02  0.51100000000E-03 0. -1.
        -11    1    4    4    0    0  0.39954363624E+01  0.19051089310E+01 -0.80975213050E+01  0.92283694827E+01  0.51100000000E-03 0.  1.
        -12    1    4    4    0    0  0.69454361148E+01 -0.18871188547E+02 -0.33937070114E+01  0.20393089204E+02  0.00000000000E+00 0.  1.
</event>
<event>
 8    1  0.1248739E-006  0.9118800E+02  0.7816164E-02  0.1184000E+00
        -11   -1    0    0    0    0  0.00000000000E+00  0.00000000000E+00  0.45593999997E+02  0.45594000000E+02  0.51100000000E-03 0.  1.
         11   -1    0    0    0    0 -0.00000000000E+00 -0.00000000000E+00 -0.45593999997E+02  0.45594000000E+02  0.51100000000E-03 0. -1.
         23    2    1    2    0    0  0.35527136788E-14  0.00000000000E+00 -0.35527136788E-14  0.91188000000E+02  0.91188000000E+02 0.  0.
    9900012    2    3    3    0    0  0.29095343651E+02 -0.47731164522E+01 -0.22055835071E+02  0.54367061344E+02  0.39999947945E+02 0.  0.
        -12    1    3    3    0    0 -0.29095343651E+02  0.47731164522E+01  0.22055835071E+02  0.36820938656E+02  0.00000000000E+00 0.  1.
         11    1    4    4    0    0  0.18601596583E+02  0.73211316725E+01 -0.72101958035E+01  0.21251006757E+02  0.51100000000E-03 0. -1.
        -11    1    4    4    0    0 -0.60453212565E+01 -0.73450940520E+00 -0.11163485814E+02  0.12716478638E+02  0.51100000000E-03 0.  1.
        -12    1    4    4    0    0  0.16539068324E+02 -0.11359738719E+02 -0.36821534533E+01  0.20399575948E+02  0.00000000000E+00 0.  1.
</event>
