<event>
 4    1  0.8126752E-001  0.1760205E+03  0.7546771E-02  0.1171711E+00
         21   -1    0    0  503  502  0.00000000000E+00  0.00000000000E+00  0.15659309049E+03  0.15659309049E+03  0.00000000000E+00 0.  1.
         21   -1    0    0  501  503 -0.00000000000E+00 -0.00000000000E+00 -0.29670718494E+03  0.29670718494E+03  0.00000000000E+00 0.  1.
          6    1    1    2  501    0 -0.20422465670E+02  0.25241425062E+02 -0.20087831350E+03  0.26708669655E+03  0.17300000000E+03 0.  1.
         -6    1    1    2    0  502  0.20422465670E+02 -0.25241425062E+02  0.60764219045E+02  0.18621357888E+03  0.17300000000E+03 0.  1.
<mgrwt>
<rscale>  2 0.17602047E+03</rscale>
<asrwt>0</asrwt>
<pdfrwt beam="1">  1       21 0.24091245E-01 0.17602047E+03</pdfrwt>
<pdfrwt beam="2">  1       21 0.45647259E-01 0.17602047E+03</pdfrwt>
<totfact> 0.75316645E+04</totfact>
</mgrwt>
</event>
<event>
 4    1  0.8126752E-001  0.2629080E+03  0.7546771E-02  0.1105409E+00
         21   -1    0    0  503  502  0.00000000000E+00  0.00000000000E+00  0.16841269611E+04  0.16841269611E+04  0.00000000000E+00 0.  1.
         21   -1    0    0  501  503 -0.00000000000E+00 -0.00000000000E+00 -0.44311491578E+02  0.44311491578E+02  0.00000000000E+00 0.  1.
          6    1    1    2  501    0  0.19447340319E+03  0.37036606860E+02  0.58517201152E+03  0.64151921083E+03  0.17300000000E+03 0.  1.
         -6    1    1    2    0  502 -0.19447340319E+03 -0.37036606860E+02  0.10546434580E+04  0.10869192419E+04  0.17300000000E+03 0.  1.
<mgrwt>
<rscale>  2 0.26290800E+03</rscale>
<asrwt>0</asrwt>
<pdfrwt beam="1">  1       21 0.25909641E+00 0.26290800E+03</pdfrwt>
<pdfrwt beam="2">  1       21 0.68171538E-02 0.26290800E+03</pdfrwt>
<totfact> 0.87681110E+03</totfact>
</mgrwt>
</event>
<event>
 4    1  0.8126752E-001  0.1856149E+03  0.7546771E-02  0.1162477E+00
         21   -1    0    0  501  502  0.00000000000E+00  0.00000000000E+00  0.41665818636E+03  0.41665818636E+03  0.00000000000E+00 0.  1.
         21   -1    0    0  502  503 -0.00000000000E+00 -0.00000000000E+00 -0.10324998334E+03  0.10324998334E+03  0.00000000000E+00 0.  1.
          6    1    1    2  501    0 -0.48374056412E+02 -0.46731589185E+02  0.27270933879E+03  0.32988372834E+03  0.17300000000E+03 0.  1.
         -6    1    1    2    0  503  0.48374056412E+02  0.46731589185E+02  0.40698864235E+02  0.19002444135E+03  0.17300000000E+03 0.  1.
<mgrwt>
<rscale>  2 0.18561490E+03</rscale>
<asrwt>0</asrwt>
<pdfrwt beam="1">  1       21 0.64101259E-01 0.18561490E+03</pdfrwt>
<pdfrwt beam="2">  1       21 0.15884613E-01 0.18561490E+03</pdfrwt>
<totfact> 0.79605273E+04</totfact>
</mgrwt>
</event>
<event>
 4    1  0.8126752E-001  0.2462029E+03  0.7546771E-02  0.1115728E+00
         21   -1    0    0  503  502  0.00000000000E+00  0.00000000000E+00  0.36160439595E+03  0.36160439595E+03  0.00000000000E+00 0.  1.
         21   -1    0    0  501  503 -0.00000000000E+00 -0.00000000000E+00 -0.17651099007E+03  0.17651099007E+03  0.00000000000E+00 0.  1.
          6    1    1    2  501    0 -0.55689719081E+02  0.16608895551E+03  0.32196227956E+02  0.24829918052E+03  0.17300000000E+03 0.  1.
         -6    1    1    2    0  502  0.55689719081E+02 -0.16608895551E+03  0.15289717793E+03  0.28981620550E+03  0.17300000000E+03 0.  1.
<mgrwt>
<rscale>  2 0.24620294E+03</rscale>
<asrwt>0</asrwt>
<pdfrwt beam="1">  1       21 0.55631445E-01 0.24620294E+03</pdfrwt>
<pdfrwt beam="2">  1       21 0.27155537E-01 0.24620294E+03</pdfrwt>
<totfact> 0.38358642E+04</totfact>
</mgrwt>
</event>
<event>
 4    1  0.8126752E-001  0.2092955E+03  0.7546771E-02  0.1142125E+00
         21   -1    0    0  503  502  0.00000000000E+00  0.00000000000E+00  0.31769646371E+02  0.31769646371E+02  0.00000000000E+00 0. -1.
         21   -1    0    0  501  503 -0.00000000000E+00 -0.00000000000E+00 -0.13817366223E+04  0.13817366223E+04  0.00000000000E+00 0.  1.
          6    1    1    2  501    0 -0.80597551197E+02 -0.85904716595E+02 -0.64250582674E+03  0.67573539421E+03  0.17300000000E+03 0. -1.
         -6    1    1    2    0  502  0.80597551197E+02  0.85904716595E+02 -0.70746114918E+03  0.73777087445E+03  0.17300000000E+03 0. -1.
<mgrwt>
<rscale>  2 0.20929545E+03</rscale>
<asrwt>0</asrwt>
<pdfrwt beam="1">  1       21 0.48876386E-02 0.20929545E+03</pdfrwt>
<pdfrwt beam="2">  1       21 0.21257483E+00 0.20929545E+03</pdfrwt>
<totfact> 0.30884235E+04</totfact>
</mgrwt>
</event>
<event>
 4    1  0.8126752E-001  0.1753590E+03  0.7546771E-02  0.1172372E+00
         21   -1    0    0  503  502  0.00000000000E+00  0.00000000000E+00  0.12169226171E+03  0.12169226171E+03  0.00000000000E+00 0. -1.
         21   -1    0    0  501  503 -0.00000000000E+00 -0.00000000000E+00 -0.27115313833E+03  0.27115313833E+03  0.00000000000E+00 0. -1.
          6    1    1    2  501    0 -0.21278566544E+02  0.19209239633E+02 -0.12598149692E+03  0.21592153632E+03  0.17300000000E+03 0. -1.
         -6    1    1    2    0  502  0.21278566544E+02 -0.19209239633E+02 -0.23479379701E+02  0.17692386372E+03  0.17300000000E+03 0. -1.
<mgrwt>
<rscale>  2 0.17535898E+03</rscale>
<asrwt>0</asrwt>
<pdfrwt beam="1">  1       21 0.18721887E-01 0.17535898E+03</pdfrwt>
<pdfrwt beam="2">  1       21 0.41715867E-01 0.17535898E+03</pdfrwt>
<totfact> 0.14523294E+05</totfact>
</mgrwt>
</event>
<event>
 4    1  0.8126752E-001  0.2071992E+03  0.7546771E-02  0.1143803E+00
         21   -1    0    0  503  502  0.00000000000E+00  0.00000000000E+00  0.18045429111E+03  0.18045429111E+03  0.00000000000E+00 0. -1.
         21   -1    0    0  501  503 -0.00000000000E+00 -0.00000000000E+00 -0.24097834451E+03  0.24097834451E+03  0.00000000000E+00 0. -1.
          6    1    1    2  501    0  0.53740812871E+02 -0.10057064298E+03 -0.64772592331E+01  0.20730046812E+03  0.17300000000E+03 0. -1.
         -6    1    1    2    0  502 -0.53740812871E+02  0.10057064298E+03 -0.54046794170E+02  0.21413216750E+03  0.17300000000E+03 0. -1.
<mgrwt>
<rscale>  2 0.20719925E+03</rscale>
<asrwt>0</asrwt>
<pdfrwt beam="1">  1       21 0.27762199E-01 0.20719925E+03</pdfrwt>
<pdfrwt beam="2">  1       21 0.37073591E-01 0.20719925E+03</pdfrwt>
<totfact> 0.86384585E+04</totfact>
</mgrwt>
</event>
<event>
 4    1  0.8126752E-001  0.2009441E+03  0.7546771E-02  0.1148945E+00
         21   -1    0    0  501  502  0.00000000000E+00  0.00000000000E+00  0.11838536553E+04  0.11838536553E+04  0.00000000000E+00 0. -1.
         21   -1    0    0  502  503 -0.00000000000E+00 -0.00000000000E+00 -0.79736771914E+02  0.79736771914E+02  0.00000000000E+00 0.  1.
          6    1    1    2  501    0 -0.54310947132E+02  0.86601786049E+02  0.10299922268E+04  0.10494105658E+04  0.17300000000E+03 0. -1.
         -6    1    1    2    0  503  0.54310947132E+02 -0.86601786049E+02  0.74124656589E+02  0.21417986142E+03  0.17300000000E+03 0.  1.
<mgrwt>
<rscale>  2 0.20094414E+03</rscale>
<asrwt>0</asrwt>
<pdfrwt beam="1">  1       21 0.18213132E+00 0.20094414E+03</pdfrwt>
<pdfrwt beam="2">  1       21 0.12267197E-01 0.20094414E+03</pdfrwt>
<totfact> 0.98626731E+03</totfact>
</mgrwt>
</event>
<event>
 4    1  0.8126752E-001  0.1868209E+03  0.7546771E-02  0.1161360E+00
         21   -1    0    0  503  502  0.00000000000E+00  0.00000000000E+00  0.97411266766E+02  0.97411266766E+02  0.00000000000E+00 0.  1.
         21   -1    0    0  501  503 -0.00000000000E+00 -0.00000000000E+00 -0.45245860248E+03  0.45245860248E+03  0.00000000000E+00 0.  1.
          6    1    1    2  501    0 -0.59644772110E+02  0.37623602977E+02 -0.30294762753E+03  0.35592035537E+03  0.17300000000E+03 0.  1.
         -6    1    1    2    0  502  0.59644772110E+02 -0.37623602977E+02 -0.52099708190E+02  0.19394951388E+03  0.17300000000E+03 0.  1.
<mgrwt>
<rscale>  2 0.18682086E+03</rscale>
<asrwt>0</asrwt>
<pdfrwt beam="1">  1       21 0.14986349E-01 0.18682086E+03</pdfrwt>
<pdfrwt beam="2">  1       21 0.69609017E-01 0.18682086E+03</pdfrwt>
<totfact> 0.73894431E+04</totfact>
</mgrwt>
</event>
<event>
 4    1  0.8126752E-001  0.2186003E+03  0.7546771E-02  0.1134931E+00
         21   -1    0    0  501  502  0.00000000000E+00  0.00000000000E+00  0.36831496394E+03  0.36831496394E+03  0.00000000000E+00 0. -1.
         21   -1    0    0  502  503 -0.00000000000E+00 -0.00000000000E+00 -0.15832146251E+03  0.15832146251E+03  0.00000000000E+00 0. -1.
          6    1    1    2  501    0 -0.10498822360E+03 -0.82671419366E+02 -0.68786262043E+01  0.21870849588E+03  0.17300000000E+03 0. -1.
         -6    1    1    2    0  503  0.10498822360E+03  0.82671419366E+02  0.21687212764E+03  0.30792793056E+03  0.17300000000E+03 0. -1.
<mgrwt>
<rscale>  2 0.21860030E+03</rscale>
<asrwt>0</asrwt>
<pdfrwt beam="1">  1       21 0.56663840E-01 0.21860030E+03</pdfrwt>
<pdfrwt beam="2">  1       21 0.24357148E-01 0.21860030E+03</pdfrwt>
<totfact> 0.46025152E+04</totfact>
</mgrwt>
</event>
<event>
 4    1  0.8126752E-001  0.2096608E+03  0.7546771E-02  0.1141835E+00
         21   -1    0    0  501  502  0.00000000000E+00  0.00000000000E+00  0.38497978506E+03  0.38497978506E+03  0.00000000000E+00 0.  1.
         21   -1    0    0  502  503 -0.00000000000E+00 -0.00000000000E+00 -0.12747519058E+03  0.12747519058E+03  0.00000000000E+00 0.  1.
          6    1    1    2  501    0  0.16505105313E+02 -0.11728701302E+03  0.21149538768E+03  0.29780523994E+03  0.17300000000E+03 0.  1.
         -6    1    1    2    0  503 -0.16505105313E+02  0.11728701302E+03  0.46009206802E+02  0.21464973570E+03  0.17300000000E+03 0.  1.
<mgrwt>
<rscale>  2 0.20966083E+03</rscale>
<asrwt>0</asrwt>
<pdfrwt beam="1">  1       21 0.59227659E-01 0.20966083E+03</pdfrwt>
<pdfrwt beam="2">  1       21 0.19611568E-01 0.20966083E+03</pdfrwt>
<totfact> 0.63295282E+04</totfact>
</mgrwt>
</event>
<event>
 4    1  0.8126752E-001  0.4984095E+03  0.7546771E-02  0.1014195E+00
         21   -1    0    0  503  502  0.00000000000E+00  0.00000000000E+00  0.36363285987E+03  0.36363285987E+03  0.00000000000E+00 0.  1.
         21   -1    0    0  501  503 -0.00000000000E+00 -0.00000000000E+00 -0.74815545969E+03  0.74815545969E+03  0.00000000000E+00 0. -1.
          6    1    1    2  501    0 -0.19769031859E+03  0.42355825878E+03 -0.35613352228E+03  0.61257093167E+03  0.17300000000E+03 0. -1.
         -6    1    1    2    0  502  0.19769031859E+03 -0.42355825878E+03 -0.28389077544E+02  0.49921738788E+03  0.17300000000E+03 0.  1.
<mgrwt>
<rscale>  2 0.49840953E+03</rscale>
<asrwt>0</asrwt>
<pdfrwt beam="1">  1       21 0.55943517E-01 0.49840953E+03</pdfrwt>
<pdfrwt beam="2">  1       21 0.11510084E+00 0.49840953E+03</pdfrwt>
<totfact> 0.14799504E+03</totfact>
</mgrwt>
</event>
<event>
 4    1  0.8126752E-001  0.2298135E+03  0.7546771E-02  0.1126771E+00
         21   -1    0    0  503  502  0.00000000000E+00  0.00000000000E+00  0.79247431358E+02  0.79247431358E+02  0.00000000000E+00 0. -1.
         21   -1    0    0  501  503 -0.00000000000E+00 -0.00000000000E+00 -0.66974782839E+03  0.66974782839E+03  0.00000000000E+00 0. -1.
          6    1    1    2  501    0  0.80244393566E+02 -0.12824232254E+03 -0.32153889826E+03  0.39522337871E+03  0.17300000000E+03 0. -1.
         -6    1    1    2    0  502 -0.80244393566E+02  0.12824232254E+03 -0.26896149877E+03  0.35377188103E+03  0.17300000000E+03 0. -1.
<mgrwt>
<rscale>  2 0.22981352E+03</rscale>
<asrwt>0</asrwt>
<pdfrwt beam="1">  1       21 0.12191912E-01 0.22981352E+03</pdfrwt>
<pdfrwt beam="2">  1       21 0.10303813E+00 0.22981352E+03</pdfrwt>
<totfact> 0.42784445E+04</totfact>
</mgrwt>
</event>
<event>
 4    1  0.8126752E-001  0.1800717E+03  0.7546771E-02  0.1167734E+00
         21   -1    0    0  501  502  0.00000000000E+00  0.00000000000E+00  0.10813988786E+03  0.10813988786E+03  0.00000000000E+00 0.  1.
         21   -1    0    0  502  503 -0.00000000000E+00 -0.00000000000E+00 -0.31583176083E+03  0.31583176083E+03  0.00000000000E+00 0.  1.
          6    1    1    2  501    0  0.32565911477E+02 -0.37898345082E+02 -0.56160972319E+02  0.18862629181E+03  0.17300000000E+03 0.  1.
         -6    1    1    2    0  503 -0.32565911477E+02  0.37898345082E+02 -0.15153090065E+03  0.23534535687E+03  0.17300000000E+03 0.  1.
<mgrwt>
<rscale>  2 0.18007172E+03</rscale>
<asrwt>0</asrwt>
<pdfrwt beam="1">  1       21 0.16636906E-01 0.18007172E+03</pdfrwt>
<pdfrwt beam="2">  1       21 0.48589501E-01 0.18007172E+03</pdfrwt>
<totfact> 0.13184015E+05</totfact>
</mgrwt>
</event>
<event>
 4    1  0.8126752E-001  0.3525616E+03  0.7546771E-02  0.1061569E+00
         21   -1    0    0  503  502  0.00000000000E+00  0.00000000000E+00  0.14802806952E+04  0.14802806952E+04  0.00000000000E+00 0. -1.
         21   -1    0    0  501  503 -0.00000000000E+00 -0.00000000000E+00 -0.94119159210E+02  0.94119159210E+02  0.00000000000E+00 0. -1.
          6    1    1    2  501    0 -0.24597300559E+02  0.30621173218E+03  0.95157692421E+03  0.10147897786E+04  0.17300000000E+03 0. -1.
         -6    1    1    2    0  502  0.24597300559E+02 -0.30621173218E+03  0.43458461178E+03  0.55961007578E+03  0.17300000000E+03 0. -1.
<mgrwt>
<rscale>  2 0.35256156E+03</rscale>
<asrwt>0</asrwt>
<pdfrwt beam="1">  1       21 0.22773547E+00 0.35256156E+03</pdfrwt>
<pdfrwt beam="2">  1       21 0.14479872E-01 0.35256156E+03</pdfrwt>
<totfact> 0.33468040E+03</totfact>
</mgrwt>
</event>
<event>
 4    1  0.8126752E-001  0.1808585E+03  0.7546771E-02  0.1166975E+00
         21   -1    0    0  501  502  0.00000000000E+00  0.00000000000E+00  0.18437581644E+03  0.18437581644E+03  0.00000000000E+00 0. -1.
         21   -1    0    0  502  503 -0.00000000000E+00 -0.00000000000E+00 -0.19755365972E+03  0.19755365972E+03  0.00000000000E+00 0. -1.
          6    1    1    2  501    0 -0.25089296927E+02 -0.46382194879E+02  0.54392744410E+02  0.18886066681E+03  0.17300000000E+03 0.  1.
         -6    1    1    2    0  503  0.25089296927E+02  0.46382194879E+02 -0.67570587697E+02  0.19306880935E+03  0.17300000000E+03 0.  1.
<mgrwt>
<rscale>  2 0.18085846E+03</rscale>
<asrwt>0</asrwt>
<pdfrwt beam="1">  1       21 0.28365510E-01 0.18085846E+03</pdfrwt>
<pdfrwt beam="2">  1       21 0.30392871E-01 0.18085846E+03</pdfrwt>
<totfact> 0.12394373E+05</totfact>
</mgrwt>
</event>
<event>
 4    1  0.8126752E-001  0.1992319E+03  0.7546771E-02  0.1150389E+00
         21   -1    0    0  501  502  0.00000000000E+00  0.00000000000E+00  0.12030831546E+04  0.12030831546E+04  0.00000000000E+00 0. -1.
         21   -1    0    0  502  503 -0.00000000000E+00 -0.00000000000E+00 -0.38248593600E+02  0.38248593600E+02  0.00000000000E+00 0.  1.
          6    1    1    2  501    0 -0.71203808096E+02  0.68515443163E+02  0.81248735662E+03  0.83655785987E+03  0.17300000000E+03 0. -1.
         -6    1    1    2    0  503  0.71203808096E+02 -0.68515443163E+02  0.35234720436E+03  0.40477388831E+03  0.17300000000E+03 0.  1.
<mgrwt>
<rscale>  2 0.19923190E+03</rscale>
<asrwt>0</asrwt>
<pdfrwt beam="1">  1       21 0.18508969E+00 0.19923190E+03</pdfrwt>
<pdfrwt beam="2">  1       21 0.58843999E-02 0.19923190E+03</pdfrwt>
<totfact> 0.34121745E+04</totfact>
</mgrwt>
</event>
<event>
 4    1  0.8126752E-001  0.3416986E+03  0.7546771E-02  0.1066075E+00
         21   -1    0    0  503  502  0.00000000000E+00  0.00000000000E+00  0.58746633462E+03  0.58746633462E+03  0.00000000000E+00 0.  1.
         21   -1    0    0  501  503 -0.00000000000E+00 -0.00000000000E+00 -0.23009241129E+03  0.23009241129E+03  0.00000000000E+00 0. -1.
          6    1    1    2  501    0 -0.27429362411E+03 -0.10766572822E+03  0.27812335383E+02  0.34282856832E+03  0.17300000000E+03 0. -1.
         -6    1    1    2    0  502  0.27429362411E+03  0.10766572822E+03  0.32956158795E+03  0.47473017758E+03  0.17300000000E+03 0.  1.
<mgrwt>
<rscale>  2 0.34169855E+03</rscale>
<asrwt>0</asrwt>
<pdfrwt beam="1">  1       21 0.90379436E-01 0.34169855E+03</pdfrwt>
<pdfrwt beam="2">  1       21 0.35398833E-01 0.34169855E+03</pdfrwt>
<totfact> 0.73671158E+03</totfact>
</mgrwt>
</event>
<event>
 4    1  0.8126752E-001  0.2988784E+03  0.7546771E-02  0.1085803E+00
         21   -1    0    0  501  502  0.00000000000E+00  0.00000000000E+00  0.30130631453E+03  0.30130631453E+03  0.00000000000E+00 0. -1.
         21   -1    0    0  502  503 -0.00000000000E+00 -0.00000000000E+00 -0.45849389028E+03  0.45849389028E+03  0.00000000000E+00 0.  1.
          6    1    1    2  501    0  0.24371926963E+03 -0.48198246023E+00  0.14724161326E+03  0.33317924211E+03  0.17300000000E+03 0. -1.
         -6    1    1    2    0  503 -0.24371926963E+03  0.48198246023E+00 -0.30442918901E+03  0.42662096270E+03  0.17300000000E+03 0.  1.
<mgrwt>
<rscale>  2 0.29887843E+03</rscale>
<asrwt>0</asrwt>
<pdfrwt beam="1">  1       21 0.46354818E-01 0.29887843E+03</pdfrwt>
<pdfrwt beam="2">  1       21 0.70537521E-01 0.29887843E+03</pdfrwt>
<totfact> 0.76270077E+03</totfact>
</mgrwt>
</event>
<event>
 4    1  0.8126752E-001  0.1926035E+03  0.7546771E-02  0.1156134E+00
         21   -1    0    0  503  502  0.00000000000E+00  0.00000000000E+00  0.78249729976E+03  0.78249729976E+03  0.00000000000E+00 0. -1.
         21   -1    0    0  501  503 -0.00000000000E+00 -0.00000000000E+00 -0.48444446836E+02  0.48444446836E+02  0.00000000000E+00 0. -1.
          6    1    1    2  501    0 -0.17981072825E+02  0.82727113590E+02  0.42781696808E+03  0.46917315831E+03  0.17300000000E+03 0. -1.
         -6    1    1    2    0  502  0.17981072825E+02 -0.82727113590E+02  0.30623588484E+03  0.36176858828E+03  0.17300000000E+03 0. -1.
<mgrwt>
<rscale>  2 0.19260346E+03</rscale>
<asrwt>0</asrwt>
<pdfrwt beam="1">  1       21 0.12038419E+00 0.19260346E+03</pdfrwt>
<pdfrwt beam="2">  1       21 0.74529924E-02 0.19260346E+03</pdfrwt>
<totfact> 0.71108856E+04</totfact>
</mgrwt>
</event>
<event>
 4    1  0.8126752E-001  0.1837642E+03  0.7546771E-02  0.1164209E+00
         21   -1    0    0  501  502  0.00000000000E+00  0.00000000000E+00  0.64521333262E+03  0.64521333262E+03  0.00000000000E+00 0.  1.
         21   -1    0    0  502  503 -0.00000000000E+00 -0.00000000000E+00 -0.52468855846E+02  0.52468855846E+02  0.00000000000E+00 0. -1.
          6    1    1    2  501    0 -0.37888608803E+02  0.49037997879E+02  0.31378329183E+03  0.36363336776E+03  0.17300000000E+03 0.  1.
         -6    1    1    2    0  503  0.37888608803E+02 -0.49037997879E+02  0.27896118494E+03  0.33404882071E+03  0.17300000000E+03 0. -1.
<mgrwt>
<rscale>  2 0.18376417E+03</rscale>
<asrwt>0</asrwt>
<pdfrwt beam="1">  1       21 0.99263584E-01 0.18376417E+03</pdfrwt>
<pdfrwt beam="2">  1       21 0.80721321E-02 0.18376417E+03</pdfrwt>
<totfact> 0.99061725E+04</totfact>
</mgrwt>
</event>
<event>
 4    1  0.8126752E-001  0.1790893E+03  0.7546771E-02  0.1168687E+00
         21   -1    0    0  501  502  0.00000000000E+00  0.00000000000E+00  0.36884416924E+03  0.36884416924E+03  0.00000000000E+00 0. -1.
         21   -1    0    0  502  503 -0.00000000000E+00 -0.00000000000E+00 -0.87014610509E+02  0.87014610509E+02  0.00000000000E+00 0. -1.
          6    1    1    2  501    0 -0.37273964211E+02 -0.27470778221E+02  0.14686051672E+03  0.23160527506E+03  0.17300000000E+03 0. -1.
         -6    1    1    2    0  503  0.37273964211E+02  0.27470778221E+02  0.13496904201E+03  0.22425350469E+03  0.17300000000E+03 0. -1.
<mgrwt>
<rscale>  2 0.17908934E+03</rscale>
<asrwt>0</asrwt>
<pdfrwt beam="1">  1       21 0.56745256E-01 0.17908934E+03</pdfrwt>
<pdfrwt beam="2">  1       21 0.13386863E-01 0.17908934E+03</pdfrwt>
<totfact> 0.14139069E+05</totfact>
</mgrwt>
</event>
<event>
 4    1  0.8126752E-001  0.1848313E+03  0.7546771E-02  0.1163207E+00
         21   -1    0    0  501  502  0.00000000000E+00  0.00000000000E+00  0.20019412485E+04  0.20019412485E+04  0.00000000000E+00 0.  1.
         21   -1    0    0  502  503 -0.00000000000E+00 -0.00000000000E+00 -0.17844643512E+02  0.17844643512E+02  0.00000000000E+00 0.  1.
          6    1    1    2  501    0 -0.25279839641E+02 -0.59954581800E+02  0.12031733278E+04  0.12172874266E+04  0.17300000000E+03 0.  1.
         -6    1    1    2    0  503  0.25279839641E+02  0.59954581800E+02  0.78092327718E+03  0.80249846543E+03  0.17300000000E+03 0.  1.
<mgrwt>
<rscale>  2 0.18483133E+03</rscale>
<asrwt>0</asrwt>
<pdfrwt beam="1">  1       21 0.30799078E+00 0.18483133E+03</pdfrwt>
<pdfrwt beam="2">  1       21 0.27453314E-02 0.18483133E+03</pdfrwt>
<totfact> 0.22674112E+04</totfact>
</mgrwt>
</event>
<event>
 4    1  0.8126752E-001  0.3084732E+03  0.7546771E-02  0.1081080E+00
         21   -1    0    0  503  502  0.00000000000E+00  0.00000000000E+00  0.19787371756E+03  0.19787371756E+03  0.00000000000E+00 0.  1.
         21   -1    0    0  501  503 -0.00000000000E+00 -0.00000000000E+00 -0.67796107629E+03  0.67796107629E+03  0.00000000000E+00 0. -1.
          6    1    1    2  501    0 -0.31940476198E+02  0.25339008653E+03 -0.47614582702E+03  0.56733638924E+03  0.17300000000E+03 0. -1.
         -6    1    1    2    0  502  0.31940476198E+02 -0.25339008653E+03 -0.39415317101E+01  0.30849840460E+03  0.17300000000E+03 0.  1.
<mgrwt>
<rscale>  2 0.30847322E+03</rscale>
<asrwt>0</asrwt>
<pdfrwt beam="1">  1       21 0.30442110E-01 0.30847322E+03</pdfrwt>
<pdfrwt beam="2">  1       21 0.10430170E+00 0.30847322E+03</pdfrwt>
<totfact> 0.71717734E+03</totfact>
</mgrwt>
</event>
<event>
 4    1  0.8126752E-001  0.2151737E+03  0.7546771E-02  0.1137533E+00
         21   -1    0    0  503  502  0.00000000000E+00  0.00000000000E+00  0.45694225091E+03  0.45694225091E+03  0.00000000000E+00 0. -1.
         21   -1    0    0  501  503 -0.00000000000E+00 -0.00000000000E+00 -0.12817309196E+03  0.12817309196E+03  0.00000000000E+00 0.  1.
          6    1    1    2  501    0  0.71555814550E+02 -0.10606822235E+03  0.30488067591E+02  0.21732285810E+03  0.17300000000E+03 0.  1.
         -6    1    1    2    0  502 -0.71555814550E+02  0.10606822235E+03  0.29828109136E+03  0.36779248477E+03  0.17300000000E+03 0. -1.
<mgrwt>
<rscale>  2 0.21517366E+03</rscale>
<asrwt>0</asrwt>
<pdfrwt beam="1">  1       21 0.70298807E-01 0.21517366E+03</pdfrwt>
<pdfrwt beam="2">  1       21 0.19718937E-01 0.21517366E+03</pdfrwt>
<totfact> 0.43015290E+04</totfact>
</mgrwt>
</event>
<event>
 4    1  0.8126752E-001  0.1958343E+03  0.7546771E-02  0.1153302E+00
         21   -1    0    0  501  502  0.00000000000E+00  0.00000000000E+00  0.13887452199E+04  0.13887452199E+04  0.00000000000E+00 0.  1.
         21   -1    0    0  502  503 -0.00000000000E+00 -0.00000000000E+00 -0.28117012897E+02  0.28117012897E+02  0.00000000000E+00 0. -1.
          6    1    1    2  501    0  0.69008866814E+02  0.60496727655E+02  0.77491530975E+03  0.79927768331E+03  0.17300000000E+03 0.  1.
         -6    1    1    2    0  503 -0.69008866814E+02 -0.60496727655E+02  0.58571289727E+03  0.61758454950E+03  0.17300000000E+03 0. -1.
<mgrwt>
<rscale>  2 0.19583431E+03</rscale>
<asrwt>0</asrwt>
<pdfrwt beam="1">  1       21 0.21365306E+00 0.19583431E+03</pdfrwt>
<pdfrwt beam="2">  1       21 0.43256954E-02 0.19583431E+03</pdfrwt>
<totfact> 0.37742223E+04</totfact>
</mgrwt>
</event>
<event>
 4    1  0.8126752E-001  0.2102885E+03  0.7546771E-02  0.1141338E+00
         21   -1    0    0  501  502  0.00000000000E+00  0.00000000000E+00  0.15351598715E+03  0.15351598715E+03  0.00000000000E+00 0. -1.
         21   -1    0    0  502  503 -0.00000000000E+00 -0.00000000000E+00 -0.38517792995E+03  0.38517792995E+03  0.00000000000E+00 0. -1.
          6    1    1    2  501    0  0.60663210004E+01 -0.11939620991E+03  0.19419642167E+02  0.21118327986E+03  0.17300000000E+03 0. -1.
         -6    1    1    2    0  503 -0.60663210004E+01  0.11939620991E+03 -0.25108158498E+03  0.32751063724E+03  0.17300000000E+03 0. -1.
<mgrwt>
<rscale>  2 0.21028850E+03</rscale>
<asrwt>0</asrwt>
<pdfrwt beam="1">  1       21 0.23617844E-01 0.21028850E+03</pdfrwt>
<pdfrwt beam="2">  1       21 0.59258144E-01 0.21028850E+03</pdfrwt>
<totfact> 0.44524779E+04</totfact>
</mgrwt>
</event>
<event>
 4    1  0.8126752E-001  0.2132957E+03  0.7546771E-02  0.1138982E+00
         21   -1    0    0  503  502  0.00000000000E+00  0.00000000000E+00  0.22306571345E+03  0.22306571345E+03  0.00000000000E+00 0.  1.
         21   -1    0    0  501  503 -0.00000000000E+00 -0.00000000000E+00 -0.55419284595E+03  0.55419284595E+03  0.00000000000E+00 0.  1.
          6    1    1    2  501    0  0.11624210434E+03 -0.45319217618E+02 -0.47451303750E+03  0.52024771126E+03  0.17300000000E+03 0.  1.
         -6    1    1    2    0  502 -0.11624210434E+03  0.45319217618E+02  0.14338590501E+03  0.25701084814E+03  0.17300000000E+03 0.  1.
<mgrwt>
<rscale>  2 0.21329571E+03</rscale>
<asrwt>0</asrwt>
<pdfrwt beam="1">  1       21 0.34317802E-01 0.21329571E+03</pdfrwt>
<pdfrwt beam="2">  1       21 0.85260437E-01 0.21329571E+03</pdfrwt>
<totfact> 0.95990233E+03</totfact>
</mgrwt>
</event>
<event>
 4    1  0.8126752E-001  0.1987708E+03  0.7546771E-02  0.1150780E+00
         21   -1    0    0  501  502  0.00000000000E+00  0.00000000000E+00  0.27846841795E+03  0.27846841795E+03  0.00000000000E+00 0.  1.
         21   -1    0    0  502  503 -0.00000000000E+00 -0.00000000000E+00 -0.25461958209E+03  0.25461958209E+03  0.00000000000E+00 0.  1.
          6    1    1    2  501    0 -0.97222127639E+02  0.11344083076E+02  0.18928461523E+03  0.27447858912E+03  0.17300000000E+03 0.  1.
         -6    1    1    2    0  503  0.97222127639E+02 -0.11344083076E+02 -0.16543577937E+03  0.25860941093E+03  0.17300000000E+03 0.  1.
<mgrwt>
<rscale>  2 0.19877080E+03</rscale>
<asrwt>0</asrwt>
<pdfrwt beam="1">  1       21 0.42841295E-01 0.19877080E+03</pdfrwt>
<pdfrwt beam="2">  1       21 0.39172243E-01 0.19877080E+03</pdfrwt>
<totfact> 0.32816149E+04</totfact>
</mgrwt>
</event>
<event>
 4    1  0.8126752E-001  0.1768710E+03  0.7546771E-02  0.1170866E+00
         21   -1    0    0  503  502  0.00000000000E+00  0.00000000000E+00  0.93521607845E+02  0.93521607845E+02  0.00000000000E+00 0.  1.
         21   -1    0    0  501  503 -0.00000000000E+00 -0.00000000000E+00 -0.33452965350E+03  0.33452965350E+03  0.00000000000E+00 0.  1.
          6    1    1    2  501    0 -0.26279364504E+02  0.25763406786E+02 -0.11863222784E+03  0.21297174369E+03  0.17300000000E+03 0.  1.
         -6    1    1    2    0  502  0.26279364504E+02 -0.25763406786E+02 -0.12237581781E+03  0.21507951765E+03  0.17300000000E+03 0.  1.
<mgrwt>
<rscale>  2 0.17687102E+03</rscale>
<asrwt>0</asrwt>
<pdfrwt beam="1">  1       21 0.14387940E-01 0.17687102E+03</pdfrwt>
<pdfrwt beam="2">  1       21 0.51466099E-01 0.17687102E+03</pdfrwt>
<totfact> 0.15256961E+05</totfact>
</mgrwt>
</event>
<event>
 4    1  0.8126752E-001  0.1790972E+03  0.7546771E-02  0.1168680E+00
         21   -1    0    0  503  502  0.00000000000E+00  0.00000000000E+00  0.14107115338E+03  0.14107115338E+03  0.00000000000E+00 0. -1.
         21   -1    0    0  501  503 -0.00000000000E+00 -0.00000000000E+00 -0.23018414923E+03  0.23018414923E+03  0.00000000000E+00 0. -1.
          6    1    1    2  501    0 -0.27797624466E+02  0.37068982753E+02 -0.65069144402E+02  0.19055133419E+03  0.17300000000E+03 0. -1.
         -6    1    1    2    0  502  0.27797624466E+02 -0.37068982753E+02 -0.24043851451E+02  0.18070396841E+03  0.17300000000E+03 0. -1.
<mgrwt>
<rscale>  2 0.17909723E+03</rscale>
<asrwt>0</asrwt>
<pdfrwt beam="1">  1       21 0.21703255E-01 0.17909723E+03</pdfrwt>
<pdfrwt beam="2">  1       21 0.35412946E-01 0.17909723E+03</pdfrwt>
<totfact> 0.15291093E+05</totfact>
</mgrwt>
</event>
<event>
 4    1  0.8126752E-001  0.2563977E+03  0.7546771E-02  0.1109327E+00
         21   -1    0    0  503  502  0.00000000000E+00  0.00000000000E+00  0.46501731027E+03  0.46501731027E+03  0.00000000000E+00 0. -1.
         21   -1    0    0  501  503 -0.00000000000E+00 -0.00000000000E+00 -0.14627973605E+03  0.14627973605E+03  0.00000000000E+00 0. -1.
          6    1    1    2  501    0  0.16645352988E+03 -0.90022352671E+02  0.10337622595E+03  0.27645333364E+03  0.17300000000E+03 0. -1.
         -6    1    1    2    0  502 -0.16645352988E+03  0.90022352671E+02  0.21536134827E+03  0.33484371268E+03  0.17300000000E+03 0. -1.
<mgrwt>
<rscale>  2 0.25639774E+03</rscale>
<asrwt>0</asrwt>
<pdfrwt beam="1">  1       21 0.71541124E-01 0.25639774E+03</pdfrwt>
<pdfrwt beam="2">  1       21 0.22504575E-01 0.25639774E+03</pdfrwt>
<totfact> 0.31648026E+04</totfact>
</mgrwt>
</event>
<event>
 4    1  0.8126752E-001  0.1800302E+03  0.7546771E-02  0.1167774E+00
         21   -1    0    0  503  502  0.00000000000E+00  0.00000000000E+00  0.43483230714E+03  0.43483230714E+03  0.00000000000E+00 0. -1.
         21   -1    0    0  501  503 -0.00000000000E+00 -0.00000000000E+00 -0.12301205032E+03  0.12301205032E+03  0.00000000000E+00 0.  1.
          6    1    1    2  501    0  0.48627096795E+01  0.49580443346E+02 -0.19183651178E+02  0.18104938216E+03  0.17300000000E+03 0.  1.
         -6    1    1    2    0  502 -0.48627096795E+01 -0.49580443346E+02  0.33100390799E+03  0.37679497530E+03  0.17300000000E+03 0. -1.
<mgrwt>
<rscale>  2 0.18003018E+03</rscale>
<asrwt>0</asrwt>
<pdfrwt beam="1">  1       21 0.66897277E-01 0.18003018E+03</pdfrwt>
<pdfrwt beam="2">  1       21 0.18924931E-01 0.18003018E+03</pdfrwt>
<totfact> 0.52683088E+04</totfact>
</mgrwt>
</event>
<event>
 4    1  0.8126752E-001  0.2500487E+03  0.7546771E-02  0.1113274E+00
         21   -1    0    0  503  502  0.00000000000E+00  0.00000000000E+00  0.84879035291E+03  0.84879035291E+03  0.00000000000E+00 0. -1.
         21   -1    0    0  501  503 -0.00000000000E+00 -0.00000000000E+00 -0.75267337711E+02  0.75267337711E+02  0.00000000000E+00 0.  1.
          6    1    1    2  501    0  0.16567997409E+03 -0.71732076849E+02  0.31930412112E+03  0.40556068156E+03  0.17300000000E+03 0.  1.
         -6    1    1    2    0  502 -0.16567997409E+03  0.71732076849E+02  0.45421889408E+03  0.51849700906E+03  0.17300000000E+03 0.  1.
<mgrwt>
<rscale>  2 0.25004868E+03</rscale>
<asrwt>0</asrwt>
<pdfrwt beam="1">  1       21 0.13058312E+00 0.25004868E+03</pdfrwt>
<pdfrwt beam="2">  1       21 0.11579591E-01 0.25004868E+03</pdfrwt>
<totfact> 0.25881549E+04</totfact>
</mgrwt>
</event>
<event>
 4    1  0.8126752E-001  0.2464631E+03  0.7546771E-02  0.1115561E+00
         21   -1    0    0  501  502  0.00000000000E+00  0.00000000000E+00  0.31990291325E+03  0.31990291325E+03  0.00000000000E+00 0.  1.
         21   -1    0    0  502  503 -0.00000000000E+00 -0.00000000000E+00 -0.19664344100E+03  0.19664344100E+03  0.00000000000E+00 0. -1.
          6    1    1    2  501    0  0.14332829002E+03  0.10135109551E+03  0.10951868209E+03  0.26970054692E+03  0.17300000000E+03 0. -1.
         -6    1    1    2    0  503 -0.14332829002E+03 -0.10135109551E+03  0.13740790162E+02  0.24684580733E+03  0.17300000000E+03 0. -1.
<mgrwt>
<rscale>  2 0.24646307E+03</rscale>
<asrwt>0</asrwt>
<pdfrwt beam="1">  1       21 0.49215833E-01 0.24646307E+03</pdfrwt>
<pdfrwt beam="2">  1       21 0.30252837E-01 0.24646307E+03</pdfrwt>
<totfact> 0.40247538E+04</totfact>
</mgrwt>
</event>
<event>
 4    1  0.8126752E-001  0.1842913E+03  0.7546771E-02  0.1163713E+00
         21   -1    0    0  501  502  0.00000000000E+00  0.00000000000E+00  0.88952624742E+03  0.88952624742E+03  0.00000000000E+00 0. -1.
         21   -1    0    0  502  503 -0.00000000000E+00 -0.00000000000E+00 -0.52215031192E+02  0.52215031192E+02  0.00000000000E+00 0. -1.
          6    1    1    2  501    0 -0.22853971492E+02 -0.59262076037E+02  0.17454316907E+03  0.25382792506E+03  0.17300000000E+03 0. -1.
         -6    1    1    2    0  503  0.22853971492E+02  0.59262076037E+02  0.66276804715E+03  0.68791335355E+03  0.17300000000E+03 0. -1.
<mgrwt>
<rscale>  2 0.18429134E+03</rscale>
<asrwt>0</asrwt>
<pdfrwt beam="1">  1       21 0.13685018E+00 0.18429134E+03</pdfrwt>
<pdfrwt beam="2">  1       21 0.80330824E-02 0.18429134E+03</pdfrwt>
<totfact> 0.45415846E+04</totfact>
</mgrwt>
</event>
<event>
 4    1  0.8126752E-001  0.2616715E+03  0.7546771E-02  0.1106143E+00
         21   -1    0    0  503  502  0.00000000000E+00  0.00000000000E+00  0.46303861848E+02  0.46303861848E+02  0.00000000000E+00 0.  1.
         21   -1    0    0  501  503 -0.00000000000E+00 -0.00000000000E+00 -0.16429867107E+04  0.16429867107E+04  0.00000000000E+00 0. -1.
          6    1    1    2  501    0  0.18329325032E+03 -0.70331867231E+02 -0.53129416094E+03  0.59223768253E+03  0.17300000000E+03 0.  1.
         -6    1    1    2    0  502 -0.18329325032E+03  0.70331867231E+02 -0.10653886879E+04  0.10970528900E+04  0.17300000000E+03 0. -1.
<mgrwt>
<rscale>  2 0.26167153E+03</rscale>
<asrwt>0</asrwt>
<pdfrwt beam="1">  1       21 0.71236724E-02 0.26167153E+03</pdfrwt>
<pdfrwt beam="2">  1       21 0.25276714E+00 0.26167153E+03</pdfrwt>
<totfact> 0.88662668E+03</totfact>
</mgrwt>
</event>
<event>
 4    1  0.8126752E-001  0.2319117E+03  0.7546771E-02  0.1125301E+00
         21   -1    0    0  503  502  0.00000000000E+00  0.00000000000E+00  0.36295953622E+03  0.36295953622E+03  0.00000000000E+00 0.  1.
         21   -1    0    0  501  503 -0.00000000000E+00 -0.00000000000E+00 -0.14844285191E+03  0.14844285191E+03  0.00000000000E+00 0.  1.
          6    1    1    2  501    0  0.11577836115E+01 -0.15444314501E+03  0.96480481524E+02  0.25118023174E+03  0.17300000000E+03 0.  1.
         -6    1    1    2    0  502 -0.11577836115E+01  0.15444314501E+03  0.11803620279E+03  0.26022215638E+03  0.17300000000E+03 0.  1.
<mgrwt>
<rscale>  2 0.23191168E+03</rscale>
<asrwt>0</asrwt>
<pdfrwt beam="1">  1       21 0.55839928E-01 0.23191168E+03</pdfrwt>
<pdfrwt beam="2">  1       21 0.22837362E-01 0.23191168E+03</pdfrwt>
<totfact> 0.53370767E+04</totfact>
</mgrwt>
</event>
<event>
 4    1  0.8126752E-001  0.1759136E+03  0.7546771E-02  0.1171818E+00
         21   -1    0    0  501  502  0.00000000000E+00  0.00000000000E+00  0.12658938895E+04  0.12658938895E+04  0.00000000000E+00 0.  1.
         21   -1    0    0  502  503 -0.00000000000E+00 -0.00000000000E+00 -0.25914554276E+02  0.25914554276E+02  0.00000000000E+00 0.  1.
          6    1    1    2  501    0  0.31209587126E+02  0.65223318901E+01  0.77376805897E+03  0.79351281541E+03  0.17300000000E+03 0.  1.
         -6    1    1    2    0  503 -0.31209587126E+02 -0.65223318901E+01  0.46621127628E+03  0.49829562839E+03  0.17300000000E+03 0.  1.
<mgrwt>
<rscale>  2 0.17591356E+03</rscale>
<asrwt>0</asrwt>
<pdfrwt beam="1">  1       21 0.19475286E+00 0.17591356E+03</pdfrwt>
<pdfrwt beam="2">  1       21 0.39868555E-02 0.17591356E+03</pdfrwt>
<totfact> 0.57815161E+04</totfact>
</mgrwt>
</event>
<event>
 4    1  0.8126752E-001  0.1791599E+03  0.7546771E-02  0.1168619E+00
         21   -1    0    0  501  502  0.00000000000E+00  0.00000000000E+00  0.13483869423E+03  0.13483869423E+03  0.00000000000E+00 0.  1.
         21   -1    0    0  502  503 -0.00000000000E+00 -0.00000000000E+00 -0.25252463904E+03  0.25252463904E+03  0.00000000000E+00 0. -1.
          6    1    1    2  501    0 -0.61462766537E+01  0.46168189671E+02 -0.10521420013E+03  0.20776983988E+03  0.17300000000E+03 0. -1.
         -6    1    1    2    0  503  0.61462766537E+01 -0.46168189671E+02 -0.12471744672E+02  0.17959349339E+03  0.17300000000E+03 0.  1.
<mgrwt>
<rscale>  2 0.17915992E+03</rscale>
<asrwt>0</asrwt>
<pdfrwt beam="1">  1       21 0.20744415E-01 0.17915992E+03</pdfrwt>
<pdfrwt beam="2">  1       21 0.38849944E-01 0.17915992E+03</pdfrwt>
<totfact> 0.13833761E+05</totfact>
</mgrwt>
</event>
<event>
 4    1  0.8126752E-001  0.3606187E+03  0.7546771E-02  0.1058339E+00
         21   -1    0    0  503  502  0.00000000000E+00  0.00000000000E+00  0.26816380304E+03  0.26816380304E+03  0.00000000000E+00 0. -1.
         21   -1    0    0  501  503 -0.00000000000E+00 -0.00000000000E+00 -0.50482556791E+03  0.50482556791E+03  0.00000000000E+00 0. -1.
          6    1    1    2  501    0  0.47161233914E+02  0.31287800349E+03 -0.41640455998E+02  0.36301481324E+03  0.17300000000E+03 0. -1.
         -6    1    1    2    0  502 -0.47161233914E+02 -0.31287800349E+03 -0.19502130888E+03  0.40997455771E+03  0.17300000000E+03 0. -1.
<mgrwt>
<rscale>  2 0.36061867E+03</rscale>
<asrwt>0</asrwt>
<pdfrwt beam="1">  1       21 0.41255970E-01 0.36061867E+03</pdfrwt>
<pdfrwt beam="2">  1       21 0.77665471E-01 0.36061867E+03</pdfrwt>
<totfact> 0.76075090E+03</totfact>
</mgrwt>
</event>
<event>
 4    1  0.8126752E-001  0.1768774E+03  0.7546771E-02  0.1170860E+00
         21   -1    0    0  501  502  0.00000000000E+00  0.00000000000E+00  0.53567266111E+03  0.53567266111E+03  0.00000000000E+00 0. -1.
         21   -1    0    0  502  503 -0.00000000000E+00 -0.00000000000E+00 -0.61016355966E+02  0.61016355966E+02  0.00000000000E+00 0. -1.
          6    1    1    2  501    0  0.22334627059E+02 -0.29287737223E+02  0.29905626557E+03  0.34744820779E+03  0.17300000000E+03 0. -1.
         -6    1    1    2    0  503 -0.22334627059E+02  0.29287737223E+02  0.17560003957E+03  0.24924080929E+03  0.17300000000E+03 0. -1.
<mgrwt>
<rscale>  2 0.17687738E+03</rscale>
<asrwt>0</asrwt>
<pdfrwt beam="1">  1       21 0.82411176E-01 0.17687738E+03</pdfrwt>
<pdfrwt beam="2">  1       21 0.93871320E-02 0.17687738E+03</pdfrwt>
<totfact> 0.11734217E+05</totfact>
</mgrwt>
</event>
<event>
 4    1  0.8126752E-001  0.2177302E+03  0.7546771E-02  0.1135587E+00
         21   -1    0    0  503  502  0.00000000000E+00  0.00000000000E+00  0.25860742921E+03  0.25860742921E+03  0.00000000000E+00 0. -1.
         21   -1    0    0  501  503 -0.00000000000E+00 -0.00000000000E+00 -0.18920963799E+03  0.18920963799E+03  0.00000000000E+00 0. -1.
          6    1    1    2  501    0  0.13219887748E+03  0.94563347251E+00 -0.48244517280E+01  0.21778363750E+03  0.17300000000E+03 0. -1.
         -6    1    1    2    0  502 -0.13219887748E+03 -0.94563347251E+00  0.74222242955E+02  0.23003342970E+03  0.17300000000E+03 0. -1.
<mgrwt>
<rscale>  2 0.21773019E+03</rscale>
<asrwt>0</asrwt>
<pdfrwt beam="1">  1       21 0.39785759E-01 0.21773019E+03</pdfrwt>
<pdfrwt beam="2">  1       21 0.29109175E-01 0.21773019E+03</pdfrwt>
<totfact> 0.68054283E+04</totfact>
</mgrwt>
</event>
<event>
 4    1  0.8126752E-001  0.2927461E+03  0.7546771E-02  0.1088924E+00
         21   -1    0    0  503  502  0.00000000000E+00  0.00000000000E+00  0.11693671388E+04  0.11693671388E+04  0.00000000000E+00 0.  1.
         21   -1    0    0  501  503 -0.00000000000E+00 -0.00000000000E+00 -0.74005706238E+02  0.74005706238E+02  0.00000000000E+00 0.  1.
          6    1    1    2  501    0  0.15441038856E+03  0.17868605435E+03  0.48644694958E+03  0.56774193862E+03  0.17300000000E+03 0.  1.
         -6    1    1    2    0  502 -0.15441038856E+03 -0.17868605435E+03  0.60891448295E+03  0.67563090638E+03  0.17300000000E+03 0.  1.
<mgrwt>
<rscale>  2 0.29274609E+03</rscale>
<asrwt>0</asrwt>
<pdfrwt beam="1">  1       21 0.17990262E+00 0.29274609E+03</pdfrwt>
<pdfrwt beam="2">  1       21 0.11385494E-01 0.29274609E+03</pdfrwt>
<totfact> 0.11001665E+04</totfact>
</mgrwt>
</event>
<event>
 4    1  0.8126752E-001  0.2359822E+03  0.7546771E-02  0.1122499E+00
         21   -1    0    0  501  502  0.00000000000E+00  0.00000000000E+00  0.14631906199E+04  0.14631906199E+04  0.00000000000E+00 0.  1.
         21   -1    0    0  502  503 -0.00000000000E+00 -0.00000000000E+00 -0.50103453003E+02  0.50103453003E+02  0.00000000000E+00 0.  1.
          6    1    1    2  501    0 -0.16049261019E+03  0.84833147470E+00  0.33556167619E+03  0.41023071084E+03  0.17300000000E+03 0.  1.
         -6    1    1    2    0  503  0.16049261019E+03 -0.84833147470E+00  0.10775254907E+04  0.11030633620E+04  0.17300000000E+03 0.  1.
<mgrwt>
<rscale>  2 0.23598220E+03</rscale>
<asrwt>0</asrwt>
<pdfrwt beam="1">  1       21 0.22510622E+00 0.23598220E+03</pdfrwt>
<pdfrwt beam="2">  1       21 0.77082247E-02 0.23598220E+03</pdfrwt>
<totfact> 0.11569455E+04</totfact>
</mgrwt>
</event>
<event>
 4    1  0.8126752E-001  0.2293972E+03  0.7546771E-02  0.1127065E+00
         21   -1    0    0  503  502  0.00000000000E+00  0.00000000000E+00  0.79485521221E+03  0.79485521221E+03  0.00000000000E+00 0.  1.
         21   -1    0    0  501  503 -0.00000000000E+00 -0.00000000000E+00 -0.72487822172E+02  0.72487822172E+02  0.00000000000E+00 0.  1.
          6    1    1    2  501    0  0.93127625360E+02 -0.11841157122E+03  0.48886293898E+03  0.54000928503E+03  0.17300000000E+03 0. -1.
         -6    1    1    2    0  502 -0.93127625360E+02  0.11841157122E+03  0.23350445106E+03  0.32733374936E+03  0.17300000000E+03 0. -1.
<mgrwt>
<rscale>  2 0.22939716E+03</rscale>
<asrwt>0</asrwt>
<pdfrwt beam="1">  1       21 0.12228541E+00 0.22939716E+03</pdfrwt>
<pdfrwt beam="2">  1       21 0.11151973E-01 0.22939716E+03</pdfrwt>
<totfact> 0.33022327E+04</totfact>
</mgrwt>
</event>
<event>
 4    1  0.8126752E-001  0.1755873E+03  0.7546771E-02  0.1172143E+00
         21   -1    0    0  503  502  0.00000000000E+00  0.00000000000E+00  0.43461420181E+02  0.43461420181E+02  0.00000000000E+00 0.  1.
         21   -1    0    0  501  503 -0.00000000000E+00 -0.00000000000E+00 -0.71318079171E+03  0.71318079171E+03  0.00000000000E+00 0.  1.
          6    1    1    2  501    0  0.28863055457E+01  0.29892585309E+02 -0.30726099840E+03  0.35389294787E+03  0.17300000000E+03 0.  1.
         -6    1    1    2    0  502 -0.28863055457E+01 -0.29892585309E+02 -0.36245837312E+03  0.40274926401E+03  0.17300000000E+03 0.  1.
<mgrwt>
<rscale>  2 0.17558729E+03</rscale>
<asrwt>0</asrwt>
<pdfrwt beam="1">  1       21 0.66863724E-02 0.17558729E+03</pdfrwt>
<pdfrwt beam="2">  1       21 0.10972012E+00 0.17558729E+03</pdfrwt>
<totfact> 0.10834625E+05</totfact>
</mgrwt>
</event>
<event>
 4    1  0.8126752E-001  0.1845987E+03  0.7546771E-02  0.1163425E+00
         21   -1    0    0  501  502  0.00000000000E+00  0.00000000000E+00  0.21633304532E+03  0.21633304532E+03  0.00000000000E+00 0.  1.
         21   -1    0    0  502  503 -0.00000000000E+00 -0.00000000000E+00 -0.17517158713E+03  0.17517158713E+03  0.00000000000E+00 0. -1.
          6    1    1    2  501    0 -0.63634759810E+02  0.99150394932E+01 -0.41559394302E+02  0.18921911616E+03  0.17300000000E+03 0. -1.
         -6    1    1    2    0  503  0.63634759810E+02 -0.99150394932E+01  0.82720852493E+02  0.20228551629E+03  0.17300000000E+03 0.  1.
<mgrwt>
<rscale>  2 0.18459873E+03</rscale>
<asrwt>0</asrwt>
<pdfrwt beam="1">  1       21 0.33282007E-01 0.18459873E+03</pdfrwt>
<pdfrwt beam="2">  1       21 0.26949475E-01 0.18459873E+03</pdfrwt>
<totfact> 0.11435514E+05</totfact>
</mgrwt>
</event>
<event>
 4    1  0.8126752E-001  0.2161296E+03  0.7546771E-02  0.1136802E+00
         21   -1    0    0  501  502  0.00000000000E+00  0.00000000000E+00  0.48518340544E+02  0.48518340544E+02  0.00000000000E+00 0.  1.
         21   -1    0    0  502  503 -0.00000000000E+00 -0.00000000000E+00 -0.99597364603E+03  0.99597364603E+03  0.00000000000E+00 0.  1.
          6    1    1    2  501    0 -0.13080156316E+02  0.12888716401E+03 -0.56908311794E+03  0.60874262760E+03  0.17300000000E+03 0.  1.
         -6    1    1    2    0  503  0.13080156316E+02 -0.12888716401E+03 -0.37837218755E+03  0.43574935898E+03  0.17300000000E+03 0.  1.
<mgrwt>
<rscale>  2 0.21612957E+03</rscale>
<asrwt>0</asrwt>
<pdfrwt beam="1">  1       21 0.74643603E-02 0.21612957E+03</pdfrwt>
<pdfrwt beam="2">  1       21 0.15322671E+00 0.21612957E+03</pdfrwt>
<totfact> 0.37719613E+04</totfact>
</mgrwt>
</event>
<event>
 4    1  0.8126752E-001  0.1902858E+03  0.7546771E-02  0.1158204E+00
         21   -1    0    0  503  502  0.00000000000E+00  0.00000000000E+00  0.88401782045E+02  0.88401782045E+02  0.00000000000E+00 0.  1.
         21   -1    0    0  501  503 -0.00000000000E+00 -0.00000000000E+00 -0.42924136642E+03  0.42924136642E+03  0.00000000000E+00 0. -1.
          6    1    1    2  501    0  0.78079003706E+02  0.13540758867E+02 -0.22579577321E+03  0.29528361649E+03  0.17300000000E+03 0.  1.
         -6    1    1    2    0  502 -0.78079003706E+02 -0.13540758867E+02 -0.11504381116E+03  0.22235953197E+03  0.17300000000E+03 0.  1.
<mgrwt>
<rscale>  2 0.19028579E+03</rscale>
<asrwt>0</asrwt>
<pdfrwt beam="1">  1       21 0.13600274E-01 0.19028579E+03</pdfrwt>
<pdfrwt beam="2">  1       21 0.66037134E-01 0.19028579E+03</pdfrwt>
<totfact> 0.98752611E+04</totfact>
</mgrwt>
</event>
<event>
 4    1  0.8126752E-001  0.1846759E+03  0.7546771E-02  0.1163353E+00
         21   -1    0    0  501  502  0.00000000000E+00  0.00000000000E+00  0.21772266134E+04  0.21772266134E+04  0.00000000000E+00 0.  1.
         21   -1    0    0  502  503 -0.00000000000E+00 -0.00000000000E+00 -0.20819575108E+02  0.20819575108E+02  0.00000000000E+00 0.  1.
          6    1    1    2  501    0 -0.62172643312E+02  0.17627622806E+02  0.16250788101E+04  0.16355385381E+04  0.17300000000E+03 0.  1.
         -6    1    1    2    0  503  0.62172643312E+02 -0.17627622806E+02  0.53132822816E+03  0.56250765035E+03  0.17300000000E+03 0.  1.
<mgrwt>
<rscale>  2 0.18467585E+03</rscale>
<asrwt>0</asrwt>
<pdfrwt beam="1">  1       21 0.33495776E+00 0.18467585E+03</pdfrwt>
<pdfrwt beam="2">  1       21 0.32030133E-02 0.18467585E+03</pdfrwt>
<totfact> 0.12277034E+04</totfact>
</mgrwt>
</event>
<event>
 4    1  0.8126752E-001  0.2460589E+03  0.7546771E-02  0.1115821E+00
         21   -1    0    0  503  502  0.00000000000E+00  0.00000000000E+00  0.63690775627E+03  0.63690775627E+03  0.00000000000E+00 0.  1.
         21   -1    0    0  501  503 -0.00000000000E+00 -0.00000000000E+00 -0.10226548326E+03  0.10226548326E+03  0.00000000000E+00 0. -1.
          6    1    1    2  501    0 -0.44575104503E+02 -0.16920124091E+03  0.16922378057E+03  0.29863303196E+03  0.17300000000E+03 0. -1.
         -6    1    1    2    0  502  0.44575104503E+02  0.16920124091E+03  0.36541849244E+03  0.44054020757E+03  0.17300000000E+03 0. -1.
<mgrwt>
<rscale>  2 0.24605894E+03</rscale>
<asrwt>0</asrwt>
<pdfrwt beam="1">  1       21 0.97985807E-01 0.24605894E+03</pdfrwt>
<pdfrwt beam="2">  1       21 0.15733152E-01 0.24605894E+03</pdfrwt>
<totfact> 0.30119451E+04</totfact>
</mgrwt>
</event>
<event>
 4    1  0.8126752E-001  0.2036387E+03  0.7546771E-02  0.1146705E+00
         21   -1    0    0  503  502  0.00000000000E+00  0.00000000000E+00  0.37904721188E+03  0.37904721188E+03  0.00000000000E+00 0. -1.
         21   -1    0    0  501  503 -0.00000000000E+00 -0.00000000000E+00 -0.27685345059E+03  0.27685345059E+03  0.00000000000E+00 0. -1.
          6    1    1    2  501    0 -0.20004932944E+02  0.10554385284E+03 -0.20395407063E+03  0.28821166726E+03  0.17300000000E+03 0. -1.
         -6    1    1    2    0  502  0.20004932944E+02 -0.10554385284E+03  0.30614783192E+03  0.36768899522E+03  0.17300000000E+03 0. -1.
<mgrwt>
<rscale>  2 0.20363866E+03</rscale>
<asrwt>0</asrwt>
<pdfrwt beam="1">  1       21 0.58314956E-01 0.20363866E+03</pdfrwt>
<pdfrwt beam="2">  1       21 0.42592838E-01 0.20363866E+03</pdfrwt>
<totfact> 0.14502473E+04</totfact>
</mgrwt>
</event>
<event>
 4    1  0.8126752E-001  0.1776504E+03  0.7546771E-02  0.1170097E+00
         21   -1    0    0  501  502  0.00000000000E+00  0.00000000000E+00  0.58376479568E+02  0.58376479568E+02  0.00000000000E+00 0. -1.
         21   -1    0    0  502  503 -0.00000000000E+00 -0.00000000000E+00 -0.60235841735E+03  0.60235841735E+03  0.00000000000E+00 0. -1.
          6    1    1    2  501    0 -0.26757255886E+02 -0.30244492214E+02 -0.16622737592E+03  0.24329245890E+03  0.17300000000E+03 0. -1.
         -6    1    1    2    0  503  0.26757255886E+02  0.30244492214E+02 -0.37775456186E+03  0.41744243802E+03  0.17300000000E+03 0. -1.
<mgrwt>
<rscale>  2 0.17765044E+03</rscale>
<asrwt>0</asrwt>
<pdfrwt beam="1">  1       21 0.89809959E-02 0.17765044E+03</pdfrwt>
<pdfrwt beam="2">  1       21 0.92670536E-01 0.17765044E+03</pdfrwt>
<totfact> 0.96838583E+04</totfact>
</mgrwt>
</event>
<event>
 4    1  0.8126752E-001  0.1826762E+03  0.7546771E-02  0.1165238E+00
         21   -1    0    0  501  502  0.00000000000E+00  0.00000000000E+00  0.27369209822E+02  0.27369209822E+02  0.00000000000E+00 0. -1.
         21   -1    0    0  502  503 -0.00000000000E+00 -0.00000000000E+00 -0.15012445839E+04  0.15012445839E+04  0.00000000000E+00 0. -1.
          6    1    1    2  501    0  0.41016071512E+02  0.41943531514E+02 -0.40569704687E+03  0.44492771525E+03  0.17300000000E+03 0. -1.
         -6    1    1    2    0  503 -0.41016071512E+02 -0.41943531514E+02 -0.10681783272E+04  0.10836860785E+04  0.17300000000E+03 0. -1.
<mgrwt>
<rscale>  2 0.18267616E+03</rscale>
<asrwt>0</asrwt>
<pdfrwt beam="1">  1       21 0.42106470E-02 0.18267616E+03</pdfrwt>
<pdfrwt beam="2">  1       21 0.23096074E+00 0.18267616E+03</pdfrwt>
<totfact> 0.31268676E+04</totfact>
</mgrwt>
</event>
<event>
 4    1  0.8126752E-001  0.1860382E+03  0.7546771E-02  0.1162084E+00
         21   -1    0    0  503  502  0.00000000000E+00  0.00000000000E+00  0.94361489592E+03  0.94361489592E+03  0.00000000000E+00 0. -1.
         21   -1    0    0  501  503 -0.00000000000E+00 -0.00000000000E+00 -0.37188316164E+02  0.37188316164E+02  0.00000000000E+00 0. -1.
          6    1    1    2  501    0 -0.86196180439E+01  0.67874375678E+02  0.51064123099E+03  0.54347465027E+03  0.17300000000E+03 0. -1.
         -6    1    1    2    0  502  0.86196180439E+01 -0.67874375678E+02  0.39578534876E+03  0.43732856182E+03  0.17300000000E+03 0. -1.
<mgrwt>
<rscale>  2 0.18603825E+03</rscale>
<asrwt>0</asrwt>
<pdfrwt beam="1">  1       21 0.14517150E+00 0.18603825E+03</pdfrwt>
<pdfrwt beam="2">  1       21 0.57212801E-02 0.18603825E+03</pdfrwt>
<totfact> 0.69887817E+04</totfact>
</mgrwt>
</event>
<event>
 4    1  0.8126752E-001  0.2076118E+03  0.7546771E-02  0.1143471E+00
         21   -1    0    0  503  502  0.00000000000E+00  0.00000000000E+00  0.38074488272E+03  0.38074488272E+03  0.00000000000E+00 0. -1.
         21   -1    0    0  501  503 -0.00000000000E+00 -0.00000000000E+00 -0.14987370043E+03  0.14987370043E+03  0.00000000000E+00 0. -1.
          6    1    1    2  501    0 -0.11084816143E+03 -0.29771610138E+02 -0.15793666674E+02  0.20821167972E+03  0.17300000000E+03 0. -1.
         -6    1    1    2    0  502  0.11084816143E+03  0.29771610138E+02  0.24666484897E+03  0.32240690343E+03  0.17300000000E+03 0. -1.
<mgrwt>
<rscale>  2 0.20761181E+03</rscale>
<asrwt>0</asrwt>
<pdfrwt beam="1">  1       21 0.58576135E-01 0.20761181E+03</pdfrwt>
<pdfrwt beam="2">  1       21 0.23057493E-01 0.20761181E+03</pdfrwt>
<totfact> 0.47836219E+04</totfact>
</mgrwt>
</event>
<event>
 4    1  0.8126752E-001  0.1816734E+03  0.7546771E-02  0.1166193E+00
         21   -1    0    0  501  502  0.00000000000E+00  0.00000000000E+00  0.21469593040E+02  0.21469593040E+02  0.00000000000E+00 0.  1.
         21   -1    0    0  502  503 -0.00000000000E+00 -0.00000000000E+00 -0.16022148569E+04  0.16022148569E+04  0.00000000000E+00 0. -1.
          6    1    1    2  501    0  0.72599328411E+01 -0.54986370418E+02 -0.62696099840E+03  0.65275209771E+03  0.17300000000E+03 0.  1.
         -6    1    1    2    0  503 -0.72599328411E+01  0.54986370418E+02 -0.95378426543E+03  0.97093235219E+03  0.17300000000E+03 0. -1.
<mgrwt>
<rscale>  2 0.18167335E+03</rscale>
<asrwt>0</asrwt>
<pdfrwt beam="1">  1       21 0.33030151E-02 0.18167335E+03</pdfrwt>
<pdfrwt beam="2">  1       21 0.24649453E+00 0.18167335E+03</pdfrwt>
<totfact> 0.37948559E+04</totfact>
</mgrwt>
</event>
<event>
 4    1  0.8126752E-001  0.1817033E+03  0.7546771E-02  0.1166165E+00
         21   -1    0    0  501  502  0.00000000000E+00  0.00000000000E+00  0.27182907030E+03  0.27182907030E+03  0.00000000000E+00 0.  1.
         21   -1    0    0  502  503 -0.00000000000E+00 -0.00000000000E+00 -0.12174398075E+03  0.12174398075E+03  0.00000000000E+00 0.  1.
          6    1    1    2  501    0 -0.55525713836E+02  0.20000794913E+01  0.65522731122E+02  0.19315624118E+03  0.17300000000E+03 0.  1.
         -6    1    1    2    0  503  0.55525713836E+02 -0.20000794913E+01  0.84562358424E+02  0.20041680987E+03  0.17300000000E+03 0.  1.
<mgrwt>
<rscale>  2 0.18170334E+03</rscale>
<asrwt>0</asrwt>
<pdfrwt beam="1">  1       21 0.41819857E-01 0.18170334E+03</pdfrwt>
<pdfrwt beam="2">  1       21 0.18729843E-01 0.18170334E+03</pdfrwt>
<totfact> 0.14408030E+05</totfact>
</mgrwt>
</event>
<event>
 4    1  0.8126752E-001  0.3135729E+03  0.7546771E-02  0.1078646E+00
         21   -1    0    0  503  502  0.00000000000E+00  0.00000000000E+00  0.26478974262E+03  0.26478974262E+03  0.00000000000E+00 0.  1.
         21   -1    0    0  501  503 -0.00000000000E+00 -0.00000000000E+00 -0.37779760693E+03  0.37779760693E+03  0.00000000000E+00 0.  1.
          6    1    1    2  501    0  0.16834672563E+03 -0.20014575115E+03 -0.98498360731E+02  0.32867897529E+03  0.17300000000E+03 0.  1.
         -6    1    1    2    0  502 -0.16834672563E+03  0.20014575115E+03 -0.14509503585E+02  0.31390837425E+03  0.17300000000E+03 0.  1.
<mgrwt>
<rscale>  2 0.31357287E+03</rscale>
<asrwt>0</asrwt>
<pdfrwt beam="1">  1       21 0.40736884E-01 0.31357287E+03</pdfrwt>
<pdfrwt beam="2">  1       21 0.58122709E-01 0.31357287E+03</pdfrwt>
<totfact> 0.15143176E+04</totfact>
</mgrwt>
</event>
<event>
 4    1  0.8126752E-001  0.1732505E+03  0.7546771E-02  0.1174500E+00
         21   -1    0    0  503  502  0.00000000000E+00  0.00000000000E+00  0.10523919886E+03  0.10523919886E+03  0.00000000000E+00 0.  1.
         21   -1    0    0  501  503 -0.00000000000E+00 -0.00000000000E+00 -0.28521637835E+03  0.28521637835E+03  0.00000000000E+00 0.  1.
          6    1    1    2  501    0 -0.93119898111E+01  0.13079581921E+00 -0.89468652184E+02  0.19498812781E+03  0.17300000000E+03 0. -1.
         -6    1    1    2    0  502  0.93119898111E+01 -0.13079581921E+00 -0.90508527305E+02  0.19546744940E+03  0.17300000000E+03 0. -1.
<mgrwt>
<rscale>  2 0.17325048E+03</rscale>
<asrwt>0</asrwt>
<pdfrwt beam="1">  1       21 0.16190646E-01 0.17325048E+03</pdfrwt>
<pdfrwt beam="2">  1       21 0.43879442E-01 0.17325048E+03</pdfrwt>
<totfact> 0.17128725E+05</totfact>
</mgrwt>
</event>
<event>
 4    1  0.8126752E-001  0.2353700E+03  0.7546771E-02  0.1122916E+00
         21   -1    0    0  503  502  0.00000000000E+00  0.00000000000E+00  0.12558964609E+03  0.12558964609E+03  0.00000000000E+00 0.  1.
         21   -1    0    0  501  503 -0.00000000000E+00 -0.00000000000E+00 -0.46361010993E+03  0.46361010993E+03  0.00000000000E+00 0.  1.
          6    1    1    2  501    0  0.15883472911E+03  0.15542757215E+02 -0.23390849716E+03  0.33183163429E+03  0.17300000000E+03 0.  1.
         -6    1    1    2    0  502 -0.15883472911E+03 -0.15542757215E+02 -0.10411196668E+03  0.25736812172E+03  0.17300000000E+03 0.  1.
<mgrwt>
<rscale>  2 0.23537002E+03</rscale>
<asrwt>0</asrwt>
<pdfrwt beam="1">  1       21 0.19321484E-01 0.23537002E+03</pdfrwt>
<pdfrwt beam="2">  1       21 0.71324632E-01 0.23537002E+03</pdfrwt>
<totfact> 0.42870876E+04</totfact>
</mgrwt>
</event>
<event>
 4    1  0.8126752E-001  0.1975706E+03  0.7546771E-02  0.1151805E+00
         21   -1    0    0  501  502  0.00000000000E+00  0.00000000000E+00  0.58596155942E+03  0.58596155942E+03  0.00000000000E+00 0. -1.
         21   -1    0    0  502  503 -0.00000000000E+00 -0.00000000000E+00 -0.68587324059E+02  0.68587324059E+02  0.00000000000E+00 0. -1.
          6    1    1    2  501    0 -0.40861437486E+02  0.86229338770E+02  0.31417752498E+03  0.37113565329E+03  0.17300000000E+03 0.  1.
         -6    1    1    2    0  503  0.40861437486E+02 -0.86229338770E+02  0.20319671037E+03  0.28341323019E+03  0.17300000000E+03 0.  1.
<mgrwt>
<rscale>  2 0.19757064E+03</rscale>
<asrwt>0</asrwt>
<pdfrwt beam="1">  1       21 0.90147929E-01 0.19757064E+03</pdfrwt>
<pdfrwt beam="2">  1       21 0.10551896E-01 0.19757064E+03</pdfrwt>
<totfact> 0.77051971E+04</totfact>
</mgrwt>
</event>
<event>
 4    1  0.8126752E-001  0.2374084E+03  0.7546771E-02  0.1121531E+00
         21   -1    0    0  501  502  0.00000000000E+00  0.00000000000E+00  0.77610477309E+02  0.77610477309E+02  0.00000000000E+00 0.  1.
         21   -1    0    0  502  503 -0.00000000000E+00 -0.00000000000E+00 -0.74463336163E+03  0.74463336163E+03  0.00000000000E+00 0.  1.
          6    1    1    2  501    0 -0.14687947554E+03  0.69715048996E+02 -0.26887285856E+03  0.35868563180E+03  0.17300000000E+03 0.  1.
         -6    1    1    2    0  503  0.14687947554E+03 -0.69715048996E+02 -0.39815002576E+03  0.46355820714E+03  0.17300000000E+03 0.  1.
<mgrwt>
<rscale>  2 0.23740844E+03</rscale>
<asrwt>0</asrwt>
<pdfrwt beam="1">  1       21 0.11940073E-01 0.23740844E+03</pdfrwt>
<pdfrwt beam="2">  1       21 0.11455898E+00 0.23740844E+03</pdfrwt>
<totfact> 0.34212381E+04</totfact>
</mgrwt>
</event>
<event>
 4    1  0.8126752E-001  0.2328150E+03  0.7546771E-02  0.1124674E+00
         21   -1    0    0  501  502  0.00000000000E+00  0.00000000000E+00  0.18169235609E+03  0.18169235609E+03  0.00000000000E+00 0. -1.
         21   -1    0    0  502  503 -0.00000000000E+00 -0.00000000000E+00 -0.40376543457E+03  0.40376543457E+03  0.00000000000E+00 0.  1.
          6    1    1    2  501    0  0.16644587611E+02  0.15490891793E+03  0.38556343699E+02  0.23598603092E+03  0.17300000000E+03 0. -1.
         -6    1    1    2    0  503 -0.16644587611E+02 -0.15490891793E+03 -0.26062942218E+03  0.34947175974E+03  0.17300000000E+03 0.  1.
<mgrwt>
<rscale>  2 0.23281498E+03</rscale>
<asrwt>0</asrwt>
<pdfrwt beam="1">  1       21 0.27952670E-01 0.23281498E+03</pdfrwt>
<pdfrwt beam="2">  1       21 0.62117760E-01 0.23281498E+03</pdfrwt>
<totfact> 0.28777792E+04</totfact>
</mgrwt>
</event>
<event>
 4    1  0.8126752E-001  0.2583161E+03  0.7546771E-02  0.1108159E+00
         21   -1    0    0  501  502  0.00000000000E+00  0.00000000000E+00  0.36894967296E+03  0.36894967296E+03  0.00000000000E+00 0.  1.
         21   -1    0    0  502  503 -0.00000000000E+00 -0.00000000000E+00 -0.18577922550E+03  0.18577922550E+03  0.00000000000E+00 0. -1.
          6    1    1    2  501    0  0.18263254322E+03 -0.58681701854E+02  0.13673193937E+03  0.29227181052E+03  0.17300000000E+03 0.  1.
         -6    1    1    2    0  503 -0.18263254322E+03  0.58681701854E+02  0.46438508086E+02  0.26245708794E+03  0.17300000000E+03 0.  1.
<mgrwt>
<rscale>  2 0.25831606E+03</rscale>
<asrwt>0</asrwt>
<pdfrwt beam="1">  1       21 0.56761488E-01 0.25831606E+03</pdfrwt>
<pdfrwt beam="2">  1       21 0.28581419E-01 0.25831606E+03</pdfrwt>
<totfact> 0.33093412E+04</totfact>
</mgrwt>
</event>
<event>
 4    1  0.8126752E-001  0.2016486E+03  0.7546771E-02  0.1148355E+00
         21   -1    0    0  501  502  0.00000000000E+00  0.00000000000E+00  0.87282424523E+02  0.87282424523E+02  0.00000000000E+00 0. -1.
         21   -1    0    0  502  503 -0.00000000000E+00 -0.00000000000E+00 -0.47821283762E+03  0.47821283762E+03  0.00000000000E+00 0.  1.
          6    1    1    2  501    0 -0.21788127271E+02  0.10128395180E+03 -0.15003796442E+03  0.25134349434E+03  0.17300000000E+03 0. -1.
         -6    1    1    2    0  503  0.21788127271E+02 -0.10128395180E+03 -0.24089244868E+03  0.31415176780E+03  0.17300000000E+03 0.  1.
<mgrwt>
<rscale>  2 0.20164861E+03</rscale>
<asrwt>0</asrwt>
<pdfrwt beam="1">  1       21 0.13428065E-01 0.20164861E+03</pdfrwt>
<pdfrwt beam="2">  1       21 0.73571206E-01 0.20164861E+03</pdfrwt>
<totfact> 0.79254995E+04</totfact>
</mgrwt>
</event>
<event>
 4    1  0.8126752E-001  0.2128534E+03  0.7546771E-02  0.1139326E+00
         21   -1    0    0  501  502  0.00000000000E+00  0.00000000000E+00  0.11054140469E+03  0.11054140469E+03  0.00000000000E+00 0. -1.
         21   -1    0    0  502  503 -0.00000000000E+00 -0.00000000000E+00 -0.43602099607E+03  0.43602099607E+03  0.00000000000E+00 0. -1.
          6    1    1    2  501    0 -0.10188827790E+03  0.70684821241E+02 -0.95800935661E+02  0.23341890326E+03  0.17300000000E+03 0. -1.
         -6    1    1    2    0  503  0.10188827790E+03 -0.70684821241E+02 -0.22967865572E+03  0.31314349749E+03  0.17300000000E+03 0. -1.
<mgrwt>
<rscale>  2 0.21285339E+03</rscale>
<asrwt>0</asrwt>
<pdfrwt beam="1">  1       21 0.17006370E-01 0.21285339E+03</pdfrwt>
<pdfrwt beam="2">  1       21 0.67080153E-01 0.21285339E+03</pdfrwt>
<totfact> 0.62846215E+04</totfact>
</mgrwt>
</event>
<event>
 4    1  0.8126752E-001  0.1816995E+03  0.7546771E-02  0.1166168E+00
         21   -1    0    0  503  502  0.00000000000E+00  0.00000000000E+00  0.89468056159E+03  0.89468056159E+03  0.00000000000E+00 0. -1.
         21   -1    0    0  501  503 -0.00000000000E+00 -0.00000000000E+00 -0.37409268530E+02  0.37409268530E+02  0.00000000000E+00 0. -1.
          6    1    1    2  501    0  0.53677138344E+02 -0.14299554272E+02  0.37431879151E+03  0.41608805572E+03  0.17300000000E+03 0. -1.
         -6    1    1    2    0  502 -0.53677138344E+02  0.14299554272E+02  0.48295250155E+03  0.51600177440E+03  0.17300000000E+03 0. -1.
<mgrwt>
<rscale>  2 0.18169951E+03</rscale>
<asrwt>0</asrwt>
<pdfrwt beam="1">  1       21 0.13764315E+00 0.18169951E+03</pdfrwt>
<pdfrwt beam="2">  1       21 0.57552728E-02 0.18169951E+03</pdfrwt>
<totfact> 0.79574074E+04</totfact>
</mgrwt>
</event>
<event>
 4    1  0.8126752E-001  0.2459496E+03  0.7546771E-02  0.1115892E+00
         21   -1    0    0  503  502  0.00000000000E+00  0.00000000000E+00  0.61763983234E+03  0.61763983234E+03  0.00000000000E+00 0. -1.
         21   -1    0    0  501  503 -0.00000000000E+00 -0.00000000000E+00 -0.10308992874E+03  0.10308992874E+03  0.00000000000E+00 0.  1.
          6    1    1    2  501    0 -0.11327304523E+03  0.13315936698E+03  0.17672498718E+03  0.30285792195E+03  0.17300000000E+03 0.  1.
         -6    1    1    2    0  502  0.11327304523E+03 -0.13315936698E+03  0.33782491641E+03  0.41787183913E+03  0.17300000000E+03 0.  1.
<mgrwt>
<rscale>  2 0.24594959E+03</rscale>
<asrwt>0</asrwt>
<pdfrwt beam="1">  1       21 0.95021511E-01 0.24594959E+03</pdfrwt>
<pdfrwt beam="2">  1       21 0.15859989E-01 0.24594959E+03</pdfrwt>
<totfact> 0.31916879E+04</totfact>
</mgrwt>
</event>
<event>
 4    1  0.8126752E-001  0.1780433E+03  0.7546771E-02  0.1169710E+00
         21   -1    0    0  501  502  0.00000000000E+00  0.00000000000E+00  0.44214821166E+03  0.44214821166E+03  0.00000000000E+00 0.  1.
         21   -1    0    0  502  503 -0.00000000000E+00 -0.00000000000E+00 -0.84683565070E+02  0.84683565070E+02  0.00000000000E+00 0.  1.
          6    1    1    2  501    0  0.34067770504E+02  0.24694392485E+02  0.28189859463E+03  0.33341602190E+03  0.17300000000E+03 0.  1.
         -6    1    1    2    0  503 -0.34067770504E+02 -0.24694392485E+02  0.75566051964E+02  0.19341575483E+03  0.17300000000E+03 0.  1.
<mgrwt>
<rscale>  2 0.17804333E+03</rscale>
<asrwt>0</asrwt>
<pdfrwt beam="1">  1       21 0.68022800E-01 0.17804333E+03</pdfrwt>
<pdfrwt beam="2">  1       21 0.13028241E-01 0.17804333E+03</pdfrwt>
<totfact> 0.10048724E+05</totfact>
</mgrwt>
</event>
<event>
 4    1  0.8126752E-001  0.2198898E+03  0.7546771E-02  0.1133965E+00
         21   -1    0    0  503  502  0.00000000000E+00  0.00000000000E+00  0.23011754341E+03  0.23011754341E+03  0.00000000000E+00 0.  1.
         21   -1    0    0  501  503 -0.00000000000E+00 -0.00000000000E+00 -0.21690096971E+03  0.21690096971E+03  0.00000000000E+00 0. -1.
          6    1    1    2  501    0 -0.26053420384E+02 -0.13320557291E+03  0.46137755310E+02  0.22467798698E+03  0.17300000000E+03 0.  1.
         -6    1    1    2    0  502  0.26053420384E+02  0.13320557291E+03 -0.32921181610E+02  0.22234052614E+03  0.17300000000E+03 0. -1.
<mgrwt>
<rscale>  2 0.21988976E+03</rscale>
<asrwt>0</asrwt>
<pdfrwt beam="1">  1       21 0.35402699E-01 0.21988976E+03</pdfrwt>
<pdfrwt beam="2">  1       21 0.33369380E-01 0.21988976E+03</pdfrwt>
<totfact> 0.65736402E+04</totfact>
</mgrwt>
</event>
<event>
 4    1  0.8126752E-001  0.1932984E+03  0.7546771E-02  0.1155520E+00
         21   -1    0    0  501  502  0.00000000000E+00  0.00000000000E+00  0.13113293386E+03  0.13113293386E+03  0.00000000000E+00 0.  1.
         21   -1    0    0  502  503 -0.00000000000E+00 -0.00000000000E+00 -0.46445550405E+03  0.46445550405E+03  0.00000000000E+00 0.  1.
          6    1    1    2  501    0 -0.33676605068E+02 -0.79379866396E+02  0.18479467441E+02  0.19417973024E+03  0.17300000000E+03 0.  1.
         -6    1    1    2    0  503  0.33676605068E+02  0.79379866396E+02 -0.35180203763E+03  0.40140870768E+03  0.17300000000E+03 0.  1.
<mgrwt>
<rscale>  2 0.19329841E+03</rscale>
<asrwt>0</asrwt>
<pdfrwt beam="1">  1       21 0.20174298E-01 0.19329841E+03</pdfrwt>
<pdfrwt beam="2">  1       21 0.71454693E-01 0.19329841E+03</pdfrwt>
<totfact> 0.40203125E+04</totfact>
</mgrwt>
</event>
<event>
 4    1  0.8126752E-001  0.1933392E+03  0.7546771E-02  0.1155484E+00
         21   -1    0    0  503  502  0.00000000000E+00  0.00000000000E+00  0.81824916610E+03  0.81824916610E+03  0.00000000000E+00 0.  1.
         21   -1    0    0  501  503 -0.00000000000E+00 -0.00000000000E+00 -0.46159118381E+02  0.46159118381E+02  0.00000000000E+00 0. -1.
          6    1    1    2  501    0 -0.69586500193E+02  0.51076142274E+02  0.34214844716E+03  0.39299569108E+03  0.17300000000E+03 0. -1.
         -6    1    1    2    0  502  0.69586500193E+02 -0.51076142274E+02  0.42994160056E+03  0.47141259340E+03  0.17300000000E+03 0. -1.
<mgrwt>
<rscale>  2 0.19333922E+03</rscale>
<asrwt>0</asrwt>
<pdfrwt beam="1">  1       21 0.12588448E+00 0.19333922E+03</pdfrwt>
<pdfrwt beam="2">  1       21 0.71014034E-02 0.19333922E+03</pdfrwt>
<totfact> 0.69134749E+04</totfact>
</mgrwt>
</event>
<event>
 4    1  0.8126752E-001  0.2113350E+03  0.7546771E-02  0.1140513E+00
         21   -1    0    0  503  502  0.00000000000E+00  0.00000000000E+00  0.37282146832E+03  0.37282146832E+03  0.00000000000E+00 0.  1.
         21   -1    0    0  501  503 -0.00000000000E+00 -0.00000000000E+00 -0.14956394748E+03  0.14956394748E+03  0.00000000000E+00 0. -1.
          6    1    1    2  501    0  0.12057764055E+03  0.13946804741E+02 -0.48972328725E+01  0.21139173033E+03  0.17300000000E+03 0. -1.
         -6    1    1    2    0  502 -0.12057764055E+03 -0.13946804741E+02  0.22815475372E+03  0.31099368548E+03  0.17300000000E+03 0.  1.
<mgrwt>
<rscale>  2 0.21133500E+03</rscale>
<asrwt>0</asrwt>
<pdfrwt beam="1">  1       21 0.57357149E-01 0.21133500E+03</pdfrwt>
<pdfrwt beam="2">  1       21 0.23009838E-01 0.21133500E+03</pdfrwt>
<totfact> 0.50145862E+04</totfact>
</mgrwt>
</event>
<event>
 4    1  0.8126752E-001  0.1773508E+03  0.7546771E-02  0.1170392E+00
         21   -1    0    0  501  502  0.00000000000E+00  0.00000000000E+00  0.14594790565E+03  0.14594790565E+03  0.00000000000E+00 0. -1.
         21   -1    0    0  502  503 -0.00000000000E+00 -0.00000000000E+00 -0.25918458276E+03  0.25918458276E+03  0.00000000000E+00 0. -1.
          6    1    1    2  501    0 -0.26941693024E+02  0.28256598705E+02 -0.13977076611E+03  0.22580778829E+03  0.17300000000E+03 0. -1.
         -6    1    1    2    0  503  0.26941693024E+02 -0.28256598705E+02  0.26534088995E+02  0.17932470012E+03  0.17300000000E+03 0. -1.
<mgrwt>
<rscale>  2 0.17735075E+03</rscale>
<asrwt>0</asrwt>
<pdfrwt beam="1">  1       21 0.22453524E-01 0.17735075E+03</pdfrwt>
<pdfrwt beam="2">  1       21 0.39874550E-01 0.17735075E+03</pdfrwt>
<totfact> 0.11321789E+05</totfact>
</mgrwt>
</event>
<event>
 4    1  0.8126752E-001  0.2117075E+03  0.7546771E-02  0.1140221E+00
         21   -1    0    0  503  502  0.00000000000E+00  0.00000000000E+00  0.10908734604E+04  0.10908734604E+04  0.00000000000E+00 0. -1.
         21   -1    0    0  501  503 -0.00000000000E+00 -0.00000000000E+00 -0.93107052721E+02  0.93107052721E+02  0.00000000000E+00 0. -1.
          6    1    1    2  501    0 -0.45509977294E+02 -0.11322497400E+03  0.56385309764E+02  0.21908755311E+03  0.17300000000E+03 0. -1.
         -6    1    1    2    0  502  0.45509977294E+02  0.11322497400E+03  0.94138109790E+03  0.96489296000E+03  0.17300000000E+03 0. -1.
<mgrwt>
<rscale>  2 0.21170747E+03</rscale>
<asrwt>0</asrwt>
<pdfrwt beam="1">  1       21 0.16782668E+00 0.21170747E+03</pdfrwt>
<pdfrwt beam="2">  1       21 0.14324163E-01 0.21170747E+03</pdfrwt>
<totfact> 0.92908583E+03</totfact>
</mgrwt>
</event>
<event>
 4    1  0.8126752E-001  0.1854774E+03  0.7546771E-02  0.1162605E+00
         21   -1    0    0  503  502  0.00000000000E+00  0.00000000000E+00  0.30240591691E+03  0.30240591691E+03  0.00000000000E+00 0.  1.
         21   -1    0    0  501  503 -0.00000000000E+00 -0.00000000000E+00 -0.13561407108E+03  0.13561407108E+03  0.00000000000E+00 0.  1.
          6    1    1    2  501    0 -0.24878530596E+02  0.62079862996E+02 -0.45210418927E+01  0.18553245132E+03  0.17300000000E+03 0.  1.
         -6    1    1    2    0  502  0.24878530596E+02 -0.62079862996E+02  0.17131288772E+03  0.25248753667E+03  0.17300000000E+03 0.  1.
<mgrwt>
<rscale>  2 0.18547736E+03</rscale>
<asrwt>0</asrwt>
<pdfrwt beam="1">  1       21 0.46523987E-01 0.18547736E+03</pdfrwt>
<pdfrwt beam="2">  1       21 0.20863703E-01 0.18547736E+03</pdfrwt>
<totfact> 0.94624436E+04</totfact>
</mgrwt>
</event>
<event>
 4    1  0.8126752E-001  0.1757207E+03  0.7546771E-02  0.1172010E+00
         21   -1    0    0  503  502  0.00000000000E+00  0.00000000000E+00  0.27026313800E+03  0.27026313800E+03  0.00000000000E+00 0.  1.
         21   -1    0    0  501  503 -0.00000000000E+00 -0.00000000000E+00 -0.24464543935E+03  0.24464543935E+03  0.00000000000E+00 0.  1.
          6    1    1    2  501    0 -0.30632287397E+02  0.32315454463E+01 -0.17514941945E+03  0.24810300089E+03  0.17300000000E+03 0.  1.
         -6    1    1    2    0  502  0.30632287397E+02 -0.32315454463E+01  0.20076711810E+03  0.26680557645E+03  0.17300000000E+03 0.  1.
<mgrwt>
<rscale>  2 0.17572074E+03</rscale>
<asrwt>0</asrwt>
<pdfrwt beam="1">  1       21 0.41578945E-01 0.17572074E+03</pdfrwt>
<pdfrwt beam="2">  1       21 0.37637760E-01 0.17572074E+03</pdfrwt>
<totfact> 0.38244429E+04</totfact>
</mgrwt>
</event>
<event>
 4    1  0.8126752E-001  0.2015017E+03  0.7546771E-02  0.1148478E+00
         21   -1    0    0  503  502  0.00000000000E+00  0.00000000000E+00  0.75798913017E+03  0.75798913017E+03  0.00000000000E+00 0.  1.
         21   -1    0    0  501  503 -0.00000000000E+00 -0.00000000000E+00 -0.64130130039E+02  0.64130130039E+02  0.00000000000E+00 0.  1.
          6    1    1    2  501    0  0.50109862314E+02 -0.90349008214E+02  0.18009833240E+03  0.27025608396E+03  0.17300000000E+03 0.  1.
         -6    1    1    2    0  502 -0.50109862314E+02  0.90349008214E+02  0.51376066773E+03  0.55186317624E+03  0.17300000000E+03 0.  1.
<mgrwt>
<rscale>  2 0.20150172E+03</rscale>
<asrwt>0</asrwt>
<pdfrwt beam="1">  1       21 0.11661371E+00 0.20150172E+03</pdfrwt>
<pdfrwt beam="2">  1       21 0.98661744E-02 0.20150172E+03</pdfrwt>
<totfact> 0.46865193E+04</totfact>
</mgrwt>
</event>
<event>
 4    1  0.8126752E-001  0.2073108E+03  0.7546771E-02  0.1143713E+00
         21   -1    0    0  501  502  0.00000000000E+00  0.00000000000E+00  0.29175184546E+03  0.29175184546E+03  0.00000000000E+00 0.  1.
         21   -1    0    0  502  503 -0.00000000000E+00 -0.00000000000E+00 -0.15014388732E+03  0.15014388732E+03  0.00000000000E+00 0.  1.
          6    1    1    2  501    0  0.11358378214E+03 -0.12143793133E+02  0.10116275648E+03  0.23067650634E+03  0.17300000000E+03 0.  1.
         -6    1    1    2    0  503 -0.11358378214E+03  0.12143793133E+02  0.40445201659E+02  0.21121922643E+03  0.17300000000E+03 0.  1.
<mgrwt>
<rscale>  2 0.20731075E+03</rscale>
<asrwt>0</asrwt>
<pdfrwt beam="1">  1       21 0.44884899E-01 0.20731075E+03</pdfrwt>
<pdfrwt beam="2">  1       21 0.23099060E-01 0.20731075E+03</pdfrwt>
<totfact> 0.83342179E+04</totfact>
</mgrwt>
</event>
<event>
 4    1  0.8126752E-001  0.2013311E+03  0.7546771E-02  0.1148621E+00
         21   -1    0    0  501  502  0.00000000000E+00  0.00000000000E+00  0.11366611548E+03  0.11366611548E+03  0.00000000000E+00 0. -1.
         21   -1    0    0  502  503 -0.00000000000E+00 -0.00000000000E+00 -0.35702860385E+03  0.35702860385E+03  0.00000000000E+00 0.  1.
          6    1    1    2  501    0 -0.51383087585E+02  0.89246841515E+02 -0.11360124839E+03  0.23116977321E+03  0.17300000000E+03 0.  1.
         -6    1    1    2    0  503  0.51383087585E+02 -0.89246841515E+02 -0.12976123998E+03  0.23952494612E+03  0.17300000000E+03 0.  1.
<mgrwt>
<rscale>  2 0.20133112E+03</rscale>
<asrwt>0</asrwt>
<pdfrwt beam="1">  1       21 0.17487095E-01 0.20133112E+03</pdfrwt>
<pdfrwt beam="2">  1       21 0.54927477E-01 0.20133112E+03</pdfrwt>
<totfact> 0.92298816E+04</totfact>
</mgrwt>
</event>
<event>
 4    1  0.8126752E-001  0.2116399E+03  0.7546771E-02  0.1140274E+00
         21   -1    0    0  501  502  0.00000000000E+00  0.00000000000E+00  0.22081435367E+03  0.22081435367E+03  0.00000000000E+00 0. -1.
         21   -1    0    0  502  503 -0.00000000000E+00 -0.00000000000E+00 -0.29817299067E+03  0.29817299067E+03  0.00000000000E+00 0. -1.
          6    1    1    2  501    0  0.12155763691E+03 -0.92846498419E+01  0.10804393866E+03  0.23762356048E+03  0.17300000000E+03 0. -1.
         -6    1    1    2    0  503 -0.12155763691E+03  0.92846498419E+01 -0.18540257565E+03  0.28136378387E+03  0.17300000000E+03 0. -1.
<mgrwt>
<rscale>  2 0.21163994E+03</rscale>
<asrwt>0</asrwt>
<pdfrwt beam="1">  1       21 0.33971439E-01 0.21163994E+03</pdfrwt>
<pdfrwt beam="2">  1       21 0.45872768E-01 0.21163994E+03</pdfrwt>
<totfact> 0.37657664E+04</totfact>
</mgrwt>
</event>
<event>
 4    1  0.8126752E-001  0.2110564E+03  0.7546771E-02  0.1140732E+00
         21   -1    0    0  503  502  0.00000000000E+00  0.00000000000E+00  0.55661355893E+02  0.55661355893E+02  0.00000000000E+00 0.  1.
         21   -1    0    0  501  503 -0.00000000000E+00 -0.00000000000E+00 -0.86253457792E+03  0.86253457792E+03  0.00000000000E+00 0. -1.
          6    1    1    2  501    0 -0.40031382604E+02  0.11407581455E+03 -0.52677390445E+03  0.56748176135E+03  0.17300000000E+03 0. -1.
         -6    1    1    2    0  502  0.40031382604E+02 -0.11407581455E+03 -0.28009931758E+03  0.35071417246E+03  0.17300000000E+03 0.  1.
<mgrwt>
<rscale>  2 0.21105640E+03</rscale>
<asrwt>0</asrwt>
<pdfrwt beam="1">  1       21 0.85632861E-02 0.21105640E+03</pdfrwt>
<pdfrwt beam="2">  1       21 0.13269762E+00 0.21105640E+03</pdfrwt>
<totfact> 0.43289936E+04</totfact>
</mgrwt>
</event>
<event>
 4    1  0.8126752E-001  0.1773001E+03  0.7546771E-02  0.1170442E+00
         21   -1    0    0  501  502  0.00000000000E+00  0.00000000000E+00  0.82446391092E+03  0.82446391092E+03  0.00000000000E+00 0.  1.
         21   -1    0    0  502  503 -0.00000000000E+00 -0.00000000000E+00 -0.51361562483E+02  0.51361562483E+02  0.00000000000E+00 0.  1.
          6    1    1    2  501    0 -0.37062634713E+02  0.11518599276E+02  0.60883288172E+03  0.63412364321E+03  0.17300000000E+03 0.  1.
         -6    1    1    2    0  503  0.37062634713E+02 -0.11518599276E+02  0.16426946672E+03  0.24170183019E+03  0.17300000000E+03 0.  1.
<mgrwt>
<rscale>  2 0.17730008E+03</rscale>
<asrwt>0</asrwt>
<pdfrwt beam="1">  1       21 0.12684059E+00 0.17730008E+03</pdfrwt>
<pdfrwt beam="2">  1       21 0.79017795E-02 0.17730008E+03</pdfrwt>
<totfact> 0.56831351E+04</totfact>
</mgrwt>
</event>
<event>
 4    1  0.8126752E-001  0.2167366E+03  0.7546771E-02  0.1136340E+00
         21   -1    0    0  503  502  0.00000000000E+00  0.00000000000E+00  0.47767406394E+02  0.47767406394E+02  0.00000000000E+00 0. -1.
         21   -1    0    0  501  503 -0.00000000000E+00 -0.00000000000E+00 -0.11617847513E+04  0.11617847513E+04  0.00000000000E+00 0.  1.
          6    1    1    2  501    0 -0.14628387960E+02 -0.12973734771E+03 -0.79398389749E+03  0.82303414182E+03  0.17300000000E+03 0. -1.
         -6    1    1    2    0  502  0.14628387960E+02  0.12973734771E+03 -0.32003344738E+03  0.38651801584E+03  0.17300000000E+03 0. -1.
<mgrwt>
<rscale>  2 0.21673664E+03</rscale>
<asrwt>0</asrwt>
<pdfrwt beam="1">  1       21 0.73488320E-02 0.21673664E+03</pdfrwt>
<pdfrwt beam="2">  1       21 0.17873611E+00 0.21673664E+03</pdfrwt>
<totfact> 0.25395603E+04</totfact>
</mgrwt>
</event>
<event>
 4    1  0.8126752E-001  0.2035134E+03  0.7546771E-02  0.1146808E+00
         21   -1    0    0  501  502  0.00000000000E+00  0.00000000000E+00  0.33829092893E+03  0.33829092893E+03  0.00000000000E+00 0.  1.
         21   -1    0    0  502  503 -0.00000000000E+00 -0.00000000000E+00 -0.12306879862E+03  0.12306879862E+03  0.00000000000E+00 0. -1.
          6    1    1    2  501    0  0.10607187250E+03 -0.15409667345E+02  0.91020114951E+02  0.22294026399E+03  0.17300000000E+03 0. -1.
         -6    1    1    2    0  503 -0.10607187250E+03  0.15409667345E+02  0.12420201536E+03  0.23841946356E+03  0.17300000000E+03 0. -1.
<mgrwt>
<rscale>  2 0.20351339E+03</rscale>
<asrwt>0</asrwt>
<pdfrwt beam="1">  1       21 0.52044758E-01 0.20351339E+03</pdfrwt>
<pdfrwt beam="2">  1       21 0.18933661E-01 0.20351339E+03</pdfrwt>
<totfact> 0.89169773E+04</totfact>
</mgrwt>
</event>
<event>
 4    1  0.8126752E-001  0.2934892E+03  0.7546771E-02  0.1088541E+00
         21   -1    0    0  501  502  0.00000000000E+00  0.00000000000E+00  0.42381985849E+03  0.42381985849E+03  0.00000000000E+00 0.  1.
         21   -1    0    0  502  503 -0.00000000000E+00 -0.00000000000E+00 -0.23016730900E+03  0.23016730900E+03  0.00000000000E+00 0. -1.
          6    1    1    2  501    0  0.26790544095E+01 -0.23706479468E+03  0.20867672683E+03  0.36011369112E+03  0.17300000000E+03 0. -1.
         -6    1    1    2    0  503 -0.26790544095E+01  0.23706479468E+03 -0.15024177344E+02  0.29387347637E+03  0.17300000000E+03 0.  1.
<mgrwt>
<rscale>  2 0.29348917E+03</rscale>
<asrwt>0</asrwt>
<pdfrwt beam="1">  1       21 0.65203055E-01 0.29348917E+03</pdfrwt>
<pdfrwt beam="2">  1       21 0.35410355E-01 0.29348917E+03</pdfrwt>
<totfact> 0.15787704E+04</totfact>
</mgrwt>
</event>
<event>
 4    1  0.8126752E-001  0.2800205E+03  0.7546771E-02  0.1095678E+00
         21   -1    0    0  501  502  0.00000000000E+00  0.00000000000E+00  0.14241169910E+03  0.14241169910E+03  0.00000000000E+00 0.  1.
         21   -1    0    0  502  503 -0.00000000000E+00 -0.00000000000E+00 -0.81112304379E+03  0.81112304379E+03  0.00000000000E+00 0. -1.
          6    1    1    2  501    0  0.13045423886E+03 -0.17738149720E+03 -0.64153748158E+02  0.28727549041E+03  0.17300000000E+03 0.  1.
         -6    1    1    2    0  503 -0.13045423886E+03  0.17738149720E+03 -0.60455759654E+03  0.66625925248E+03  0.17300000000E+03 0. -1.
<mgrwt>
<rscale>  2 0.28002054E+03</rscale>
<asrwt>0</asrwt>
<pdfrwt beam="1">  1       21 0.21909492E-01 0.28002054E+03</pdfrwt>
<pdfrwt beam="2">  1       21 0.12478816E+00 0.28002054E+03</pdfrwt>
<totfact> 0.88202535E+03</totfact>
</mgrwt>
</event>
<event>
 4    1  0.8126752E-001  0.2450284E+03  0.7546771E-02  0.1116488E+00
         21   -1    0    0  501  502  0.00000000000E+00  0.00000000000E+00  0.86825639646E+03  0.86825639646E+03  0.00000000000E+00 0.  1.
         21   -1    0    0  502  503 -0.00000000000E+00 -0.00000000000E+00 -0.79515614601E+02  0.79515614601E+02  0.00000000000E+00 0. -1.
          6    1    1    2  501    0  0.13915246982E+03  0.10366542145E+03  0.56547800556E+03  0.61628264963E+03  0.17300000000E+03 0. -1.
         -6    1    1    2    0  503 -0.13915246982E+03 -0.10366542145E+03  0.22326277631E+03  0.33148936144E+03  0.17300000000E+03 0. -1.
<mgrwt>
<rscale>  2 0.24502843E+03</rscale>
<asrwt>0</asrwt>
<pdfrwt beam="1">  1       21 0.13357790E+00 0.24502843E+03</pdfrwt>
<pdfrwt beam="2">  1       21 0.12233172E-01 0.24502843E+03</pdfrwt>
<totfact> 0.22185395E+04</totfact>
</mgrwt>
</event>
<event>
 4    1  0.8126752E-001  0.1916988E+03  0.7546771E-02  0.1156938E+00
         21   -1    0    0  503  502  0.00000000000E+00  0.00000000000E+00  0.75523739542E+03  0.75523739542E+03  0.00000000000E+00 0. -1.
         21   -1    0    0  501  503 -0.00000000000E+00 -0.00000000000E+00 -0.48713859829E+02  0.48713859829E+02  0.00000000000E+00 0. -1.
          6    1    1    2  501    0 -0.55779079559E+02 -0.60894262678E+02  0.36686158157E+03  0.41392733297E+03  0.17300000000E+03 0.  1.
         -6    1    1    2    0  502  0.55779079559E+02  0.60894262678E+02  0.33966195402E+03  0.39002392228E+03  0.17300000000E+03 0.  1.
<mgrwt>
<rscale>  2 0.19169877E+03</rscale>
<asrwt>0</asrwt>
<pdfrwt beam="1">  1       21 0.11619036E+00 0.19169877E+03</pdfrwt>
<pdfrwt beam="2">  1       21 0.74944405E-02 0.19169877E+03</pdfrwt>
<totfact> 0.76882627E+04</totfact>
</mgrwt>
</event>
<event>
 4    1  0.8126752E-001  0.2087176E+03  0.7546771E-02  0.1142586E+00
         21   -1    0    0  503  502  0.00000000000E+00  0.00000000000E+00  0.53907234480E+03  0.53907234480E+03  0.00000000000E+00 0.  1.
         21   -1    0    0  501  503 -0.00000000000E+00 -0.00000000000E+00 -0.80864491718E+02  0.80864491718E+02  0.00000000000E+00 0.  1.
          6    1    1    2  501    0 -0.11589086383E+03 -0.14259510589E+02  0.22113867277E+03  0.30408113811E+03  0.17300000000E+03 0.  1.
         -6    1    1    2    0  502  0.11589086383E+03  0.14259510589E+02  0.23706918031E+03  0.31585569841E+03  0.17300000000E+03 0.  1.
<mgrwt>
<rscale>  2 0.20871757E+03</rscale>
<asrwt>0</asrwt>
<pdfrwt beam="1">  1       21 0.82934205E-01 0.20871757E+03</pdfrwt>
<pdfrwt beam="2">  1       21 0.12440691E-01 0.20871757E+03</pdfrwt>
<totfact> 0.69210344E+04</totfact>
</mgrwt>
</event>
<event>
 4    1  0.8126752E-001  0.1751397E+03  0.7546771E-02  0.1172592E+00
         21   -1    0    0  501  502  0.00000000000E+00  0.00000000000E+00  0.43248466269E+03  0.43248466269E+03  0.00000000000E+00 0.  1.
         21   -1    0    0  502  503 -0.00000000000E+00 -0.00000000000E+00 -0.75974586777E+02  0.75974586777E+02  0.00000000000E+00 0.  1.
          6    1    1    2  501    0  0.21971242752E+02  0.16191833495E+02  0.24379802635E+03  0.30018559031E+03  0.17300000000E+03 0.  1.
         -6    1    1    2    0  503 -0.21971242752E+02 -0.16191833495E+02  0.11271204956E+03  0.20827365915E+03  0.17300000000E+03 0.  1.
<mgrwt>
<rscale>  2 0.17513969E+03</rscale>
<asrwt>0</asrwt>
<pdfrwt beam="1">  1       21 0.66536100E-01 0.17513969E+03</pdfrwt>
<pdfrwt beam="2">  1       21 0.11688398E-01 0.17513969E+03</pdfrwt>
<totfact> 0.12819689E+05</totfact>
</mgrwt>
</event>
<event>
 4    1  0.8126752E-001  0.2081243E+03  0.7546771E-02  0.1143060E+00
         21   -1    0    0  503  502  0.00000000000E+00  0.00000000000E+00  0.66826607343E+02  0.66826607343E+02  0.00000000000E+00 0. -1.
         21   -1    0    0  501  503 -0.00000000000E+00 -0.00000000000E+00 -0.76560736860E+03  0.76560736860E+03  0.00000000000E+00 0.  1.
          6    1    1    2  501    0 -0.11385708733E+03 -0.20574127857E+02 -0.51239493313E+03  0.55304999645E+03  0.17300000000E+03 0. -1.
         -6    1    1    2    0  502  0.11385708733E+03  0.20574127857E+02 -0.18638582812E+03  0.27938397949E+03  0.17300000000E+03 0. -1.
<mgrwt>
<rscale>  2 0.20812432E+03</rscale>
<asrwt>0</asrwt>
<pdfrwt beam="1">  1       21 0.10281016E-01 0.20812432E+03</pdfrwt>
<pdfrwt beam="2">  1       21 0.11778575E+00 0.20812432E+03</pdfrwt>
<totfact> 0.42365561E+04</totfact>
</mgrwt>
</event>
<event>
 4    1  0.8126752E-001  0.2448480E+03  0.7546771E-02  0.1116605E+00
         21   -1    0    0  501  502  0.00000000000E+00  0.00000000000E+00  0.10303286669E+04  0.10303286669E+04  0.00000000000E+00 0. -1.
         21   -1    0    0  502  503 -0.00000000000E+00 -0.00000000000E+00 -0.67282773361E+02  0.67282773361E+02  0.00000000000E+00 0. -1.
          6    1    1    2  501    0 -0.17183855385E+03  0.22204796773E+02  0.68331968069E+03  0.72586247155E+03  0.17300000000E+03 0. -1.
         -6    1    1    2    0  503  0.17183855385E+03 -0.22204796773E+02  0.27972621288E+03  0.37174896874E+03  0.17300000000E+03 0. -1.
<mgrwt>
<rscale>  2 0.24484800E+03</rscale>
<asrwt>0</asrwt>
<pdfrwt beam="1">  1       21 0.15851209E+00 0.24484800E+03</pdfrwt>
<pdfrwt beam="2">  1       21 0.10351197E-01 0.24484800E+03</pdfrwt>
<totfact> 0.19061990E+04</totfact>
</mgrwt>
</event>
<event>
 4    1  0.8126752E-001  0.2575641E+03  0.7546771E-02  0.1108616E+00
         21   -1    0    0  501  502  0.00000000000E+00  0.00000000000E+00  0.19736898437E+03  0.19736898437E+03  0.00000000000E+00 0.  1.
         21   -1    0    0  502  503 -0.00000000000E+00 -0.00000000000E+00 -0.40410886867E+03  0.40410886867E+03  0.00000000000E+00 0. -1.
          6    1    1    2  501    0  0.17183531339E+03 -0.82963256301E+02  0.19987572592E+02  0.25833849865E+03  0.17300000000E+03 0.  1.
         -6    1    1    2    0  503 -0.17183531339E+03  0.82963256301E+02 -0.22672745689E+03  0.34313935439E+03  0.17300000000E+03 0. -1.
<mgrwt>
<rscale>  2 0.25756412E+03</rscale>
<asrwt>0</asrwt>
<pdfrwt beam="1">  1       21 0.30364460E-01 0.25756412E+03</pdfrwt>
<pdfrwt beam="2">  1       21 0.62170594E-01 0.25756412E+03</pdfrwt>
<totfact> 0.24156842E+04</totfact>
</mgrwt>
</event>
<event>
 4    1  0.8126752E-001  0.3239022E+03  0.7546771E-02  0.1073867E+00
         21   -1    0    0  501  502  0.00000000000E+00  0.00000000000E+00  0.37496900948E+03  0.37496900948E+03  0.00000000000E+00 0. -1.
         21   -1    0    0  502  503 -0.00000000000E+00 -0.00000000000E+00 -0.31528780477E+03  0.31528780477E+03  0.00000000000E+00 0.  1.
          6    1    1    2  501    0  0.13483813474E+03  0.23833233342E+03 -0.85964352573E+02  0.33511564220E+03  0.17300000000E+03 0. -1.
         -6    1    1    2    0  503 -0.13483813474E+03 -0.23833233342E+03  0.14564555729E+03  0.35514117206E+03  0.17300000000E+03 0.  1.
<mgrwt>
<rscale>  2 0.32390218E+03</rscale>
<asrwt>0</asrwt>
<pdfrwt beam="1">  1       21 0.57687540E-01 0.32390218E+03</pdfrwt>
<pdfrwt beam="2">  1       21 0.48505816E-01 0.32390218E+03</pdfrwt>
<totfact> 0.10669002E+04</totfact>
</mgrwt>
</event>
<event>
 4    1  0.8126752E-001  0.2982236E+03  0.7546771E-02  0.1086132E+00
         21   -1    0    0  501  502  0.00000000000E+00  0.00000000000E+00  0.55363790412E+03  0.55363790412E+03  0.00000000000E+00 0. -1.
         21   -1    0    0  502  503 -0.00000000000E+00 -0.00000000000E+00 -0.18617332062E+03  0.18617332062E+03  0.00000000000E+00 0.  1.
          6    1    1    2  501    0 -0.23262662072E+03 -0.69951187826E+02  0.32071687991E+03  0.43794592178E+03  0.17300000000E+03 0. -1.
         -6    1    1    2    0  503  0.23262662072E+03  0.69951187826E+02  0.46747703600E+02  0.30186530297E+03  0.17300000000E+03 0.  1.
<mgrwt>
<rscale>  2 0.29822360E+03</rscale>
<asrwt>0</asrwt>
<pdfrwt beam="1">  1       21 0.85175061E-01 0.29822360E+03</pdfrwt>
<pdfrwt beam="2">  1       21 0.28642050E-01 0.29822360E+03</pdfrwt>
<totfact> 0.13130013E+04</totfact>
</mgrwt>
</event>
<event>
 4    1  0.8126752E-001  0.1766466E+03  0.7546771E-02  0.1171088E+00
         21   -1    0    0  503  502  0.00000000000E+00  0.00000000000E+00  0.10831229207E+04  0.10831229207E+04  0.00000000000E+00 0.  1.
         21   -1    0    0  501  503 -0.00000000000E+00 -0.00000000000E+00 -0.35576016982E+02  0.35576016982E+02  0.00000000000E+00 0.  1.
          6    1    1    2  501    0  0.27315969122E+02 -0.22997227667E+02  0.76771902292E+03  0.78777949504E+03  0.17300000000E+03 0. -1.
         -6    1    1    2    0  502 -0.27315969122E+02  0.22997227667E+02  0.27982788082E+03  0.33091944266E+03  0.17300000000E+03 0. -1.
<mgrwt>
<rscale>  2 0.17664664E+03</rscale>
<asrwt>0</asrwt>
<pdfrwt beam="1">  1       21 0.16663427E+00 0.17664664E+03</pdfrwt>
<pdfrwt beam="2">  1       21 0.54732342E-02 0.17664664E+03</pdfrwt>
<totfact> 0.52488183E+04</totfact>
</mgrwt>
</event>
<event>
 4    1  0.8126752E-001  0.2482872E+03  0.7546771E-02  0.1114392E+00
         21   -1    0    0  503  502  0.00000000000E+00  0.00000000000E+00  0.11108452596E+03  0.11108452596E+03  0.00000000000E+00 0. -1.
         21   -1    0    0  501  503 -0.00000000000E+00 -0.00000000000E+00 -0.55800478652E+03  0.55800478652E+03  0.00000000000E+00 0. -1.
          6    1    1    2  501    0 -0.17606148751E+03  0.26830600252E+02 -0.24820677001E+03  0.35107425023E+03  0.17300000000E+03 0. -1.
         -6    1    1    2    0  502  0.17606148751E+03 -0.26830600252E+02 -0.19871349054E+03  0.31801506225E+03  0.17300000000E+03 0. -1.
<mgrwt>
<rscale>  2 0.24828719E+03</rscale>
<asrwt>0</asrwt>
<pdfrwt beam="1">  1       21 0.17089927E-01 0.24828719E+03</pdfrwt>
<pdfrwt beam="2">  1       21 0.85846891E-01 0.24828719E+03</pdfrwt>
<totfact> 0.35202616E+04</totfact>
</mgrwt>
</event>
<event>
 4    1  0.8126752E-001  0.1732402E+03  0.7546771E-02  0.1174510E+00
         21   -1    0    0  503  502  0.00000000000E+00  0.00000000000E+00  0.12759703735E+03  0.12759703735E+03  0.00000000000E+00 0. -1.
         21   -1    0    0  501  503 -0.00000000000E+00 -0.00000000000E+00 -0.24838832392E+03  0.24838832392E+03  0.00000000000E+00 0. -1.
          6    1    1    2  501    0  0.69786031318E+01 -0.58720634845E+01 -0.10369632547E+03  0.20190371454E+03  0.17300000000E+03 0. -1.
         -6    1    1    2    0  502 -0.69786031318E+01  0.58720634845E+01 -0.17094961100E+02  0.17408164672E+03  0.17300000000E+03 0. -1.
<mgrwt>
<rscale>  2 0.17324024E+03</rscale>
<asrwt>0</asrwt>
<pdfrwt beam="1">  1       21 0.19630314E-01 0.17324024E+03</pdfrwt>
<pdfrwt beam="2">  1       21 0.38213588E-01 0.17324024E+03</pdfrwt>
<totfact> 0.15881858E+05</totfact>
</mgrwt>
</event>
<event>
 4    1  0.8126752E-001  0.2108750E+03  0.7546771E-02  0.1140875E+00
         21   -1    0    0  501  502  0.00000000000E+00  0.00000000000E+00  0.31451661132E+02  0.31451661132E+02  0.00000000000E+00 0. -1.
         21   -1    0    0  502  503 -0.00000000000E+00 -0.00000000000E+00 -0.18264234970E+04  0.18264234970E+04  0.00000000000E+00 0.  1.
          6    1    1    2  501    0 -0.11318692622E+03  0.41569294474E+02 -0.45598612464E+03  0.50238593967E+03  0.17300000000E+03 0. -1.
         -6    1    1    2    0  503  0.11318692622E+03 -0.41569294474E+02 -0.13389857113E+04  0.13554892185E+04  0.17300000000E+03 0.  1.
<mgrwt>
<rscale>  2 0.21087505E+03</rscale>
<asrwt>0</asrwt>
<pdfrwt beam="1">  1       21 0.48387167E-02 0.21087505E+03</pdfrwt>
<pdfrwt beam="2">  1       21 0.28098825E+00 0.21087505E+03</pdfrwt>
<totfact> 0.12269551E+04</totfact>
</mgrwt>
</event>
<event>
 4    1  0.8126752E-001  0.1874731E+03  0.7546771E-02  0.1160760E+00
         21   -1    0    0  501  502  0.00000000000E+00  0.00000000000E+00  0.36777643504E+03  0.36777643504E+03  0.00000000000E+00 0.  1.
         21   -1    0    0  502  503 -0.00000000000E+00 -0.00000000000E+00 -0.95723490500E+02  0.95723490500E+02  0.00000000000E+00 0.  1.
          6    1    1    2  501    0  0.38718170508E+02  0.60975973573E+02  0.12656505643E+03  0.22619655079E+03  0.17300000000E+03 0.  1.
         -6    1    1    2    0  503 -0.38718170508E+02 -0.60975973573E+02  0.14548788811E+03  0.23730337475E+03  0.17300000000E+03 0.  1.
<mgrwt>
<rscale>  2 0.18747311E+03</rscale>
<asrwt>0</asrwt>
<pdfrwt beam="1">  1       21 0.56580989E-01 0.18747311E+03</pdfrwt>
<pdfrwt beam="2">  1       21 0.14726691E-01 0.18747311E+03</pdfrwt>
<totfact> 0.11936586E+05</totfact>
</mgrwt>
</event>
<event>
 4    1  0.8126752E-001  0.2243204E+03  0.7546771E-02  0.1130702E+00
         21   -1    0    0  503  502  0.00000000000E+00  0.00000000000E+00  0.16167736647E+03  0.16167736647E+03  0.00000000000E+00 0. -1.
         21   -1    0    0  501  503 -0.00000000000E+00 -0.00000000000E+00 -0.43138009738E+03  0.43138009738E+03  0.00000000000E+00 0. -1.
          6    1    1    2  501    0  0.72150947938E+02 -0.12322701872E+03 -0.29134249661E+03  0.36769567275E+03  0.17300000000E+03 0. -1.
         -6    1    1    2    0  502 -0.72150947938E+02  0.12322701872E+03  0.21639765689E+02  0.22536179110E+03  0.17300000000E+03 0. -1.
<mgrwt>
<rscale>  2 0.22432043E+03</rscale>
<asrwt>0</asrwt>
<pdfrwt beam="1">  1       21 0.24873441E-01 0.22432043E+03</pdfrwt>
<pdfrwt beam="2">  1       21 0.66366169E-01 0.22432043E+03</pdfrwt>
<totfact> 0.31327098E+04</totfact>
</mgrwt>
</event>
<event>
 4    1  0.8126752E-001  0.2327329E+03  0.7546771E-02  0.1124731E+00
         21   -1    0    0  503  502  0.00000000000E+00  0.00000000000E+00  0.74636936438E+02  0.74636936438E+02  0.00000000000E+00 0. -1.
         21   -1    0    0  501  503 -0.00000000000E+00 -0.00000000000E+00 -0.73626710176E+03  0.73626710176E+03  0.00000000000E+00 0. -1.
          6    1    1    2  501    0 -0.49010349033E+02  0.14776189565E+03 -0.28225902097E+03  0.36583431638E+03  0.17300000000E+03 0. -1.
         -6    1    1    2    0  502  0.49010349033E+02 -0.14776189565E+03 -0.37937114435E+03  0.44506972182E+03  0.17300000000E+03 0. -1.
<mgrwt>
<rscale>  2 0.23273288E+03</rscale>
<asrwt>0</asrwt>
<pdfrwt beam="1">  1       21 0.11482606E-01 0.23273288E+03</pdfrwt>
<pdfrwt beam="2">  1       21 0.11327186E+00 0.23273288E+03</pdfrwt>
<totfact> 0.37810766E+04</totfact>
</mgrwt>
</event>
<event>
 4    1  0.8126752E-001  0.2014845E+03  0.7546771E-02  0.1148493E+00
         21   -1    0    0  501  502  0.00000000000E+00  0.00000000000E+00  0.35968062485E+02  0.35968062485E+02  0.00000000000E+00 0.  1.
         21   -1    0    0  502  503 -0.00000000000E+00 -0.00000000000E+00 -0.12104486122E+04  0.12104486122E+04  0.00000000000E+00 0.  1.
          6    1    1    2  501    0  0.40518711700E+02  0.95001341984E+02 -0.74922862844E+03  0.77584763881E+03  0.17300000000E+03 0.  1.
         -6    1    1    2    0  503 -0.40518711700E+02 -0.95001341984E+02 -0.42525192129E+03  0.47056903589E+03  0.17300000000E+03 0.  1.
<mgrwt>
<rscale>  2 0.20148454E+03</rscale>
<asrwt>0</asrwt>
<pdfrwt beam="1">  1       21 0.55335472E-02 0.20148454E+03</pdfrwt>
<pdfrwt beam="2">  1       21 0.18622289E+00 0.20148454E+03</pdfrwt>
<totfact> 0.37189122E+04</totfact>
</mgrwt>
</event>
<event>
 4    1  0.8126752E-001  0.3502305E+03  0.7546771E-02  0.1062520E+00
         21   -1    0    0  503  502  0.00000000000E+00  0.00000000000E+00  0.20209833913E+03  0.20209833913E+03  0.00000000000E+00 0.  1.
         21   -1    0    0  501  503 -0.00000000000E+00 -0.00000000000E+00 -0.61036501359E+03  0.61036501359E+03  0.00000000000E+00 0. -1.
          6    1    1    2  501    0  0.57353688603E+02  0.29907019369E+03 -0.23456697780E+03  0.42152472457E+03  0.17300000000E+03 0.  1.
         -6    1    1    2    0  502 -0.57353688603E+02 -0.29907019369E+03 -0.17369969667E+03  0.39093862814E+03  0.17300000000E+03 0. -1.
<mgrwt>
<rscale>  2 0.35023053E+03</rscale>
<asrwt>0</asrwt>
<pdfrwt beam="1">  1       21 0.31092053E-01 0.35023053E+03</pdfrwt>
<pdfrwt beam="2">  1       21 0.93902308E-01 0.35023053E+03</pdfrwt>
<totfact> 0.86930436E+03</totfact>
</mgrwt>
</event>
<event>
 4    1  0.8126752E-001  0.1802746E+03  0.7546771E-02  0.1167538E+00
         21   -1    0    0  503  502  0.00000000000E+00  0.00000000000E+00  0.35100687242E+03  0.35100687242E+03  0.00000000000E+00 0. -1.
         21   -1    0    0  501  503 -0.00000000000E+00 -0.00000000000E+00 -0.10287945547E+03  0.10287945547E+03  0.00000000000E+00 0. -1.
          6    1    1    2  501    0  0.26366753338E+02  0.43298181920E+02  0.52284882639E+02  0.18770361529E+03  0.17300000000E+03 0. -1.
         -6    1    1    2    0  502 -0.26366753338E+02 -0.43298181920E+02  0.19584253432E+03  0.26618271260E+03  0.17300000000E+03 0. -1.
<mgrwt>
<rscale>  2 0.18027462E+03</rscale>
<asrwt>0</asrwt>
<pdfrwt beam="1">  1       21 0.54001057E-01 0.18027462E+03</pdfrwt>
<pdfrwt beam="2">  1       21 0.15827609E-01 0.18027462E+03</pdfrwt>
<totfact> 0.11583355E+05</totfact>
</mgrwt>
</event>
<event>
 4    1  0.8126752E-001  0.1837447E+03  0.7546771E-02  0.1164227E+00
         21   -1    0    0  503  502  0.00000000000E+00  0.00000000000E+00  0.17050551519E+03  0.17050551519E+03  0.00000000000E+00 0. -1.
         21   -1    0    0  501  503 -0.00000000000E+00 -0.00000000000E+00 -0.41683175747E+03  0.41683175747E+03  0.00000000000E+00 0. -1.
          6    1    1    2  501    0 -0.61828255555E+02  0.32215590522E+01 -0.33593811513E+03  0.38290537842E+03  0.17300000000E+03 0. -1.
         -6    1    1    2    0  502  0.61828255555E+02 -0.32215590522E+01  0.89611872842E+02  0.20443189424E+03  0.17300000000E+03 0. -1.
<mgrwt>
<rscale>  2 0.18374469E+03</rscale>
<asrwt>0</asrwt>
<pdfrwt beam="1">  1       21 0.26231618E-01 0.18374469E+03</pdfrwt>
<pdfrwt beam="2">  1       21 0.64127962E-01 0.18374469E+03</pdfrwt>
<totfact> 0.31155004E+04</totfact>
</mgrwt>
</event>
<event>
 4    1  0.8126752E-001  0.1944356E+03  0.7546771E-02  0.1154520E+00
         21   -1    0    0  501  502  0.00000000000E+00  0.00000000000E+00  0.12538628647E+04  0.12538628647E+04  0.00000000000E+00 0.  1.
         21   -1    0    0  502  503 -0.00000000000E+00 -0.00000000000E+00 -0.30156365643E+02  0.30156365643E+02  0.00000000000E+00 0.  1.
          6    1    1    2  501    0  0.88747583701E+02  0.24401073861E+00  0.60327293858E+03  0.63383233712E+03  0.17300000000E+03 0.  1.
         -6    1    1    2    0  503 -0.88747583701E+02 -0.24401073861E+00  0.62043356047E+03  0.65018689322E+03  0.17300000000E+03 0.  1.
<mgrwt>
<rscale>  2 0.19443558E+03</rscale>
<asrwt>0</asrwt>
<pdfrwt beam="1">  1       21 0.19290194E+00 0.19443558E+03</pdfrwt>
<pdfrwt beam="2">  1       21 0.46394418E-02 0.19443558E+03</pdfrwt>
<totfact> 0.45523209E+04</totfact>
</mgrwt>
</event>
<event>
 4    1  0.8126752E-001  0.2019472E+03  0.7546771E-02  0.1148106E+00
         21   -1    0    0  503  502  0.00000000000E+00  0.00000000000E+00  0.15331899692E+03  0.15331899692E+03  0.00000000000E+00 0. -1.
         21   -1    0    0  501  503 -0.00000000000E+00 -0.00000000000E+00 -0.28164270554E+03  0.28164270554E+03  0.00000000000E+00 0. -1.
          6    1    1    2  501    0 -0.46646741032E+02 -0.93154489723E+02 -0.12905983079E+02  0.20235919006E+03  0.17300000000E+03 0. -1.
         -6    1    1    2    0  502  0.46646741032E+02  0.93154489723E+02 -0.11541772554E+03  0.23260251240E+03  0.17300000000E+03 0. -1.
<mgrwt>
<rscale>  2 0.20194721E+03</rscale>
<asrwt>0</asrwt>
<pdfrwt beam="1">  1       21 0.23587538E-01 0.20194721E+03</pdfrwt>
<pdfrwt beam="2">  1       21 0.43329647E-01 0.20194721E+03</pdfrwt>
<totfact> 0.86296812E+04</totfact>
</mgrwt>
</event>
<event>
 4    1  0.8126752E-001  0.2476125E+03  0.7546771E-02  0.1114823E+00
         21   -1    0    0  501  502  0.00000000000E+00  0.00000000000E+00  0.32916144507E+03  0.32916144507E+03  0.00000000000E+00 0. -1.
         21   -1    0    0  502  503 -0.00000000000E+00 -0.00000000000E+00 -0.21049942619E+03  0.21049942619E+03  0.00000000000E+00 0.  1.
          6    1    1    2  501    0 -0.63548613124E+02  0.16536179401E+03 -0.32219969594E+02  0.24969997115E+03  0.17300000000E+03 0.  1.
         -6    1    1    2    0  503  0.63548613124E+02 -0.16536179401E+03  0.15088198848E+03  0.28996090012E+03  0.17300000000E+03 0.  1.
<mgrwt>
<rscale>  2 0.24761250E+03</rscale>
<asrwt>0</asrwt>
<pdfrwt beam="1">  1       21 0.50640223E-01 0.24761250E+03</pdfrwt>
<pdfrwt beam="2">  1       21 0.32384527E-01 0.24761250E+03</pdfrwt>
<totfact> 0.33133757E+04</totfact>
</mgrwt>
</event>
<event>
 4    1  0.8126752E-001  0.2270636E+03  0.7546771E-02  0.1128724E+00
         21   -1    0    0  503  502  0.00000000000E+00  0.00000000000E+00  0.28409095636E+02  0.28409095636E+02  0.00000000000E+00 0. -1.
         21   -1    0    0  501  503 -0.00000000000E+00 -0.00000000000E+00 -0.19655120128E+04  0.19655120128E+04  0.00000000000E+00 0. -1.
          6    1    1    2  501    0 -0.13421074063E+03 -0.60136027429E+02 -0.12445847172E+04  0.12651280500E+04  0.17300000000E+03 0. -1.
         -6    1    1    2    0  502  0.13421074063E+03  0.60136027429E+02 -0.69251819999E+03  0.72879305842E+03  0.17300000000E+03 0. -1.
<mgrwt>
<rscale>  2 0.22706357E+03</rscale>
<asrwt>0</asrwt>
<pdfrwt beam="1">  1       21 0.43706281E-02 0.22706357E+03</pdfrwt>
<pdfrwt beam="2">  1       21 0.30238660E+00 0.22706357E+03</pdfrwt>
<totfact> 0.10787067E+04</totfact>
</mgrwt>
</event>
<event>
 4    1  0.8126752E-001  0.1781917E+03  0.7546771E-02  0.1169565E+00
         21   -1    0    0  501  502  0.00000000000E+00  0.00000000000E+00  0.10955453681E+03  0.10955453681E+03  0.00000000000E+00 0. -1.
         21   -1    0    0  502  503 -0.00000000000E+00 -0.00000000000E+00 -0.28995130412E+03  0.28995130412E+03  0.00000000000E+00 0. -1.
          6    1    1    2  501    0 -0.23976554481E+02 -0.35332625657E+02 -0.94272063478E+02  0.20159238962E+03  0.17300000000E+03 0. -1.
         -6    1    1    2    0  503  0.23976554481E+02  0.35332625657E+02 -0.86124703834E+02  0.19791345131E+03  0.17300000000E+03 0. -1.
<mgrwt>
<rscale>  2 0.17819167E+03</rscale>
<asrwt>0</asrwt>
<pdfrwt beam="1">  1       21 0.16854544E-01 0.17819167E+03</pdfrwt>
<pdfrwt beam="2">  1       21 0.44607893E-01 0.17819167E+03</pdfrwt>
<totfact> 0.15362098E+05</totfact>
</mgrwt>
</event>
<event>
 4    1  0.8126752E-001  0.2046932E+03  0.7546771E-02  0.1145839E+00
         21   -1    0    0  503  502  0.00000000000E+00  0.00000000000E+00  0.79670653628E+02  0.79670653628E+02  0.00000000000E+00 0.  1.
         21   -1    0    0  501  503 -0.00000000000E+00 -0.00000000000E+00 -0.52592270114E+03  0.52592270114E+03  0.00000000000E+00 0.  1.
          6    1    1    2  501    0 -0.35799583687E+02 -0.10338612569E+03 -0.22481533517E+03  0.30404150392E+03  0.17300000000E+03 0.  1.
         -6    1    1    2    0  502  0.35799583687E+02  0.10338612569E+03 -0.22143671234E+03  0.30155185085E+03  0.17300000000E+03 0.  1.
<mgrwt>
<rscale>  2 0.20469319E+03</rscale>
<asrwt>0</asrwt>
<pdfrwt beam="1">  1       21 0.12257024E-01 0.20469319E+03</pdfrwt>
<pdfrwt beam="2">  1       21 0.80911185E-01 0.20469319E+03</pdfrwt>
<totfact> 0.75327114E+04</totfact>
</mgrwt>
</event>
<event>
 4    1  0.8126752E-001  0.2112651E+03  0.7546771E-02  0.1140568E+00
         21   -1    0    0  503  502  0.00000000000E+00  0.00000000000E+00  0.49179224495E+02  0.49179224495E+02  0.00000000000E+00 0. -1.
         21   -1    0    0  501  503 -0.00000000000E+00 -0.00000000000E+00 -0.10492990748E+04  0.10492990748E+04  0.00000000000E+00 0. -1.
          6    1    1    2  501    0  0.22587236088E+02 -0.11913758291E+03 -0.70192505868E+03  0.73302915010E+03  0.17300000000E+03 0. -1.
         -6    1    1    2    0  502 -0.22587236088E+02  0.11913758291E+03 -0.29819479165E+03  0.36544914922E+03  0.17300000000E+03 0. -1.
<mgrwt>
<rscale>  2 0.21126511E+03</rscale>
<asrwt>0</asrwt>
<pdfrwt beam="1">  1       21 0.75660349E-02 0.21126511E+03</pdfrwt>
<pdfrwt beam="2">  1       21 0.16143062E+00 0.21126511E+03</pdfrwt>
<totfact> 0.32110388E+04</totfact>
</mgrwt>
</event>
<event>
 4    1  0.8126752E-001  0.2339512E+03  0.7546771E-02  0.1123889E+00
         21   -1    0    0  503  502  0.00000000000E+00  0.00000000000E+00  0.56430717301E+03  0.56430717301E+03  0.00000000000E+00 0. -1.
         21   -1    0    0  501  503 -0.00000000000E+00 -0.00000000000E+00 -0.10646501219E+03  0.10646501219E+03  0.00000000000E+00 0. -1.
          6    1    1    2  501    0  0.49022537232E+02 -0.14966956130E+03  0.32896472069E+03  0.40367186451E+03  0.17300000000E+03 0. -1.
         -6    1    1    2    0  502 -0.49022537232E+02  0.14966956130E+03  0.12887744014E+03  0.26710032069E+03  0.17300000000E+03 0. -1.
<mgrwt>
<rscale>  2 0.23395125E+03</rscale>
<asrwt>0</asrwt>
<pdfrwt beam="1">  1       21 0.86816486E-01 0.23395125E+03</pdfrwt>
<pdfrwt beam="2">  1       21 0.16379233E-01 0.23395125E+03</pdfrwt>
<totfact> 0.37340647E+04</totfact>
</mgrwt>
</event>
<event>
 4    1  0.8126752E-001  0.1897712E+03  0.7546771E-02  0.1158668E+00
         21   -1    0    0  501  502  0.00000000000E+00  0.00000000000E+00  0.96259715269E+02  0.96259715269E+02  0.00000000000E+00 0. -1.
         21   -1    0    0  502  503 -0.00000000000E+00 -0.00000000000E+00 -0.57013449445E+03  0.57013449445E+03  0.00000000000E+00 0. -1.
          6    1    1    2  501    0 -0.71000948343E+02 -0.32294980094E+02 -0.41570091960E+02  0.19427087520E+03  0.17300000000E+03 0. -1.
         -6    1    1    2    0  503  0.71000948343E+02  0.32294980094E+02 -0.43230468722E+03  0.47212333452E+03  0.17300000000E+03 0. -1.
<mgrwt>
<rscale>  2 0.18977118E+03</rscale>
<asrwt>0</asrwt>
<pdfrwt beam="1">  1       21 0.14809187E-01 0.18977118E+03</pdfrwt>
<pdfrwt beam="2">  1       21 0.87712997E-01 0.18977118E+03</pdfrwt>
<totfact> 0.44831983E+04</totfact>
</mgrwt>
</event>
<event>
 4    1  0.8126752E-001  0.2117032E+03  0.7546771E-02  0.1140224E+00
         21   -1    0    0  503  502  0.00000000000E+00  0.00000000000E+00  0.17810631991E+03  0.17810631991E+03  0.00000000000E+00 0. -1.
         21   -1    0    0  501  503 -0.00000000000E+00 -0.00000000000E+00 -0.25441237259E+03  0.25441237259E+03  0.00000000000E+00 0.  1.
          6    1    1    2  501    0  0.11564301948E+03  0.38935151614E+02 -0.60737831627E+02  0.22024381530E+03  0.17300000000E+03 0. -1.
         -6    1    1    2    0  502 -0.11564301948E+03 -0.38935151614E+02 -0.15568221048E+02  0.21227487720E+03  0.17300000000E+03 0. -1.
<mgrwt>
<rscale>  2 0.21170322E+03</rscale>
<asrwt>0</asrwt>
<pdfrwt beam="1">  1       21 0.27400972E-01 0.21170322E+03</pdfrwt>
<pdfrwt beam="2">  1       21 0.39140365E-01 0.21170322E+03</pdfrwt>
<totfact> 0.79300138E+04</totfact>
</mgrwt>
</event>
<event>
 4    1  0.8126752E-001  0.1909006E+03  0.7546771E-02  0.1157652E+00
         21   -1    0    0  503  502  0.00000000000E+00  0.00000000000E+00  0.53778694749E+02  0.53778694749E+02  0.00000000000E+00 0.  1.
         21   -1    0    0  501  503 -0.00000000000E+00 -0.00000000000E+00 -0.73679254081E+03  0.73679254081E+03  0.00000000000E+00 0.  1.
          6    1    1    2  501    0  0.56626109199E+02 -0.57510984384E+02 -0.45350109394E+03  0.49204295724E+03  0.17300000000E+03 0.  1.
         -6    1    1    2    0  502 -0.56626109199E+02  0.57510984384E+02 -0.22951275212E+03  0.29852827832E+03  0.17300000000E+03 0.  1.
<mgrwt>
<rscale>  2 0.19090058E+03</rscale>
<asrwt>0</asrwt>
<pdfrwt beam="1">  1       21 0.82736454E-02 0.19090058E+03</pdfrwt>
<pdfrwt beam="2">  1       21 0.11335270E+00 0.19090058E+03</pdfrwt>
<totfact> 0.68778771E+04</totfact>
</mgrwt>
</event>
<event>
 4    1  0.8126752E-001  0.1873581E+03  0.7546771E-02  0.1160866E+00
         21   -1    0    0  503  502  0.00000000000E+00  0.00000000000E+00  0.16702691071E+03  0.16702691071E+03  0.00000000000E+00 0. -1.
         21   -1    0    0  501  503 -0.00000000000E+00 -0.00000000000E+00 -0.21344915516E+03  0.21344915516E+03  0.00000000000E+00 0. -1.
          6    1    1    2  501    0 -0.54958819819E+02  0.46406617471E+02 -0.46811944638E+02  0.19311759159E+03  0.17300000000E+03 0. -1.
         -6    1    1    2    0  502  0.54958819819E+02 -0.46406617471E+02  0.38970018692E+00  0.18735847429E+03  0.17300000000E+03 0. -1.
<mgrwt>
<rscale>  2 0.18735807E+03</rscale>
<asrwt>0</asrwt>
<pdfrwt beam="1">  1       21 0.25696448E-01 0.18735807E+03</pdfrwt>
<pdfrwt beam="2">  1       21 0.32838331E-01 0.18735807E+03</pdfrwt>
<totfact> 0.12852133E+05</totfact>
</mgrwt>
</event>
<event>
 4    1  0.8126752E-001  0.2083569E+03  0.7546771E-02  0.1142874E+00
         21   -1    0    0  501  502  0.00000000000E+00  0.00000000000E+00  0.11431427552E+03  0.11431427552E+03  0.00000000000E+00 0. -1.
         21   -1    0    0  502  503 -0.00000000000E+00 -0.00000000000E+00 -0.39578794354E+03  0.39578794354E+03  0.00000000000E+00 0. -1.
          6    1    1    2  501    0  0.13762838438E+02 -0.11530039474E+03 -0.89419648274E+02  0.22673436053E+03  0.17300000000E+03 0. -1.
         -6    1    1    2    0  503 -0.13762838438E+02  0.11530039474E+03 -0.19205401975E+03  0.28336785853E+03  0.17300000000E+03 0. -1.
<mgrwt>
<rscale>  2 0.20835690E+03</rscale>
<asrwt>0</asrwt>
<pdfrwt beam="1">  1       21 0.17586812E-01 0.20835690E+03</pdfrwt>
<pdfrwt beam="2">  1       21 0.60890453E-01 0.20835690E+03</pdfrwt>
<totfact> 0.73060143E+04</totfact>
</mgrwt>
</event>
<event>
 4    1  0.8126752E-001  0.3175409E+03  0.7546771E-02  0.1076787E+00
         21   -1    0    0  501  502  0.00000000000E+00  0.00000000000E+00  0.71126788436E+03  0.71126788436E+03  0.00000000000E+00 0. -1.
         21   -1    0    0  502  503 -0.00000000000E+00 -0.00000000000E+00 -0.15530370074E+03  0.15530370074E+03  0.00000000000E+00 0. -1.
          6    1    1    2  501    0  0.38301411752E+02  0.26350749503E+03  0.15004759080E+03  0.35120717189E+03  0.17300000000E+03 0. -1.
         -6    1    1    2    0  503 -0.38301411752E+02 -0.26350749503E+03  0.40591659281E+03  0.51536441321E+03  0.17300000000E+03 0. -1.
<mgrwt>
<rscale>  2 0.31754086E+03</rscale>
<asrwt>0</asrwt>
<pdfrwt beam="1">  1       21 0.10942583E+00 0.31754086E+03</pdfrwt>
<pdfrwt beam="2">  1       21 0.23892877E-01 0.31754086E+03</pdfrwt>
<totfact> 0.10181448E+04</totfact>
</mgrwt>
</event>
<event>
 4    1  0.8126752E-001  0.1896031E+03  0.7546771E-02  0.1158820E+00
         21   -1    0    0  503  502  0.00000000000E+00  0.00000000000E+00  0.34650330320E+02  0.34650330320E+02  0.00000000000E+00 0. -1.
         21   -1    0    0  501  503 -0.00000000000E+00 -0.00000000000E+00 -0.10495351765E+04  0.10495351765E+04  0.00000000000E+00 0. -1.
          6    1    1    2  501    0 -0.40578114016E+01 -0.77484759423E+02 -0.56551762823E+03  0.59645581698E+03  0.17300000000E+03 0. -1.
         -6    1    1    2    0  502  0.40578114016E+01  0.77484759423E+02 -0.44936721791E+03  0.48772968979E+03  0.17300000000E+03 0. -1.
<mgrwt>
<rscale>  2 0.18960315E+03</rscale>
<asrwt>0</asrwt>
<pdfrwt beam="1">  1       21 0.53308207E-02 0.18960315E+03</pdfrwt>
<pdfrwt beam="2">  1       21 0.16146693E+00 0.18960315E+03</pdfrwt>
<totfact> 0.59346310E+04</totfact>
</mgrwt>
</event>
<event>
 4    1  0.8126752E-001  0.2126539E+03  0.7546771E-02  0.1139481E+00
         21   -1    0    0  501  502  0.00000000000E+00  0.00000000000E+00  0.33595818363E+03  0.33595818363E+03  0.00000000000E+00 0. -1.
         21   -1    0    0  502  503 -0.00000000000E+00 -0.00000000000E+00 -0.17110356438E+03  0.17110356438E+03  0.00000000000E+00 0. -1.
          6    1    1    2  501    0 -0.11966658464E+03  0.31186426730E+02  0.19952238359E+03  0.29160052511E+03  0.17300000000E+03 0. -1.
         -6    1    1    2    0  503  0.11966658464E+03 -0.31186426730E+02 -0.34667764341E+02  0.21546122291E+03  0.17300000000E+03 0. -1.
<mgrwt>
<rscale>  2 0.21265391E+03</rscale>
<asrwt>0</asrwt>
<pdfrwt beam="1">  1       21 0.51685875E-01 0.21265391E+03</pdfrwt>
<pdfrwt beam="2">  1       21 0.26323625E-01 0.21265391E+03</pdfrwt>
<totfact> 0.48314466E+04</totfact>
</mgrwt>
</event>
<event>
 4    1  0.8126752E-001  0.2166924E+03  0.7546771E-02  0.1136373E+00
         21   -1    0    0  501  502  0.00000000000E+00  0.00000000000E+00  0.22491284996E+02  0.22491284996E+02  0.00000000000E+00 0.  1.
         21   -1    0    0  502  503 -0.00000000000E+00 -0.00000000000E+00 -0.21351779802E+04  0.21351779802E+04  0.00000000000E+00 0.  1.
          6    1    1    2  501    0  0.12978460533E+03  0.13510696530E+02 -0.12171769392E+04  0.12363152041E+04  0.17300000000E+03 0.  1.
         -6    1    1    2    0  503 -0.12978460533E+03 -0.13510696530E+02 -0.89550975605E+03  0.92135406109E+03  0.17300000000E+03 0.  1.
<mgrwt>
<rscale>  2 0.21669237E+03</rscale>
<asrwt>0</asrwt>
<pdfrwt beam="1">  1       21 0.34601990E-02 0.21669237E+03</pdfrwt>
<pdfrwt beam="2">  1       21 0.32848879E+00 0.21669237E+03</pdfrwt>
<totfact> 0.11369019E+04</totfact>
</mgrwt>
</event>
<event>
 4    1  0.8126752E-001  0.1977905E+03  0.7546771E-02  0.1151617E+00
         21   -1    0    0  501  502  0.00000000000E+00  0.00000000000E+00  0.15628687820E+03  0.15628687820E+03  0.00000000000E+00 0.  1.
         21   -1    0    0  502  503 -0.00000000000E+00 -0.00000000000E+00 -0.28607100323E+03  0.28607100323E+03  0.00000000000E+00 0.  1.
          6    1    1    2  501    0 -0.24427315912E+02 -0.92711240921E+02  0.13302535490E+02  0.19823729570E+03  0.17300000000E+03 0.  1.
         -6    1    1    2    0  503  0.24427315912E+02  0.92711240921E+02 -0.14308666053E+03  0.24412058573E+03  0.17300000000E+03 0.  1.
<mgrwt>
<rscale>  2 0.19779046E+03</rscale>
<asrwt>0</asrwt>
<pdfrwt beam="1">  1       21 0.24044135E-01 0.19779046E+03</pdfrwt>
<pdfrwt beam="2">  1       21 0.44010923E-01 0.19779046E+03</pdfrwt>
<totfact> 0.80736830E+04</totfact>
</mgrwt>
</event>
<event>
 4    1  0.8126752E-001  0.1754227E+03  0.7546771E-02  0.1172308E+00
         21   -1    0    0  503  502  0.00000000000E+00  0.00000000000E+00  0.44665297292E+02  0.44665297292E+02  0.00000000000E+00 0.  1.
         21   -1    0    0  501  503 -0.00000000000E+00 -0.00000000000E+00 -0.71791623162E+03  0.71791623162E+03  0.00000000000E+00 0.  1.
          6    1    1    2  501    0 -0.20219612191E+02  0.20863226068E+02 -0.41318615652E+03  0.44888295452E+03  0.17300000000E+03 0.  1.
         -6    1    1    2    0  502  0.20219612191E+02 -0.20863226068E+02 -0.26006477781E+03  0.31369857439E+03  0.17300000000E+03 0.  1.
<mgrwt>
<rscale>  2 0.17542265E+03</rscale>
<asrwt>0</asrwt>
<pdfrwt beam="1">  1       21 0.68715849E-02 0.17542265E+03</pdfrwt>
<pdfrwt beam="2">  1       21 0.11044864E+00 0.17542265E+03</pdfrwt>
<totfact> 0.10174100E+05</totfact>
</mgrwt>
</event>
<event>
 4    1  0.8126752E-001  0.1981605E+03  0.7546771E-02  0.1151300E+00
         21   -1    0    0  501  502  0.00000000000E+00  0.00000000000E+00  0.75267633438E+02  0.75267633438E+02  0.00000000000E+00 0. -1.
         21   -1    0    0  502  503 -0.00000000000E+00 -0.00000000000E+00 -0.54060128952E+03  0.54060128952E+03  0.00000000000E+00 0. -1.
          6    1    1    2  501    0  0.71222477881E+02  0.65314078265E+02 -0.17509667078E+03  0.26443603062E+03  0.17300000000E+03 0. -1.
         -6    1    1    2    0  503 -0.71222477881E+02 -0.65314078265E+02 -0.29023698531E+03  0.35143289233E+03  0.17300000000E+03 0. -1.
<mgrwt>
<rscale>  2 0.19816047E+03</rscale>
<asrwt>0</asrwt>
<pdfrwt beam="1">  1       21 0.11579636E-01 0.19816047E+03</pdfrwt>
<pdfrwt beam="2">  1       21 0.83169430E-01 0.19816047E+03</pdfrwt>
<totfact> 0.78566748E+04</totfact>
</mgrwt>
</event>
<event>
 4    1  0.8126752E-001  0.1834875E+03  0.7546771E-02  0.1164470E+00
         21   -1    0    0  501  502  0.00000000000E+00  0.00000000000E+00  0.10398352484E+03  0.10398352484E+03  0.00000000000E+00 0.  1.
         21   -1    0    0  502  503 -0.00000000000E+00 -0.00000000000E+00 -0.36267807753E+03  0.36267807753E+03  0.00000000000E+00 0.  1.
          6    1    1    2  501    0 -0.60086608049E+02  0.11325888577E+02 -0.52931792955E+02  0.19096976442E+03  0.17300000000E+03 0.  1.
         -6    1    1    2    0  503  0.60086608049E+02 -0.11325888577E+02 -0.20576275974E+03  0.27569183795E+03  0.17300000000E+03 0.  1.
<mgrwt>
<rscale>  2 0.18348754E+03</rscale>
<asrwt>0</asrwt>
<pdfrwt beam="1">  1       21 0.15997465E-01 0.18348754E+03</pdfrwt>
<pdfrwt beam="2">  1       21 0.55796629E-01 0.18348754E+03</pdfrwt>
<totfact> 0.10588838E+05</totfact>
</mgrwt>
</event>
<event>
 4    1  0.8126752E-001  0.2164031E+03  0.7546771E-02  0.1136593E+00
         21   -1    0    0  501  502  0.00000000000E+00  0.00000000000E+00  0.11017816278E+03  0.11017816278E+03  0.00000000000E+00 0.  1.
         21   -1    0    0  502  503 -0.00000000000E+00 -0.00000000000E+00 -0.44690644803E+03  0.44690644803E+03  0.00000000000E+00 0.  1.
          6    1    1    2  501    0  0.81395072785E+02 -0.10137124584E+03 -0.10675325575E+03  0.24130177159E+03  0.17300000000E+03 0.  1.
         -6    1    1    2    0  503 -0.81395072785E+02  0.10137124584E+03 -0.22997502950E+03  0.31578283923E+03  0.17300000000E+03 0.  1.
<mgrwt>
<rscale>  2 0.21640307E+03</rscale>
<asrwt>0</asrwt>
<pdfrwt beam="1">  1       21 0.16950487E-01 0.21640307E+03</pdfrwt>
<pdfrwt beam="2">  1       21 0.68754838E-01 0.21640307E+03</pdfrwt>
<totfact> 0.59797128E+04</totfact>
</mgrwt>
</event>
<event>
 4    1  0.8126752E-001  0.1948610E+03  0.7546771E-02  0.1154149E+00
         21   -1    0    0  503  502  0.00000000000E+00  0.00000000000E+00  0.30845372088E+03  0.30845372088E+03  0.00000000000E+00 0. -1.
         21   -1    0    0  501  503 -0.00000000000E+00 -0.00000000000E+00 -0.12869288194E+03  0.12869288194E+03  0.00000000000E+00 0. -1.
          6    1    1    2  501    0  0.22941651037E+02  0.86691908439E+02  0.44316783069E+02  0.19983689250E+03  0.17300000000E+03 0. -1.
         -6    1    1    2    0  502 -0.22941651037E+02 -0.86691908439E+02  0.13544405588E+03  0.23730971032E+03  0.17300000000E+03 0. -1.
<mgrwt>
<rscale>  2 0.19486099E+03</rscale>
<asrwt>0</asrwt>
<pdfrwt beam="1">  1       21 0.47454418E-01 0.19486099E+03</pdfrwt>
<pdfrwt beam="2">  1       21 0.19798905E-01 0.19486099E+03</pdfrwt>
<totfact> 0.99823406E+04</totfact>
</mgrwt>
</event>
<event>
 4    1  0.8126752E-001  0.1826394E+03  0.7546771E-02  0.1165273E+00
         21   -1    0    0  503  502  0.00000000000E+00  0.00000000000E+00  0.20047717530E+03  0.20047717530E+03  0.00000000000E+00 0. -1.
         21   -1    0    0  501  503 -0.00000000000E+00 -0.00000000000E+00 -0.24207131658E+03  0.24207131658E+03  0.00000000000E+00 0. -1.
          6    1    1    2  501    0  0.48001479839E+02  0.33526156023E+02 -0.14452198136E+03  0.23290287311E+03  0.17300000000E+03 0. -1.
         -6    1    1    2    0  502 -0.48001479839E+02 -0.33526156023E+02  0.10292784009E+03  0.20964561877E+03  0.17300000000E+03 0. -1.
<mgrwt>
<rscale>  2 0.18263939E+03</rscale>
<asrwt>0</asrwt>
<pdfrwt beam="1">  1       21 0.30842643E-01 0.18263939E+03</pdfrwt>
<pdfrwt beam="2">  1       21 0.37241741E-01 0.18263939E+03</pdfrwt>
<totfact> 0.70496540E+04</totfact>
</mgrwt>
</event>
<event>
 4    1  0.8126752E-001  0.1909150E+03  0.7546771E-02  0.1157639E+00
         21   -1    0    0  501  502  0.00000000000E+00  0.00000000000E+00  0.52321272666E+02  0.52321272666E+02  0.00000000000E+00 0. -1.
         21   -1    0    0  502  503 -0.00000000000E+00 -0.00000000000E+00 -0.78557188076E+03  0.78557188076E+03  0.00000000000E+00 0.  1.
          6    1    1    2  501    0 -0.62955420830E+01  0.80497929321E+02 -0.50759301955E+03  0.54230915903E+03  0.17300000000E+03 0.  1.
         -6    1    1    2    0  503  0.62955420830E+01 -0.80497929321E+02 -0.22565758855E+03  0.29558399440E+03  0.17300000000E+03 0.  1.
<mgrwt>
<rscale>  2 0.19091503E+03</rscale>
<asrwt>0</asrwt>
<pdfrwt beam="1">  1       21 0.80494270E-02 0.19091503E+03</pdfrwt>
<pdfrwt beam="2">  1       21 0.12085721E+00 0.19091503E+03</pdfrwt>
<totfact> 0.61653276E+04</totfact>
</mgrwt>
</event>
<event>
 4    1  0.8126752E-001  0.1894131E+03  0.7546771E-02  0.1158992E+00
         21   -1    0    0  503  502  0.00000000000E+00  0.00000000000E+00  0.34675835555E+02  0.34675835555E+02  0.00000000000E+00 0.  1.
         21   -1    0    0  501  503 -0.00000000000E+00 -0.00000000000E+00 -0.10931330557E+04  0.10931330557E+04  0.00000000000E+00 0.  1.
          6    1    1    2  501    0 -0.41415693643E+02  0.65062123645E+02 -0.65966101256E+03  0.68631624716E+03  0.17300000000E+03 0.  1.
         -6    1    1    2    0  502  0.41415693643E+02 -0.65062123645E+02 -0.39879620758E+03  0.44149264410E+03  0.17300000000E+03 0.  1.
<mgrwt>
<rscale>  2 0.18941315E+03</rscale>
<asrwt>0</asrwt>
<pdfrwt beam="1">  1       21 0.53347435E-02 0.18941315E+03</pdfrwt>
<pdfrwt beam="2">  1       21 0.16817433E+00 0.18941315E+03</pdfrwt>
<totfact> 0.53063546E+04</totfact>
</mgrwt>
</event>
<event>
 4    1  0.8126752E-001  0.2128249E+03  0.7546771E-02  0.1139348E+00
         21   -1    0    0  501  502  0.00000000000E+00  0.00000000000E+00  0.53279093256E+02  0.53279093256E+02  0.00000000000E+00 0.  1.
         21   -1    0    0  502  503 -0.00000000000E+00 -0.00000000000E+00 -0.13527908768E+04  0.13527908768E+04  0.00000000000E+00 0. -1.
          6    1    1    2  501    0  0.72718425684E+02  0.10038650239E+03 -0.10783014599E+04  0.10991034791E+04  0.17300000000E+03 0. -1.
         -6    1    1    2    0  503 -0.72718425684E+02 -0.10038650239E+03 -0.22121032363E+03  0.30696649097E+03  0.17300000000E+03 0.  1.
<mgrwt>
<rscale>  2 0.21282486E+03</rscale>
<asrwt>0</asrwt>
<pdfrwt beam="1">  1       21 0.81967845E-02 0.21282486E+03</pdfrwt>
<pdfrwt beam="2">  1       21 0.20812165E+00 0.21282486E+03</pdfrwt>
<totfact> 0.13494826E+04</totfact>
</mgrwt>
</event>
<event>
 4    1  0.8126752E-001  0.2805826E+03  0.7546771E-02  0.1095371E+00
         21   -1    0    0  501  502  0.00000000000E+00  0.00000000000E+00  0.33728722680E+03  0.33728722680E+03  0.00000000000E+00 0. -1.
         21   -1    0    0  502  503 -0.00000000000E+00 -0.00000000000E+00 -0.23420469192E+03  0.23420469192E+03  0.00000000000E+00 0. -1.
          6    1    1    2  501    0  0.22083719295E+03 -0.53395428217E+01  0.68174853152E+02  0.28874623307E+03  0.17300000000E+03 0. -1.
         -6    1    1    2    0  503 -0.22083719295E+03  0.53395428217E+01  0.34907681736E+02  0.28274568565E+03  0.17300000000E+03 0. -1.
<mgrwt>
<rscale>  2 0.28058257E+03</rscale>
<asrwt>0</asrwt>
<pdfrwt beam="1">  1       21 0.51890343E-01 0.28058257E+03</pdfrwt>
<pdfrwt beam="2">  1       21 0.36031491E-01 0.28058257E+03</pdfrwt>
<totfact> 0.25088084E+04</totfact>
</mgrwt>
</event>
<event>
 4    1  0.8126752E-001  0.1734023E+03  0.7546771E-02  0.1174345E+00
         21   -1    0    0  503  502  0.00000000000E+00  0.00000000000E+00  0.14015024372E+03  0.14015024372E+03  0.00000000000E+00 0. -1.
         21   -1    0    0  501  503 -0.00000000000E+00 -0.00000000000E+00 -0.23540378700E+03  0.23540378700E+03  0.00000000000E+00 0. -1.
          6    1    1    2  501    0 -0.10054086200E+02  0.61877639513E+01 -0.10352424661E+03  0.20195455605E+03  0.17300000000E+03 0.  1.
         -6    1    1    2    0  502  0.10054086200E+02 -0.61877639513E+01  0.82707033279E+01  0.17359947467E+03  0.17300000000E+03 0.  1.
<mgrwt>
<rscale>  2 0.17340234E+03</rscale>
<asrwt>0</asrwt>
<pdfrwt beam="1">  1       21 0.21561576E-01 0.17340234E+03</pdfrwt>
<pdfrwt beam="2">  1       21 0.36215967E-01 0.17340234E+03</pdfrwt>
<totfact> 0.14834174E+05</totfact>
</mgrwt>
</event>
<event>
 4    1  0.8126752E-001  0.2193013E+03  0.7546771E-02  0.1134405E+00
         21   -1    0    0  503  502  0.00000000000E+00  0.00000000000E+00  0.61112003203E+03  0.61112003203E+03  0.00000000000E+00 0. -1.
         21   -1    0    0  501  503 -0.00000000000E+00 -0.00000000000E+00 -0.95823116617E+02  0.95823116617E+02  0.00000000000E+00 0. -1.
          6    1    1    2  501    0  0.62171122869E+02 -0.11957771689E+03  0.10821300036E+03  0.24454678968E+03  0.17300000000E+03 0. -1.
         -6    1    1    2    0  502 -0.62171122869E+02  0.11957771689E+03  0.40708391505E+03  0.46239635897E+03  0.17300000000E+03 0. -1.
<mgrwt>
<rscale>  2 0.21930134E+03</rscale>
<asrwt>0</asrwt>
<pdfrwt beam="1">  1       21 0.94018464E-01 0.21930134E+03</pdfrwt>
<pdfrwt beam="2">  1       21 0.14742018E-01 0.21930134E+03</pdfrwt>
<totfact> 0.37891477E+04</totfact>
</mgrwt>
</event>
<event>
 4    1  0.8126752E-001  0.1905349E+03  0.7546771E-02  0.1157980E+00
         21   -1    0    0  501  502  0.00000000000E+00  0.00000000000E+00  0.12157411799E+04  0.12157411799E+04  0.00000000000E+00 0.  1.
         21   -1    0    0  502  503 -0.00000000000E+00 -0.00000000000E+00 -0.85429016453E+02  0.85429016453E+02  0.00000000000E+00 0.  1.
          6    1    1    2  501    0  0.57008329808E+02 -0.55898007641E+02  0.10898583296E+04  0.11063881397E+04  0.17300000000E+03 0.  1.
         -6    1    1    2    0  503 -0.57008329808E+02  0.55898007641E+02  0.40453833780E+02  0.19478205665E+03  0.17300000000E+03 0.  1.
<mgrwt>
<rscale>  2 0.19053487E+03</rscale>
<asrwt>0</asrwt>
<pdfrwt beam="1">  1       21 0.18703709E+00 0.19053487E+03</pdfrwt>
<pdfrwt beam="2">  1       21 0.13142926E-01 0.19053487E+03</pdfrwt>
<totfact> 0.81471615E+03</totfact>
</mgrwt>
</event>
<event>
 4    1  0.8126752E-001  0.1873553E+03  0.7546771E-02  0.1160868E+00
         21   -1    0    0  501  502  0.00000000000E+00  0.00000000000E+00  0.20398182965E+04  0.20398182965E+04  0.00000000000E+00 0.  1.
         21   -1    0    0  502  503 -0.00000000000E+00 -0.00000000000E+00 -0.18619149196E+02  0.18619149196E+02  0.00000000000E+00 0.  1.
          6    1    1    2  501    0 -0.40130217679E+02  0.59687439690E+02  0.12939027778E+04  0.13073968117E+04  0.17300000000E+03 0.  1.
         -6    1    1    2    0  503  0.40130217679E+02 -0.59687439690E+02  0.72729636948E+03  0.75104063398E+03  0.17300000000E+03 0.  1.
<mgrwt>
<rscale>  2 0.18735534E+03</rscale>
<asrwt>0</asrwt>
<pdfrwt beam="1">  1       21 0.31381802E+00 0.18735534E+03</pdfrwt>
<pdfrwt beam="2">  1       21 0.28644861E-02 0.18735534E+03</pdfrwt>
<totfact> 0.19516763E+04</totfact>
</mgrwt>
</event>
<event>
 4    1  0.8126752E-001  0.2041651E+03  0.7546771E-02  0.1146272E+00
         21   -1    0    0  503  502  0.00000000000E+00  0.00000000000E+00  0.21265352205E+03  0.21265352205E+03  0.00000000000E+00 0. -1.
         21   -1    0    0  501  503 -0.00000000000E+00 -0.00000000000E+00 -0.19650442560E+03  0.19650442560E+03  0.00000000000E+00 0.  1.
          6    1    1    2  501    0 -0.43998535229E+02 -0.99088384770E+02  0.18279514450E+02  0.20498175467E+03  0.17300000000E+03 0. -1.
         -6    1    1    2    0  502  0.43998535229E+02  0.99088384770E+02 -0.21304180035E+01  0.20417619298E+03  0.17300000000E+03 0.  1.
<mgrwt>
<rscale>  2 0.20416508E+03</rscale>
<asrwt>0</asrwt>
<pdfrwt beam="1">  1       21 0.32715927E-01 0.20416508E+03</pdfrwt>
<pdfrwt beam="2">  1       21 0.30231450E-01 0.20416508E+03</pdfrwt>
<totfact> 0.93955634E+04</totfact>
</mgrwt>
</event>
<event>
 4    1  0.8126752E-001  0.1837324E+03  0.7546771E-02  0.1164239E+00
         21   -1    0    0  503  502  0.00000000000E+00  0.00000000000E+00  0.52514061853E+02  0.52514061853E+02  0.00000000000E+00 0.  1.
         21   -1    0    0  501  503 -0.00000000000E+00 -0.00000000000E+00 -0.18047609364E+04  0.18047609364E+04  0.00000000000E+00 0.  1.
          6    1    1    2  501    0  0.24875358074E+02 -0.56655277345E+02 -0.16212440377E+04  0.16316218415E+04  0.17300000000E+03 0.  1.
         -6    1    1    2    0  502 -0.24875358074E+02  0.56655277345E+02 -0.13100283685E+03  0.22565315675E+03  0.17300000000E+03 0.  1.
<mgrwt>
<rscale>  2 0.18373242E+03</rscale>
<asrwt>0</asrwt>
<pdfrwt beam="1">  1       21 0.80790875E-02 0.18373242E+03</pdfrwt>
<pdfrwt beam="2">  1       21 0.27765549E+00 0.18373242E+03</pdfrwt>
<totfact> 0.54699439E+03</totfact>
</mgrwt>
</event>
<event>
 4    1  0.8126752E-001  0.1850450E+03  0.7546771E-02  0.1163008E+00
         21   -1    0    0  501  502  0.00000000000E+00  0.00000000000E+00  0.17637064133E+04  0.17637064133E+04  0.00000000000E+00 0. -1.
         21   -1    0    0  502  503 -0.00000000000E+00 -0.00000000000E+00 -0.21666592452E+02  0.21666592452E+02  0.00000000000E+00 0. -1.
          6    1    1    2  501    0 -0.56369547609E+02  0.33691714126E+02  0.11588173755E+04  0.11734987717E+04  0.17300000000E+03 0. -1.
         -6    1    1    2    0  503  0.56369547609E+02 -0.33691714126E+02  0.58322244533E+03  0.61187423401E+03  0.17300000000E+03 0. -1.
<mgrwt>
<rscale>  2 0.18504501E+03</rscale>
<asrwt>0</asrwt>
<pdfrwt beam="1">  1       21 0.27133934E+00 0.18504501E+03</pdfrwt>
<pdfrwt beam="2">  1       21 0.33333233E-02 0.18504501E+03</pdfrwt>
<totfact> 0.26712842E+04</totfact>
</mgrwt>
</event>
<event>
 4    1  0.8126752E-001  0.2225370E+03  0.7546771E-02  0.1132006E+00
         21   -1    0    0  503  502  0.00000000000E+00  0.00000000000E+00  0.71932947194E+03  0.71932947194E+03  0.00000000000E+00 0.  1.
         21   -1    0    0  501  503 -0.00000000000E+00 -0.00000000000E+00 -0.68928749363E+02  0.68928749363E+02  0.00000000000E+00 0. -1.
          6    1    1    2  501    0 -0.23892290466E+01  0.13995712895E+03  0.33888497164E+03  0.40542043654E+03  0.17300000000E+03 0.  1.
         -6    1    1    2    0  502  0.23892290466E+01 -0.13995712895E+03  0.31151575094E+03  0.38283778477E+03  0.17300000000E+03 0. -1.
<mgrwt>
<rscale>  2 0.22253698E+03</rscale>
<asrwt>0</asrwt>
<pdfrwt beam="1">  1       21 0.11066607E+00 0.22253698E+03</pdfrwt>
<pdfrwt beam="2">  1       21 0.10604424E-01 0.22253698E+03</pdfrwt>
<totfact> 0.46357314E+04</totfact>
</mgrwt>
</event>
<event>
 4    1  0.8126752E-001  0.2452200E+03  0.7546771E-02  0.1116363E+00
         21   -1    0    0  501  502  0.00000000000E+00  0.00000000000E+00  0.46513353596E+03  0.46513353596E+03  0.00000000000E+00 0. -1.
         21   -1    0    0  502  503 -0.00000000000E+00 -0.00000000000E+00 -0.17819874114E+03  0.17819874114E+03  0.00000000000E+00 0. -1.
          6    1    1    2  501    0 -0.16523933158E+03 -0.53849690277E+02  0.31200127314E+03  0.39683449987E+03  0.17300000000E+03 0. -1.
         -6    1    1    2    0  503  0.16523933158E+03  0.53849690277E+02 -0.25066478328E+02  0.24649777723E+03  0.17300000000E+03 0. -1.
<mgrwt>
<rscale>  2 0.24521995E+03</rscale>
<asrwt>0</asrwt>
<pdfrwt beam="1">  1       21 0.71559005E-01 0.24521995E+03</pdfrwt>
<pdfrwt beam="2">  1       21 0.27415191E-01 0.24521995E+03</pdfrwt>
<totfact> 0.21763885E+04</totfact>
</mgrwt>
</event>
<event>
 4    1  0.8126752E-001  0.1805151E+03  0.7546771E-02  0.1167305E+00
         21   -1    0    0  501  502  0.00000000000E+00  0.00000000000E+00  0.37112731461E+02  0.37112731461E+02  0.00000000000E+00 0. -1.
         21   -1    0    0  502  503 -0.00000000000E+00 -0.00000000000E+00 -0.10472307790E+04  0.10472307790E+04  0.00000000000E+00 0. -1.
          6    1    1    2  501    0  0.27042211800E+02 -0.43879695956E+02 -0.28712245877E+03  0.33915338015E+03  0.17300000000E+03 0. -1.
         -6    1    1    2    0  503 -0.27042211800E+02  0.43879695956E+02 -0.72299558882E+03  0.74519013036E+03  0.17300000000E+03 0. -1.
<mgrwt>
<rscale>  2 0.18051512E+03</rscale>
<asrwt>0</asrwt>
<pdfrwt beam="1">  1       21 0.57096514E-02 0.18051512E+03</pdfrwt>
<pdfrwt beam="2">  1       21 0.16111242E+00 0.18051512E+03</pdfrwt>
<totfact> 0.53388604E+04</totfact>
</mgrwt>
</event>
<event>
 4    1  0.8126752E-001  0.1780530E+03  0.7546771E-02  0.1169701E+00
         21   -1    0    0  503  502  0.00000000000E+00  0.00000000000E+00  0.55069580883E+03  0.55069580883E+03  0.00000000000E+00 0.  1.
         21   -1    0    0  501  503 -0.00000000000E+00 -0.00000000000E+00 -0.71935471088E+02  0.71935471088E+02  0.00000000000E+00 0. -1.
          6    1    1    2  501    0  0.20930605367E+02 -0.36548323058E+02  0.10025420014E+03  0.20433740432E+03  0.17300000000E+03 0. -1.
         -6    1    1    2    0  502 -0.20930605367E+02  0.36548323058E+02  0.37850613760E+03  0.41829387559E+03  0.17300000000E+03 0.  1.
<mgrwt>
<rscale>  2 0.17805300E+03</rscale>
<asrwt>0</asrwt>
<pdfrwt beam="1">  1       21 0.84722429E-01 0.17805300E+03</pdfrwt>
<pdfrwt beam="2">  1       21 0.11066996E-01 0.17805300E+03</pdfrwt>
<totfact> 0.82356544E+04</totfact>
</mgrwt>
</event>
<event>
 4    1  0.8126752E-001  0.1795239E+03  0.7546771E-02  0.1168265E+00
         21   -1    0    0  501  502  0.00000000000E+00  0.00000000000E+00  0.50529230142E+02  0.50529230142E+02  0.00000000000E+00 0.  1.
         21   -1    0    0  502  503 -0.00000000000E+00 -0.00000000000E+00 -0.68318272583E+03  0.68318272583E+03  0.00000000000E+00 0.  1.
          6    1    1    2  501    0  0.39997143159E+02  0.26458788817E+02 -0.22180109300E+03  0.28534989719E+03  0.17300000000E+03 0.  1.
         -6    1    1    2    0  503 -0.39997143159E+02 -0.26458788817E+02 -0.41085240268E+03  0.44836205879E+03  0.17300000000E+03 0.  1.
<mgrwt>
<rscale>  2 0.17952392E+03</rscale>
<asrwt>0</asrwt>
<pdfrwt beam="1">  1       21 0.77737286E-02 0.17952392E+03</pdfrwt>
<pdfrwt beam="2">  1       21 0.10510502E+00 0.17952392E+03</pdfrwt>
<totfact> 0.92456838E+04</totfact>
</mgrwt>
</event>
<event>
 4    1  0.8126752E-001  0.1776016E+03  0.7546771E-02  0.1170145E+00
         21   -1    0    0  503  502  0.00000000000E+00  0.00000000000E+00  0.21372740897E+03  0.21372740897E+03  0.00000000000E+00 0. -1.
         21   -1    0    0  501  503 -0.00000000000E+00 -0.00000000000E+00 -0.15039645619E+03  0.15039645619E+03  0.00000000000E+00 0. -1.
          6    1    1    2  501    0  0.34826470859E+02 -0.20011161783E+02  0.67600746823E+01  0.17773021206E+03  0.17300000000E+03 0. -1.
         -6    1    1    2    0  502 -0.34826470859E+02  0.20011161783E+02  0.56570878092E+02  0.18639365310E+03  0.17300000000E+03 0. -1.
<mgrwt>
<rscale>  2 0.17760160E+03</rscale>
<asrwt>0</asrwt>
<pdfrwt beam="1">  1       21 0.32881140E-01 0.17760160E+03</pdfrwt>
<pdfrwt beam="2">  1       21 0.23137916E-01 0.17760160E+03</pdfrwt>
<totfact> 0.15699254E+05</totfact>
</mgrwt>
</event>
<event>
 4    1  0.8126752E-001  0.2682408E+03  0.7546771E-02  0.1102291E+00
         21   -1    0    0  501  502  0.00000000000E+00  0.00000000000E+00  0.10074421712E+03  0.10074421712E+03  0.00000000000E+00 0.  1.
         21   -1    0    0  502  503 -0.00000000000E+00 -0.00000000000E+00 -0.78478704735E+03  0.78478704735E+03  0.00000000000E+00 0.  1.
          6    1    1    2  501    0 -0.87610244094E+02  0.18533374764E+03 -0.20924815265E+03  0.34020279581E+03  0.17300000000E+03 0.  1.
         -6    1    1    2    0  503  0.87610244094E+02 -0.18533374764E+03 -0.47479467757E+03  0.54532846866E+03  0.17300000000E+03 0.  1.
<mgrwt>
<rscale>  2 0.26824085E+03</rscale>
<asrwt>0</asrwt>
<pdfrwt beam="1">  1       21 0.15499111E-01 0.26824085E+03</pdfrwt>
<pdfrwt beam="2">  1       21 0.12073646E+00 0.26824085E+03</pdfrwt>
<totfact> 0.18416345E+04</totfact>
</mgrwt>
</event>
<event>
 4    1  0.8126752E-001  0.2181738E+03  0.7546771E-02  0.1135252E+00
         21   -1    0    0  501  502  0.00000000000E+00  0.00000000000E+00  0.21122646950E+04  0.21122646950E+04  0.00000000000E+00 0.  1.
         21   -1    0    0  502  503 -0.00000000000E+00 -0.00000000000E+00 -0.24950620708E+02  0.24950620708E+02  0.00000000000E+00 0.  1.
          6    1    1    2  501    0  0.32930431530E+01 -0.13289073830E+03  0.13761602997E+04  0.13933473950E+04  0.17300000000E+03 0.  1.
         -6    1    1    2    0  503 -0.32930431530E+01  0.13289073830E+03  0.71115377456E+03  0.74386792075E+03  0.17300000000E+03 0.  1.
<mgrwt>
<rscale>  2 0.21817377E+03</rscale>
<asrwt>0</asrwt>
<pdfrwt beam="1">  1       21 0.32496366E+00 0.21817377E+03</pdfrwt>
<pdfrwt beam="2">  1       21 0.38385587E-02 0.21817377E+03</pdfrwt>
<totfact> 0.10005298E+04</totfact>
</mgrwt>
</event>
<event>
 4    1  0.8126752E-001  0.1738689E+03  0.7546771E-02  0.1173872E+00
         21   -1    0    0  503  502  0.00000000000E+00  0.00000000000E+00  0.18444737457E+03  0.18444737457E+03  0.00000000000E+00 0.  1.
         21   -1    0    0  501  503 -0.00000000000E+00 -0.00000000000E+00 -0.18327367536E+03  0.18327367536E+03  0.00000000000E+00 0.  1.
          6    1    1    2  501    0 -0.17180501199E+02  0.24930654829E+01 -0.59196088268E+02  0.18366970862E+03  0.17300000000E+03 0.  1.
         -6    1    1    2    0  502  0.17180501199E+02 -0.24930654829E+01  0.60369787478E+02  0.18405134131E+03  0.17300000000E+03 0.  1.
<mgrwt>
<rscale>  2 0.17386887E+03</rscale>
<asrwt>0</asrwt>
<pdfrwt beam="1">  1       21 0.28376519E-01 0.17386887E+03</pdfrwt>
<pdfrwt beam="2">  1       21 0.28195950E-01 0.17386887E+03</pdfrwt>
<totfact> 0.14359952E+05</totfact>
</mgrwt>
</event>
<event>
 4    1  0.8126752E-001  0.2165872E+03  0.7546771E-02  0.1136453E+00
         21   -1    0    0  501  502  0.00000000000E+00  0.00000000000E+00  0.22117461734E+03  0.22117461734E+03  0.00000000000E+00 0. -1.
         21   -1    0    0  502  503 -0.00000000000E+00 -0.00000000000E+00 -0.21377333930E+03  0.21377333930E+03  0.00000000000E+00 0. -1.
          6    1    1    2  501    0 -0.12146353476E+03  0.47197533427E+02 -0.15569716611E+02  0.21714606493E+03  0.17300000000E+03 0. -1.
         -6    1    1    2    0  503  0.12146353476E+03 -0.47197533427E+02  0.22970994646E+02  0.21780189171E+03  0.17300000000E+03 0. -1.
<mgrwt>
<rscale>  2 0.21658716E+03</rscale>
<asrwt>0</asrwt>
<pdfrwt beam="1">  1       21 0.34026864E-01 0.21658716E+03</pdfrwt>
<pdfrwt beam="2">  1       21 0.32888206E-01 0.21658716E+03</pdfrwt>
<totfact> 0.73301401E+04</totfact>
</mgrwt>
</event>
<event>
 4    1  0.8126752E-001  0.2555432E+03  0.7546771E-02  0.1109851E+00
         21   -1    0    0  503  502  0.00000000000E+00  0.00000000000E+00  0.27385163612E+03  0.27385163612E+03  0.00000000000E+00 0. -1.
         21   -1    0    0  501  503 -0.00000000000E+00 -0.00000000000E+00 -0.25282348216E+03  0.25282348216E+03  0.00000000000E+00 0. -1.
          6    1    1    2  501    0 -0.12602858013E+03  0.13960711523E+03  0.73283938095E+02  0.26584372329E+03  0.17300000000E+03 0. -1.
         -6    1    1    2    0  502  0.12602858013E+03 -0.13960711523E+03 -0.52255784137E+02  0.26083139498E+03  0.17300000000E+03 0. -1.
<mgrwt>
<rscale>  2 0.25554324E+03</rscale>
<asrwt>0</asrwt>
<pdfrwt beam="1">  1       21 0.42131021E-01 0.25554324E+03</pdfrwt>
<pdfrwt beam="2">  1       21 0.38895920E-01 0.25554324E+03</pdfrwt>
<totfact> 0.33522887E+04</totfact>
</mgrwt>
</event>
<event>
 4    1  0.8126752E-001  0.1746915E+03  0.7546771E-02  0.1173042E+00
         21   -1    0    0  501  502  0.00000000000E+00  0.00000000000E+00  0.68007979891E+03  0.68007979891E+03  0.00000000000E+00 0. -1.
         21   -1    0    0  502  503 -0.00000000000E+00 -0.00000000000E+00 -0.49165177067E+02  0.49165177067E+02  0.00000000000E+00 0. -1.
          6    1    1    2  501    0 -0.21256568461E+02  0.11674287908E+02  0.42319314168E+03  0.45783137274E+03  0.17300000000E+03 0. -1.
         -6    1    1    2    0  503  0.21256568461E+02 -0.11674287908E+02  0.20772148017E+03  0.27141360324E+03  0.17300000000E+03 0. -1.
<mgrwt>
<rscale>  2 0.17469153E+03</rscale>
<asrwt>0</asrwt>
<pdfrwt beam="1">  1       21 0.10462765E+00 0.17469153E+03</pdfrwt>
<pdfrwt beam="2">  1       21 0.75638739E-02 0.17469153E+03</pdfrwt>
<totfact> 0.98216509E+04</totfact>
</mgrwt>
</event>
<event>
 4    1  0.8126752E-001  0.1935972E+03  0.7546771E-02  0.1155256E+00
         21   -1    0    0  503  502  0.00000000000E+00  0.00000000000E+00  0.21737312832E+03  0.21737312832E+03  0.00000000000E+00 0.  1.
         21   -1    0    0  501  503 -0.00000000000E+00 -0.00000000000E+00 -0.18126425948E+03  0.18126425948E+03  0.00000000000E+00 0.  1.
          6    1    1    2  501    0  0.32525395386E+02  0.80579059256E+02 -0.25968218724E+02  0.19533108948E+03  0.17300000000E+03 0.  1.
         -6    1    1    2    0  502 -0.32525395386E+02 -0.80579059256E+02  0.62077087564E+02  0.20330629832E+03  0.17300000000E+03 0.  1.
<mgrwt>
<rscale>  2 0.19359723E+03</rscale>
<asrwt>0</asrwt>
<pdfrwt beam="1">  1       21 0.33442020E-01 0.19359723E+03</pdfrwt>
<pdfrwt beam="2">  1       21 0.27886809E-01 0.19359723E+03</pdfrwt>
<totfact> 0.10571296E+05</totfact>
</mgrwt>
</event>
<event>
 4    1  0.8126752E-001  0.2235429E+03  0.7546771E-02  0.1131269E+00
         21   -1    0    0  503  502  0.00000000000E+00  0.00000000000E+00  0.86174728223E+03  0.86174728223E+03  0.00000000000E+00 0.  1.
         21   -1    0    0  501  503 -0.00000000000E+00 -0.00000000000E+00 -0.59542578129E+02  0.59542578129E+02  0.00000000000E+00 0. -1.
          6    1    1    2  501    0  0.38891603049E+02  0.13612450307E+03  0.32668261755E+03  0.39584462827E+03  0.17300000000E+03 0.  1.
         -6    1    1    2    0  502 -0.38891603049E+02 -0.13612450307E+03  0.47552208655E+03  0.52544523209E+03  0.17300000000E+03 0. -1.
<mgrwt>
<rscale>  2 0.22354292E+03</rscale>
<asrwt>0</asrwt>
<pdfrwt beam="1">  1       21 0.13257650E+00 0.22354292E+03</pdfrwt>
<pdfrwt beam="2">  1       21 0.91603972E-02 0.22354292E+03</pdfrwt>
<totfact> 0.38290121E+04</totfact>
</mgrwt>
</event>
<event>
 4    1  0.8126752E-001  0.2480846E+03  0.7546771E-02  0.1114521E+00
         21   -1    0    0  503  502  0.00000000000E+00  0.00000000000E+00  0.67657500484E+02  0.67657500484E+02  0.00000000000E+00 0.  1.
         21   -1    0    0  501  503 -0.00000000000E+00 -0.00000000000E+00 -0.15925371304E+04  0.15925371304E+04  0.00000000000E+00 0.  1.
          6    1    1    2  501    0 -0.10237649795E+03 -0.14538230217E+03 -0.13060060927E+04  0.13293599495E+04  0.17300000000E+03 0.  1.
         -6    1    1    2    0  502  0.10237649795E+03  0.14538230217E+03 -0.21887353718E+03  0.33083468136E+03  0.17300000000E+03 0.  1.
<mgrwt>
<rscale>  2 0.24808458E+03</rscale>
<asrwt>0</asrwt>
<pdfrwt beam="1">  1       21 0.10408847E-01 0.24808458E+03</pdfrwt>
<pdfrwt beam="2">  1       21 0.24500569E+00 0.24808458E+03</pdfrwt>
<totfact> 0.51134289E+03</totfact>
</mgrwt>
</event>
<event>
 4    1  0.8126752E-001  0.1890649E+03  0.7546771E-02  0.1159307E+00
         21   -1    0    0  501  502  0.00000000000E+00  0.00000000000E+00  0.41243016955E+03  0.41243016955E+03  0.00000000000E+00 0. -1.
         21   -1    0    0  502  503 -0.00000000000E+00 -0.00000000000E+00 -0.96947288902E+02  0.96947288902E+02  0.00000000000E+00 0.  1.
          6    1    1    2  501    0 -0.76131579631E+02 -0.45278847383E+01  0.74819183237E+02  0.20333083715E+03  0.17300000000E+03 0.  1.
         -6    1    1    2    0  503  0.76131579631E+02  0.45278847383E+01  0.24066369741E+03  0.30604662130E+03  0.17300000000E+03 0. -1.
<mgrwt>
<rscale>  2 0.18906485E+03</rscale>
<asrwt>0</asrwt>
<pdfrwt beam="1">  1       21 0.63450795E-01 0.18906485E+03</pdfrwt>
<pdfrwt beam="2">  1       21 0.14914968E-01 0.18906485E+03</pdfrwt>
<totfact> 0.91164584E+04</totfact>
</mgrwt>
</event>
<event>
 4    1  0.8126752E-001  0.2210160E+03  0.7546771E-02  0.1133128E+00
         21   -1    0    0  503  502  0.00000000000E+00  0.00000000000E+00  0.25632678614E+03  0.25632678614E+03  0.00000000000E+00 0. -1.
         21   -1    0    0  501  503 -0.00000000000E+00 -0.00000000000E+00 -0.19996956670E+03  0.19996956670E+03  0.00000000000E+00 0.  1.
          6    1    1    2  501    0 -0.18848179752E+02  0.13624903715E+03 -0.21286813624E+02  0.22203869581E+03  0.17300000000E+03 0. -1.
         -6    1    1    2    0  502  0.18848179752E+02 -0.13624903715E+03  0.77644033070E+02  0.23425765702E+03  0.17300000000E+03 0. -1.
<mgrwt>
<rscale>  2 0.22101596E+03</rscale>
<asrwt>0</asrwt>
<pdfrwt beam="1">  1       21 0.39434891E-01 0.22101596E+03</pdfrwt>
<pdfrwt beam="2">  1       21 0.30764548E-01 0.22101596E+03</pdfrwt>
<totfact> 0.62100416E+04</totfact>
</mgrwt>
</event>
<event>
 4    1  0.8126752E-001  0.2114231E+03  0.7546771E-02  0.1140444E+00
         21   -1    0    0  503  502  0.00000000000E+00  0.00000000000E+00  0.38968833856E+03  0.38968833856E+03  0.00000000000E+00 0. -1.
         21   -1    0    0  501  503 -0.00000000000E+00 -0.00000000000E+00 -0.12049133808E+03  0.12049133808E+03  0.00000000000E+00 0.  1.
          6    1    1    2  501    0  0.49139155356E+02  0.11115783518E+03  0.78704259492E+02  0.22559716615E+03  0.17300000000E+03 0.  1.
         -6    1    1    2    0  502 -0.49139155356E+02 -0.11115783518E+03  0.19049274099E+03  0.28458251050E+03  0.17300000000E+03 0.  1.
<mgrwt>
<rscale>  2 0.21142309E+03</rscale>
<asrwt>0</asrwt>
<pdfrwt beam="1">  1       21 0.59952051E-01 0.21142309E+03</pdfrwt>
<pdfrwt beam="2">  1       21 0.18537129E-01 0.21142309E+03</pdfrwt>
<totfact> 0.68435513E+04</totfact>
</mgrwt>
</event>
<event>
 4    1  0.8126752E-001  0.1883317E+03  0.7546771E-02  0.1159975E+00
         21   -1    0    0  501  502  0.00000000000E+00  0.00000000000E+00  0.84158320377E+03  0.84158320377E+03  0.00000000000E+00 0. -1.
         21   -1    0    0  502  503 -0.00000000000E+00 -0.00000000000E+00 -0.58673187828E+02  0.58673187828E+02  0.00000000000E+00 0. -1.
          6    1    1    2  501    0 -0.40423993408E+02  0.62495935369E+02  0.63035935133E+03  0.65789190069E+03  0.17300000000E+03 0. -1.
         -6    1    1    2    0  503  0.40423993408E+02 -0.62495935369E+02  0.15255066461E+03  0.24236449091E+03  0.17300000000E+03 0. -1.
<mgrwt>
<rscale>  2 0.18833173E+03</rscale>
<asrwt>0</asrwt>
<pdfrwt beam="1">  1       21 0.12947433E+00 0.18833173E+03</pdfrwt>
<pdfrwt beam="2">  1       21 0.90266449E-02 0.18833173E+03</pdfrwt>
<totfact> 0.42537315E+04</totfact>
</mgrwt>
</event>
<event>
 4    1  0.8126752E-001  0.2218263E+03  0.7546771E-02  0.1132529E+00
         21   -1    0    0  503  502  0.00000000000E+00  0.00000000000E+00  0.43143101645E+03  0.43143101645E+03  0.00000000000E+00 0. -1.
         21   -1    0    0  501  503 -0.00000000000E+00 -0.00000000000E+00 -0.11518972891E+03  0.11518972891E+03  0.00000000000E+00 0. -1.
          6    1    1    2  501    0  0.75057837537E+02 -0.11680851868E+03  0.13099527896E+03  0.25761729779E+03  0.17300000000E+03 0. -1.
         -6    1    1    2    0  502 -0.75057837537E+02  0.11680851868E+03  0.18524600858E+03  0.28900344756E+03  0.17300000000E+03 0. -1.
<mgrwt>
<rscale>  2 0.22182630E+03</rscale>
<asrwt>0</asrwt>
<pdfrwt beam="1">  1       21 0.66374002E-01 0.22182630E+03</pdfrwt>
<pdfrwt beam="2">  1       21 0.17721497E-01 0.22182630E+03</pdfrwt>
<totfact> 0.59373154E+04</totfact>
</mgrwt>
</event>
<event>
 4    1  0.8126752E-001  0.2168959E+03  0.7546771E-02  0.1136219E+00
         21   -1    0    0  503  502  0.00000000000E+00  0.00000000000E+00  0.71188312718E+03  0.71188312718E+03  0.00000000000E+00 0.  1.
         21   -1    0    0  501  503 -0.00000000000E+00 -0.00000000000E+00 -0.67239079461E+02  0.67239079461E+02  0.00000000000E+00 0. -1.
          6    1    1    2  501    0  0.12696886433E+03  0.31523563291E+02  0.27125524058E+03  0.34730855604E+03  0.17300000000E+03 0. -1.
         -6    1    1    2    0  502 -0.12696886433E+03 -0.31523563291E+02  0.37338880714E+03  0.43181365061E+03  0.17300000000E+03 0. -1.
<mgrwt>
<rscale>  2 0.21689589E+03</rscale>
<asrwt>0</asrwt>
<pdfrwt beam="1">  1       21 0.10952048E+00 0.21689589E+03</pdfrwt>
<pdfrwt beam="2">  1       21 0.10344474E-01 0.21689589E+03</pdfrwt>
<totfact> 0.49825403E+04</totfact>
</mgrwt>
</event>
<event>
 4    1  0.8126752E-001  0.2039608E+03  0.7546771E-02  0.1146440E+00
         21   -1    0    0  503  502  0.00000000000E+00  0.00000000000E+00  0.20368906344E+03  0.20368906344E+03  0.00000000000E+00 0. -1.
         21   -1    0    0  501  503 -0.00000000000E+00 -0.00000000000E+00 -0.27100090565E+03  0.27100090565E+03  0.00000000000E+00 0.  1.
          6    1    1    2  501    0  0.34943273166E+02 -0.10222504228E+03 -0.15146510663E+03  0.25405052674E+03  0.17300000000E+03 0.  1.
         -6    1    1    2    0  502 -0.34943273166E+02  0.10222504228E+03  0.84153264418E+02  0.22063944235E+03  0.17300000000E+03 0. -1.
<mgrwt>
<rscale>  2 0.20396076E+03</rscale>
<asrwt>0</asrwt>
<pdfrwt beam="1">  1       21 0.31336779E-01 0.20396076E+03</pdfrwt>
<pdfrwt beam="2">  1       21 0.41692447E-01 0.20396076E+03</pdfrwt>
<totfact> 0.53906877E+04</totfact>
</mgrwt>
</event>
<event>
 4    1  0.8126752E-001  0.1878704E+03  0.7546771E-02  0.1160396E+00
         21   -1    0    0  501  502  0.00000000000E+00  0.00000000000E+00  0.32611285370E+03  0.32611285370E+03  0.00000000000E+00 0.  1.
         21   -1    0    0  502  503 -0.00000000000E+00 -0.00000000000E+00 -0.10892598450E+03  0.10892598450E+03  0.00000000000E+00 0.  1.
          6    1    1    2  501    0  0.51263675165E+01 -0.73075340410E+02  0.12597725086E+03  0.22619803879E+03  0.17300000000E+03 0. -1.
         -6    1    1    2    0  503 -0.51263675165E+01  0.73075340410E+02  0.91209618331E+02  0.20884079940E+03  0.17300000000E+03 0. -1.
<mgrwt>
<rscale>  2 0.18787039E+03</rscale>
<asrwt>0</asrwt>
<pdfrwt beam="1">  1       21 0.50171208E-01 0.18787039E+03</pdfrwt>
<pdfrwt beam="2">  1       21 0.16757844E-01 0.18787039E+03</pdfrwt>
<totfact> 0.12138975E+05</totfact>
</mgrwt>
</event>
<event>
 4    1  0.8126752E-001  0.3798332E+03  0.7546771E-02  0.1050995E+00
         21   -1    0    0  503  502  0.00000000000E+00  0.00000000000E+00  0.96775740566E+03  0.96775740566E+03  0.00000000000E+00 0.  1.
         21   -1    0    0  501  503 -0.00000000000E+00 -0.00000000000E+00 -0.15251265274E+03  0.15251265274E+03  0.00000000000E+00 0. -1.
          6    1    1    2  501    0 -0.28751110889E+03  0.17799324376E+03  0.49165684197E+03  0.62128872742E+03  0.17300000000E+03 0.  1.
         -6    1    1    2    0  502  0.28751110889E+03 -0.17799324376E+03  0.32358791095E+03  0.49898133098E+03  0.17300000000E+03 0. -1.
<mgrwt>
<rscale>  2 0.37983316E+03</rscale>
<asrwt>0</asrwt>
<pdfrwt beam="1">  1       21 0.14888575E+00 0.37983316E+03</pdfrwt>
<pdfrwt beam="2">  1       21 0.23463486E-01 0.37983316E+03</pdfrwt>
<totfact> 0.46569940E+03</totfact>
</mgrwt>
</event>
<event>
 4    1  0.8126752E-001  0.1826874E+03  0.7546771E-02  0.1165227E+00
         21   -1    0    0  501  502  0.00000000000E+00  0.00000000000E+00  0.16644900007E+04  0.16644900007E+04  0.00000000000E+00 0.  1.
         21   -1    0    0  502  503 -0.00000000000E+00 -0.00000000000E+00 -0.41894227283E+02  0.41894227283E+02  0.00000000000E+00 0.  1.
          6    1    1    2  501    0  0.31607707711E+02 -0.49463650800E+02  0.14273650730E+04  0.14390086002E+04  0.17300000000E+03 0.  1.
         -6    1    1    2    0  503 -0.31607707711E+02  0.49463650800E+02  0.19523070049E+03  0.26737562782E+03  0.17300000000E+03 0.  1.
<mgrwt>
<rscale>  2 0.18268744E+03</rscale>
<asrwt>0</asrwt>
<pdfrwt beam="1">  1       21 0.25607533E+00 0.18268744E+03</pdfrwt>
<pdfrwt beam="2">  1       21 0.64452670E-02 0.18268744E+03</pdfrwt>
<totfact> 0.10787570E+04</totfact>
</mgrwt>
</event>
<event>
 4    1  0.8126752E-001  0.1806179E+03  0.7546771E-02  0.1167206E+00
         21   -1    0    0  503  502  0.00000000000E+00  0.00000000000E+00  0.19335554591E+03  0.19335554591E+03  0.00000000000E+00 0. -1.
         21   -1    0    0  501  503 -0.00000000000E+00 -0.00000000000E+00 -0.21260620794E+03  0.21260620794E+03  0.00000000000E+00 0. -1.
          6    1    1    2  501    0 -0.82424985943E+01  0.51243323569E+02 -0.10184732899E+03  0.20735403400E+03  0.17300000000E+03 0. -1.
         -6    1    1    2    0  502  0.82424985943E+01 -0.51243323569E+02  0.82596666949E+02  0.19860771985E+03  0.17300000000E+03 0. -1.
<mgrwt>
<rscale>  2 0.18061788E+03</rscale>
<asrwt>0</asrwt>
<pdfrwt beam="1">  1       21 0.29747007E-01 0.18061788E+03</pdfrwt>
<pdfrwt beam="2">  1       21 0.32708647E-01 0.18061788E+03</pdfrwt>
<totfact> 0.97906042E+04</totfact>
</mgrwt>
</event>
<event>
 4    1  0.8126752E-001  0.3220109E+03  0.7546771E-02  0.1074728E+00
         21   -1    0    0  501  502  0.00000000000E+00  0.00000000000E+00  0.77272809806E+03  0.77272809806E+03  0.00000000000E+00 0.  1.
         21   -1    0    0  502  503 -0.00000000000E+00 -0.00000000000E+00 -0.13986050520E+03  0.13986050520E+03  0.00000000000E+00 0. -1.
          6    1    1    2  501    0  0.26930096629E+03  0.35199282889E+02  0.40832563222E+03  0.52002002066E+03  0.17300000000E+03 0.  1.
         -6    1    1    2    0  503 -0.26930096629E+03 -0.35199282889E+02  0.22454196064E+03  0.39256858260E+03  0.17300000000E+03 0. -1.
<mgrwt>
<rscale>  2 0.32201087E+03</rscale>
<asrwt>0</asrwt>
<pdfrwt beam="1">  1       21 0.11888124E+00 0.32201087E+03</pdfrwt>
<pdfrwt beam="2">  1       21 0.21517001E-01 0.32201087E+03</pdfrwt>
<totfact> 0.10113406E+04</totfact>
</mgrwt>
</event>
<event>
 4    1  0.8126752E-001  0.1738537E+03  0.7546771E-02  0.1173888E+00
         21   -1    0    0  501  502  0.00000000000E+00  0.00000000000E+00  0.12391805271E+03  0.12391805271E+03  0.00000000000E+00 0.  1.
         21   -1    0    0  502  503 -0.00000000000E+00 -0.00000000000E+00 -0.35525762040E+03  0.35525762040E+03  0.00000000000E+00 0.  1.
          6    1    1    2  501    0  0.15152985090E+02  0.81553914051E+01  0.18461248691E+02  0.17483117877E+03  0.17300000000E+03 0.  1.
         -6    1    1    2    0  503 -0.15152985090E+02 -0.81553914051E+01 -0.24980081638E+03  0.30434449433E+03  0.17300000000E+03 0.  1.
<mgrwt>
<rscale>  2 0.17385374E+03</rscale>
<asrwt>0</asrwt>
<pdfrwt beam="1">  1       21 0.19064316E-01 0.17385374E+03</pdfrwt>
<pdfrwt beam="2">  1       21 0.54655018E-01 0.17385374E+03</pdfrwt>
<totfact> 0.80404344E+04</totfact>
</mgrwt>
</event>
<event>
 4    1  0.8126752E-001  0.3425395E+03  0.7546771E-02  0.1065719E+00
         21   -1    0    0  501  502  0.00000000000E+00  0.00000000000E+00  0.23120977786E+03  0.23120977786E+03  0.00000000000E+00 0. -1.
         21   -1    0    0  502  503 -0.00000000000E+00 -0.00000000000E+00 -0.78756973567E+03  0.78756973567E+03  0.00000000000E+00 0. -1.
          6    1    1    2  501    0  0.29440448566E+03 -0.27024326816E+02  0.25599004225E+02  0.34349472257E+03  0.17300000000E+03 0. -1.
         -6    1    1    2    0  503 -0.29440448566E+03  0.27024326816E+02 -0.58195896204E+03  0.67528479097E+03  0.17300000000E+03 0. -1.
<mgrwt>
<rscale>  2 0.34253951E+03</rscale>
<asrwt>0</asrwt>
<pdfrwt beam="1">  1       21 0.35570736E-01 0.34253951E+03</pdfrwt>
<pdfrwt beam="2">  1       21 0.12116457E+00 0.34253951E+03</pdfrwt>
<totfact> 0.35706768E+03</totfact>
</mgrwt>
</event>
<event>
 4    1  0.8126752E-001  0.3557237E+03  0.7546771E-02  0.1060290E+00
         21   -1    0    0  501  502  0.00000000000E+00  0.00000000000E+00  0.54160153639E+03  0.54160153639E+03  0.00000000000E+00 0.  1.
         21   -1    0    0  502  503 -0.00000000000E+00 -0.00000000000E+00 -0.25565479306E+03  0.25565479306E+03  0.00000000000E+00 0. -1.
          6    1    1    2  501    0 -0.82126025936E+02  0.29977600036E+03  0.25995198824E+03  0.44058412445E+03  0.17300000000E+03 0.  1.
         -6    1    1    2    0  503  0.82126025936E+02 -0.29977600036E+03  0.25994755087E+02  0.35667220500E+03  0.17300000000E+03 0. -1.
<mgrwt>
<rscale>  2 0.35572368E+03</rscale>
<asrwt>0</asrwt>
<pdfrwt beam="1">  1       21 0.83323313E-01 0.35572368E+03</pdfrwt>
<pdfrwt beam="2">  1       21 0.39331507E-01 0.35572368E+03</pdfrwt>
<totfact> 0.71519337E+03</totfact>
</mgrwt>
</event>
<event>
 4    1  0.8126752E-001  0.2133055E+03  0.7546771E-02  0.1138975E+00
         21   -1    0    0  503  502  0.00000000000E+00  0.00000000000E+00  0.17229484198E+02  0.17229484198E+02  0.00000000000E+00 0. -1.
         21   -1    0    0  501  503 -0.00000000000E+00 -0.00000000000E+00 -0.26732111025E+04  0.26732111025E+04  0.00000000000E+00 0. -1.
          6    1    1    2  501    0  0.57430528242E+02  0.11077901445E+03 -0.14761627800E+04  0.14914944883E+04  0.17300000000E+03 0. -1.
         -6    1    1    2    0  502 -0.57430528242E+02 -0.11077901445E+03 -0.11798188383E+04  0.11989460984E+04  0.17300000000E+03 0. -1.
<mgrwt>
<rscale>  2 0.21330555E+03</rscale>
<asrwt>0</asrwt>
<pdfrwt beam="1">  1       21 0.26506898E-02 0.21330555E+03</pdfrwt>
<pdfrwt beam="2">  1       21 0.41126326E+00 0.21330555E+03</pdfrwt>
<totfact> 0.55966731E+03</totfact>
</mgrwt>
</event>
<event>
 4    1  0.8126752E-001  0.2570265E+03  0.7546771E-02  0.1108943E+00
         21   -1    0    0  501  502  0.00000000000E+00  0.00000000000E+00  0.18081642614E+04  0.18081642614E+04  0.00000000000E+00 0. -1.
         21   -1    0    0  502  503 -0.00000000000E+00 -0.00000000000E+00 -0.36663064333E+02  0.36663064333E+02  0.00000000000E+00 0. -1.
          6    1    1    2  501    0  0.31460341834E+02  0.18746696035E+03  0.94010963754E+03  0.97461209972E+03  0.17300000000E+03 0. -1.
         -6    1    1    2    0  503 -0.31460341834E+02 -0.18746696035E+03  0.83139155957E+03  0.87021522605E+03  0.17300000000E+03 0. -1.
<mgrwt>
<rscale>  2 0.25702649E+03</rscale>
<asrwt>0</asrwt>
<pdfrwt beam="1">  1       21 0.27817905E+00 0.25702649E+03</pdfrwt>
<pdfrwt beam="2">  1       21 0.56404729E-02 0.25702649E+03</pdfrwt>
<totfact> 0.94281929E+03</totfact>
</mgrwt>
</event>
<event>
 4    1  0.8126752E-001  0.1858951E+03  0.7546771E-02  0.1162217E+00
         21   -1    0    0  503  502  0.00000000000E+00  0.00000000000E+00  0.15297875738E+03  0.15297875738E+03  0.00000000000E+00 0. -1.
         21   -1    0    0  501  503 -0.00000000000E+00 -0.00000000000E+00 -0.25650685625E+03  0.25650685625E+03  0.00000000000E+00 0. -1.
          6    1    1    2  501    0  0.32774894349E+02 -0.59613698216E+02 -0.12249523489E+03  0.22262540126E+03  0.17300000000E+03 0. -1.
         -6    1    1    2    0  502 -0.32774894349E+02  0.59613698216E+02  0.18967136025E+02  0.18686021236E+03  0.17300000000E+03 0. -1.
<mgrwt>
<rscale>  2 0.18589510E+03</rscale>
<asrwt>0</asrwt>
<pdfrwt beam="1">  1       21 0.23535194E-01 0.18589510E+03</pdfrwt>
<pdfrwt beam="2">  1       21 0.39462593E-01 0.18589510E+03</pdfrwt>
<totfact> 0.10544252E+05</totfact>
</mgrwt>
</event>
<event>
 4    1  0.8126752E-001  0.2229174E+03  0.7546771E-02  0.1131727E+00
         21   -1    0    0  503  502  0.00000000000E+00  0.00000000000E+00  0.48968838190E+03  0.48968838190E+03  0.00000000000E+00 0. -1.
         21   -1    0    0  501  503 -0.00000000000E+00 -0.00000000000E+00 -0.10438172471E+03  0.10438172471E+03  0.00000000000E+00 0.  1.
          6    1    1    2  501    0 -0.10967831167E+02 -0.14015303602E+03  0.14310386382E+03  0.26489787214E+03  0.17300000000E+03 0.  1.
         -6    1    1    2    0  502  0.10967831167E+02  0.14015303602E+03  0.24220279338E+03  0.32917223447E+03  0.17300000000E+03 0.  1.
<mgrwt>
<rscale>  2 0.22291740E+03</rscale>
<asrwt>0</asrwt>
<pdfrwt beam="1">  1       21 0.75336673E-01 0.22291740E+03</pdfrwt>
<pdfrwt beam="2">  1       21 0.16058727E-01 0.22291740E+03</pdfrwt>
<totfact> 0.53745686E+04</totfact>
</mgrwt>
</event>
<event>
 4    1  0.8126752E-001  0.1966757E+03  0.7546771E-02  0.1152574E+00
         21   -1    0    0  503  502  0.00000000000E+00  0.00000000000E+00  0.40720127386E+02  0.40720127386E+02  0.00000000000E+00 0. -1.
         21   -1    0    0  501  503 -0.00000000000E+00 -0.00000000000E+00 -0.13681369979E+04  0.13681369979E+04  0.00000000000E+00 0. -1.
          6    1    1    2  501    0  0.85366731133E+02 -0.38273269362E+02 -0.10531722888E+04  0.10713791075E+04  0.17300000000E+03 0. -1.
         -6    1    1    2    0  502 -0.85366731133E+02  0.38273269362E+02 -0.27424458166E+03  0.33747801780E+03  0.17300000000E+03 0. -1.
<mgrwt>
<rscale>  2 0.19667568E+03</rscale>
<asrwt>0</asrwt>
<pdfrwt beam="1">  1       21 0.62646339E-02 0.19667568E+03</pdfrwt>
<pdfrwt beam="2">  1       21 0.21048265E+00 0.19667568E+03</pdfrwt>
<totfact> 0.21036107E+04</totfact>
</mgrwt>
</event>
<event>
 4    1  0.8126752E-001  0.1743268E+03  0.7546771E-02  0.1173409E+00
         21   -1    0    0  501  502  0.00000000000E+00  0.00000000000E+00  0.18087517377E+04  0.18087517377E+04  0.00000000000E+00 0.  1.
         21   -1    0    0  502  503 -0.00000000000E+00 -0.00000000000E+00 -0.29910181203E+02  0.29910181203E+02  0.00000000000E+00 0.  1.
          6    1    1    2  501    0  0.16918958273E+02  0.13213470945E+02  0.14980333319E+04  0.15081424702E+04  0.17300000000E+03 0.  1.
         -6    1    1    2    0  503 -0.16918958273E+02 -0.13213470945E+02  0.28080822460E+03  0.33051944869E+03  0.17300000000E+03 0.  1.
<mgrwt>
<rscale>  2 0.17432684E+03</rscale>
<asrwt>0</asrwt>
<pdfrwt beam="1">  1       21 0.27826941E+00 0.17432684E+03</pdfrwt>
<pdfrwt beam="2">  1       21 0.46015677E-02 0.17432684E+03</pdfrwt>
<totfact> 0.14363132E+04</totfact>
</mgrwt>
</event>
<event>
 4    1  0.8126752E-001  0.2603701E+03  0.7546771E-02  0.1106921E+00
         21   -1    0    0  503  502  0.00000000000E+00  0.00000000000E+00  0.31055420400E+03  0.31055420400E+03  0.00000000000E+00 0. -1.
         21   -1    0    0  501  503 -0.00000000000E+00 -0.00000000000E+00 -0.28706785484E+03  0.28706785484E+03  0.00000000000E+00 0.  1.
          6    1    1    2  501    0  0.19351133831E+03  0.20419122276E+02 -0.13451203913E+03  0.29306324792E+03  0.17300000000E+03 0. -1.
         -6    1    1    2    0  502 -0.19351133831E+03 -0.20419122276E+02  0.15799838829E+03  0.30455881092E+03  0.17300000000E+03 0.  1.
<mgrwt>
<rscale>  2 0.26037008E+03</rscale>
<asrwt>0</asrwt>
<pdfrwt beam="1">  1       21 0.47777570E-01 0.26037008E+03</pdfrwt>
<pdfrwt beam="2">  1       21 0.44164285E-01 0.26037008E+03</pdfrwt>
<totfact> 0.19891710E+04</totfact>
</mgrwt>
</event>
<event>
 4    1  0.8126752E-001  0.2293996E+03  0.7546771E-02  0.1127063E+00
         21   -1    0    0  503  502  0.00000000000E+00  0.00000000000E+00  0.75502825170E+03  0.75502825170E+03  0.00000000000E+00 0. -1.
         21   -1    0    0  501  503 -0.00000000000E+00 -0.00000000000E+00 -0.70071234548E+02  0.70071234548E+02  0.00000000000E+00 0. -1.
          6    1    1    2  501    0 -0.10508234105E+03  0.10794852274E+03  0.31238134645E+03  0.38756455923E+03  0.17300000000E+03 0. -1.
         -6    1    1    2    0  502  0.10508234105E+03 -0.10794852274E+03  0.37257567071E+03  0.43753492702E+03  0.17300000000E+03 0. -1.
<mgrwt>
<rscale>  2 0.22939961E+03</rscale>
<asrwt>0</asrwt>
<pdfrwt beam="1">  1       21 0.11615819E+00 0.22939961E+03</pdfrwt>
<pdfrwt beam="2">  1       21 0.10780190E-01 0.22939961E+03</pdfrwt>
<totfact> 0.39858997E+04</totfact>
</mgrwt>
</event>
<event>
 4    1  0.8126752E-001  0.1982693E+03  0.7546771E-02  0.1151207E+00
         21   -1    0    0  503  502  0.00000000000E+00  0.00000000000E+00  0.15297047452E+03  0.15297047452E+03  0.00000000000E+00 0. -1.
         21   -1    0    0  501  503 -0.00000000000E+00 -0.00000000000E+00 -0.26545700199E+03  0.26545700199E+03  0.00000000000E+00 0. -1.
          6    1    1    2  501    0 -0.87760821661E+02  0.40984980668E+02 -0.93624267174E+02  0.21926293317E+03  0.17300000000E+03 0. -1.
         -6    1    1    2    0  502  0.87760821661E+02 -0.40984980668E+02 -0.18862260294E+02  0.19916454334E+03  0.17300000000E+03 0. -1.
<mgrwt>
<rscale>  2 0.19826934E+03</rscale>
<asrwt>0</asrwt>
<pdfrwt beam="1">  1       21 0.23533919E-01 0.19826934E+03</pdfrwt>
<pdfrwt beam="2">  1       21 0.40839539E-01 0.19826934E+03</pdfrwt>
<totfact> 0.97922972E+04</totfact>
</mgrwt>
</event>
<event>
 4    1  0.8126752E-001  0.2495563E+03  0.7546771E-02  0.1113586E+00
         21   -1    0    0  503  502  0.00000000000E+00  0.00000000000E+00  0.76088718697E+02  0.76088718697E+02  0.00000000000E+00 0.  1.
         21   -1    0    0  501  503 -0.00000000000E+00 -0.00000000000E+00 -0.81865524003E+03  0.81865524003E+03  0.00000000000E+00 0. -1.
          6    1    1    2  501    0  0.13120828952E+03  0.12301919463E+03 -0.37751609171E+03  0.45254473479E+03  0.17300000000E+03 0.  1.
         -6    1    1    2    0  502 -0.13120828952E+03 -0.12301919463E+03 -0.36505042962E+03  0.44219922394E+03  0.17300000000E+03 0. -1.
<mgrwt>
<rscale>  2 0.24955628E+03</rscale>
<asrwt>0</asrwt>
<pdfrwt beam="1">  1       21 0.11705957E-01 0.24955628E+03</pdfrwt>
<pdfrwt beam="2">  1       21 0.12594696E+00 0.24955628E+03</pdfrwt>
<totfact> 0.27828007E+04</totfact>
</mgrwt>
</event>
<event>
 4    1  0.8126752E-001  0.2559909E+03  0.7546771E-02  0.1109576E+00
         21   -1    0    0  501  502  0.00000000000E+00  0.00000000000E+00  0.80144041075E+02  0.80144041075E+02  0.00000000000E+00 0. -1.
         21   -1    0    0  502  503 -0.00000000000E+00 -0.00000000000E+00 -0.11239736271E+04  0.11239736271E+04  0.00000000000E+00 0.  1.
          6    1    1    2  501    0  0.83804320212E+02 -0.16905373027E+03 -0.20761985451E+03  0.32960177759E+03  0.17300000000E+03 0. -1.
         -6    1    1    2    0  503 -0.83804320212E+02  0.16905373027E+03 -0.83620973155E+03  0.87451589062E+03  0.17300000000E+03 0.  1.
<mgrwt>
<rscale>  2 0.25599087E+03</rscale>
<asrwt>0</asrwt>
<pdfrwt beam="1">  1       21 0.12329853E-01 0.25599087E+03</pdfrwt>
<pdfrwt beam="2">  1       21 0.17291901E+00 0.25599087E+03</pdfrwt>
<totfact> 0.10889883E+04</totfact>
</mgrwt>
</event>
<event>
 4    1  0.8126752E-001  0.2240826E+03  0.7546771E-02  0.1130875E+00
         21   -1    0    0  503  502  0.00000000000E+00  0.00000000000E+00  0.40145397473E+02  0.40145397473E+02  0.00000000000E+00 0. -1.
         21   -1    0    0  501  503 -0.00000000000E+00 -0.00000000000E+00 -0.24204999201E+04  0.24204999201E+04  0.00000000000E+00 0. -1.
          6    1    1    2  501    0 -0.63225084839E+02 -0.12761894259E+03 -0.20454560089E+04  0.20576936823E+04  0.17300000000E+03 0. -1.
         -6    1    1    2    0  502  0.63225084839E+02  0.12761894259E+03 -0.33489851367E+03  0.40295163521E+03  0.17300000000E+03 0. -1.
<mgrwt>
<rscale>  2 0.22408259E+03</rscale>
<asrwt>0</asrwt>
<pdfrwt beam="1">  1       21 0.61762168E-02 0.22408259E+03</pdfrwt>
<pdfrwt beam="2">  1       21 0.37238450E+00 0.22408259E+03</pdfrwt>
<totfact> 0.23155666E+03</totfact>
</mgrwt>
</event>
<event>
 4    1  0.8126752E-001  0.1768345E+03  0.7546771E-02  0.1170902E+00
         21   -1    0    0  503  502  0.00000000000E+00  0.00000000000E+00  0.25709063474E+02  0.25709063474E+02  0.00000000000E+00 0. -1.
         21   -1    0    0  501  503 -0.00000000000E+00 -0.00000000000E+00 -0.14354865062E+04  0.14354865062E+04  0.00000000000E+00 0. -1.
          6    1    1    2  501    0 -0.23614364119E+02 -0.27996782310E+02 -0.99036202670E+03  0.10060255474E+04  0.17300000000E+03 0. -1.
         -6    1    1    2    0  502  0.23614364119E+02  0.27996782310E+02 -0.41941541602E+03  0.45517002231E+03  0.17300000000E+03 0. -1.
<mgrwt>
<rscale>  2 0.17683455E+03</rscale>
<asrwt>0</asrwt>
<pdfrwt beam="1">  1       21 0.39552408E-02 0.17683455E+03</pdfrwt>
<pdfrwt beam="2">  1       21 0.22084406E+00 0.17683455E+03</pdfrwt>
<totfact> 0.40161559E+04</totfact>
</mgrwt>
</event>
<event>
 4    1  0.8126752E-001  0.2588437E+03  0.7546771E-02  0.1107840E+00
         21   -1    0    0  501  502  0.00000000000E+00  0.00000000000E+00  0.46395148975E+02  0.46395148975E+02  0.00000000000E+00 0. -1.
         21   -1    0    0  502  503 -0.00000000000E+00 -0.00000000000E+00 -0.19290130056E+04  0.19290130056E+04  0.00000000000E+00 0.  1.
          6    1    1    2  501    0  0.91624983989E+01 -0.19232026933E+03 -0.44610573488E+03  0.51576192576E+03  0.17300000000E+03 0. -1.
         -6    1    1    2    0  503 -0.91624983989E+01  0.19232026933E+03 -0.14365121217E+04  0.14596462288E+04  0.17300000000E+03 0.  1.
<mgrwt>
<rscale>  2 0.25884365E+03</rscale>
<asrwt>0</asrwt>
<pdfrwt beam="1">  1       21 0.71377139E-02 0.25884365E+03</pdfrwt>
<pdfrwt beam="2">  1       21 0.29677129E+00 0.25884365E+03</pdfrwt>
<totfact> 0.48777550E+03</totfact>
</mgrwt>
</event>
<event>
 4    1  0.8126752E-001  0.2142600E+03  0.7546771E-02  0.1138236E+00
         21   -1    0    0  503  502  0.00000000000E+00  0.00000000000E+00  0.27957616247E+03  0.27957616247E+03  0.00000000000E+00 0. -1.
         21   -1    0    0  501  503 -0.00000000000E+00 -0.00000000000E+00 -0.20260352864E+03  0.20260352864E+03  0.00000000000E+00 0. -1.
          6    1    1    2  501    0  0.12507632094E+03  0.18282867547E+02 -0.66473218605E+02  0.22433465648E+03  0.17300000000E+03 0. -1.
         -6    1    1    2    0  502 -0.12507632094E+03 -0.18282867547E+02  0.14344585243E+03  0.25784503463E+03  0.17300000000E+03 0. -1.
<mgrwt>
<rscale>  2 0.21426000E+03</rscale>
<asrwt>0</asrwt>
<pdfrwt beam="1">  1       21 0.43011718E-01 0.21426000E+03</pdfrwt>
<pdfrwt beam="2">  1       21 0.31169773E-01 0.21426000E+03</pdfrwt>
<totfact> 0.50875698E+04</totfact>
</mgrwt>
</event>
<event>
 4    1  0.8126752E-001  0.1855933E+03  0.7546771E-02  0.1162497E+00
         21   -1    0    0  501  502  0.00000000000E+00  0.00000000000E+00  0.18550489328E+03  0.18550489328E+03  0.00000000000E+00 0. -1.
         21   -1    0    0  502  503 -0.00000000000E+00 -0.00000000000E+00 -0.18663146956E+03  0.18663146956E+03  0.00000000000E+00 0. -1.
          6    1    1    2  501    0 -0.20709331948E+02 -0.63929481946E+02 -0.13837223730E+02  0.18610836588E+03  0.17300000000E+03 0. -1.
         -6    1    1    2    0  503  0.20709331948E+02  0.63929481946E+02  0.12710647446E+02  0.18602799695E+03  0.17300000000E+03 0. -1.
<mgrwt>
<rscale>  2 0.18559325E+03</rscale>
<asrwt>0</asrwt>
<pdfrwt beam="1">  1       21 0.28539214E-01 0.18559325E+03</pdfrwt>
<pdfrwt beam="2">  1       21 0.28712534E-01 0.18559325E+03</pdfrwt>
<totfact> 0.13658125E+05</totfact>
</mgrwt>
</event>
<event>
 4    1  0.8126752E-001  0.1806225E+03  0.7546771E-02  0.1167202E+00
         21   -1    0    0  501  502  0.00000000000E+00  0.00000000000E+00  0.60447451112E+03  0.60447451112E+03  0.00000000000E+00 0. -1.
         21   -1    0    0  502  503 -0.00000000000E+00 -0.00000000000E+00 -0.60080340308E+02  0.60080340308E+02  0.00000000000E+00 0. -1.
          6    1    1    2  501    0 -0.28139634284E+02  0.43630661042E+02  0.37814916186E+03  0.41907190578E+03  0.17300000000E+03 0. -1.
         -6    1    1    2    0  503  0.28139634284E+02 -0.43630661042E+02  0.16624500895E+03  0.24548294564E+03  0.17300000000E+03 0. -1.
<mgrwt>
<rscale>  2 0.18062246E+03</rscale>
<asrwt>0</asrwt>
<pdfrwt beam="1">  1       21 0.92996074E-01 0.18062246E+03</pdfrwt>
<pdfrwt beam="2">  1       21 0.92431297E-02 0.18062246E+03</pdfrwt>
<totfact> 0.91214318E+04</totfact>
</mgrwt>
</event>
<event>
 4    1  0.8126752E-001  0.1841382E+03  0.7546771E-02  0.1163857E+00
         21   -1    0    0  503  502  0.00000000000E+00  0.00000000000E+00  0.48992723907E+03  0.48992723907E+03  0.00000000000E+00 0.  1.
         21   -1    0    0  501  503 -0.00000000000E+00 -0.00000000000E+00 -0.77262340148E+02  0.77262340148E+02  0.00000000000E+00 0.  1.
          6    1    1    2  501    0 -0.41702642035E+02 -0.47315788362E+02  0.29789729378E+03  0.35021378017E+03  0.17300000000E+03 0.  1.
         -6    1    1    2    0  502  0.41702642035E+02  0.47315788362E+02  0.11476760514E+03  0.21697579904E+03  0.17300000000E+03 0.  1.
<mgrwt>
<rscale>  2 0.18413825E+03</rscale>
<asrwt>0</asrwt>
<pdfrwt beam="1">  1       21 0.75373419E-01 0.18413825E+03</pdfrwt>
<pdfrwt beam="2">  1       21 0.11886514E-01 0.18413825E+03</pdfrwt>
<totfact> 0.94169686E+04</totfact>
</mgrwt>
</event>
<event>
 4    1  0.8126752E-001  0.1848736E+03  0.7546771E-02  0.1163168E+00
         21   -1    0    0  501  502  0.00000000000E+00  0.00000000000E+00  0.19032727440E+04  0.19032727440E+04  0.00000000000E+00 0.  1.
         21   -1    0    0  502  503 -0.00000000000E+00 -0.00000000000E+00 -0.23328566506E+02  0.23328566506E+02  0.00000000000E+00 0. -1.
          6    1    1    2  501    0  0.62101824722E+02 -0.19814157289E+02  0.14021864991E+04  0.14143214683E+04  0.17300000000E+03 0.  1.
         -6    1    1    2    0  503 -0.62101824722E+02  0.19814157289E+02  0.47775767848E+03  0.51227984228E+03  0.17300000000E+03 0. -1.
<mgrwt>
<rscale>  2 0.18487357E+03</rscale>
<asrwt>0</asrwt>
<pdfrwt beam="1">  1       21 0.29281107E+00 0.18487357E+03</pdfrwt>
<pdfrwt beam="2">  1       21 0.35890117E-02 0.18487357E+03</pdfrwt>
<totfact> 0.17777273E+04</totfact>
</mgrwt>
</event>
<event>
 4    1  0.8126752E-001  0.1764804E+03  0.7546771E-02  0.1171254E+00
         21   -1    0    0  503  502  0.00000000000E+00  0.00000000000E+00  0.46906653147E+03  0.46906653147E+03  0.00000000000E+00 0.  1.
         21   -1    0    0  501  503 -0.00000000000E+00 -0.00000000000E+00 -0.87866695095E+02  0.87866695095E+02  0.00000000000E+00 0.  1.
          6    1    1    2  501    0  0.34742989460E+02 -0.30395205267E+01  0.52955452059E+02  0.18425415573E+03  0.17300000000E+03 0.  1.
         -6    1    1    2    0  502 -0.34742989460E+02  0.30395205267E+01  0.32824438431E+03  0.37267907083E+03  0.17300000000E+03 0.  1.
<mgrwt>
<rscale>  2 0.17648035E+03</rscale>
<asrwt>0</asrwt>
<pdfrwt beam="1">  1       21 0.72164080E-01 0.17648035E+03</pdfrwt>
<pdfrwt beam="2">  1       21 0.13517953E-01 0.17648035E+03</pdfrwt>
<totfact> 0.82618377E+04</totfact>
</mgrwt>
</event>
<event>
 4    1  0.8126752E-001  0.2063849E+03  0.7546771E-02  0.1144461E+00
         21   -1    0    0  501  502  0.00000000000E+00  0.00000000000E+00  0.20104387965E+04  0.20104387965E+04  0.00000000000E+00 0. -1.
         21   -1    0    0  502  503 -0.00000000000E+00 -0.00000000000E+00 -0.21355535515E+02  0.21355535515E+02  0.00000000000E+00 0. -1.
          6    1    1    2  501    0 -0.15863157197E+02  0.11141858181E+03  0.90423627843E+03  0.92749015485E+03  0.17300000000E+03 0. -1.
         -6    1    1    2    0  503  0.15863157197E+02 -0.11141858181E+03  0.10848469826E+04  0.11043041772E+04  0.17300000000E+03 0. -1.
<mgrwt>
<rscale>  2 0.20638493E+03</rscale>
<asrwt>0</asrwt>
<pdfrwt beam="1">  1       21 0.30929813E+00 0.20638493E+03</pdfrwt>
<pdfrwt beam="2">  1       21 0.32854686E-02 0.20638493E+03</pdfrwt>
<totfact> 0.16193791E+04</totfact>
</mgrwt>
</event>
<event>
 4    1  0.8126752E-001  0.2129962E+03  0.7546771E-02  0.1139215E+00
         21   -1    0    0  503  502  0.00000000000E+00  0.00000000000E+00  0.24677178329E+03  0.24677178329E+03  0.00000000000E+00 0.  1.
         21   -1    0    0  501  503 -0.00000000000E+00 -0.00000000000E+00 -0.25067407011E+03  0.25067407011E+03  0.00000000000E+00 0.  1.
          6    1    1    2  501    0 -0.36255392172E+02  0.11884409686E+03 -0.13037594411E+03  0.24973037385E+03  0.17300000000E+03 0.  1.
         -6    1    1    2    0  502  0.36255392172E+02 -0.11884409686E+03  0.12647365730E+03  0.24771547955E+03  0.17300000000E+03 0.  1.
<mgrwt>
<rscale>  2 0.21299618E+03</rscale>
<asrwt>0</asrwt>
<pdfrwt beam="1">  1       21 0.37964890E-01 0.21299618E+03</pdfrwt>
<pdfrwt beam="2">  1       21 0.38565242E-01 0.21299618E+03</pdfrwt>
<totfact> 0.42944140E+04</totfact>
</mgrwt>
</event>
<event>
 4    1  0.8126752E-001  0.1836848E+03  0.7546771E-02  0.1164284E+00
         21   -1    0    0  503  502  0.00000000000E+00  0.00000000000E+00  0.74723319112E+03  0.74723319112E+03  0.00000000000E+00 0. -1.
         21   -1    0    0  501  503 -0.00000000000E+00 -0.00000000000E+00 -0.63768451695E+02  0.63768451695E+02  0.00000000000E+00 0. -1.
          6    1    1    2  501    0 -0.21379803302E+02  0.57913860277E+02  0.12264312922E+03  0.22086522665E+03  0.17300000000E+03 0. -1.
         -6    1    1    2    0  502  0.21379803302E+02 -0.57913860277E+02  0.56082161021E+03  0.59013641616E+03  0.17300000000E+03 0. -1.
<mgrwt>
<rscale>  2 0.18368481E+03</rscale>
<asrwt>0</asrwt>
<pdfrwt beam="1">  1       21 0.11495895E+00 0.18368481E+03</pdfrwt>
<pdfrwt beam="2">  1       21 0.98105316E-02 0.18368481E+03</pdfrwt>
<totfact> 0.49475980E+04</totfact>
</mgrwt>
</event>
<event>
 4    1  0.8126752E-001  0.2304314E+03  0.7546771E-02  0.1126336E+00
         21   -1    0    0  501  502  0.00000000000E+00  0.00000000000E+00  0.41211761609E+03  0.41211761609E+03  0.00000000000E+00 0. -1.
         21   -1    0    0  502  503 -0.00000000000E+00 -0.00000000000E+00 -0.13987066471E+03  0.13987066471E+03  0.00000000000E+00 0. -1.
          6    1    1    2  501    0  0.14458021148E+03  0.47604670593E+02  0.21361783476E+03  0.31421524715E+03  0.17300000000E+03 0. -1.
         -6    1    1    2    0  503 -0.14458021148E+03 -0.47604670593E+02  0.58629116628E+02  0.23777303365E+03  0.17300000000E+03 0. -1.
<mgrwt>
<rscale>  2 0.23043143E+03</rscale>
<asrwt>0</asrwt>
<pdfrwt beam="1">  1       21 0.63402709E-01 0.23043143E+03</pdfrwt>
<pdfrwt beam="2">  1       21 0.21518564E-01 0.23043143E+03</pdfrwt>
<totfact> 0.45466518E+04</totfact>
</mgrwt>
</event>
<event>
 4    1  0.8126752E-001  0.1787385E+03  0.7546771E-02  0.1169030E+00
         21   -1    0    0  503  502  0.00000000000E+00  0.00000000000E+00  0.22922703975E+03  0.22922703975E+03  0.00000000000E+00 0. -1.
         21   -1    0    0  501  503 -0.00000000000E+00 -0.00000000000E+00 -0.14340409474E+03  0.14340409474E+03  0.00000000000E+00 0. -1.
          6    1    1    2  501    0  0.95817156654E+01  0.43893585258E+02  0.11663504006E+02  0.17911865740E+03  0.17300000000E+03 0.  1.
         -6    1    1    2    0  502 -0.95817156654E+01 -0.43893585258E+02  0.74159441004E+02  0.19351247710E+03  0.17300000000E+03 0.  1.
<mgrwt>
<rscale>  2 0.17873851E+03</rscale>
<asrwt>0</asrwt>
<pdfrwt beam="1">  1       21 0.35265698E-01 0.17873851E+03</pdfrwt>
<pdfrwt beam="2">  1       21 0.22062168E-01 0.17873851E+03</pdfrwt>
<totfact> 0.14951466E+05</totfact>
</mgrwt>
</event>
<event>
 4    1  0.8126752E-001  0.2725619E+03  0.7546771E-02  0.1099822E+00
         21   -1    0    0  501  502  0.00000000000E+00  0.00000000000E+00  0.89369401507E+02  0.89369401507E+02  0.00000000000E+00 0.  1.
         21   -1    0    0  502  503 -0.00000000000E+00 -0.00000000000E+00 -0.88201982438E+03  0.88201982438E+03  0.00000000000E+00 0.  1.
          6    1    1    2  501    0  0.20937532507E+03 -0.22868231523E+02 -0.27981952780E+03  0.39062635715E+03  0.17300000000E+03 0.  1.
         -6    1    1    2    0  503 -0.20937532507E+03  0.22868231523E+02 -0.51283089508E+03  0.58076286874E+03  0.17300000000E+03 0.  1.
<mgrwt>
<rscale>  2 0.27256189E+03</rscale>
<asrwt>0</asrwt>
<pdfrwt beam="1">  1       21 0.13749139E-01 0.27256189E+03</pdfrwt>
<pdfrwt beam="2">  1       21 0.13569535E+00 0.27256189E+03</pdfrwt>
<totfact> 0.17001932E+04</totfact>
</mgrwt>
</event>
<event>
 4    1  0.8126752E-001  0.2394404E+03  0.7546771E-02  0.1120166E+00
         21   -1    0    0  501  502  0.00000000000E+00  0.00000000000E+00  0.99352163153E+02  0.99352163153E+02  0.00000000000E+00 0.  1.
         21   -1    0    0  502  503 -0.00000000000E+00 -0.00000000000E+00 -0.63371492223E+03  0.63371492223E+03  0.00000000000E+00 0.  1.
          6    1    1    2  501    0 -0.54210659692E+02  0.15640939981E+03 -0.15758317138E+03  0.28664289957E+03  0.17300000000E+03 0.  1.
         -6    1    1    2    0  503  0.54210659692E+02 -0.15640939981E+03 -0.37677958770E+03  0.44642418581E+03  0.17300000000E+03 0.  1.
<mgrwt>
<rscale>  2 0.23944038E+03</rscale>
<asrwt>0</asrwt>
<pdfrwt beam="1">  1       21 0.15284948E-01 0.23944038E+03</pdfrwt>
<pdfrwt beam="2">  1       21 0.97494604E-01 0.23944038E+03</pdfrwt>
<totfact> 0.32240902E+04</totfact>
</mgrwt>
</event>
<event>
 4    1  0.8126752E-001  0.2845697E+03  0.7546771E-02  0.1093219E+00
         21   -1    0    0  503  502  0.00000000000E+00  0.00000000000E+00  0.19563860779E+03  0.19563860779E+03  0.00000000000E+00 0. -1.
         21   -1    0    0  501  503 -0.00000000000E+00 -0.00000000000E+00 -0.44688056438E+03  0.44688056438E+03  0.00000000000E+00 0.  1.
          6    1    1    2  501    0  0.15025905505E+03  0.16873978694E+03 -0.21286152673E+03  0.35537294337E+03  0.17300000000E+03 0.  1.
         -6    1    1    2    0  502 -0.15025905505E+03 -0.16873978694E+03 -0.38380429867E+02  0.28714622880E+03  0.17300000000E+03 0. -1.
<mgrwt>
<rscale>  2 0.28456967E+03</rscale>
<asrwt>0</asrwt>
<pdfrwt beam="1">  1       21 0.30098248E-01 0.28456967E+03</pdfrwt>
<pdfrwt beam="2">  1       21 0.68750855E-01 0.28456967E+03</pdfrwt>
<totfact> 0.19471012E+04</totfact>
</mgrwt>
</event>
<event>
 4    1  0.8126752E-001  0.2116077E+03  0.7546771E-02  0.1140299E+00
         21   -1    0    0  501  502  0.00000000000E+00  0.00000000000E+00  0.20690018137E+02  0.20690018137E+02  0.00000000000E+00 0.  1.
         21   -1    0    0  502  503 -0.00000000000E+00 -0.00000000000E+00 -0.25065657464E+04  0.25065657464E+04  0.00000000000E+00 0.  1.
          6    1    1    2  501    0  0.11172180096E+03  0.48652278511E+02 -0.77594476418E+03  0.80428109643E+03  0.17300000000E+03 0.  1.
         -6    1    1    2    0  503 -0.11172180096E+03 -0.48652278511E+02 -0.17099309641E+04  0.17229746682E+04  0.17300000000E+03 0.  1.
<mgrwt>
<rscale>  2 0.21160767E+03</rscale>
<asrwt>0</asrwt>
<pdfrwt beam="1">  1       21 0.31830806E-02 0.21160767E+03</pdfrwt>
<pdfrwt beam="2">  1       21 0.38562539E+00 0.21160767E+03</pdfrwt>
<totfact> 0.59846169E+03</totfact>
</mgrwt>
</event>
<event>
 4    1  0.8126752E-001  0.1740950E+03  0.7546771E-02  0.1173644E+00
         21   -1    0    0  503  502  0.00000000000E+00  0.00000000000E+00  0.13725644514E+03  0.13725644514E+03  0.00000000000E+00 0.  1.
         21   -1    0    0  501  503 -0.00000000000E+00 -0.00000000000E+00 -0.26159699701E+03  0.26159699701E+03  0.00000000000E+00 0.  1.
          6    1    1    2  501    0  0.11044345511E+02  0.16064752880E+02 -0.14090589903E+03  0.22397215505E+03  0.17300000000E+03 0.  1.
         -6    1    1    2    0  502 -0.11044345511E+02 -0.16064752880E+02  0.16565347166E+02  0.17488128711E+03  0.17300000000E+03 0.  1.
<mgrwt>
<rscale>  2 0.17409496E+03</rscale>
<asrwt>0</asrwt>
<pdfrwt beam="1">  1       21 0.21116377E-01 0.17409496E+03</pdfrwt>
<pdfrwt beam="2">  1       21 0.40245691E-01 0.17409496E+03</pdfrwt>
<totfact> 0.12485893E+05</totfact>
</mgrwt>
</event>
<event>
 4    1  0.8126752E-001  0.2246364E+03  0.7546771E-02  0.1130473E+00
         21   -1    0    0  501  502  0.00000000000E+00  0.00000000000E+00  0.90493290214E+02  0.90493290214E+02  0.00000000000E+00 0. -1.
         21   -1    0    0  502  503 -0.00000000000E+00 -0.00000000000E+00 -0.56079164137E+03  0.56079164137E+03  0.00000000000E+00 0. -1.
          6    1    1    2  501    0  0.14159704736E+03  0.21972096363E+02 -0.21068636299E+03  0.30797766216E+03  0.17300000000E+03 0.  1.
         -6    1    1    2    0  503 -0.14159704736E+03 -0.21972096363E+02 -0.25961198817E+03  0.34330726943E+03  0.17300000000E+03 0.  1.
<mgrwt>
<rscale>  2 0.22463637E+03</rscale>
<asrwt>0</asrwt>
<pdfrwt beam="1">  1       21 0.13922045E-01 0.22463637E+03</pdfrwt>
<pdfrwt beam="2">  1       21 0.86275633E-01 0.22463637E+03</pdfrwt>
<totfact> 0.51219748E+04</totfact>
</mgrwt>
</event>
<event>
 4    1  0.8126752E-001  0.1810546E+03  0.7546771E-02  0.1166786E+00
         21   -1    0    0  503  502  0.00000000000E+00  0.00000000000E+00  0.63487095037E+02  0.63487095037E+02  0.00000000000E+00 0.  1.
         21   -1    0    0  501  503 -0.00000000000E+00 -0.00000000000E+00 -0.68445168032E+03  0.68445168032E+03  0.00000000000E+00 0.  1.
          6    1    1    2  501    0 -0.29814609753E+00 -0.53401008250E+02 -0.49582139748E+03  0.52784430922E+03  0.17300000000E+03 0.  1.
         -6    1    1    2    0  502  0.29814609753E+00  0.53401008250E+02 -0.12514318781E+03  0.22009446615E+03  0.17300000000E+03 0.  1.
<mgrwt>
<rscale>  2 0.18105457E+03</rscale>
<asrwt>0</asrwt>
<pdfrwt beam="1">  1       21 0.97672446E-02 0.18105457E+03</pdfrwt>
<pdfrwt beam="2">  1       21 0.10530027E+00 0.18105457E+03</pdfrwt>
<totfact> 0.61720129E+04</totfact>
</mgrwt>
</event>
<event>
 4    1  0.8126752E-001  0.5658026E+03  0.7546771E-02  0.9979010E-01
         21   -1    0    0  501  502  0.00000000000E+00  0.00000000000E+00  0.15411830582E+04  0.15411830582E+04  0.00000000000E+00 0.  1.
         21   -1    0    0  502  503 -0.00000000000E+00 -0.00000000000E+00 -0.20892078807E+03  0.20892078807E+03  0.00000000000E+00 0. -1.
          6    1    1    2  501    0  0.27760463661E+03 -0.46167012421E+03  0.73250541514E+03  0.92557918141E+03  0.17300000000E+03 0. -1.
         -6    1    1    2    0  503 -0.27760463661E+03  0.46167012421E+03  0.59975685495E+03  0.82452466483E+03  0.17300000000E+03 0.  1.
<mgrwt>
<rscale>  2 0.56580265E+03</rscale>
<asrwt>0</asrwt>
<pdfrwt beam="1">  1       21 0.23710508E+00 0.56580265E+03</pdfrwt>
<pdfrwt beam="2">  1       21 0.32141661E-01 0.56580265E+03</pdfrwt>
<totfact> 0.57238544E+02</totfact>
</mgrwt>
</event>
<event>
 4    1  0.8126752E-001  0.3010610E+03  0.7546771E-02  0.1084711E+00
         21   -1    0    0  503  502  0.00000000000E+00  0.00000000000E+00  0.22988044547E+04  0.22988044547E+04  0.00000000000E+00 0.  1.
         21   -1    0    0  501  503 -0.00000000000E+00 -0.00000000000E+00 -0.47361517374E+02  0.47361517374E+02  0.00000000000E+00 0.  1.
          6    1    1    2  501    0  0.12574711319E+03  0.21188773313E+03  0.64560894426E+03  0.71235430569E+03  0.17300000000E+03 0.  1.
         -6    1    1    2    0  502 -0.12574711319E+03 -0.21188773313E+03  0.16058339930E+04  0.16338116664E+04  0.17300000000E+03 0.  1.
<mgrwt>
<rscale>  2 0.30106104E+03</rscale>
<asrwt>0</asrwt>
<pdfrwt beam="1">  1       21 0.35366214E+00 0.30106104E+03</pdfrwt>
<pdfrwt beam="2">  1       21 0.72863891E-02 0.30106104E+03</pdfrwt>
<totfact> 0.20875668E+03</totfact>
</mgrwt>
</event>
<event>
 4    1  0.8126752E-001  0.2145253E+03  0.7546771E-02  0.1138032E+00
         21   -1    0    0  503  502  0.00000000000E+00  0.00000000000E+00  0.14202675589E+04  0.14202675589E+04  0.00000000000E+00 0. -1.
         21   -1    0    0  501  503 -0.00000000000E+00 -0.00000000000E+00 -0.35013371094E+02  0.35013371094E+02  0.00000000000E+00 0.  1.
          6    1    1    2  501    0 -0.33400771943E+02  0.12237848638E+03  0.49395324332E+03  0.53852661223E+03  0.17300000000E+03 0.  1.
         -6    1    1    2    0  502  0.33400771943E+02 -0.12237848638E+03  0.89130094452E+03  0.91675431780E+03  0.17300000000E+03 0.  1.
<mgrwt>
<rscale>  2 0.21452530E+03</rscale>
<asrwt>0</asrwt>
<pdfrwt beam="1">  1       21 0.21850266E+00 0.21452530E+03</pdfrwt>
<pdfrwt beam="2">  1       21 0.53866736E-02 0.21452530E+03</pdfrwt>
<totfact> 0.23954050E+04</totfact>
</mgrwt>
</event>
<event>
 4    1  0.8126752E-001  0.2002478E+03  0.7546771E-02  0.1149530E+00
         21   -1    0    0  503  502  0.00000000000E+00  0.00000000000E+00  0.59927991518E+03  0.59927991518E+03  0.00000000000E+00 0.  1.
         21   -1    0    0  501  503 -0.00000000000E+00 -0.00000000000E+00 -0.10363858213E+03  0.10363858213E+03  0.00000000000E+00 0. -1.
          6    1    1    2  501    0  0.91662243611E+02  0.42050370156E+02  0.38600907431E+02  0.20393437814E+03  0.17300000000E+03 0. -1.
         -6    1    1    2    0  502 -0.91662243611E+02 -0.42050370156E+02  0.45704042561E+03  0.49898411917E+03  0.17300000000E+03 0.  1.
<mgrwt>
<rscale>  2 0.20024785E+03</rscale>
<asrwt>0</asrwt>
<pdfrwt beam="1">  1       21 0.92196908E-01 0.20024785E+03</pdfrwt>
<pdfrwt beam="2">  1       21 0.15944398E-01 0.20024785E+03</pdfrwt>
<totfact> 0.34714049E+04</totfact>
</mgrwt>
</event>
<event>
 4    1  0.8126752E-001  0.1874503E+03  0.7546771E-02  0.1160781E+00
         21   -1    0    0  501  502  0.00000000000E+00  0.00000000000E+00  0.58340520260E+03  0.58340520260E+03  0.00000000000E+00 0.  1.
         21   -1    0    0  502  503 -0.00000000000E+00 -0.00000000000E+00 -0.79492041549E+02  0.79492041549E+02  0.00000000000E+00 0. -1.
          6    1    1    2  501    0  0.52735898764E+02 -0.49270111686E+02  0.41511988223E+03  0.45548011542E+03  0.17300000000E+03 0.  1.
         -6    1    1    2    0  503 -0.52735898764E+02  0.49270111686E+02  0.88793278819E+02  0.20741712872E+03  0.17300000000E+03 0. -1.
<mgrwt>
<rscale>  2 0.18745031E+03</rscale>
<asrwt>0</asrwt>
<pdfrwt beam="1">  1       21 0.89754644E-01 0.18745031E+03</pdfrwt>
<pdfrwt beam="2">  1       21 0.12229545E-01 0.18745031E+03</pdfrwt>
<totfact> 0.60116948E+04</totfact>
</mgrwt>
</event>
<event>
 4    1  0.8126752E-001  0.1766799E+03  0.7546771E-02  0.1171055E+00
         21   -1    0    0  501  502  0.00000000000E+00  0.00000000000E+00  0.34025871793E+03  0.34025871793E+03  0.00000000000E+00 0. -1.
         21   -1    0    0  502  503 -0.00000000000E+00 -0.00000000000E+00 -0.14274016239E+03  0.14274016239E+03  0.00000000000E+00 0. -1.
          6    1    1    2  501    0  0.23604822050E+02  0.27011402119E+02  0.24311132570E+03  0.30053106354E+03  0.17300000000E+03 0. -1.
         -6    1    1    2    0  503 -0.23604822050E+02 -0.27011402119E+02 -0.45592770168E+02  0.18246781678E+03  0.17300000000E+03 0. -1.
<mgrwt>
<rscale>  2 0.17667995E+03</rscale>
<asrwt>0</asrwt>
<pdfrwt beam="1">  1       21 0.52347495E-01 0.17667995E+03</pdfrwt>
<pdfrwt beam="2">  1       21 0.21960025E-01 0.17667995E+03</pdfrwt>
<totfact> 0.67517090E+04</totfact>
</mgrwt>
</event>
<event>
 4    1  0.8126752E-001  0.1745986E+03  0.7546771E-02  0.1173135E+00
         21   -1    0    0  501  502  0.00000000000E+00  0.00000000000E+00  0.42774720515E+02  0.42774720515E+02  0.00000000000E+00 0.  1.
         21   -1    0    0  502  503 -0.00000000000E+00 -0.00000000000E+00 -0.72325201041E+03  0.72325201041E+03  0.00000000000E+00 0.  1.
          6    1    1    2  501    0 -0.60513570129E+01 -0.22782344695E+02 -0.38654750176E+03  0.42415047480E+03  0.17300000000E+03 0.  1.
         -6    1    1    2    0  503  0.60513570129E+01  0.22782344695E+02 -0.29392978813E+03  0.34187625612E+03  0.17300000000E+03 0.  1.
<mgrwt>
<rscale>  2 0.17459855E+03</rscale>
<asrwt>0</asrwt>
<pdfrwt beam="1">  1       21 0.65807258E-02 0.17459855E+03</pdfrwt>
<pdfrwt beam="2">  1       21 0.11126955E+00 0.17459855E+03</pdfrwt>
<totfact> 0.10769076E+05</totfact>
</mgrwt>
</event>
<event>
 4    1  0.8126752E-001  0.1900468E+03  0.7546771E-02  0.1158419E+00
         21   -1    0    0  503  502  0.00000000000E+00  0.00000000000E+00  0.26048842486E+03  0.26048842486E+03  0.00000000000E+00 0.  1.
         21   -1    0    0  501  503 -0.00000000000E+00 -0.00000000000E+00 -0.20587568444E+03  0.20587568444E+03  0.00000000000E+00 0.  1.
          6    1    1    2  501    0 -0.10589004286E+02  0.77952972322E+02 -0.10593739902E+03  0.21757877979E+03  0.17300000000E+03 0.  1.
         -6    1    1    2    0  502  0.10589004286E+02 -0.77952972322E+02  0.16055013944E+03  0.24878532951E+03  0.17300000000E+03 0.  1.
<mgrwt>
<rscale>  2 0.19004682E+03</rscale>
<asrwt>0</asrwt>
<pdfrwt beam="1">  1       21 0.40075142E-01 0.19004682E+03</pdfrwt>
<pdfrwt beam="2">  1       21 0.31673182E-01 0.19004682E+03</pdfrwt>
<totfact> 0.57576119E+04</totfact>
</mgrwt>
</event>
<event>
 4    1  0.8126752E-001  0.2456311E+03  0.7546771E-02  0.1116097E+00
         21   -1    0    0  503  502  0.00000000000E+00  0.00000000000E+00  0.14101903299E+03  0.14101903299E+03  0.00000000000E+00 0. -1.
         21   -1    0    0  501  503 -0.00000000000E+00 -0.00000000000E+00 -0.58459767081E+03  0.58459767081E+03  0.00000000000E+00 0.  1.
          6    1    1    2  501    0  0.16844226574E+03 -0.45086985386E+02 -0.40965732302E+03  0.47765443099E+03  0.17300000000E+03 0.  1.
         -6    1    1    2    0  502 -0.16844226574E+03  0.45086985386E+02 -0.33921314803E+02  0.24796227281E+03  0.17300000000E+03 0. -1.
<mgrwt>
<rscale>  2 0.24563109E+03</rscale>
<asrwt>0</asrwt>
<pdfrwt beam="1">  1       21 0.21695236E-01 0.24563109E+03</pdfrwt>
<pdfrwt beam="2">  1       21 0.89938105E-01 0.24563109E+03</pdfrwt>
<totfact> 0.20241253E+04</totfact>
</mgrwt>
</event>
<event>
 4    1  0.8126752E-001  0.2364291E+03  0.7546771E-02  0.1122195E+00
         21   -1    0    0  501  502  0.00000000000E+00  0.00000000000E+00  0.57128705536E+02  0.57128705536E+02  0.00000000000E+00 0.  1.
         21   -1    0    0  502  503 -0.00000000000E+00 -0.00000000000E+00 -0.12764847004E+04  0.12764847004E+04  0.00000000000E+00 0. -1.
          6    1    1    2  501    0 -0.14343147596E+03  0.73465114172E+02 -0.28748866120E+03  0.37222095805E+03  0.17300000000E+03 0.  1.
         -6    1    1    2    0  503  0.14343147596E+03 -0.73465114172E+02 -0.93186733364E+03  0.96139244786E+03  0.17300000000E+03 0.  1.
<mgrwt>
<rscale>  2 0.23642908E+03</rscale>
<asrwt>0</asrwt>
<pdfrwt beam="1">  1       21 0.87890321E-02 0.23642908E+03</pdfrwt>
<pdfrwt beam="2">  1       21 0.19638225E+00 0.23642908E+03</pdfrwt>
<totfact> 0.13967309E+04</totfact>
</mgrwt>
</event>
<event>
 4    1  0.8126752E-001  0.1886944E+03  0.7546771E-02  0.1159644E+00
         21   -1    0    0  503  502  0.00000000000E+00  0.00000000000E+00  0.71399183872E+03  0.71399183872E+03  0.00000000000E+00 0. -1.
         21   -1    0    0  501  503 -0.00000000000E+00 -0.00000000000E+00 -0.99328465961E+02  0.99328465961E+02  0.00000000000E+00 0. -1.
          6    1    1    2  501    0  0.27073789507E+02 -0.70310532788E+02  0.59429245566E+03  0.62352953736E+03  0.17300000000E+03 0. -1.
         -6    1    1    2    0  502 -0.27073789507E+02  0.70310532788E+02  0.20370917099E+02  0.18979076733E+03  0.17300000000E+03 0. -1.
<mgrwt>
<rscale>  2 0.18869436E+03</rscale>
<asrwt>0</asrwt>
<pdfrwt beam="1">  1       21 0.10984489E+00 0.18869436E+03</pdfrwt>
<pdfrwt beam="2">  1       21 0.15281303E-01 0.18869436E+03</pdfrwt>
<totfact> 0.24910711E+04</totfact>
</mgrwt>
</event>
<event>
 4    1  0.8126752E-001  0.2955690E+03  0.7546771E-02  0.1087477E+00
         21   -1    0    0  501  502  0.00000000000E+00  0.00000000000E+00  0.71709921278E+02  0.71709921278E+02  0.00000000000E+00 0. -1.
         21   -1    0    0  502  503 -0.00000000000E+00 -0.00000000000E+00 -0.12427064661E+04  0.12427064661E+04  0.00000000000E+00 0.  1.
          6    1    1    2  501    0 -0.29803039722E+02  0.23778945964E+03 -0.67768352811E+03  0.73933484468E+03  0.17300000000E+03 0.  1.
         -6    1    1    2    0  503  0.29803039722E+02 -0.23778945964E+03 -0.49331301671E+03  0.57508154269E+03  0.17300000000E+03 0. -1.
<mgrwt>
<rscale>  2 0.29556902E+03</rscale>
<asrwt>0</asrwt>
<pdfrwt beam="1">  1       21 0.11032296E-01 0.29556902E+03</pdfrwt>
<pdfrwt beam="2">  1       21 0.19118560E+00 0.29556902E+03</pdfrwt>
<totfact> 0.97403441E+03</totfact>
</mgrwt>
</event>
<event>
 4    1  0.8126752E-001  0.2261082E+03  0.7546771E-02  0.1129409E+00
         21   -1    0    0  503  502  0.00000000000E+00  0.00000000000E+00  0.89389114504E+02  0.89389114504E+02  0.00000000000E+00 0. -1.
         21   -1    0    0  501  503 -0.00000000000E+00 -0.00000000000E+00 -0.64196041915E+03  0.64196041915E+03  0.00000000000E+00 0. -1.
          6    1    1    2  501    0  0.13656778120E+03  0.50449550472E+02 -0.39705686438E+03  0.45692348326E+03  0.17300000000E+03 0. -1.
         -6    1    1    2    0  502 -0.13656778120E+03 -0.50449550472E+02 -0.15551444027E+03  0.27442605040E+03  0.17300000000E+03 0. -1.
<mgrwt>
<rscale>  2 0.22610820E+03</rscale>
<asrwt>0</asrwt>
<pdfrwt beam="1">  1       21 0.13752172E-01 0.22610820E+03</pdfrwt>
<pdfrwt beam="2">  1       21 0.98763140E-01 0.22610820E+03</pdfrwt>
<totfact> 0.38157375E+04</totfact>
</mgrwt>
</event>
<event>
 4    1  0.8126752E-001  0.1924026E+03  0.7546771E-02  0.1156312E+00
         21   -1    0    0  503  502  0.00000000000E+00  0.00000000000E+00  0.46212063514E+03  0.46212063514E+03  0.00000000000E+00 0. -1.
         21   -1    0    0  501  503 -0.00000000000E+00 -0.00000000000E+00 -0.11945939005E+03  0.11945939005E+03  0.00000000000E+00 0. -1.
          6    1    1    2  501    0  0.57823808792E+02 -0.61206089646E+02  0.44297099892E+01  0.19245363235E+03  0.17300000000E+03 0. -1.
         -6    1    1    2    0  502 -0.57823808792E+02  0.61206089646E+02  0.33823153510E+03  0.38912639284E+03  0.17300000000E+03 0. -1.
<mgrwt>
<rscale>  2 0.19240265E+03</rscale>
<asrwt>0</asrwt>
<pdfrwt beam="1">  1       21 0.71095481E-01 0.19240265E+03</pdfrwt>
<pdfrwt beam="2">  1       21 0.18378368E-01 0.19240265E+03</pdfrwt>
<totfact> 0.48378595E+04</totfact>
</mgrwt>
</event>
<event>
 4    1  0.8126752E-001  0.2069126E+03  0.7546771E-02  0.1144034E+00
         21   -1    0    0  503  502  0.00000000000E+00  0.00000000000E+00  0.66844915399E+03  0.66844915399E+03  0.00000000000E+00 0. -1.
         21   -1    0    0  501  503 -0.00000000000E+00 -0.00000000000E+00 -0.72990949500E+02  0.72990949500E+02  0.00000000000E+00 0. -1.
          6    1    1    2  501    0  0.81661203795E+02 -0.78836924358E+02  0.16796557738E+03  0.26650562477E+03  0.17300000000E+03 0. -1.
         -6    1    1    2    0  502 -0.81661203795E+02  0.78836924358E+02  0.42749262711E+03  0.47493447872E+03  0.17300000000E+03 0. -1.
<mgrwt>
<rscale>  2 0.20691257E+03</rscale>
<asrwt>0</asrwt>
<pdfrwt beam="1">  1       21 0.10283833E+00 0.20691257E+03</pdfrwt>
<pdfrwt beam="2">  1       21 0.11229377E-01 0.20691257E+03</pdfrwt>
<totfact> 0.50363664E+04</totfact>
</mgrwt>
</event>
<event>
 4    1  0.8126752E-001  0.1820175E+03  0.7546771E-02  0.1165865E+00
         21   -1    0    0  501  502  0.00000000000E+00  0.00000000000E+00  0.14883354073E+04  0.14883354073E+04  0.00000000000E+00 0.  1.
         21   -1    0    0  502  503 -0.00000000000E+00 -0.00000000000E+00 -0.26699211149E+02  0.26699211149E+02  0.00000000000E+00 0.  1.
          6    1    1    2  501    0  0.28522787711E+02  0.48865353419E+02  0.10397020834E+04  0.10555144690E+04  0.17300000000E+03 0.  1.
         -6    1    1    2    0  503 -0.28522787711E+02 -0.48865353419E+02  0.42193411273E+03  0.45952014937E+03  0.17300000000E+03 0.  1.
<mgrwt>
<rscale>  2 0.18201751E+03</rscale>
<asrwt>0</asrwt>
<pdfrwt beam="1">  1       21 0.22897461E+00 0.18201751E+03</pdfrwt>
<pdfrwt beam="2">  1       21 0.41075721E-02 0.18201751E+03</pdfrwt>
<totfact> 0.33523165E+04</totfact>
</mgrwt>
</event>
<event>
 4    1  0.8126752E-001  0.2618025E+03  0.7546771E-02  0.1106065E+00
         21   -1    0    0  503  502  0.00000000000E+00  0.00000000000E+00  0.10821945397E+03  0.10821945397E+03  0.00000000000E+00 0. -1.
         21   -1    0    0  501  503 -0.00000000000E+00 -0.00000000000E+00 -0.66637236165E+03  0.66637236165E+03  0.00000000000E+00 0.  1.
          6    1    1    2  501    0 -0.13204886920E+02 -0.19605404594E+03 -0.19285751869E+03  0.32516854166E+03  0.17300000000E+03 0.  1.
         -6    1    1    2    0  502  0.13204886920E+02  0.19605404594E+03 -0.36529538899E+03  0.44942327397E+03  0.17300000000E+03 0. -1.
<mgrwt>
<rscale>  2 0.26180252E+03</rscale>
<asrwt>0</asrwt>
<pdfrwt beam="1">  1       21 0.16649146E-01 0.26180252E+03</pdfrwt>
<pdfrwt beam="2">  1       21 0.10251883E+00 0.26180252E+03</pdfrwt>
<totfact> 0.24173903E+04</totfact>
</mgrwt>
</event>
<event>
 4    1  0.8126752E-001  0.1898696E+03  0.7546771E-02  0.1158579E+00
         21   -1    0    0  503  502  0.00000000000E+00  0.00000000000E+00  0.58422575765E+03  0.58422575765E+03  0.00000000000E+00 0.  1.
         21   -1    0    0  501  503 -0.00000000000E+00 -0.00000000000E+00 -0.61947934818E+02  0.61947934818E+02  0.00000000000E+00 0.  1.
          6    1    1    2  501    0 -0.30950825000E+02 -0.71857667522E+02  0.28131239367E+03  0.33939231102E+03  0.17300000000E+03 0. -1.
         -6    1    1    2    0  502  0.30950825000E+02  0.71857667522E+02  0.24096542917E+03  0.30678138145E+03  0.17300000000E+03 0. -1.
<mgrwt>
<rscale>  2 0.18986963E+03</rscale>
<asrwt>0</asrwt>
<pdfrwt beam="1">  1       21 0.89880882E-01 0.18986963E+03</pdfrwt>
<pdfrwt beam="2">  1       21 0.95304519E-02 0.18986963E+03</pdfrwt>
<totfact> 0.93189510E+04</totfact>
</mgrwt>
</event>
<event>
 4    1  0.8126752E-001  0.1769257E+03  0.7546771E-02  0.1170812E+00
         21   -1    0    0  503  502  0.00000000000E+00  0.00000000000E+00  0.87888269734E+03  0.87888269734E+03  0.00000000000E+00 0. -1.
         21   -1    0    0  501  503 -0.00000000000E+00 -0.00000000000E+00 -0.43870626409E+02  0.43870626409E+02  0.00000000000E+00 0. -1.
          6    1    1    2  501    0  0.32641286853E+02 -0.17556958424E+02  0.21737934349E+03  0.28027928816E+03  0.17300000000E+03 0. -1.
         -6    1    1    2    0  502 -0.32641286853E+02  0.17556958424E+02  0.61763272745E+03  0.64247403559E+03  0.17300000000E+03 0. -1.
<mgrwt>
<rscale>  2 0.17692569E+03</rscale>
<asrwt>0</asrwt>
<pdfrwt beam="1">  1       21 0.13521271E+00 0.17692569E+03</pdfrwt>
<pdfrwt beam="2">  1       21 0.67493278E-02 0.17692569E+03</pdfrwt>
<totfact> 0.63538925E+04</totfact>
</mgrwt>
</event>
<event>
 4    1  0.8126752E-001  0.1791103E+03  0.7546771E-02  0.1168667E+00
         21   -1    0    0  501  502  0.00000000000E+00  0.00000000000E+00  0.49573975284E+03  0.49573975284E+03  0.00000000000E+00 0. -1.
         21   -1    0    0  502  503 -0.00000000000E+00 -0.00000000000E+00 -0.66890607680E+02  0.66890607680E+02  0.00000000000E+00 0. -1.
          6    1    1    2  501    0  0.43811772443E+02  0.15232788177E+02  0.26518908604E+03  0.32000900081E+03  0.17300000000E+03 0. -1.
         -6    1    1    2    0  503 -0.43811772443E+02 -0.15232788177E+02  0.16366005912E+03  0.24262135972E+03  0.17300000000E+03 0. -1.
<mgrwt>
<rscale>  2 0.17911033E+03</rscale>
<asrwt>0</asrwt>
<pdfrwt beam="1">  1       21 0.76267652E-01 0.17911033E+03</pdfrwt>
<pdfrwt beam="2">  1       21 0.10290863E-01 0.17911033E+03</pdfrwt>
<totfact> 0.11871885E+05</totfact>
</mgrwt>
</event>
<event>
 4    1  0.8126752E-001  0.2845801E+03  0.7546771E-02  0.1093213E+00
         21   -1    0    0  501  502  0.00000000000E+00  0.00000000000E+00  0.59670128363E+03  0.59670128363E+03  0.00000000000E+00 0.  1.
         21   -1    0    0  502  503 -0.00000000000E+00 -0.00000000000E+00 -0.17608178224E+03  0.17608178224E+03  0.00000000000E+00 0.  1.
          6    1    1    2  501    0 -0.71204155021E+02  0.21444535387E+03  0.39529693449E+03  0.48707854388E+03  0.17300000000E+03 0.  1.
         -6    1    1    2    0  503  0.71204155021E+02 -0.21444535387E+03  0.25322566897E+02  0.28570452198E+03  0.17300000000E+03 0.  1.
<mgrwt>
<rscale>  2 0.28458011E+03</rscale>
<asrwt>0</asrwt>
<pdfrwt beam="1">  1       21 0.91800196E-01 0.28458011E+03</pdfrwt>
<pdfrwt beam="2">  1       21 0.27089505E-01 0.28458011E+03</pdfrwt>
<totfact> 0.12367348E+04</totfact>
</mgrwt>
</event>
<event>
 4    1  0.8126752E-001  0.2417568E+03  0.7546771E-02  0.1118628E+00
         21   -1    0    0  501  502  0.00000000000E+00  0.00000000000E+00  0.86697232894E+02  0.86697232894E+02  0.00000000000E+00 0. -1.
         21   -1    0    0  502  503 -0.00000000000E+00 -0.00000000000E+00 -0.68438186682E+03  0.68438186682E+03  0.00000000000E+00 0. -1.
          6    1    1    2  501    0  0.11550625147E+03  0.12318950115E+03 -0.34599887006E+03  0.42209189214E+03  0.17300000000E+03 0. -1.
         -6    1    1    2    0  503 -0.11550625147E+03 -0.12318950115E+03 -0.25168576386E+03  0.34898720758E+03  0.17300000000E+03 0. -1.
<mgrwt>
<rscale>  2 0.24175679E+03</rscale>
<asrwt>0</asrwt>
<pdfrwt beam="1">  1       21 0.13338036E-01 0.24175679E+03</pdfrwt>
<pdfrwt beam="2">  1       21 0.10528951E+00 0.24175679E+03</pdfrwt>
<totfact> 0.34336493E+04</totfact>
</mgrwt>
</event>
<event>
 4    1  0.8126752E-001  0.2327543E+03  0.7546771E-02  0.1124716E+00
         21   -1    0    0  503  502  0.00000000000E+00  0.00000000000E+00  0.68743718833E+03  0.68743718833E+03  0.00000000000E+00 0.  1.
         21   -1    0    0  501  503 -0.00000000000E+00 -0.00000000000E+00 -0.81880345312E+02  0.81880345312E+02  0.00000000000E+00 0.  1.
          6    1    1    2  501    0  0.11857737036E+03  0.10092053857E+03  0.37730716812E+03  0.44332296013E+03  0.17300000000E+03 0.  1.
         -6    1    1    2    0  502 -0.11857737036E+03 -0.10092053857E+03  0.22824967490E+03  0.32599457351E+03  0.17300000000E+03 0.  1.
<mgrwt>
<rscale>  2 0.23275426E+03</rscale>
<asrwt>0</asrwt>
<pdfrwt beam="1">  1       21 0.10575956E+00 0.23275426E+03</pdfrwt>
<pdfrwt beam="2">  1       21 0.12596977E-01 0.23275426E+03</pdfrwt>
<totfact> 0.37827489E+04</totfact>
</mgrwt>
</event>
<event>
 4    1  0.8126752E-001  0.2096332E+03  0.7546771E-02  0.1141857E+00
         21   -1    0    0  503  502  0.00000000000E+00  0.00000000000E+00  0.65658598083E+03  0.65658598083E+03  0.00000000000E+00 0.  1.
         21   -1    0    0  501  503 -0.00000000000E+00 -0.00000000000E+00 -0.69474866916E+02  0.69474866916E+02  0.00000000000E+00 0.  1.
          6    1    1    2  501    0  0.11552785268E+03 -0.25891743226E+02  0.36301990203E+03  0.41920104531E+03  0.17300000000E+03 0.  1.
         -6    1    1    2    0  502 -0.11552785268E+03  0.25891743226E+02  0.22409121188E+03  0.30685980244E+03  0.17300000000E+03 0.  1.
<mgrwt>
<rscale>  2 0.20963317E+03</rscale>
<asrwt>0</asrwt>
<pdfrwt beam="1">  1       21 0.10101322E+00 0.20963317E+03</pdfrwt>
<pdfrwt beam="2">  1       21 0.10688442E-01 0.20963317E+03</pdfrwt>
<totfact> 0.57323272E+04</totfact>
</mgrwt>
</event>
<event>
 4    1  0.8126752E-001  0.1901497E+03  0.7546771E-02  0.1158326E+00
         21   -1    0    0  501  502  0.00000000000E+00  0.00000000000E+00  0.78307321089E+03  0.78307321089E+03  0.00000000000E+00 0.  1.
         21   -1    0    0  502  503 -0.00000000000E+00 -0.00000000000E+00 -0.67958400259E+02  0.67958400259E+02  0.00000000000E+00 0. -1.
          6    1    1    2  501    0 -0.74150190692E+02 -0.27012500479E+02  0.59847903508E+03  0.62796025463E+03  0.17300000000E+03 0.  1.
         -6    1    1    2    0  503  0.74150190692E+02  0.27012500479E+02  0.11663577555E+03  0.22307135652E+03  0.17300000000E+03 0. -1.
<mgrwt>
<rscale>  2 0.19014975E+03</rscale>
<asrwt>0</asrwt>
<pdfrwt beam="1">  1       21 0.12047280E+00 0.19014975E+03</pdfrwt>
<pdfrwt beam="2">  1       21 0.10455139E-01 0.19014975E+03</pdfrwt>
<totfact> 0.39277464E+04</totfact>
</mgrwt>
</event>
<event>
 4    1  0.8126752E-001  0.2674071E+03  0.7546771E-02  0.1102773E+00
         21   -1    0    0  501  502  0.00000000000E+00  0.00000000000E+00  0.32651304522E+03  0.32651304522E+03  0.00000000000E+00 0. -1.
         21   -1    0    0  502  503 -0.00000000000E+00 -0.00000000000E+00 -0.30390885262E+03  0.30390885262E+03  0.00000000000E+00 0. -1.
          6    1    1    2  501    0 -0.14718658540E+03 -0.14111577025E+03  0.17791344524E+03  0.32118490863E+03  0.17300000000E+03 0. -1.
         -6    1    1    2    0  503  0.14718658540E+03  0.14111577025E+03 -0.15530925264E+03  0.30923698921E+03  0.17300000000E+03 0. -1.
<mgrwt>
<rscale>  2 0.26740709E+03</rscale>
<asrwt>0</asrwt>
<pdfrwt beam="1">  1       21 0.50232776E-01 0.26740709E+03</pdfrwt>
<pdfrwt beam="2">  1       21 0.46755208E-01 0.26740709E+03</pdfrwt>
<totfact> 0.15861453E+04</totfact>
</mgrwt>
</event>
<event>
 4    1  0.8126752E-001  0.2440471E+03  0.7546771E-02  0.1117126E+00
         21   -1    0    0  501  502  0.00000000000E+00  0.00000000000E+00  0.13982069314E+03  0.13982069314E+03  0.00000000000E+00 0. -1.
         21   -1    0    0  502  503 -0.00000000000E+00 -0.00000000000E+00 -0.49765606010E+03  0.49765606010E+03  0.00000000000E+00 0.  1.
          6    1    1    2  501    0 -0.17210665914E+03  0.30508201861E+01 -0.57942589402E+02  0.25083132438E+03  0.17300000000E+03 0.  1.
         -6    1    1    2    0  503  0.17210665914E+03 -0.30508201861E+01 -0.29989277756E+03  0.38664542886E+03  0.17300000000E+03 0.  1.
<mgrwt>
<rscale>  2 0.24404715E+03</rscale>
<asrwt>0</asrwt>
<pdfrwt beam="1">  1       21 0.21510876E-01 0.24404715E+03</pdfrwt>
<pdfrwt beam="2">  1       21 0.76562472E-01 0.24404715E+03</pdfrwt>
<totfact> 0.29775386E+04</totfact>
</mgrwt>
</event>
<event>
 4    1  0.8126752E-001  0.2116120E+03  0.7546771E-02  0.1140296E+00
         21   -1    0    0  503  502  0.00000000000E+00  0.00000000000E+00  0.40791440148E+03  0.40791440148E+03  0.00000000000E+00 0.  1.
         21   -1    0    0  501  503 -0.00000000000E+00 -0.00000000000E+00 -0.11554507458E+03  0.11554507458E+03  0.00000000000E+00 0. -1.
          6    1    1    2  501    0 -0.47941761111E+02 -0.11203679157E+03  0.20466225463E+03  0.29439139524E+03  0.17300000000E+03 0.  1.
         -6    1    1    2    0  502  0.47941761111E+02  0.11203679157E+03  0.87707072266E+02  0.22906808082E+03  0.17300000000E+03 0. -1.
<mgrwt>
<rscale>  2 0.21161204E+03</rscale>
<asrwt>0</asrwt>
<pdfrwt beam="1">  1       21 0.62756061E-01 0.21161204E+03</pdfrwt>
<pdfrwt beam="2">  1       21 0.17776165E-01 0.21161204E+03</pdfrwt>
<totfact> 0.67006472E+04</totfact>
</mgrwt>
</event>
<event>
 4    1  0.8126752E-001  0.3022754E+03  0.7546771E-02  0.1084109E+00
         21   -1    0    0  503  502  0.00000000000E+00  0.00000000000E+00  0.96072527697E+02  0.96072527697E+02  0.00000000000E+00 0. -1.
         21   -1    0    0  501  503 -0.00000000000E+00 -0.00000000000E+00 -0.95128623093E+03  0.95128623093E+03  0.00000000000E+00 0.  1.
          6    1    1    2  501    0  0.11527352014E+03  0.21943888162E+03 -0.41946978768E+03  0.51703511485E+03  0.17300000000E+03 0.  1.
         -6    1    1    2    0  502 -0.11527352014E+03 -0.21943888162E+03 -0.43574391555E+03  0.53032364378E+03  0.17300000000E+03 0. -1.
<mgrwt>
<rscale>  2 0.30227538E+03</rscale>
<asrwt>0</asrwt>
<pdfrwt beam="1">  1       21 0.14780389E-01 0.30227538E+03</pdfrwt>
<pdfrwt beam="2">  1       21 0.14635173E+00 0.30227538E+03</pdfrwt>
<totfact> 0.12038999E+04</totfact>
</mgrwt>
</event>
<event>
 4    1  0.8126752E-001  0.1790000E+03  0.7546771E-02  0.1168774E+00
         21   -1    0    0  501  502  0.00000000000E+00  0.00000000000E+00  0.25241986277E+03  0.25241986277E+03  0.00000000000E+00 0. -1.
         21   -1    0    0  502  503 -0.00000000000E+00 -0.00000000000E+00 -0.20631514975E+03  0.20631514975E+03  0.00000000000E+00 0. -1.
          6    1    1    2  501    0 -0.26564007953E+02 -0.37501167995E+02  0.16532504687E+03  0.24366648362E+03  0.17300000000E+03 0. -1.
         -6    1    1    2    0  503  0.26564007953E+02  0.37501167995E+02 -0.11922033384E+03  0.21506852890E+03  0.17300000000E+03 0. -1.
<mgrwt>
<rscale>  2 0.17899996E+03</rscale>
<asrwt>0</asrwt>
<pdfrwt beam="1">  1       21 0.38833825E-01 0.17899996E+03</pdfrwt>
<pdfrwt beam="2">  1       21 0.31740792E-01 0.17899996E+03</pdfrwt>
<totfact> 0.61387694E+04</totfact>
</mgrwt>
</event>
<event>
 4    1  0.8126752E-001  0.2365286E+03  0.7546771E-02  0.1122127E+00
         21   -1    0    0  501  502  0.00000000000E+00  0.00000000000E+00  0.12336938398E+03  0.12336938398E+03  0.00000000000E+00 0. -1.
         21   -1    0    0  502  503 -0.00000000000E+00 -0.00000000000E+00 -0.50954335591E+03  0.50954335591E+03  0.00000000000E+00 0.  1.
          6    1    1    2  501    0 -0.16126924804E+03  0.30005178860E+01 -0.88119270629E+02  0.25240994301E+03  0.17300000000E+03 0. -1.
         -6    1    1    2    0  503  0.16126924804E+03 -0.30005178860E+01 -0.29805470130E+03  0.38050279688E+03  0.17300000000E+03 0.  1.
<mgrwt>
<rscale>  2 0.23652859E+03</rscale>
<asrwt>0</asrwt>
<pdfrwt beam="1">  1       21 0.18979905E-01 0.23652859E+03</pdfrwt>
<pdfrwt beam="2">  1       21 0.78391286E-01 0.23652859E+03</pdfrwt>
<totfact> 0.35839594E+04</totfact>
</mgrwt>
</event>
<event>
 4    1  0.8126752E-001  0.3160978E+03  0.7546771E-02  0.1077459E+00
         21   -1    0    0  501  502  0.00000000000E+00  0.00000000000E+00  0.55740693368E+03  0.55740693368E+03  0.00000000000E+00 0.  1.
         21   -1    0    0  502  503 -0.00000000000E+00 -0.00000000000E+00 -0.19550243958E+03  0.19550243958E+03  0.00000000000E+00 0.  1.
          6    1    1    2  501    0 -0.24806437727E+03  0.91939647307E+02  0.28947794327E+03  0.42862024411E+03  0.17300000000E+03 0.  1.
         -6    1    1    2    0  503  0.24806437727E+03 -0.91939647307E+02  0.72426550826E+02  0.32428912915E+03  0.17300000000E+03 0.  1.
<mgrwt>
<rscale>  2 0.31609782E+03</rscale>
<asrwt>0</asrwt>
<pdfrwt beam="1">  1       21 0.85754912E-01 0.31609782E+03</pdfrwt>
<pdfrwt beam="2">  1       21 0.30077299E-01 0.31609782E+03</pdfrwt>
<totfact> 0.11650748E+04</totfact>
</mgrwt>
</event>
<event>
 4    1  0.8126752E-001  0.2431224E+03  0.7546771E-02  0.1117730E+00
         21   -1    0    0  501  502  0.00000000000E+00  0.00000000000E+00  0.20780914048E+03  0.20780914048E+03  0.00000000000E+00 0. -1.
         21   -1    0    0  502  503 -0.00000000000E+00 -0.00000000000E+00 -0.30031478877E+03  0.30031478877E+03  0.00000000000E+00 0. -1.
          6    1    1    2  501    0  0.11956901615E+03  0.12199488954E+03  0.12166061002E+02  0.24342661263E+03  0.17300000000E+03 0. -1.
         -6    1    1    2    0  503 -0.11956901615E+03 -0.12199488954E+03 -0.10467170930E+03  0.26469731662E+03  0.17300000000E+03 0. -1.
<mgrwt>
<rscale>  2 0.24312240E+03</rscale>
<asrwt>0</asrwt>
<pdfrwt beam="1">  1       21 0.31970637E-01 0.24312240E+03</pdfrwt>
<pdfrwt beam="2">  1       21 0.46202275E-01 0.24312240E+03</pdfrwt>
<totfact> 0.41238162E+04</totfact>
</mgrwt>
</event>
<event>
 4    1  0.8126752E-001  0.2065493E+03  0.7546771E-02  0.1144328E+00
         21   -1    0    0  503  502  0.00000000000E+00  0.00000000000E+00  0.54060091901E+03  0.54060091901E+03  0.00000000000E+00 0.  1.
         21   -1    0    0  501  503 -0.00000000000E+00 -0.00000000000E+00 -0.99564939576E+02  0.99564939576E+02  0.00000000000E+00 0. -1.
          6    1    1    2  501    0  0.66092451346E+02 -0.91462653527E+02  0.74755041908E+02  0.21966097834E+03  0.17300000000E+03 0. -1.
         -6    1    1    2    0  502 -0.66092451346E+02  0.91462653527E+02  0.36628093753E+03  0.42050488025E+03  0.17300000000E+03 0.  1.
<mgrwt>
<rscale>  2 0.20654934E+03</rscale>
<asrwt>0</asrwt>
<pdfrwt beam="1">  1       21 0.83169371E-01 0.20654934E+03</pdfrwt>
<pdfrwt beam="2">  1       21 0.15317683E-01 0.20654934E+03</pdfrwt>
<totfact> 0.47216188E+04</totfact>
</mgrwt>
</event>
<event>
 4    1  0.8126752E-001  0.2643254E+03  0.7546771E-02  0.1104572E+00
         21   -1    0    0  503  502  0.00000000000E+00  0.00000000000E+00  0.28483891579E+03  0.28483891579E+03  0.00000000000E+00 0.  1.
         21   -1    0    0  501  503 -0.00000000000E+00 -0.00000000000E+00 -0.24555209689E+03  0.24555209689E+03  0.00000000000E+00 0. -1.
          6    1    1    2  501    0 -0.14212279546E+03  0.14049916210E+03  0.28321120184E+02  0.26583827676E+03  0.17300000000E+03 0.  1.
         -6    1    1    2    0  502  0.14212279546E+03 -0.14049916210E+03  0.10965698713E+02  0.26455273593E+03  0.17300000000E+03 0.  1.
<mgrwt>
<rscale>  2 0.26432537E+03</rscale>
<asrwt>0</asrwt>
<pdfrwt beam="1">  1       21 0.43821371E-01 0.26432537E+03</pdfrwt>
<pdfrwt beam="2">  1       21 0.37777246E-01 0.26432537E+03</pdfrwt>
<totfact> 0.32679188E+04</totfact>
</mgrwt>
</event>
<event>
 4    1  0.8126752E-001  0.2050611E+03  0.7546771E-02  0.1145538E+00
         21   -1    0    0  501  502  0.00000000000E+00  0.00000000000E+00  0.16575289511E+03  0.16575289511E+03  0.00000000000E+00 0. -1.
         21   -1    0    0  502  503 -0.00000000000E+00 -0.00000000000E+00 -0.25399563232E+03  0.25399563232E+03  0.00000000000E+00 0. -1.
          6    1    1    2  501    0  0.10970309623E+03  0.92900674659E+01 -0.51385587860E+02  0.21140140330E+03  0.17300000000E+03 0. -1.
         -6    1    1    2    0  503 -0.10970309623E+03 -0.92900674659E+01 -0.36857149343E+02  0.20834712413E+03  0.17300000000E+03 0. -1.
<mgrwt>
<rscale>  2 0.20506115E+03</rscale>
<asrwt>0</asrwt>
<pdfrwt beam="1">  1       21 0.25500445E-01 0.20506115E+03</pdfrwt>
<pdfrwt beam="2">  1       21 0.39076251E-01 0.20506115E+03</pdfrwt>
<totfact> 0.91613662E+04</totfact>
</mgrwt>
</event>
<event>
 4    1  0.8126752E-001  0.2047431E+03  0.7546771E-02  0.1145798E+00
         21   -1    0    0  501  502  0.00000000000E+00  0.00000000000E+00  0.25507016999E+03  0.25507016999E+03  0.00000000000E+00 0. -1.
         21   -1    0    0  502  503 -0.00000000000E+00 -0.00000000000E+00 -0.20514971728E+03  0.20514971728E+03  0.00000000000E+00 0. -1.
          6    1    1    2  501    0  0.96661998596E+02 -0.51451097258E+02  0.12758445105E+03  0.24124168283E+03  0.17300000000E+03 0. -1.
         -6    1    1    2    0  503 -0.96661998596E+02  0.51451097258E+02 -0.77663998351E+02  0.21897820444E+03  0.17300000000E+03 0. -1.
<mgrwt>
<rscale>  2 0.20474315E+03</rscale>
<asrwt>0</asrwt>
<pdfrwt beam="1">  1       21 0.39241565E-01 0.20474315E+03</pdfrwt>
<pdfrwt beam="2">  1       21 0.31561495E-01 0.20474315E+03</pdfrwt>
<totfact> 0.60078067E+04</totfact>
</mgrwt>
</event>
<event>
 4    1  0.8126752E-001  0.2227356E+03  0.7546771E-02  0.1131860E+00
         21   -1    0    0  501  502  0.00000000000E+00  0.00000000000E+00  0.31757728465E+03  0.31757728465E+03  0.00000000000E+00 0. -1.
         21   -1    0    0  502  503 -0.00000000000E+00 -0.00000000000E+00 -0.15651568298E+03  0.15651568298E+03  0.00000000000E+00 0.  1.
          6    1    1    2  501    0 -0.64922986566E+02 -0.12436701892E+03  0.90876262737E+02  0.24056110390E+03  0.17300000000E+03 0. -1.
         -6    1    1    2    0  503  0.64922986566E+02  0.12436701892E+03  0.70185338927E+02  0.23353186374E+03  0.17300000000E+03 0.  1.
<mgrwt>
<rscale>  2 0.22273560E+03</rscale>
<asrwt>0</asrwt>
<pdfrwt beam="1">  1       21 0.48858044E-01 0.22273560E+03</pdfrwt>
<pdfrwt beam="2">  1       21 0.24079336E-01 0.22273560E+03</pdfrwt>
<totfact> 0.64186675E+04</totfact>
</mgrwt>
</event>
<event>
 4    1  0.8126752E-001  0.2107671E+03  0.7546771E-02  0.1140960E+00
         21   -1    0    0  503  502  0.00000000000E+00  0.00000000000E+00  0.18939070638E+03  0.18939070638E+03  0.00000000000E+00 0.  1.
         21   -1    0    0  501  503 -0.00000000000E+00 -0.00000000000E+00 -0.24337507652E+03  0.24337507652E+03  0.00000000000E+00 0. -1.
          6    1    1    2  501    0  0.96859686223E+02 -0.71497968298E+02  0.14197862703E+02  0.21124473388E+03  0.17300000000E+03 0.  1.
         -6    1    1    2    0  502 -0.96859686223E+02  0.71497968298E+02 -0.68182232848E+02  0.22152104903E+03  0.17300000000E+03 0. -1.
<mgrwt>
<rscale>  2 0.21076707E+03</rscale>
<asrwt>0</asrwt>
<pdfrwt beam="1">  1       21 0.29137032E-01 0.21076707E+03</pdfrwt>
<pdfrwt beam="2">  1       21 0.37442319E-01 0.21076707E+03</pdfrwt>
<totfact> 0.76989961E+04</totfact>
</mgrwt>
</event>
<event>
 4    1  0.8126752E-001  0.1872158E+03  0.7546771E-02  0.1160997E+00
         21   -1    0    0  501  502  0.00000000000E+00  0.00000000000E+00  0.70058951711E+03  0.70058951711E+03  0.00000000000E+00 0. -1.
         21   -1    0    0  502  503 -0.00000000000E+00 -0.00000000000E+00 -0.78607505415E+02  0.78607505415E+02  0.00000000000E+00 0. -1.
          6    1    1    2  501    0 -0.66122206449E+02  0.27360614674E+02  0.54590317218E+03  0.57711352680E+03  0.17300000000E+03 0. -1.
         -6    1    1    2    0  503  0.66122206449E+02 -0.27360614674E+02  0.76078839512E+02  0.20208349572E+03  0.17300000000E+03 0. -1.
<mgrwt>
<rscale>  2 0.18721578E+03</rscale>
<asrwt>0</asrwt>
<pdfrwt beam="1">  1       21 0.10778300E+00 0.18721578E+03</pdfrwt>
<pdfrwt beam="2">  1       21 0.12093463E-01 0.18721578E+03</pdfrwt>
<totfact> 0.39817964E+04</totfact>
</mgrwt>
</event>
<event>
 4    1  0.8126752E-001  0.1770106E+03  0.7546771E-02  0.1170728E+00
         21   -1    0    0  503  502  0.00000000000E+00  0.00000000000E+00  0.11497623246E+03  0.11497623246E+03  0.00000000000E+00 0.  1.
         21   -1    0    0  501  503 -0.00000000000E+00 -0.00000000000E+00 -0.27508982697E+03  0.27508982697E+03  0.00000000000E+00 0. -1.
          6    1    1    2  501    0  0.25921242889E+02 -0.27052799420E+02 -0.98925089917E+02  0.20277805158E+03  0.17300000000E+03 0. -1.
         -6    1    1    2    0  502 -0.25921242889E+02  0.27052799420E+02 -0.61188504597E+02  0.18728800785E+03  0.17300000000E+03 0.  1.
<mgrwt>
<rscale>  2 0.17701063E+03</rscale>
<asrwt>0</asrwt>
<pdfrwt beam="1">  1       21 0.17688651E-01 0.17701063E+03</pdfrwt>
<pdfrwt beam="2">  1       21 0.42321512E-01 0.17701063E+03</pdfrwt>
<totfact> 0.15654867E+05</totfact>
</mgrwt>
</event>
<event>
 4    1  0.8126752E-001  0.1872866E+03  0.7546771E-02  0.1160932E+00
         21   -1    0    0  503  502  0.00000000000E+00  0.00000000000E+00  0.51122007178E+02  0.51122007178E+02  0.00000000000E+00 0.  1.
         21   -1    0    0  501  503 -0.00000000000E+00 -0.00000000000E+00 -0.73960124649E+03  0.73960124649E+03  0.00000000000E+00 0.  1.
          6    1    1    2  501    0  0.71189330049E+02 -0.89085567241E+01 -0.23793293027E+03  0.30280086262E+03  0.17300000000E+03 0.  1.
         -6    1    1    2    0  502 -0.71189330049E+02  0.89085567241E+01 -0.45054630904E+03  0.48792239104E+03  0.17300000000E+03 0.  1.
<mgrwt>
<rscale>  2 0.18728663E+03</rscale>
<asrwt>0</asrwt>
<pdfrwt beam="1">  1       21 0.78649250E-02 0.18728663E+03</pdfrwt>
<pdfrwt beam="2">  1       21 0.11378480E+00 0.18728663E+03</pdfrwt>
<totfact> 0.74551694E+04</totfact>
</mgrwt>
</event>
<event>
 4    1  0.8126752E-001  0.1822772E+03  0.7546771E-02  0.1165617E+00
         21   -1    0    0  503  502  0.00000000000E+00  0.00000000000E+00  0.10350372698E+04  0.10350372698E+04  0.00000000000E+00 0.  1.
         21   -1    0    0  501  503 -0.00000000000E+00 -0.00000000000E+00 -0.34703080688E+02  0.34703080688E+02  0.00000000000E+00 0. -1.
          6    1    1    2  501    0  0.53924083039E+02  0.19702064104E+02  0.64664950477E+03  0.67184861396E+03  0.17300000000E+03 0.  1.
         -6    1    1    2    0  502 -0.53924083039E+02 -0.19702064104E+02  0.35368468437E+03  0.39789173655E+03  0.17300000000E+03 0. -1.
<mgrwt>
<rscale>  2 0.18227720E+03</rscale>
<asrwt>0</asrwt>
<pdfrwt beam="1">  1       21 0.15923648E+00 0.18227720E+03</pdfrwt>
<pdfrwt beam="2">  1       21 0.53389363E-02 0.18227720E+03</pdfrwt>
<totfact> 0.61703998E+04</totfact>
</mgrwt>
</event>
<event>
 4    1  0.8126752E-001  0.2030466E+03  0.7546771E-02  0.1147194E+00
         21   -1    0    0  503  502  0.00000000000E+00  0.00000000000E+00  0.61499105174E+02  0.61499105174E+02  0.00000000000E+00 0. -1.
         21   -1    0    0  501  503 -0.00000000000E+00 -0.00000000000E+00 -0.70674328564E+03  0.70674328564E+03  0.00000000000E+00 0.  1.
          6    1    1    2  501    0  0.83264705354E+02 -0.66075029394E+02 -0.23549476797E+03  0.31094325272E+03  0.17300000000E+03 0. -1.
         -6    1    1    2    0  502 -0.83264705354E+02  0.66075029394E+02 -0.40974941249E+03  0.45729913810E+03  0.17300000000E+03 0.  1.
<mgrwt>
<rscale>  2 0.20304660E+03</rscale>
<asrwt>0</asrwt>
<pdfrwt beam="1">  1       21 0.94614011E-02 0.20304660E+03</pdfrwt>
<pdfrwt beam="2">  1       21 0.10872973E+00 0.20304660E+03</pdfrwt>
<totfact> 0.59783597E+04</totfact>
</mgrwt>
</event>
<event>
 4    1  0.8126752E-001  0.1988596E+03  0.7546771E-02  0.1150705E+00
         21   -1    0    0  501  502  0.00000000000E+00  0.00000000000E+00  0.48951030166E+03  0.48951030166E+03  0.00000000000E+00 0.  1.
         21   -1    0    0  502  503 -0.00000000000E+00 -0.00000000000E+00 -0.11531496531E+03  0.11531496531E+03  0.00000000000E+00 0.  1.
          6    1    1    2  501    0 -0.89222610216E+02 -0.40687501053E+02  0.35258106619E+03  0.40479446038E+03  0.17300000000E+03 0.  1.
         -6    1    1    2    0  503  0.89222610216E+02  0.40687501053E+02  0.21614270160E+02  0.20003080660E+03  0.17300000000E+03 0.  1.
<mgrwt>
<rscale>  2 0.19885962E+03</rscale>
<asrwt>0</asrwt>
<pdfrwt beam="1">  1       21 0.75309276E-01 0.19885962E+03</pdfrwt>
<pdfrwt beam="2">  1       21 0.17740764E-01 0.19885962E+03</pdfrwt>
<totfact> 0.45288070E+04</totfact>
</mgrwt>
</event>
<event>
 4    1  0.8126752E-001  0.1732413E+03  0.7546771E-02  0.1174509E+00
         21   -1    0    0  503  502  0.00000000000E+00  0.00000000000E+00  0.34070137665E+02  0.34070137665E+02  0.00000000000E+00 0.  1.
         21   -1    0    0  501  503 -0.00000000000E+00 -0.00000000000E+00 -0.88112396117E+03  0.88112396117E+03  0.00000000000E+00 0.  1.
          6    1    1    2  501    0 -0.91192255217E+01 -0.62201674973E+00 -0.41630977829E+03  0.45091726368E+03  0.17300000000E+03 0.  1.
         -6    1    1    2    0  502  0.91192255217E+01  0.62201674973E+00 -0.43074404521E+03  0.46427683516E+03  0.17300000000E+03 0.  1.
<mgrwt>
<rscale>  2 0.17324130E+03</rscale>
<asrwt>0</asrwt>
<pdfrwt beam="1">  1       21 0.52415598E-02 0.17324130E+03</pdfrwt>
<pdfrwt beam="2">  1       21 0.13555753E+00 0.17324130E+03</pdfrwt>
<totfact> 0.97390227E+04</totfact>
</mgrwt>
</event>
<event>
 4    1  0.8126752E-001  0.1809875E+03  0.7546771E-02  0.1166851E+00
         21   -1    0    0  503  502  0.00000000000E+00  0.00000000000E+00  0.36919851632E+02  0.36919851632E+02  0.00000000000E+00 0.  1.
         21   -1    0    0  501  503 -0.00000000000E+00 -0.00000000000E+00 -0.10460356194E+04  0.10460356194E+04  0.00000000000E+00 0.  1.
          6    1    1    2  501    0 -0.14400288058E+02 -0.51186875112E+02 -0.29357952447E+03  0.34488462081E+03  0.17300000000E+03 0. -1.
         -6    1    1    2    0  502  0.14400288058E+02  0.51186875112E+02 -0.71553624325E+03  0.73807085018E+03  0.17300000000E+03 0. -1.
<mgrwt>
<rscale>  2 0.18098747E+03</rscale>
<asrwt>0</asrwt>
<pdfrwt beam="1">  1       21 0.56799775E-02 0.18098747E+03</pdfrwt>
<pdfrwt beam="2">  1       21 0.16092855E+00 0.18098747E+03</pdfrwt>
<totfact> 0.54016019E+04</totfact>
</mgrwt>
</event>
<event>
 4    1  0.8126752E-001  0.1839417E+03  0.7546771E-02  0.1164042E+00
         21   -1    0    0  503  502  0.00000000000E+00  0.00000000000E+00  0.84481775999E+02  0.84481775999E+02  0.00000000000E+00 0. -1.
         21   -1    0    0  501  503 -0.00000000000E+00 -0.00000000000E+00 -0.44748185664E+03  0.44748185664E+03  0.00000000000E+00 0. -1.
          6    1    1    2  501    0  0.55116623616E+02 -0.29457000653E+02 -0.26768885037E+03  0.32479513189E+03  0.17300000000E+03 0. -1.
         -6    1    1    2    0  502 -0.55116623616E+02  0.29457000653E+02 -0.95311230266E+02  0.20716850075E+03  0.17300000000E+03 0. -1.
<mgrwt>
<rscale>  2 0.18394172E+03</rscale>
<asrwt>0</asrwt>
<pdfrwt beam="1">  1       21 0.12997196E-01 0.18394172E+03</pdfrwt>
<pdfrwt beam="2">  1       21 0.68843362E-01 0.18394172E+03</pdfrwt>
<totfact> 0.98073080E+04</totfact>
</mgrwt>
</event>
<event>
 4    1  0.8126752E-001  0.2394191E+03  0.7546771E-02  0.1120180E+00
         21   -1    0    0  501  502  0.00000000000E+00  0.00000000000E+00  0.65991676317E+03  0.65991676317E+03  0.00000000000E+00 0. -1.
         21   -1    0    0  502  503 -0.00000000000E+00 -0.00000000000E+00 -0.10176424484E+03  0.10176424484E+03  0.00000000000E+00 0. -1.
          6    1    1    2  501    0 -0.98676033891E+02 -0.13287412940E+03  0.42481522993E+03  0.48763662035E+03  0.17300000000E+03 0. -1.
         -6    1    1    2    0  503  0.98676033891E+02  0.13287412940E+03  0.13333728840E+03  0.27404438766E+03  0.17300000000E+03 0. -1.
<mgrwt>
<rscale>  2 0.23941908E+03</rscale>
<asrwt>0</asrwt>
<pdfrwt beam="1">  1       21 0.10152565E+00 0.23941908E+03</pdfrwt>
<pdfrwt beam="2">  1       21 0.15656038E-01 0.23941908E+03</pdfrwt>
<totfact> 0.28012141E+04</totfact>
</mgrwt>
</event>
<event>
 4    1  0.8126752E-001  0.1780507E+03  0.7546771E-02  0.1169703E+00
         21   -1    0    0  503  502  0.00000000000E+00  0.00000000000E+00  0.49672875466E+02  0.49672875466E+02  0.00000000000E+00 0.  1.
         21   -1    0    0  501  503 -0.00000000000E+00 -0.00000000000E+00 -0.65344648898E+03  0.65344648898E+03  0.00000000000E+00 0.  1.
          6    1    1    2  501    0 -0.37572447029E+02 -0.19009943374E+02 -0.24821593155E+03  0.30547211886E+03  0.17300000000E+03 0. -1.
         -6    1    1    2    0  502  0.37572447029E+02  0.19009943374E+02 -0.35555768197E+03  0.39764724559E+03  0.17300000000E+03 0. -1.
<mgrwt>
<rscale>  2 0.17805074E+03</rscale>
<asrwt>0</asrwt>
<pdfrwt beam="1">  1       21 0.76419808E-02 0.17805074E+03</pdfrwt>
<pdfrwt beam="2">  1       21 0.10053023E+00 0.17805074E+03</pdfrwt>
<totfact> 0.10597231E+05</totfact>
</mgrwt>
</event>
<event>
 4    1  0.8126752E-001  0.2456956E+03  0.7546771E-02  0.1116056E+00
         21   -1    0    0  503  502  0.00000000000E+00  0.00000000000E+00  0.22657531865E+03  0.22657531865E+03  0.00000000000E+00 0.  1.
         21   -1    0    0  501  503 -0.00000000000E+00 -0.00000000000E+00 -0.30959942487E+03  0.30959942487E+03  0.00000000000E+00 0.  1.
          6    1    1    2  501    0  0.13689809989E+03 -0.10814912582E+03 -0.14161975719E+03  0.28358857311E+03  0.17300000000E+03 0.  1.
         -6    1    1    2    0  502 -0.13689809989E+03  0.10814912582E+03  0.58595650978E+02  0.25258617041E+03  0.17300000000E+03 0.  1.
<mgrwt>
<rscale>  2 0.24569559E+03</rscale>
<asrwt>0</asrwt>
<pdfrwt beam="1">  1       21 0.34857741E-01 0.24569559E+03</pdfrwt>
<pdfrwt beam="2">  1       21 0.47630681E-01 0.24569559E+03</pdfrwt>
<totfact> 0.32569382E+04</totfact>
</mgrwt>
</event>
<event>
 4    1  0.8126752E-001  0.2037571E+03  0.7546771E-02  0.1146607E+00
         21   -1    0    0  501  502  0.00000000000E+00  0.00000000000E+00  0.33871656862E+03  0.33871656862E+03  0.00000000000E+00 0. -1.
         21   -1    0    0  502  503 -0.00000000000E+00 -0.00000000000E+00 -0.13297922550E+03  0.13297922550E+03  0.00000000000E+00 0. -1.
          6    1    1    2  501    0  0.58669990096E+02 -0.90253970348E+02  0.36887326585E+02  0.20706912315E+03  0.17300000000E+03 0.  1.
         -6    1    1    2    0  503 -0.58669990096E+02  0.90253970348E+02  0.16885001653E+03  0.26462667096E+03  0.17300000000E+03 0.  1.
<mgrwt>
<rscale>  2 0.20375708E+03</rscale>
<asrwt>0</asrwt>
<pdfrwt beam="1">  1       21 0.52110241E-01 0.20375708E+03</pdfrwt>
<pdfrwt beam="2">  1       21 0.20458343E-01 0.20375708E+03</pdfrwt>
<totfact> 0.76949838E+04</totfact>
</mgrwt>
</event>
<event>
 4    1  0.8126752E-001  0.2514608E+03  0.7546771E-02  0.1112385E+00
         21   -1    0    0  503  502  0.00000000000E+00  0.00000000000E+00  0.49790824248E+03  0.49790824248E+03  0.00000000000E+00 0. -1.
         21   -1    0    0  501  503 -0.00000000000E+00 -0.00000000000E+00 -0.16259157881E+03  0.16259157881E+03  0.00000000000E+00 0. -1.
          6    1    1    2  501    0 -0.21747796167E+02 -0.18119213904E+03  0.13136719718E+02  0.25180375552E+03  0.17300000000E+03 0. -1.
         -6    1    1    2    0  502  0.21747796167E+02  0.18119213904E+03  0.32217994396E+03  0.40869606577E+03  0.17300000000E+03 0. -1.
<mgrwt>
<rscale>  2 0.25146085E+03</rscale>
<asrwt>0</asrwt>
<pdfrwt beam="1">  1       21 0.76601268E-01 0.25146085E+03</pdfrwt>
<pdfrwt beam="2">  1       21 0.25014089E-01 0.25146085E+03</pdfrwt>
<totfact> 0.22231059E+04</totfact>
</mgrwt>
</event>
<event>
 4    1  0.8126752E-001  0.1949947E+03  0.7546771E-02  0.1154032E+00
         21   -1    0    0  503  502  0.00000000000E+00  0.00000000000E+00  0.34030019152E+03  0.34030019152E+03  0.00000000000E+00 0.  1.
         21   -1    0    0  501  503 -0.00000000000E+00 -0.00000000000E+00 -0.11203716873E+03  0.11203716873E+03  0.00000000000E+00 0.  1.
          6    1    1    2  501    0  0.46460457648E+02 -0.77041173117E+02  0.10235591560E+03  0.22022636068E+03  0.17300000000E+03 0.  1.
         -6    1    1    2    0  502 -0.46460457648E+02  0.77041173117E+02  0.12590710719E+03  0.23211099957E+03  0.17300000000E+03 0.  1.
<mgrwt>
<rscale>  2 0.19499466E+03</rscale>
<asrwt>0</asrwt>
<pdfrwt beam="1">  1       21 0.52353875E-01 0.19499466E+03</pdfrwt>
<pdfrwt beam="2">  1       21 0.17236488E-01 0.19499466E+03</pdfrwt>
<totfact> 0.10516074E+05</totfact>
</mgrwt>
</event>
<event>
 4    1  0.8126752E-001  0.2014919E+03  0.7546771E-02  0.1148486E+00
         21   -1    0    0  503  502  0.00000000000E+00  0.00000000000E+00  0.69133225202E+02  0.69133225202E+02  0.00000000000E+00 0. -1.
         21   -1    0    0  501  503 -0.00000000000E+00 -0.00000000000E+00 -0.58996259863E+03  0.58996259863E+03  0.00000000000E+00 0.  1.
          6    1    1    2  501    0 -0.93494637178E+02 -0.43917476873E+02 -0.28273051551E+03  0.34718228117E+03  0.17300000000E+03 0.  1.
         -6    1    1    2    0  502  0.93494637178E+02  0.43917476873E+02 -0.23809885792E+03  0.31191354267E+03  0.17300000000E+03 0. -1.
<mgrwt>
<rscale>  2 0.20149192E+03</rscale>
<asrwt>0</asrwt>
<pdfrwt beam="1">  1       21 0.10635881E-01 0.20149192E+03</pdfrwt>
<pdfrwt beam="2">  1       21 0.90763479E-01 0.20149192E+03</pdfrwt>
<totfact> 0.74650314E+04</totfact>
</mgrwt>
</event>
<event>
 4    1  0.8126752E-001  0.2058352E+03  0.7546771E-02  0.1144907E+00
         21   -1    0    0  503  502  0.00000000000E+00  0.00000000000E+00  0.69657783627E+02  0.69657783627E+02  0.00000000000E+00 0. -1.
         21   -1    0    0  501  503 -0.00000000000E+00 -0.00000000000E+00 -0.69856148252E+03  0.69856148252E+03  0.00000000000E+00 0.  1.
          6    1    1    2  501    0  0.30663043615E+02 -0.10723290969E+03 -0.45257508431E+03  0.49718439849E+03  0.17300000000E+03 0. -1.
         -6    1    1    2    0  502 -0.30663043615E+02  0.10723290969E+03 -0.17632861458E+03  0.27103486766E+03  0.17300000000E+03 0. -1.
<mgrwt>
<rscale>  2 0.20583517E+03</rscale>
<asrwt>0</asrwt>
<pdfrwt beam="1">  1       21 0.10716583E-01 0.20583517E+03</pdfrwt>
<pdfrwt beam="2">  1       21 0.10747099E+00 0.20583517E+03</pdfrwt>
<totfact> 0.49254613E+04</totfact>
</mgrwt>
</event>
<event>
 4    1  0.8126752E-001  0.1740894E+03  0.7546771E-02  0.1173649E+00
         21   -1    0    0  503  502  0.00000000000E+00  0.00000000000E+00  0.12005067017E+03  0.12005067017E+03  0.00000000000E+00 0. -1.
         21   -1    0    0  501  503 -0.00000000000E+00 -0.00000000000E+00 -0.25887038191E+03  0.25887038191E+03  0.00000000000E+00 0. -1.
          6    1    1    2  501    0 -0.18668702171E+02 -0.54391719393E+01 -0.99240984947E+02  0.20038931640E+03  0.17300000000E+03 0. -1.
         -6    1    1    2    0  502  0.18668702171E+02  0.54391719393E+01 -0.39578726801E+02  0.17853173569E+03  0.17300000000E+03 0. -1.
<mgrwt>
<rscale>  2 0.17408936E+03</rscale>
<asrwt>0</asrwt>
<pdfrwt beam="1">  1       21 0.18469334E-01 0.17408936E+03</pdfrwt>
<pdfrwt beam="2">  1       21 0.39826213E-01 0.17408936E+03</pdfrwt>
<totfact> 0.16362202E+05</totfact>
</mgrwt>
</event>
<event>
 4    1  0.8126752E-001  0.2654530E+03  0.7546771E-02  0.1103911E+00
         21   -1    0    0  503  502  0.00000000000E+00  0.00000000000E+00  0.31942370551E+03  0.31942370551E+03  0.00000000000E+00 0.  1.
         21   -1    0    0  501  503 -0.00000000000E+00 -0.00000000000E+00 -0.22113919135E+03  0.22113919135E+03  0.00000000000E+00 0. -1.
          6    1    1    2  501    0  0.19525092063E+03 -0.49125946755E+02  0.35812084910E+02  0.26785777211E+03  0.17300000000E+03 0. -1.
         -6    1    1    2    0  502 -0.19525092063E+03  0.49125946755E+02  0.62472429252E+02  0.27270512476E+03  0.17300000000E+03 0.  1.
<mgrwt>
<rscale>  2 0.26545297E+03</rscale>
<asrwt>0</asrwt>
<pdfrwt beam="1">  1       21 0.49142108E-01 0.26545297E+03</pdfrwt>
<pdfrwt beam="2">  1       21 0.34021414E-01 0.26545297E+03</pdfrwt>
<totfact> 0.31757190E+04</totfact>
</mgrwt>
</event>
<event>
 4    1  0.8126752E-001  0.2133317E+03  0.7546771E-02  0.1138954E+00
         21   -1    0    0  501  502  0.00000000000E+00  0.00000000000E+00  0.15040797347E+04  0.15040797347E+04  0.00000000000E+00 0. -1.
         21   -1    0    0  502  503 -0.00000000000E+00 -0.00000000000E+00 -0.31605024790E+02  0.31605024790E+02  0.00000000000E+00 0.  1.
          6    1    1    2  501    0 -0.12422420137E+03 -0.12237802121E+02  0.89475764959E+03  0.91983784848E+03  0.17300000000E+03 0.  1.
         -6    1    1    2    0  503  0.12422420137E+03  0.12237802121E+02  0.57771706032E+03  0.61584691101E+03  0.17300000000E+03 0.  1.
<mgrwt>
<rscale>  2 0.21333170E+03</rscale>
<asrwt>0</asrwt>
<pdfrwt beam="1">  1       21 0.23139683E+00 0.21333170E+03</pdfrwt>
<pdfrwt beam="2">  1       21 0.48623127E-02 0.21333170E+03</pdfrwt>
<totfact> 0.23799769E+04</totfact>
</mgrwt>
</event>
<event>
 4    1  0.8126752E-001  0.1912691E+03  0.7546771E-02  0.1157322E+00
         21   -1    0    0  503  502  0.00000000000E+00  0.00000000000E+00  0.26361488407E+03  0.26361488407E+03  0.00000000000E+00 0.  1.
         21   -1    0    0  501  503 -0.00000000000E+00 -0.00000000000E+00 -0.14402734505E+03  0.14402734505E+03  0.00000000000E+00 0.  1.
          6    1    1    2  501    0  0.13878485524E+02 -0.80388075398E+02  0.20880870233E+02  0.19240547229E+03  0.17300000000E+03 0. -1.
         -6    1    1    2    0  502 -0.13878485524E+02  0.80388075398E+02  0.98706668782E+02  0.21523675683E+03  0.17300000000E+03 0. -1.
<mgrwt>
<rscale>  2 0.19126906E+03</rscale>
<asrwt>0</asrwt>
<pdfrwt beam="1">  1       21 0.40556136E-01 0.19126906E+03</pdfrwt>
<pdfrwt beam="2">  1       21 0.22158053E-01 0.19126906E+03</pdfrwt>
<totfact> 0.11161530E+05</totfact>
</mgrwt>
</event>
<event>
 4    1  0.8126752E-001  0.1858800E+03  0.7546771E-02  0.1162231E+00
         21   -1    0    0  501  502  0.00000000000E+00  0.00000000000E+00  0.60290502491E+02  0.60290502491E+02  0.00000000000E+00 0.  1.
         21   -1    0    0  502  503 -0.00000000000E+00 -0.00000000000E+00 -0.72777141291E+03  0.72777141291E+03  0.00000000000E+00 0.  1.
          6    1    1    2  501    0 -0.63325893237E+02 -0.24742643647E+02 -0.15207851480E+03  0.24016503041E+03  0.17300000000E+03 0.  1.
         -6    1    1    2    0  503  0.63325893237E+02  0.24742643647E+02 -0.51540239562E+03  0.54789688499E+03  0.17300000000E+03 0.  1.
<mgrwt>
<rscale>  2 0.18587998E+03</rscale>
<asrwt>0</asrwt>
<pdfrwt beam="1">  1       21 0.92754618E-02 0.18587998E+03</pdfrwt>
<pdfrwt beam="2">  1       21 0.11196483E+00 0.18587998E+03</pdfrwt>
<totfact> 0.58157909E+04</totfact>
</mgrwt>
</event>
<event>
 4    1  0.8126752E-001  0.1746609E+03  0.7546771E-02  0.1173073E+00
         21   -1    0    0  503  502  0.00000000000E+00  0.00000000000E+00  0.26821206565E+03  0.26821206565E+03  0.00000000000E+00 0.  1.
         21   -1    0    0  501  503 -0.00000000000E+00 -0.00000000000E+00 -0.22567798022E+03  0.22567798022E+03  0.00000000000E+00 0.  1.
          6    1    1    2  501    0 -0.18914421517E+02  0.14821647313E+02 -0.15265092220E+03  0.23196711107E+03  0.17300000000E+03 0. -1.
         -6    1    1    2    0  502  0.18914421517E+02 -0.14821647313E+02  0.19518500763E+03  0.26192293480E+03  0.17300000000E+03 0. -1.
<mgrwt>
<rscale>  2 0.17466092E+03</rscale>
<asrwt>0</asrwt>
<pdfrwt beam="1">  1       21 0.41263395E-01 0.17466092E+03</pdfrwt>
<pdfrwt beam="2">  1       21 0.34719689E-01 0.17466092E+03</pdfrwt>
<totfact> 0.45623225E+04</totfact>
</mgrwt>
</event>
<event>
 4    1  0.8126752E-001  0.1810405E+03  0.7546771E-02  0.1166800E+00
         21   -1    0    0  503  502  0.00000000000E+00  0.00000000000E+00  0.54040343773E+03  0.54040343773E+03  0.00000000000E+00 0. -1.
         21   -1    0    0  501  503 -0.00000000000E+00 -0.00000000000E+00 -0.61487060757E+02  0.61487060757E+02  0.00000000000E+00 0. -1.
          6    1    1    2  501    0  0.52638576932E+02  0.87083996088E+01  0.20435196717E+03  0.27301168929E+03  0.17300000000E+03 0. -1.
         -6    1    1    2    0  502 -0.52638576932E+02 -0.87083996088E+01  0.27456440981E+03  0.32887880920E+03  0.17300000000E+03 0. -1.
<mgrwt>
<rscale>  2 0.18104048E+03</rscale>
<asrwt>0</asrwt>
<pdfrwt beam="1">  1       21 0.83138987E-01 0.18104048E+03</pdfrwt>
<pdfrwt beam="2">  1       21 0.94595482E-02 0.18104048E+03</pdfrwt>
<totfact> 0.11329786E+05</totfact>
</mgrwt>
</event>
<event>
 4    1  0.8126752E-001  0.2139194E+03  0.7546771E-02  0.1138499E+00
         21   -1    0    0  503  502  0.00000000000E+00  0.00000000000E+00  0.25065074234E+04  0.25065074234E+04  0.00000000000E+00 0.  1.
         21   -1    0    0  501  503 -0.00000000000E+00 -0.00000000000E+00 -0.19275933714E+02  0.19275933714E+02  0.00000000000E+00 0.  1.
          6    1    1    2  501    0 -0.54009318780E+02 -0.11364646329E+03  0.95327183166E+03  0.97697938063E+03  0.17300000000E+03 0.  1.
         -6    1    1    2    0  502  0.54009318780E+02  0.11364646329E+03  0.15339596581E+04  0.15488039765E+04  0.17300000000E+03 0.  1.
<mgrwt>
<rscale>  2 0.21391944E+03</rscale>
<asrwt>0</asrwt>
<pdfrwt beam="1">  1       21 0.38561627E+00 0.21391944E+03</pdfrwt>
<pdfrwt beam="2">  1       21 0.29655302E-02 0.21391944E+03</pdfrwt>
<totfact> 0.67132427E+03</totfact>
</mgrwt>
</event>
<event>
 4    1  0.8126752E-001  0.2290164E+03  0.7546771E-02  0.1127334E+00
         21   -1    0    0  503  502  0.00000000000E+00  0.00000000000E+00  0.47499685865E+03  0.47499685865E+03  0.00000000000E+00 0. -1.
         21   -1    0    0  501  503 -0.00000000000E+00 -0.00000000000E+00 -0.11155459628E+03  0.11155459628E+03  0.00000000000E+00 0. -1.
          6    1    1    2  501    0  0.86573216546E+02  0.12257474279E+03  0.15212599551E+03  0.27493782552E+03  0.17300000000E+03 0. -1.
         -6    1    1    2    0  502 -0.86573216546E+02 -0.12257474279E+03  0.21131626686E+03  0.31161362941E+03  0.17300000000E+03 0. -1.
<mgrwt>
<rscale>  2 0.22901635E+03</rscale>
<asrwt>0</asrwt>
<pdfrwt beam="1">  1       21 0.73076439E-01 0.22901635E+03</pdfrwt>
<pdfrwt beam="2">  1       21 0.17162246E-01 0.22901635E+03</pdfrwt>
<totfact> 0.50767388E+04</totfact>
</mgrwt>
</event>
<event>
 4    1  0.8126752E-001  0.1938097E+03  0.7546771E-02  0.1155069E+00
         21   -1    0    0  503  502  0.00000000000E+00  0.00000000000E+00  0.11921349454E+03  0.11921349454E+03  0.00000000000E+00 0. -1.
         21   -1    0    0  501  503 -0.00000000000E+00 -0.00000000000E+00 -0.35040247116E+03  0.35040247116E+03  0.00000000000E+00 0. -1.
          6    1    1    2  501    0  0.58515879736E+02 -0.64877431973E+02 -0.19014216476E+03  0.27150733357E+03  0.17300000000E+03 0. -1.
         -6    1    1    2    0  502 -0.58515879736E+02  0.64877431973E+02 -0.41046811849E+02  0.19810863213E+03  0.17300000000E+03 0. -1.
<mgrwt>
<rscale>  2 0.19380967E+03</rscale>
<asrwt>0</asrwt>
<pdfrwt beam="1">  1       21 0.18340538E-01 0.19380967E+03</pdfrwt>
<pdfrwt beam="2">  1       21 0.53908072E-01 0.19380967E+03</pdfrwt>
<totfact> 0.88211034E+04</totfact>
</mgrwt>
</event>
<event>
 4    1  0.8126752E-001  0.1964709E+03  0.7546771E-02  0.1152751E+00
         21   -1    0    0  503  502  0.00000000000E+00  0.00000000000E+00  0.14689553675E+04  0.14689553675E+04  0.00000000000E+00 0. -1.
         21   -1    0    0  501  503 -0.00000000000E+00 -0.00000000000E+00 -0.31100752944E+02  0.31100752944E+02  0.00000000000E+00 0. -1.
          6    1    1    2  501    0  0.72664644675E+02  0.58237977496E+02  0.10142873359E+04  0.10331406547E+04  0.17300000000E+03 0. -1.
         -6    1    1    2    0  502 -0.72664644675E+02 -0.58237977496E+02  0.42356727862E+03  0.46691546571E+03  0.17300000000E+03 0. -1.
<mgrwt>
<rscale>  2 0.19647090E+03</rscale>
<asrwt>0</asrwt>
<pdfrwt beam="1">  1       21 0.22599308E+00 0.19647090E+03</pdfrwt>
<pdfrwt beam="2">  1       21 0.47847324E-02 0.19647090E+03</pdfrwt>
<totfact> 0.26719328E+04</totfact>
</mgrwt>
</event>
<event>
 4    1  0.8126752E-001  0.2690610E+03  0.7546771E-02  0.1101818E+00
         21   -1    0    0  503  502  0.00000000000E+00  0.00000000000E+00  0.10008123410E+04  0.10008123410E+04  0.00000000000E+00 0. -1.
         21   -1    0    0  501  503 -0.00000000000E+00 -0.00000000000E+00 -0.12338776885E+03  0.12338776885E+03  0.00000000000E+00 0.  1.
          6    1    1    2  501    0 -0.87058885880E+02  0.18677676869E+03  0.77146765247E+02  0.27990254433E+03  0.17300000000E+03 0.  1.
         -6    1    1    2    0  502  0.87058885880E+02 -0.18677676869E+03  0.80027780692E+03  0.84429756555E+03  0.17300000000E+03 0. -1.
<mgrwt>
<rscale>  2 0.26906098E+03</rscale>
<asrwt>0</asrwt>
<pdfrwt beam="1">  1       21 0.15397112E+00 0.26906098E+03</pdfrwt>
<pdfrwt beam="2">  1       21 0.18982734E-01 0.26906098E+03</pdfrwt>
<totfact> 0.67269848E+03</totfact>
</mgrwt>
</event>
<event>
 4    1  0.8126752E-001  0.2124572E+03  0.7546771E-02  0.1139635E+00
         21   -1    0    0  501  502  0.00000000000E+00  0.00000000000E+00  0.13317192696E+03  0.13317192696E+03  0.00000000000E+00 0. -1.
         21   -1    0    0  502  503 -0.00000000000E+00 -0.00000000000E+00 -0.36205042671E+03  0.36205042671E+03  0.00000000000E+00 0. -1.
          6    1    1    2  501    0  0.10317573716E+03 -0.67556248658E+02 -0.51888259261E+02  0.21870178536E+03  0.17300000000E+03 0. -1.
         -6    1    1    2    0  503 -0.10317573716E+03  0.67556248658E+02 -0.17699024049E+03  0.27652056831E+03  0.17300000000E+03 0. -1.
<mgrwt>
<rscale>  2 0.21245724E+03</rscale>
<asrwt>0</asrwt>
<pdfrwt beam="1">  1       21 0.20487989E-01 0.21245724E+03</pdfrwt>
<pdfrwt beam="2">  1       21 0.55700065E-01 0.21245724E+03</pdfrwt>
<totfact> 0.66413472E+04</totfact>
</mgrwt>
</event>
<event>
 4    1  0.8126752E-001  0.1730784E+03  0.7546771E-02  0.1174675E+00
         21   -1    0    0  501  502  0.00000000000E+00  0.00000000000E+00  0.21384875501E+03  0.21384875501E+03  0.00000000000E+00 0.  1.
         21   -1    0    0  502  503 -0.00000000000E+00 -0.00000000000E+00 -0.14339221314E+03  0.14339221314E+03  0.00000000000E+00 0.  1.
          6    1    1    2  501    0 -0.45265532963E+01 -0.25758410689E+01  0.80845712835E+01  0.17326709132E+03  0.17300000000E+03 0.  1.
         -6    1    1    2    0  503  0.45265532963E+01  0.25758410689E+01  0.62371970582E+02  0.18397387683E+03  0.17300000000E+03 0.  1.
<mgrwt>
<rscale>  2 0.17307838E+03</rscale>
<asrwt>0</asrwt>
<pdfrwt beam="1">  1       21 0.32899809E-01 0.17307838E+03</pdfrwt>
<pdfrwt beam="2">  1       21 0.22060340E-01 0.17307838E+03</pdfrwt>
<totfact> 0.17182145E+05</totfact>
</mgrwt>
</event>
<event>
 4    1  0.8126752E-001  0.2110834E+03  0.7546771E-02  0.1140711E+00
         21   -1    0    0  501  502  0.00000000000E+00  0.00000000000E+00  0.14925281183E+03  0.14925281183E+03  0.00000000000E+00 0. -1.
         21   -1    0    0  502  503 -0.00000000000E+00 -0.00000000000E+00 -0.33209292716E+03  0.33209292716E+03  0.00000000000E+00 0.  1.
          6    1    1    2  501    0  0.75895056492E+02  0.94165514352E+02 -0.16793346885E+03  0.26973663758E+03  0.17300000000E+03 0. -1.
         -6    1    1    2    0  503 -0.75895056492E+02 -0.94165514352E+02 -0.14906646480E+02  0.21160910142E+03  0.17300000000E+03 0. -1.
<mgrwt>
<rscale>  2 0.21108340E+03</rscale>
<asrwt>0</asrwt>
<pdfrwt beam="1">  1       21 0.22961971E-01 0.21108340E+03</pdfrwt>
<pdfrwt beam="2">  1       21 0.51091219E-01 0.21108340E+03</pdfrwt>
<totfact> 0.64310565E+04</totfact>
</mgrwt>
</event>
<event>
 4    1  0.8126752E-001  0.2181844E+03  0.7546771E-02  0.1135244E+00
         21   -1    0    0  501  502  0.00000000000E+00  0.00000000000E+00  0.37137489417E+03  0.37137489417E+03  0.00000000000E+00 0.  1.
         21   -1    0    0  502  503 -0.00000000000E+00 -0.00000000000E+00 -0.14809392466E+03  0.14809392466E+03  0.00000000000E+00 0. -1.
          6    1    1    2  501    0 -0.49680754307E+02 -0.12331768241E+03  0.20687458497E+03  0.30066845869E+03  0.17300000000E+03 0.  1.
         -6    1    1    2    0  503  0.49680754307E+02  0.12331768241E+03  0.16406384537E+02  0.21880036014E+03  0.17300000000E+03 0. -1.
<mgrwt>
<rscale>  2 0.21818439E+03</rscale>
<asrwt>0</asrwt>
<pdfrwt beam="1">  1       21 0.57134599E-01 0.21818439E+03</pdfrwt>
<pdfrwt beam="2">  1       21 0.22783681E-01 0.21818439E+03</pdfrwt>
<totfact> 0.51358478E+04</totfact>
</mgrwt>
</event>
<event>
 4    1  0.8126752E-001  0.2577944E+03  0.7546771E-02  0.1108476E+00
         21   -1    0    0  501  502  0.00000000000E+00  0.00000000000E+00  0.14524460095E+04  0.14524460095E+04  0.00000000000E+00 0.  1.
         21   -1    0    0  502  503 -0.00000000000E+00 -0.00000000000E+00 -0.45762090493E+02  0.45762090493E+02  0.00000000000E+00 0. -1.
          6    1    1    2  501    0  0.12617989830E+03  0.14355345362E+03  0.69462269899E+03  0.74091744125E+03  0.17300000000E+03 0.  1.
         -6    1    1    2    0  503 -0.12617989830E+03 -0.14355345362E+03  0.71206122002E+03  0.75729065875E+03  0.17300000000E+03 0.  1.
<mgrwt>
<rscale>  2 0.25779442E+03</rscale>
<asrwt>0</asrwt>
<pdfrwt beam="1">  1       21 0.22345320E+00 0.25779442E+03</pdfrwt>
<pdfrwt beam="2">  1       21 0.70403228E-02 0.25779442E+03</pdfrwt>
<totfact> 0.13663548E+04</totfact>
</mgrwt>
</event>
<event>
 4    1  0.8126752E-001  0.2705368E+03  0.7546771E-02  0.1100973E+00
         21   -1    0    0  503  502  0.00000000000E+00  0.00000000000E+00  0.17827708943E+03  0.17827708943E+03  0.00000000000E+00 0.  1.
         21   -1    0    0  501  503 -0.00000000000E+00 -0.00000000000E+00 -0.46275258954E+03  0.46275258954E+03  0.00000000000E+00 0. -1.
          6    1    1    2  501    0  0.12658713455E+03 -0.16503599042E+03 -0.24989771310E+03  0.36829206858E+03  0.17300000000E+03 0. -1.
         -6    1    1    2    0  502 -0.12658713455E+03  0.16503599042E+03 -0.34577787012E+02  0.27273761039E+03  0.17300000000E+03 0.  1.
<mgrwt>
<rscale>  2 0.27053684E+03</rscale>
<asrwt>0</asrwt>
<pdfrwt beam="1">  1       21 0.27427245E-01 0.27053684E+03</pdfrwt>
<pdfrwt beam="2">  1       21 0.71192706E-01 0.27053684E+03</pdfrwt>
<totfact> 0.21739642E+04</totfact>
</mgrwt>
</event>
<event>
 4    1  0.8126752E-001  0.2576148E+03  0.7546771E-02  0.1108585E+00
         21   -1    0    0  501  502  0.00000000000E+00  0.00000000000E+00  0.19615170286E+03  0.19615170286E+03  0.00000000000E+00 0.  1.
         21   -1    0    0  502  503 -0.00000000000E+00 -0.00000000000E+00 -0.41467137690E+03  0.41467137690E+03  0.00000000000E+00 0. -1.
          6    1    1    2  501    0  0.18208479968E+03 -0.57284303592E+02  0.21777085211E+02  0.25853357065E+03  0.17300000000E+03 0.  1.
         -6    1    1    2    0  503 -0.18208479968E+03  0.57284303592E+02 -0.24029675926E+03  0.35228950910E+03  0.17300000000E+03 0. -1.
<mgrwt>
<rscale>  2 0.25761476E+03</rscale>
<asrwt>0</asrwt>
<pdfrwt beam="1">  1       21 0.30177185E-01 0.25761476E+03</pdfrwt>
<pdfrwt beam="2">  1       21 0.63795596E-01 0.25761476E+03</pdfrwt>
<totfact> 0.23113769E+04</totfact>
</mgrwt>
</event>
<event>
 4    1  0.8126752E-001  0.2975953E+03  0.7546771E-02  0.1086449E+00
         21   -1    0    0  503  502  0.00000000000E+00  0.00000000000E+00  0.54464582696E+03  0.54464582696E+03  0.00000000000E+00 0. -1.
         21   -1    0    0  501  503 -0.00000000000E+00 -0.00000000000E+00 -0.16888265287E+03  0.16888265287E+03  0.00000000000E+00 0.  1.
          6    1    1    2  501    0 -0.23964787388E+03  0.34682558177E+02  0.25665705312E+03  0.39298323910E+03  0.17300000000E+03 0. -1.
         -6    1    1    2    0  502  0.23964787388E+03 -0.34682558177E+02  0.11910612097E+03  0.32054524072E+03  0.17300000000E+03 0.  1.
<mgrwt>
<rscale>  2 0.29759533E+03</rscale>
<asrwt>0</asrwt>
<pdfrwt beam="1">  1       21 0.83791665E-01 0.29759533E+03</pdfrwt>
<pdfrwt beam="2">  1       21 0.25981947E-01 0.29759533E+03</pdfrwt>
<totfact> 0.16491887E+04</totfact>
</mgrwt>
</event>
<event>
 4    1  0.8126752E-001  0.2053796E+03  0.7546771E-02  0.1145278E+00
         21   -1    0    0  501  502  0.00000000000E+00  0.00000000000E+00  0.15537431957E+03  0.15537431957E+03  0.00000000000E+00 0.  1.
         21   -1    0    0  502  503 -0.00000000000E+00 -0.00000000000E+00 -0.34725829464E+03  0.34725829464E+03  0.00000000000E+00 0.  1.
          6    1    1    2  501    0 -0.97917116807E+01  0.11025381379E+03  0.21458846093E+02  0.20649761051E+03  0.17300000000E+03 0.  1.
         -6    1    1    2    0  503  0.97917116807E+01 -0.11025381379E+03 -0.21334282116E+03  0.29613500369E+03  0.17300000000E+03 0.  1.
<mgrwt>
<rscale>  2 0.20537960E+03</rscale>
<asrwt>0</asrwt>
<pdfrwt beam="1">  1       21 0.23903742E-01 0.20537960E+03</pdfrwt>
<pdfrwt beam="2">  1       21 0.53424353E-01 0.20537960E+03</pdfrwt>
<totfact> 0.54382077E+04</totfact>
</mgrwt>
</event>
<event>
 4    1  0.8126752E-001  0.2690598E+03  0.7546771E-02  0.1101819E+00
         21   -1    0    0  503  502  0.00000000000E+00  0.00000000000E+00  0.30942468450E+03  0.30942468450E+03  0.00000000000E+00 0. -1.
         21   -1    0    0  501  503 -0.00000000000E+00 -0.00000000000E+00 -0.29873529482E+03  0.29873529482E+03  0.00000000000E+00 0.  1.
          6    1    1    2  501    0  0.90608431483E+02  0.18507912536E+03 -0.13625014180E+03  0.30159123270E+03  0.17300000000E+03 0.  1.
         -6    1    1    2    0  502 -0.90608431483E+02 -0.18507912536E+03  0.14693953148E+03  0.30656874663E+03  0.17300000000E+03 0. -1.
<mgrwt>
<rscale>  2 0.26905979E+03</rscale>
<asrwt>0</asrwt>
<pdfrwt beam="1">  1       21 0.47603798E-01 0.26905979E+03</pdfrwt>
<pdfrwt beam="2">  1       21 0.45959276E-01 0.26905979E+03</pdfrwt>
<totfact> 0.18383616E+04</totfact>
</mgrwt>
</event>
<event>
 4    1  0.8126752E-001  0.1736637E+03  0.7546771E-02  0.1174080E+00
         21   -1    0    0  501  502  0.00000000000E+00  0.00000000000E+00  0.61792153971E+02  0.61792153971E+02  0.00000000000E+00 0.  1.
         21   -1    0    0  502  503 -0.00000000000E+00 -0.00000000000E+00 -0.48840583632E+03  0.48840583632E+03  0.00000000000E+00 0.  1.
          6    1    1    2  501    0  0.15072097048E+02 -0.17029509439E+01 -0.22049073220E+03  0.28066925577E+03  0.17300000000E+03 0.  1.
         -6    1    1    2    0  503 -0.15072097048E+02  0.17029509439E+01 -0.20612295015E+03  0.26952873452E+03  0.17300000000E+03 0.  1.
<mgrwt>
<rscale>  2 0.17366366E+03</rscale>
<asrwt>0</asrwt>
<pdfrwt beam="1">  1       21 0.95064853E-02 0.17366366E+03</pdfrwt>
<pdfrwt beam="2">  1       21 0.75139359E-01 0.17366366E+03</pdfrwt>
<totfact> 0.14141508E+05</totfact>
</mgrwt>
</event>
<event>
 4    1  0.8126752E-001  0.1787503E+03  0.7546771E-02  0.1169018E+00
         21   -1    0    0  503  502  0.00000000000E+00  0.00000000000E+00  0.18739227765E+03  0.18739227765E+03  0.00000000000E+00 0. -1.
         21   -1    0    0  501  503 -0.00000000000E+00 -0.00000000000E+00 -0.22536618832E+03  0.22536618832E+03  0.00000000000E+00 0. -1.
          6    1    1    2  501    0 -0.89734880300E+01 -0.44069782799E+02 -0.12081018055E+03  0.21574700222E+03  0.17300000000E+03 0. -1.
         -6    1    1    2    0  502  0.89734880300E+01  0.44069782799E+02  0.82836269878E+02  0.19701146375E+03  0.17300000000E+03 0. -1.
<mgrwt>
<rscale>  2 0.17875030E+03</rscale>
<asrwt>0</asrwt>
<pdfrwt beam="1">  1       21 0.28829581E-01 0.17875030E+03</pdfrwt>
<pdfrwt beam="2">  1       21 0.34671721E-01 0.17875030E+03</pdfrwt>
<totfact> 0.92811698E+04</totfact>
</mgrwt>
</event>
<event>
 4    1  0.8126752E-001  0.2131981E+03  0.7546771E-02  0.1139058E+00
         21   -1    0    0  503  502  0.00000000000E+00  0.00000000000E+00  0.25826613759E+02  0.25826613759E+02  0.00000000000E+00 0. -1.
         21   -1    0    0  501  503 -0.00000000000E+00 -0.00000000000E+00 -0.19492461662E+04  0.19492461662E+04  0.00000000000E+00 0. -1.
          6    1    1    2  501    0  0.10019501131E+03  0.74063336757E+02 -0.12694586553E+04  0.12872368452E+04  0.17300000000E+03 0. -1.
         -6    1    1    2    0  502 -0.10019501131E+03 -0.74063336757E+02 -0.65396089711E+03  0.68783593472E+03  0.17300000000E+03 0. -1.
<mgrwt>
<rscale>  2 0.21319807E+03</rscale>
<asrwt>0</asrwt>
<pdfrwt beam="1">  1       21 0.39733241E-02 0.21319807E+03</pdfrwt>
<pdfrwt beam="2">  1       21 0.29988411E+00 0.21319807E+03</pdfrwt>
<totfact> 0.13271502E+04</totfact>
</mgrwt>
</event>
<event>
 4    1  0.8126752E-001  0.2233328E+03  0.7546771E-02  0.1131422E+00
         21   -1    0    0  503  502  0.00000000000E+00  0.00000000000E+00  0.83224483214E+03  0.83224483214E+03  0.00000000000E+00 0.  1.
         21   -1    0    0  501  503 -0.00000000000E+00 -0.00000000000E+00 -0.61890977283E+02  0.61890977283E+02  0.00000000000E+00 0. -1.
          6    1    1    2  501    0  0.11944748384E+03 -0.75371292377E+02  0.30562519323E+03  0.37852911625E+03  0.17300000000E+03 0. -1.
         -6    1    1    2    0  502 -0.11944748384E+03  0.75371292377E+02  0.46472866162E+03  0.51560669317E+03  0.17300000000E+03 0.  1.
<mgrwt>
<rscale>  2 0.22333279E+03</rscale>
<asrwt>0</asrwt>
<pdfrwt beam="1">  1       21 0.12803766E+00 0.22333279E+03</pdfrwt>
<pdfrwt beam="2">  1       21 0.95216894E-02 0.22333279E+03</pdfrwt>
<totfact> 0.39073055E+04</totfact>
</mgrwt>
</event>
<event>
 4    1  0.8126752E-001  0.2071014E+03  0.7546771E-02  0.1143882E+00
         21   -1    0    0  503  502  0.00000000000E+00  0.00000000000E+00  0.14022657038E+03  0.14022657038E+03  0.00000000000E+00 0.  1.
         21   -1    0    0  501  503 -0.00000000000E+00 -0.00000000000E+00 -0.30683195195E+03  0.30683195195E+03  0.00000000000E+00 0.  1.
          6    1    1    2  501    0  0.10087784908E+03  0.52779331991E+02 -0.95823319674E+02  0.22819532623E+03  0.17300000000E+03 0.  1.
         -6    1    1    2    0  502 -0.10087784908E+03 -0.52779331991E+02 -0.70782061899E+02  0.21886319610E+03  0.17300000000E+03 0.  1.
<mgrwt>
<rscale>  2 0.20710142E+03</rscale>
<asrwt>0</asrwt>
<pdfrwt beam="1">  1       21 0.21573319E-01 0.20710142E+03</pdfrwt>
<pdfrwt beam="2">  1       21 0.47204915E-01 0.20710142E+03</pdfrwt>
<totfact> 0.85475997E+04</totfact>
</mgrwt>
</event>
<event>
 4    1  0.8126752E-001  0.2079563E+03  0.7546771E-02  0.1143195E+00
         21   -1    0    0  503  502  0.00000000000E+00  0.00000000000E+00  0.80785295353E+02  0.80785295353E+02  0.00000000000E+00 0. -1.
         21   -1    0    0  501  503 -0.00000000000E+00 -0.00000000000E+00 -0.59986024819E+03  0.59986024819E+03  0.00000000000E+00 0. -1.
          6    1    1    2  501    0  0.10643653575E+03  0.44588047875E+02 -0.37116921892E+03  0.42545554319E+03  0.17300000000E+03 0. -1.
         -6    1    1    2    0  502 -0.10643653575E+03 -0.44588047875E+02 -0.14790573392E+03  0.25519000036E+03  0.17300000000E+03 0. -1.
<mgrwt>
<rscale>  2 0.20795632E+03</rscale>
<asrwt>0</asrwt>
<pdfrwt beam="1">  1       21 0.12428508E-01 0.20795632E+03</pdfrwt>
<pdfrwt beam="2">  1       21 0.92286188E-01 0.20795632E+03</pdfrwt>
<totfact> 0.54208842E+04</totfact>
</mgrwt>
</event>
<event>
 4    1  0.8126752E-001  0.2401293E+03  0.7546771E-02  0.1119707E+00
         21   -1    0    0  501  502  0.00000000000E+00  0.00000000000E+00  0.65077423239E+03  0.65077423239E+03  0.00000000000E+00 0.  1.
         21   -1    0    0  502  503 -0.00000000000E+00 -0.00000000000E+00 -0.19043835895E+03  0.19043835895E+03  0.00000000000E+00 0. -1.
          6    1    1    2  501    0  0.12742974671E+03  0.10721358666E+03  0.53773710144E+03  0.58891704321E+03  0.17300000000E+03 0.  1.
         -6    1    1    2    0  503 -0.12742974671E+03 -0.10721358666E+03 -0.77401228001E+02  0.25229554813E+03  0.17300000000E+03 0. -1.
<mgrwt>
<rscale>  2 0.24012933E+03</rscale>
<asrwt>0</asrwt>
<pdfrwt beam="1">  1       21 0.10011911E+00 0.24012933E+03</pdfrwt>
<pdfrwt beam="2">  1       21 0.29298209E-01 0.24012933E+03</pdfrwt>
<totfact> 0.88506224E+03</totfact>
</mgrwt>
</event>
<event>
 4    1  0.8126752E-001  0.1908999E+03  0.7546771E-02  0.1157652E+00
         21   -1    0    0  501  502  0.00000000000E+00  0.00000000000E+00  0.95660225764E+03  0.95660225764E+03  0.00000000000E+00 0.  1.
         21   -1    0    0  502  503 -0.00000000000E+00 -0.00000000000E+00 -0.50778375313E+02  0.50778375313E+02  0.00000000000E+00 0.  1.
          6    1    1    2  501    0 -0.22095778101E+02 -0.77624298481E+02  0.20118838074E+03  0.27734368511E+03  0.17300000000E+03 0. -1.
         -6    1    1    2    0  503  0.22095778101E+02  0.77624298481E+02  0.70463550158E+03  0.73003694784E+03  0.17300000000E+03 0. -1.
<mgrwt>
<rscale>  2 0.19089986E+03</rscale>
<asrwt>0</asrwt>
<pdfrwt beam="1">  1       21 0.14716956E+00 0.19089986E+03</pdfrwt>
<pdfrwt beam="2">  1       21 0.78120584E-02 0.19089986E+03</pdfrwt>
<totfact> 0.39341423E+04</totfact>
</mgrwt>
</event>
<event>
 4    1  0.8126752E-001  0.1801158E+03  0.7546771E-02  0.1167691E+00
         21   -1    0    0  503  502  0.00000000000E+00  0.00000000000E+00  0.57499978814E+02  0.57499978814E+02  0.00000000000E+00 0. -1.
         21   -1    0    0  501  503 -0.00000000000E+00 -0.00000000000E+00 -0.59533657140E+03  0.59533657140E+03  0.00000000000E+00 0. -1.
          6    1    1    2  501    0  0.46379126490E+02 -0.19017887224E+02 -0.34356359437E+03  0.38791448386E+03  0.17300000000E+03 0. -1.
         -6    1    1    2    0  502 -0.46379126490E+02  0.19017887224E+02 -0.19427299822E+03  0.26492206636E+03  0.17300000000E+03 0. -1.
<mgrwt>
<rscale>  2 0.18011581E+03</rscale>
<asrwt>0</asrwt>
<pdfrwt beam="1">  1       21 0.88461501E-02 0.18011581E+03</pdfrwt>
<pdfrwt beam="2">  1       21 0.91590246E-01 0.18011581E+03</pdfrwt>
<totfact> 0.10207506E+05</totfact>
</mgrwt>
</event>
<event>
 4    1  0.8126752E-001  0.2050206E+03  0.7546771E-02  0.1145571E+00
         21   -1    0    0  503  502  0.00000000000E+00  0.00000000000E+00  0.33117860372E+03  0.33117860372E+03  0.00000000000E+00 0. -1.
         21   -1    0    0  501  503 -0.00000000000E+00 -0.00000000000E+00 -0.13949727808E+03  0.13949727808E+03  0.00000000000E+00 0. -1.
          6    1    1    2  501    0 -0.10654115495E+03  0.27448843293E+02  0.25178255996E+02  0.20656088999E+03  0.17300000000E+03 0. -1.
         -6    1    1    2    0  502  0.10654115495E+03 -0.27448843293E+02  0.16650306965E+03  0.26411499181E+03  0.17300000000E+03 0. -1.
<mgrwt>
<rscale>  2 0.20502063E+03</rscale>
<asrwt>0</asrwt>
<pdfrwt beam="1">  1       21 0.50950554E-01 0.20502063E+03</pdfrwt>
<pdfrwt beam="2">  1       21 0.21461120E-01 0.20502063E+03</pdfrwt>
<totfact> 0.73693260E+04</totfact>
</mgrwt>
</event>
<event>
 4    1  0.8126752E-001  0.1754976E+03  0.7546771E-02  0.1172233E+00
         21   -1    0    0  503  502  0.00000000000E+00  0.00000000000E+00  0.15008587233E+03  0.15008587233E+03  0.00000000000E+00 0.  1.
         21   -1    0    0  501  503 -0.00000000000E+00 -0.00000000000E+00 -0.20529230538E+03  0.20529230538E+03  0.00000000000E+00 0.  1.
          6    1    1    2  501    0  0.13224816582E+02  0.26372580122E+02 -0.24086917333E+02  0.17714284728E+03  0.17300000000E+03 0. -1.
         -6    1    1    2    0  502 -0.13224816582E+02 -0.26372580122E+02 -0.31119515718E+02  0.17823533043E+03  0.17300000000E+03 0. -1.
<mgrwt>
<rscale>  2 0.17549760E+03</rscale>
<asrwt>0</asrwt>
<pdfrwt beam="1">  1       21 0.23090134E-01 0.17549760E+03</pdfrwt>
<pdfrwt beam="2">  1       21 0.31583432E-01 0.17549760E+03</pdfrwt>
<totfact> 0.17067120E+05</totfact>
</mgrwt>
</event>
<event>
 4    1  0.8126752E-001  0.2668716E+03  0.7546771E-02  0.1103084E+00
         21   -1    0    0  501  502  0.00000000000E+00  0.00000000000E+00  0.65950851298E+03  0.65950851298E+03  0.00000000000E+00 0. -1.
         21   -1    0    0  502  503 -0.00000000000E+00 -0.00000000000E+00 -0.10832436013E+03  0.10832436013E+03  0.00000000000E+00 0.  1.
          6    1    1    2  501    0  0.45195953411E+02  0.19811301388E+03  0.29691596807E+03  0.39922366234E+03  0.17300000000E+03 0. -1.
         -6    1    1    2    0  503 -0.45195953411E+02 -0.19811301388E+03  0.25426818478E+03  0.36860921077E+03  0.17300000000E+03 0.  1.
<mgrwt>
<rscale>  2 0.26687158E+03</rscale>
<asrwt>0</asrwt>
<pdfrwt beam="1">  1       21 0.10146285E+00 0.26687158E+03</pdfrwt>
<pdfrwt beam="2">  1       21 0.16665287E-01 0.26687158E+03</pdfrwt>
<totfact> 0.24683464E+04</totfact>
</mgrwt>
</event>
<event>
 4    1  0.8126752E-001  0.2052762E+03  0.7546771E-02  0.1145362E+00
         21   -1    0    0  501  502  0.00000000000E+00  0.00000000000E+00  0.22732991351E+03  0.22732991351E+03  0.00000000000E+00 0. -1.
         21   -1    0    0  502  503 -0.00000000000E+00 -0.00000000000E+00 -0.24009652615E+03  0.24009652615E+03  0.00000000000E+00 0.  1.
          6    1    1    2  501    0  0.11492872662E+02  0.10989642412E+03  0.10520567761E+03  0.23066543902E+03  0.17300000000E+03 0. -1.
         -6    1    1    2    0  503 -0.11492872662E+02 -0.10989642412E+03 -0.11797229025E+03  0.23676100064E+03  0.17300000000E+03 0.  1.
<mgrwt>
<rscale>  2 0.20527618E+03</rscale>
<asrwt>0</asrwt>
<pdfrwt beam="1">  1       21 0.34973833E-01 0.20527618E+03</pdfrwt>
<pdfrwt beam="2">  1       21 0.36937927E-01 0.20527618E+03</pdfrwt>
<totfact> 0.55375704E+04</totfact>
</mgrwt>
</event>
<event>
 4    1  0.8126752E-001  0.2026103E+03  0.7546771E-02  0.1147555E+00
         21   -1    0    0  501  502  0.00000000000E+00  0.00000000000E+00  0.21531561402E+02  0.21531561402E+02  0.00000000000E+00 0.  1.
         21   -1    0    0  502  503 -0.00000000000E+00 -0.00000000000E+00 -0.21148168944E+04  0.21148168944E+04  0.00000000000E+00 0.  1.
          6    1    1    2  501    0 -0.94499089392E+02 -0.46817259578E+02 -0.71143112484E+03  0.73971966250E+03  0.17300000000E+03 0.  1.
         -6    1    1    2    0  503  0.94499089392E+02  0.46817259578E+02 -0.13818542082E+04  0.13966287933E+04  0.17300000000E+03 0.  1.
<mgrwt>
<rscale>  2 0.20261030E+03</rscale>
<asrwt>0</asrwt>
<pdfrwt beam="1">  1       21 0.33125468E-02 0.20261030E+03</pdfrwt>
<pdfrwt beam="2">  1       21 0.32535655E+00 0.20261030E+03</pdfrwt>
<totfact> 0.12940742E+04</totfact>
</mgrwt>
</event>
<event>
 4    1  0.8126752E-001  0.2102748E+03  0.7546771E-02  0.1141349E+00
         21   -1    0    0  501  502  0.00000000000E+00  0.00000000000E+00  0.28074621215E+04  0.28074621215E+04  0.00000000000E+00 0.  1.
         21   -1    0    0  502  503 -0.00000000000E+00 -0.00000000000E+00 -0.29881188880E+02  0.29881188880E+02  0.00000000000E+00 0.  1.
          6    1    1    2  501    0  0.40640222690E+02 -0.11240495111E+03  0.23644165529E+04  0.23737483305E+04  0.17300000000E+03 0.  1.
         -6    1    1    2    0  503 -0.40640222690E+02  0.11240495111E+03  0.41316437968E+03  0.46359497988E+03  0.17300000000E+03 0.  1.
<mgrwt>
<rscale>  2 0.21027482E+03</rscale>
<asrwt>0</asrwt>
<pdfrwt beam="1">  1       21 0.43191704E+00 0.21027482E+03</pdfrwt>
<pdfrwt beam="2">  1       21 0.45971082E-02 0.21027482E+03</pdfrwt>
<totfact> 0.16518116E+03</totfact>
</mgrwt>
</event>
<event>
 4    1  0.8126752E-001  0.1999168E+03  0.7546771E-02  0.1149809E+00
         21   -1    0    0  503  502  0.00000000000E+00  0.00000000000E+00  0.29989102381E+02  0.29989102381E+02  0.00000000000E+00 0. -1.
         21   -1    0    0  501  503 -0.00000000000E+00 -0.00000000000E+00 -0.14019085202E+04  0.14019085202E+04  0.00000000000E+00 0. -1.
          6    1    1    2  501    0 -0.55876235439E+02 -0.83159819145E+02 -0.84502579450E+03  0.86835206143E+03  0.17300000000E+03 0. -1.
         -6    1    1    2    0  502  0.55876235439E+02  0.83159819145E+02 -0.52689362332E+03  0.56354556116E+03  0.17300000000E+03 0. -1.
<mgrwt>
<rscale>  2 0.19991676E+03</rscale>
<asrwt>0</asrwt>
<pdfrwt beam="1">  1       21 0.46137087E-02 0.19991676E+03</pdfrwt>
<pdfrwt beam="2">  1       21 0.21567820E+00 0.19991676E+03</pdfrwt>
<totfact> 0.32789038E+04</totfact>
</mgrwt>
</event>
<event>
 4    1  0.8126752E-001  0.2244600E+03  0.7546771E-02  0.1130601E+00
         21   -1    0    0  501  502  0.00000000000E+00  0.00000000000E+00  0.15240475738E+03  0.15240475738E+03  0.00000000000E+00 0.  1.
         21   -1    0    0  502  503 -0.00000000000E+00 -0.00000000000E+00 -0.36153844327E+03  0.36153844327E+03  0.00000000000E+00 0.  1.
          6    1    1    2  501    0 -0.13867734971E+03  0.34955499779E+02 -0.17976068487E+03  0.28756946658E+03  0.17300000000E+03 0.  1.
         -6    1    1    2    0  503  0.13867734971E+03 -0.34955499779E+02 -0.29373001031E+02  0.22637373407E+03  0.17300000000E+03 0.  1.
<mgrwt>
<rscale>  2 0.22446001E+03</rscale>
<asrwt>0</asrwt>
<pdfrwt beam="1">  1       21 0.23446886E-01 0.22446001E+03</pdfrwt>
<pdfrwt beam="2">  1       21 0.55621298E-01 0.22446001E+03</pdfrwt>
<totfact> 0.51353003E+04</totfact>
</mgrwt>
</event>
<event>
 4    1  0.8126752E-001  0.1778480E+03  0.7546771E-02  0.1169902E+00
         21   -1    0    0  501  502  0.00000000000E+00  0.00000000000E+00  0.47358448882E+03  0.47358448882E+03  0.00000000000E+00 0. -1.
         21   -1    0    0  502  503 -0.00000000000E+00 -0.00000000000E+00 -0.92529143413E+02  0.92529143413E+02  0.00000000000E+00 0. -1.
          6    1    1    2  501    0  0.30710678513E+02 -0.27527216308E+02  0.33982289235E+03  0.38354855179E+03  0.17300000000E+03 0. -1.
         -6    1    1    2    0  503 -0.30710678513E+02  0.27527216308E+02  0.41232453053E+02  0.18256508044E+03  0.17300000000E+03 0. -1.
<mgrwt>
<rscale>  2 0.17784795E+03</rscale>
<asrwt>0</asrwt>
<pdfrwt beam="1">  1       21 0.72859151E-01 0.17784795E+03</pdfrwt>
<pdfrwt beam="2">  1       21 0.14235253E-01 0.17784795E+03</pdfrwt>
<totfact> 0.73628993E+04</totfact>
</mgrwt>
</event>
<event>
 4    1  0.8126752E-001  0.4470188E+03  0.7546771E-02  0.1028615E+00
         21   -1    0    0  501  502  0.00000000000E+00  0.00000000000E+00  0.44657783438E+03  0.44657783438E+03  0.00000000000E+00 0.  1.
         21   -1    0    0  502  503 -0.00000000000E+00 -0.00000000000E+00 -0.46510058743E+03  0.46510058743E+03  0.00000000000E+00 0. -1.
          6    1    1    2  501    0 -0.37491564399E+03 -0.17127476004E+03  0.79514086249E+02  0.45403554205E+03  0.17300000000E+03 0.  1.
         -6    1    1    2    0  503  0.37491564399E+03  0.17127476004E+03 -0.98036839297E+02  0.45764287976E+03  0.17300000000E+03 0. -1.
<mgrwt>
<rscale>  2 0.44701877E+03</rscale>
<asrwt>0</asrwt>
<pdfrwt beam="1">  1       21 0.68704283E-01 0.44701877E+03</pdfrwt>
<pdfrwt beam="2">  1       21 0.71553936E-01 0.44701877E+03</pdfrwt>
<totfact> 0.29705308E+03</totfact>
</mgrwt>
</event>
<event>
 4    1  0.8126752E-001  0.1892797E+03  0.7546771E-02  0.1159113E+00
         21   -1    0    0  503  502  0.00000000000E+00  0.00000000000E+00  0.54664018438E+02  0.54664018438E+02  0.00000000000E+00 0.  1.
         21   -1    0    0  501  503 -0.00000000000E+00 -0.00000000000E+00 -0.70144063770E+03  0.70144063770E+03  0.00000000000E+00 0.  1.
          6    1    1    2  501    0  0.18233227665E+01 -0.76775552551E+02 -0.42024420495E+03  0.46090346252E+03  0.17300000000E+03 0.  1.
         -6    1    1    2    0  502 -0.18233227665E+01  0.76775552551E+02 -0.22653241431E+03  0.29520119361E+03  0.17300000000E+03 0.  1.
<mgrwt>
<rscale>  2 0.18927971E+03</rscale>
<asrwt>0</asrwt>
<pdfrwt beam="1">  1       21 0.84098488E-02 0.18927971E+03</pdfrwt>
<pdfrwt beam="2">  1       21 0.10791395E+00 0.18927971E+03</pdfrwt>
<totfact> 0.75353491E+04</totfact>
</mgrwt>
</event>
<event>
 4    1  0.8126752E-001  0.1855338E+03  0.7546771E-02  0.1162552E+00
         21   -1    0    0  501  502  0.00000000000E+00  0.00000000000E+00  0.10350357661E+03  0.10350357661E+03  0.00000000000E+00 0. -1.
         21   -1    0    0  502  503 -0.00000000000E+00 -0.00000000000E+00 -0.47449757356E+03  0.47449757356E+03  0.00000000000E+00 0. -1.
          6    1    1    2  501    0  0.13095177650E+02 -0.65744391505E+02 -0.27442860453E+02  0.18755244408E+03  0.17300000000E+03 0. -1.
         -6    1    1    2    0  503 -0.13095177650E+02  0.65744391505E+02 -0.34355113650E+03  0.39044870608E+03  0.17300000000E+03 0. -1.
<mgrwt>
<rscale>  2 0.18553385E+03</rscale>
<asrwt>0</asrwt>
<pdfrwt beam="1">  1       21 0.15923627E-01 0.18553385E+03</pdfrwt>
<pdfrwt beam="2">  1       21 0.72999627E-01 0.18553385E+03</pdfrwt>
<totfact> 0.59588245E+04</totfact>
</mgrwt>
</event>
<event>
 4    1  0.8126752E-001  0.2486439E+03  0.7546771E-02  0.1114165E+00
         21   -1    0    0  501  502  0.00000000000E+00  0.00000000000E+00  0.44908545705E+03  0.44908545705E+03  0.00000000000E+00 0. -1.
         21   -1    0    0  502  503 -0.00000000000E+00 -0.00000000000E+00 -0.14235727855E+03  0.14235727855E+03  0.00000000000E+00 0.  1.
          6    1    1    2  501    0 -0.38468902471E+02  0.17439881421E+03  0.99680934147E+02  0.26788074116E+03  0.17300000000E+03 0.  1.
         -6    1    1    2    0  503  0.38468902471E+02 -0.17439881421E+03  0.20704724435E+03  0.32356199444E+03  0.17300000000E+03 0.  1.
<mgrwt>
<rscale>  2 0.24864393E+03</rscale>
<asrwt>0</asrwt>
<pdfrwt beam="1">  1       21 0.69090070E-01 0.24864393E+03</pdfrwt>
<pdfrwt beam="2">  1       21 0.21901120E-01 0.24864393E+03</pdfrwt>
<totfact> 0.36128818E+04</totfact>
</mgrwt>
</event>
<event>
 4    1  0.8126752E-001  0.2281099E+03  0.7546771E-02  0.1127977E+00
         21   -1    0    0  501  502  0.00000000000E+00  0.00000000000E+00  0.12253691246E+03  0.12253691246E+03  0.00000000000E+00 0. -1.
         21   -1    0    0  502  503 -0.00000000000E+00 -0.00000000000E+00 -0.45827300307E+03  0.45827300307E+03  0.00000000000E+00 0.  1.
          6    1    1    2  501    0  0.14821712508E+03 -0.11697156907E+02 -0.89195847896E+02  0.24492864048E+03  0.17300000000E+03 0. -1.
         -6    1    1    2    0  503 -0.14821712508E+03  0.11697156907E+02 -0.24654024272E+03  0.33588127505E+03  0.17300000000E+03 0.  1.
<mgrwt>
<rscale>  2 0.22810993E+03</rscale>
<asrwt>0</asrwt>
<pdfrwt beam="1">  1       21 0.18851832E-01 0.22810993E+03</pdfrwt>
<pdfrwt beam="2">  1       21 0.70503540E-01 0.22810993E+03</pdfrwt>
<totfact> 0.46205373E+04</totfact>
</mgrwt>
</event>
<event>
 4    1  0.8126752E-001  0.2031417E+03  0.7546771E-02  0.1147115E+00
         21   -1    0    0  501  502  0.00000000000E+00  0.00000000000E+00  0.41687201969E+03  0.41687201969E+03  0.00000000000E+00 0.  1.
         21   -1    0    0  502  503 -0.00000000000E+00 -0.00000000000E+00 -0.99201834727E+02  0.99201834727E+02  0.00000000000E+00 0.  1.
          6    1    1    2  501    0  0.83468234948E+02 -0.66110583155E+02  0.17073240961E+03  0.26536034207E+03  0.17300000000E+03 0.  1.
         -6    1    1    2    0  503 -0.83468234948E+02  0.66110583155E+02  0.14693777536E+03  0.25071351235E+03  0.17300000000E+03 0.  1.
<mgrwt>
<rscale>  2 0.20314171E+03</rscale>
<asrwt>0</asrwt>
<pdfrwt beam="1">  1       21 0.64134156E-01 0.20314171E+03</pdfrwt>
<pdfrwt beam="2">  1       21 0.15261821E-01 0.20314171E+03</pdfrwt>
<totfact> 0.84911068E+04</totfact>
</mgrwt>
</event>
<event>
 4    1  0.8126752E-001  0.1829457E+03  0.7546771E-02  0.1164982E+00
         21   -1    0    0  503  502  0.00000000000E+00  0.00000000000E+00  0.49832414332E+03  0.49832414332E+03  0.00000000000E+00 0. -1.
         21   -1    0    0  501  503 -0.00000000000E+00 -0.00000000000E+00 -0.73085635571E+02  0.73085635571E+02  0.00000000000E+00 0. -1.
          6    1    1    2  501    0 -0.41956048297E+02  0.42188046650E+02  0.13129039442E+03  0.22518061403E+03  0.17300000000E+03 0.  1.
         -6    1    1    2    0  502  0.41956048297E+02 -0.42188046650E+02  0.29394811333E+03  0.34622916486E+03  0.17300000000E+03 0.  1.
<mgrwt>
<rscale>  2 0.18294573E+03</rscale>
<asrwt>0</asrwt>
<pdfrwt beam="1">  1       21 0.76665251E-01 0.18294573E+03</pdfrwt>
<pdfrwt beam="2">  1       21 0.11243944E-01 0.18294573E+03</pdfrwt>
<totfact> 0.10014616E+05</totfact>
</mgrwt>
</event>
<event>
 4    1  0.8126752E-001  0.1848864E+03  0.7546771E-02  0.1163156E+00
         21   -1    0    0  503  502  0.00000000000E+00  0.00000000000E+00  0.12413419069E+03  0.12413419069E+03  0.00000000000E+00 0.  1.
         21   -1    0    0  501  503 -0.00000000000E+00 -0.00000000000E+00 -0.29820545443E+03  0.29820545443E+03  0.00000000000E+00 0.  1.
          6    1    1    2  501    0 -0.29019270118E+02 -0.58411220636E+02 -0.14546980365E+03  0.23525401699E+03  0.17300000000E+03 0.  1.
         -6    1    1    2    0  502  0.29019270118E+02  0.58411220636E+02 -0.28601460088E+02  0.18708562813E+03  0.17300000000E+03 0.  1.
<mgrwt>
<rscale>  2 0.18488642E+03</rscale>
<asrwt>0</asrwt>
<pdfrwt beam="1">  1       21 0.19097568E-01 0.18488642E+03</pdfrwt>
<pdfrwt beam="2">  1       21 0.45877762E-01 0.18488642E+03</pdfrwt>
<totfact> 0.11488858E+05</totfact>
</mgrwt>
</event>
<event>
 4    1  0.8126752E-001  0.1757397E+03  0.7546771E-02  0.1171991E+00
         21   -1    0    0  503  502  0.00000000000E+00  0.00000000000E+00  0.11229084802E+04  0.11229084802E+04  0.00000000000E+00 0. -1.
         21   -1    0    0  501  503 -0.00000000000E+00 -0.00000000000E+00 -0.31204668442E+02  0.31204668442E+02  0.00000000000E+00 0. -1.
          6    1    1    2  501    0 -0.25304968652E+02  0.17751562952E+02  0.34712828086E+03  0.38907904441E+03  0.17300000000E+03 0. -1.
         -6    1    1    2    0  502  0.25304968652E+02 -0.17751562952E+02  0.74457553089E+03  0.76503410422E+03  0.17300000000E+03 0. -1.
<mgrwt>
<rscale>  2 0.17573975E+03</rscale>
<asrwt>0</asrwt>
<pdfrwt beam="1">  1       21 0.17275512E+00 0.17573975E+03</pdfrwt>
<pdfrwt beam="2">  1       21 0.48007191E-02 0.17573975E+03</pdfrwt>
<totfact> 0.59408611E+04</totfact>
</mgrwt>
</event>
<event>
 4    1  0.8126752E-001  0.1746954E+03  0.7546771E-02  0.1173038E+00
         21   -1    0    0  501  502  0.00000000000E+00  0.00000000000E+00  0.28874226705E+02  0.28874226705E+02  0.00000000000E+00 0.  1.
         21   -1    0    0  502  503 -0.00000000000E+00 -0.00000000000E+00 -0.11204997266E+04  0.11204997266E+04  0.00000000000E+00 0.  1.
          6    1    1    2  501    0  0.24087149112E+02  0.30507944088E+01 -0.40894660764E+03  0.44469745445E+03  0.17300000000E+03 0. -1.
         -6    1    1    2    0  503 -0.24087149112E+02 -0.30507944088E+01 -0.68267889224E+03  0.70467649883E+03  0.17300000000E+03 0. -1.
<mgrwt>
<rscale>  2 0.17469544E+03</rscale>
<asrwt>0</asrwt>
<pdfrwt beam="1">  1       21 0.44421890E-02 0.17469544E+03</pdfrwt>
<pdfrwt beam="2">  1       21 0.17238456E+00 0.17469544E+03</pdfrwt>
<totfact> 0.68154216E+04</totfact>
</mgrwt>
</event>
<event>
 4    1  0.8126752E-001  0.2777315E+03  0.7546771E-02  0.1096934E+00
         21   -1    0    0  503  502  0.00000000000E+00  0.00000000000E+00  0.77493547891E+02  0.77493547891E+02  0.00000000000E+00 0. -1.
         21   -1    0    0  501  503 -0.00000000000E+00 -0.00000000000E+00 -0.10358109126E+04  0.10358109126E+04  0.00000000000E+00 0.  1.
          6    1    1    2  501    0  0.17511614406E+03  0.12860838249E+03 -0.36916891033E+03  0.46197452777E+03  0.17300000000E+03 0. -1.
         -6    1    1    2    0  502 -0.17511614406E+03 -0.12860838249E+03 -0.58914845441E+03  0.65132993275E+03  0.17300000000E+03 0.  1.
<mgrwt>
<rscale>  2 0.27773149E+03</rscale>
<asrwt>0</asrwt>
<pdfrwt beam="1">  1       21 0.11922085E-01 0.27773149E+03</pdfrwt>
<pdfrwt beam="2">  1       21 0.15935551E+00 0.27773149E+03</pdfrwt>
<totfact> 0.14328301E+04</totfact>
</mgrwt>
</event>
<event>
 4    1  0.8126752E-001  0.2137154E+03  0.7546771E-02  0.1138657E+00
         21   -1    0    0  501  502  0.00000000000E+00  0.00000000000E+00  0.17037742695E+03  0.17037742695E+03  0.00000000000E+00 0. -1.
         21   -1    0    0  502  503 -0.00000000000E+00 -0.00000000000E+00 -0.28207194674E+03  0.28207194674E+03  0.00000000000E+00 0. -1.
          6    1    1    2  501    0 -0.11425947595E+03  0.51865800664E+02 -0.54573149240E+01  0.21378510568E+03  0.17300000000E+03 0. -1.
         -6    1    1    2    0  503  0.11425947595E+03 -0.51865800664E+02 -0.10623720487E+03  0.23866426800E+03  0.17300000000E+03 0. -1.
<mgrwt>
<rscale>  2 0.21371544E+03</rscale>
<asrwt>0</asrwt>
<pdfrwt beam="1">  1       21 0.26211912E-01 0.21371544E+03</pdfrwt>
<pdfrwt beam="2">  1       21 0.43395684E-01 0.21371544E+03</pdfrwt>
<totfact> 0.69968346E+04</totfact>
</mgrwt>
</event>
<event>
 4    1  0.8126752E-001  0.2653333E+03  0.7546771E-02  0.1103981E+00
         21   -1    0    0  503  502  0.00000000000E+00  0.00000000000E+00  0.51002079270E+03  0.51002079270E+03  0.00000000000E+00 0. -1.
         21   -1    0    0  501  503 -0.00000000000E+00 -0.00000000000E+00 -0.15962020092E+03  0.15962020092E+03  0.00000000000E+00 0.  1.
          6    1    1    2  501    0 -0.18783896325E+03 -0.72036853580E+02  0.29831931996E+03  0.39924453791E+03  0.17300000000E+03 0. -1.
         -6    1    1    2    0  502  0.18783896325E+03  0.72036853580E+02  0.52081271827E+02  0.27039645571E+03  0.17300000000E+03 0.  1.
<mgrwt>
<rscale>  2 0.26533335E+03</rscale>
<asrwt>0</asrwt>
<pdfrwt beam="1">  1       21 0.78464736E-01 0.26533335E+03</pdfrwt>
<pdfrwt beam="2">  1       21 0.24556954E-01 0.26533335E+03</pdfrwt>
<totfact> 0.21673235E+04</totfact>
</mgrwt>
</event>
<event>
 4    1  0.8126752E-001  0.2526400E+03  0.7546771E-02  0.1111648E+00
         21   -1    0    0  503  502  0.00000000000E+00  0.00000000000E+00  0.70505498587E+03  0.70505498587E+03  0.00000000000E+00 0. -1.
         21   -1    0    0  501  503 -0.00000000000E+00 -0.00000000000E+00 -0.93512393054E+02  0.93512393054E+02  0.00000000000E+00 0.  1.
          6    1    1    2  501    0  0.26001502648E+02  0.18226867760E+03  0.23443628559E+03  0.34465536551E+03  0.17300000000E+03 0.  1.
         -6    1    1    2    0  502 -0.26001502648E+02 -0.18226867760E+03  0.37710630722E+03  0.45391201341E+03  0.17300000000E+03 0. -1.
<mgrwt>
<rscale>  2 0.25263996E+03</rscale>
<asrwt>0</asrwt>
<pdfrwt beam="1">  1       21 0.10846999E+00 0.25263996E+03</pdfrwt>
<pdfrwt beam="2">  1       21 0.14386522E-01 0.25263996E+03</pdfrwt>
<totfact> 0.27693343E+04</totfact>
</mgrwt>
</event>
<event>
 4    1  0.8126752E-001  0.2573069E+03  0.7546771E-02  0.1108772E+00
         21   -1    0    0  501  502  0.00000000000E+00  0.00000000000E+00  0.28248351076E+03  0.28248351076E+03  0.00000000000E+00 0.  1.
         21   -1    0    0  502  503 -0.00000000000E+00 -0.00000000000E+00 -0.23454677016E+03  0.23454677016E+03  0.00000000000E+00 0. -1.
          6    1    1    2  501    0 -0.13829278898E+03 -0.13096929847E+03  0.30980151573E+02  0.25916524153E+03  0.17300000000E+03 0.  1.
         -6    1    1    2    0  503  0.13829278898E+03  0.13096929847E+03  0.16956589029E+02  0.25786503938E+03  0.17300000000E+03 0.  1.
<mgrwt>
<rscale>  2 0.25730692E+03</rscale>
<asrwt>0</asrwt>
<pdfrwt beam="1">  1       21 0.43459002E-01 0.25730692E+03</pdfrwt>
<pdfrwt beam="2">  1       21 0.36084118E-01 0.25730692E+03</pdfrwt>
<totfact> 0.36562263E+04</totfact>
</mgrwt>
</event>
<event>
 4    1  0.8126752E-001  0.3231821E+03  0.7546771E-02  0.1074194E+00
         21   -1    0    0  503  502  0.00000000000E+00  0.00000000000E+00  0.87838276290E+02  0.87838276290E+02  0.00000000000E+00 0.  1.
         21   -1    0    0  501  503 -0.00000000000E+00 -0.00000000000E+00 -0.12582017152E+04  0.12582017152E+04  0.00000000000E+00 0. -1.
          6    1    1    2  501    0  0.61996315955E+02 -0.26584607671E+03 -0.74292909930E+03  0.81017919393E+03  0.17300000000E+03 0. -1.
         -6    1    1    2    0  502 -0.61996315955E+02  0.26584607671E+03 -0.42743433966E+03  0.53586079761E+03  0.17300000000E+03 0.  1.
<mgrwt>
<rscale>  2 0.32318212E+03</rscale>
<asrwt>0</asrwt>
<pdfrwt beam="1">  1       21 0.13513581E-01 0.32318212E+03</pdfrwt>
<pdfrwt beam="2">  1       21 0.19356949E+00 0.32318212E+03</pdfrwt>
<totfact> 0.64064849E+03</totfact>
</mgrwt>
</event>
<event>
 4    1  0.8126752E-001  0.1757786E+03  0.7546771E-02  0.1171952E+00
         21   -1    0    0  503  502  0.00000000000E+00  0.00000000000E+00  0.27468630699E+02  0.27468630699E+02  0.00000000000E+00 0. -1.
         21   -1    0    0  501  503 -0.00000000000E+00 -0.00000000000E+00 -0.11249891124E+04  0.11249891124E+04  0.00000000000E+00 0.  1.
          6    1    1    2  501    0  0.21886348005E+02 -0.22138197299E+02 -0.54237163546E+03  0.57014480877E+03  0.17300000000E+03 0. -1.
         -6    1    1    2    0  502 -0.21886348005E+02  0.22138197299E+02 -0.55514884620E+03  0.58231293429E+03  0.17300000000E+03 0. -1.
<mgrwt>
<rscale>  2 0.17577859E+03</rscale>
<asrwt>0</asrwt>
<pdfrwt beam="1">  1       21 0.42259440E-02 0.17577859E+03</pdfrwt>
<pdfrwt beam="2">  1       21 0.17307522E+00 0.17577859E+03</pdfrwt>
<totfact> 0.73255718E+04</totfact>
</mgrwt>
</event>
<event>
 4    1  0.8126752E-001  0.2437541E+03  0.7546771E-02  0.1117317E+00
         21   -1    0    0  503  502  0.00000000000E+00  0.00000000000E+00  0.90462529101E+03  0.90462529101E+03  0.00000000000E+00 0. -1.
         21   -1    0    0  501  503 -0.00000000000E+00 -0.00000000000E+00 -0.84364426324E+02  0.84364426324E+02  0.00000000000E+00 0.  1.
          6    1    1    2  501    0 -0.13509295718E+03  0.10600459072E+03  0.17741871864E+03  0.30148545911E+03  0.17300000000E+03 0.  1.
         -6    1    1    2    0  502  0.13509295718E+03 -0.10600459072E+03  0.64284214604E+03  0.68750425821E+03  0.17300000000E+03 0. -1.
<mgrwt>
<rscale>  2 0.24375414E+03</rscale>
<asrwt>0</asrwt>
<pdfrwt beam="1">  1       21 0.13917311E+00 0.24375414E+03</pdfrwt>
<pdfrwt beam="2">  1       21 0.12979143E-01 0.24375414E+03</pdfrwt>
<totfact> 0.17946729E+04</totfact>
</mgrwt>
</event>
<event>
 4    1  0.8126752E-001  0.1765453E+03  0.7546771E-02  0.1171189E+00
         21   -1    0    0  503  502  0.00000000000E+00  0.00000000000E+00  0.11571785680E+03  0.11571785680E+03  0.00000000000E+00 0. -1.
         21   -1    0    0  501  503 -0.00000000000E+00 -0.00000000000E+00 -0.32115860936E+03  0.32115860936E+03  0.00000000000E+00 0. -1.
          6    1    1    2  501    0 -0.25852397939E+02 -0.23893623783E+02 -0.14983408029E+02  0.17718000523E+03  0.17300000000E+03 0. -1.
         -6    1    1    2    0  502  0.25852397939E+02  0.23893623783E+02 -0.19045734453E+03  0.25969646093E+03  0.17300000000E+03 0. -1.
<mgrwt>
<rscale>  2 0.17654532E+03</rscale>
<asrwt>0</asrwt>
<pdfrwt beam="1">  1       21 0.17802748E-01 0.17654532E+03</pdfrwt>
<pdfrwt beam="2">  1       21 0.49409016E-01 0.17654532E+03</pdfrwt>
<totfact> 0.11258000E+05</totfact>
</mgrwt>
</event>
<event>
 4    1  0.8126752E-001  0.2127220E+03  0.7546771E-02  0.1139428E+00
         21   -1    0    0  503  502  0.00000000000E+00  0.00000000000E+00  0.10226750154E+03  0.10226750154E+03  0.00000000000E+00 0.  1.
         21   -1    0    0  501  503 -0.00000000000E+00 -0.00000000000E+00 -0.44860854131E+03  0.44860854131E+03  0.00000000000E+00 0.  1.
          6    1    1    2  501    0  0.10962687398E+03 -0.57476815156E+02 -0.20538172858E+03  0.29568951658E+03  0.17300000000E+03 0.  1.
         -6    1    1    2    0  502 -0.10962687398E+03  0.57476815156E+02 -0.14095931119E+03  0.25518652627E+03  0.17300000000E+03 0.  1.
<mgrwt>
<rscale>  2 0.21272197E+03</rscale>
<asrwt>0</asrwt>
<pdfrwt beam="1">  1       21 0.15733462E-01 0.21272197E+03</pdfrwt>
<pdfrwt beam="2">  1       21 0.69016698E-01 0.21272197E+03</pdfrwt>
<totfact> 0.68111949E+04</totfact>
</mgrwt>
</event>
<event>
 4    1  0.8126752E-001  0.2182633E+03  0.7546771E-02  0.1135184E+00
         21   -1    0    0  501  502  0.00000000000E+00  0.00000000000E+00  0.59644705228E+03  0.59644705228E+03  0.00000000000E+00 0. -1.
         21   -1    0    0  502  503 -0.00000000000E+00 -0.00000000000E+00 -0.91035902893E+02  0.91035902893E+02  0.00000000000E+00 0. -1.
          6    1    1    2  501    0 -0.12249712376E+03 -0.52003263246E+02  0.37308465867E+03  0.43223957159E+03  0.17300000000E+03 0. -1.
         -6    1    1    2    0  503  0.12249712376E+03  0.52003263246E+02  0.13232649072E+03  0.25524338358E+03  0.17300000000E+03 0. -1.
<mgrwt>
<rscale>  2 0.21826334E+03</rscale>
<asrwt>0</asrwt>
<pdfrwt beam="1">  1       21 0.91761082E-01 0.21826334E+03</pdfrwt>
<pdfrwt beam="2">  1       21 0.14005524E-01 0.21826334E+03</pdfrwt>
<totfact> 0.44050958E+04</totfact>
</mgrwt>
</event>
<event>
 4    1  0.8126752E-001  0.1963903E+03  0.7546771E-02  0.1152821E+00
         21   -1    0    0  503  502  0.00000000000E+00  0.00000000000E+00  0.21414049813E+02  0.21414049813E+02  0.00000000000E+00 0. -1.
         21   -1    0    0  501  503 -0.00000000000E+00 -0.00000000000E+00 -0.19186704771E+04  0.19186704771E+04  0.00000000000E+00 0. -1.
          6    1    1    2  501    0 -0.86149480304E+02  0.34905606725E+02 -0.11887406495E+04  0.12048541265E+04  0.17300000000E+03 0. -1.
         -6    1    1    2    0  502  0.86149480304E+02 -0.34905606725E+02 -0.70851577775E+03  0.73523040039E+03  0.17300000000E+03 0. -1.
<mgrwt>
<rscale>  2 0.19639026E+03</rscale>
<asrwt>0</asrwt>
<pdfrwt beam="1">  1       21 0.32944691E-02 0.19639026E+03</pdfrwt>
<pdfrwt beam="2">  1       21 0.29518008E+00 0.19639026E+03</pdfrwt>
<totfact> 0.19639355E+04</totfact>
</mgrwt>
</event>
<event>
 4    1  0.8126752E-001  0.2141947E+03  0.7546771E-02  0.1138287E+00
         21   -1    0    0  501  502  0.00000000000E+00  0.00000000000E+00  0.65960486607E+03  0.65960486607E+03  0.00000000000E+00 0. -1.
         21   -1    0    0  502  503 -0.00000000000E+00 -0.00000000000E+00 -0.86594762561E+02  0.86594762561E+02  0.00000000000E+00 0.  1.
          6    1    1    2  501    0  0.52633502992E+02  0.11480456908E+03  0.45200589222E+03  0.50018866573E+03  0.17300000000E+03 0. -1.
         -6    1    1    2    0  503 -0.52633502992E+02 -0.11480456908E+03  0.12100421128E+03  0.24601096290E+03  0.17300000000E+03 0.  1.
<mgrwt>
<rscale>  2 0.21419471E+03</rscale>
<asrwt>0</asrwt>
<pdfrwt beam="1">  1       21 0.10147767E+00 0.21419471E+03</pdfrwt>
<pdfrwt beam="2">  1       21 0.13322272E-01 0.21419471E+03</pdfrwt>
<totfact> 0.38115158E+04</totfact>
</mgrwt>
</event>
<event>
 4    1  0.8126752E-001  0.2213290E+03  0.7546771E-02  0.1132896E+00
         21   -1    0    0  503  502  0.00000000000E+00  0.00000000000E+00  0.23666203881E+02  0.23666203881E+02  0.00000000000E+00 0.  1.
         21   -1    0    0  501  503 -0.00000000000E+00 -0.00000000000E+00 -0.20741538772E+04  0.20741538772E+04  0.00000000000E+00 0. -1.
          6    1    1    2  501    0 -0.89678224958E+02 -0.10495407652E+03 -0.97771060387E+03  0.10024492841E+04  0.17300000000E+03 0. -1.
         -6    1    1    2    0  502  0.89678224958E+02  0.10495407652E+03 -0.10727770694E+04  0.10953707970E+04  0.17300000000E+03 0. -1.
<mgrwt>
<rscale>  2 0.22132904E+03</rscale>
<asrwt>0</asrwt>
<pdfrwt beam="1">  1       21 0.36409539E-02 0.22132904E+03</pdfrwt>
<pdfrwt beam="2">  1       21 0.31910064E+00 0.22132904E+03</pdfrwt>
<totfact> 0.11790086E+04</totfact>
</mgrwt>
</event>
<event>
 4    1  0.8126752E-001  0.2752962E+03  0.7546771E-02  0.1098286E+00
         21   -1    0    0  501  502  0.00000000000E+00  0.00000000000E+00  0.45781544771E+03  0.45781544771E+03  0.00000000000E+00 0.  1.
         21   -1    0    0  502  503 -0.00000000000E+00 -0.00000000000E+00 -0.18470794749E+03  0.18470794749E+03  0.00000000000E+00 0.  1.
          6    1    1    2  501    0  0.19787325109E+03  0.81885235766E+02  0.33069769290E+02  0.27727535948E+03  0.17300000000E+03 0.  1.
         -6    1    1    2    0  503 -0.19787325109E+03 -0.81885235766E+02  0.24003773093E+03  0.36524803573E+03  0.17300000000E+03 0.  1.
<mgrwt>
<rscale>  2 0.27529623E+03</rscale>
<asrwt>0</asrwt>
<pdfrwt beam="1">  1       21 0.70433145E-01 0.27529623E+03</pdfrwt>
<pdfrwt beam="2">  1       21 0.28416607E-01 0.27529623E+03</pdfrwt>
<totfact> 0.20736242E+04</totfact>
</mgrwt>
</event>
<event>
 4    1  0.8126752E-001  0.2549824E+03  0.7546771E-02  0.1110196E+00
         21   -1    0    0  503  502  0.00000000000E+00  0.00000000000E+00  0.20407092332E+03  0.20407092332E+03  0.00000000000E+00 0. -1.
         21   -1    0    0  501  503 -0.00000000000E+00 -0.00000000000E+00 -0.33488057079E+03  0.33488057079E+03  0.00000000000E+00 0. -1.
          6    1    1    2  501    0  0.67797409433E+02  0.17461539391E+03 -0.12483034764E+03  0.28389899649E+03  0.17300000000E+03 0. -1.
         -6    1    1    2    0  502 -0.67797409433E+02 -0.17461539391E+03 -0.59792998334E+01  0.25505249762E+03  0.17300000000E+03 0. -1.
<mgrwt>
<rscale>  2 0.25498240E+03</rscale>
<asrwt>0</asrwt>
<pdfrwt beam="1">  1       21 0.31395527E-01 0.25498240E+03</pdfrwt>
<pdfrwt beam="2">  1       21 0.51520088E-01 0.25498240E+03</pdfrwt>
<totfact> 0.33865129E+04</totfact>
</mgrwt>
</event>
<event>
 4    1  0.8126752E-001  0.3005418E+03  0.7546771E-02  0.1084970E+00
         21   -1    0    0  501  502  0.00000000000E+00  0.00000000000E+00  0.30798279509E+03  0.30798279509E+03  0.00000000000E+00 0.  1.
         21   -1    0    0  502  503 -0.00000000000E+00 -0.00000000000E+00 -0.30554455947E+03  0.30554455947E+03  0.00000000000E+00 0.  1.
          6    1    1    2  501    0 -0.43458692403E+02 -0.24188368604E+03 -0.60239417695E+02  0.30651943325E+03  0.17300000000E+03 0.  1.
         -6    1    1    2    0  503  0.43458692403E+02  0.24188368604E+03  0.62677653320E+02  0.30700792130E+03  0.17300000000E+03 0.  1.
<mgrwt>
<rscale>  2 0.30054180E+03</rscale>
<asrwt>0</asrwt>
<pdfrwt beam="1">  1       21 0.47381968E-01 0.30054180E+03</pdfrwt>
<pdfrwt beam="2">  1       21 0.47006855E-01 0.30054180E+03</pdfrwt>
<totfact> 0.17475249E+04</totfact>
</mgrwt>
</event>
<event>
 4    1  0.8126752E-001  0.1750804E+03  0.7546771E-02  0.1172651E+00
         21   -1    0    0  503  502  0.00000000000E+00  0.00000000000E+00  0.97567611101E+03  0.97567611101E+03  0.00000000000E+00 0. -1.
         21   -1    0    0  501  503 -0.00000000000E+00 -0.00000000000E+00 -0.31494775718E+02  0.31494775718E+02  0.00000000000E+00 0. -1.
          6    1    1    2  501    0  0.93216238712E+01 -0.25243743742E+02  0.49706247512E+03  0.52699548712E+03  0.17300000000E+03 0. -1.
         -6    1    1    2    0  502 -0.93216238712E+01  0.25243743742E+02  0.44711886017E+03  0.48017539961E+03  0.17300000000E+03 0. -1.
<mgrwt>
<rscale>  2 0.17508038E+03</rscale>
<asrwt>0</asrwt>
<pdfrwt beam="1">  1       21 0.15010399E+00 0.17508038E+03</pdfrwt>
<pdfrwt beam="2">  1       21 0.48453508E-02 0.17508038E+03</pdfrwt>
<totfact> 0.85390753E+04</totfact>
</mgrwt>
</event>
<event>
 4    1  0.8126752E-001  0.2038911E+03  0.7546771E-02  0.1146497E+00
         21   -1    0    0  501  502  0.00000000000E+00  0.00000000000E+00  0.20763913059E+03  0.20763913059E+03  0.00000000000E+00 0. -1.
         21   -1    0    0  502  503 -0.00000000000E+00 -0.00000000000E+00 -0.22556410462E+03  0.22556410462E+03  0.00000000000E+00 0. -1.
          6    1    1    2  501    0 -0.47374484838E+01 -0.10779667837E+03 -0.81580638768E+02  0.21960639314E+03  0.17300000000E+03 0. -1.
         -6    1    1    2    0  503  0.47374484838E+01  0.10779667837E+03  0.63655664742E+02  0.21359684206E+03  0.17300000000E+03 0. -1.
<mgrwt>
<rscale>  2 0.20389107E+03</rscale>
<asrwt>0</asrwt>
<pdfrwt beam="1">  1       21 0.31944482E-01 0.20389107E+03</pdfrwt>
<pdfrwt beam="2">  1       21 0.34702170E-01 0.20389107E+03</pdfrwt>
<totfact> 0.75062182E+04</totfact>
</mgrwt>
</event>
<event>
 4    1  0.8126752E-001  0.2619847E+03  0.7546771E-02  0.1105957E+00
         21   -1    0    0  503  502  0.00000000000E+00  0.00000000000E+00  0.83441334746E+03  0.83441334746E+03  0.00000000000E+00 0.  1.
         21   -1    0    0  501  503 -0.00000000000E+00 -0.00000000000E+00 -0.83121964703E+02  0.83121964703E+02  0.00000000000E+00 0.  1.
          6    1    1    2  501    0  0.99790606759E+02 -0.16955475028E+03  0.32883528354E+03  0.42043860698E+03  0.17300000000E+03 0.  1.
         -6    1    1    2    0  502 -0.99790606759E+02  0.16955475028E+03  0.42245609921E+03  0.49709670518E+03  0.17300000000E+03 0.  1.
<mgrwt>
<rscale>  2 0.26198469E+03</rscale>
<asrwt>0</asrwt>
<pdfrwt beam="1">  1       21 0.12837128E+00 0.26198469E+03</pdfrwt>
<pdfrwt beam="2">  1       21 0.12787995E-01 0.26198469E+03</pdfrwt>
<totfact> 0.22471458E+04</totfact>
</mgrwt>
</event>
<event>
 4    1  0.8126752E-001  0.2031575E+03  0.7546771E-02  0.1147102E+00
         21   -1    0    0  501  502  0.00000000000E+00  0.00000000000E+00  0.70088527374E+03  0.70088527374E+03  0.00000000000E+00 0.  1.
         21   -1    0    0  502  503 -0.00000000000E+00 -0.00000000000E+00 -0.13784686690E+03  0.13784686690E+03  0.00000000000E+00 0.  1.
          6    1    1    2  501    0  0.25336517453E+02 -0.10345065888E+03  0.59891286732E+03  0.63243149873E+03  0.17300000000E+03 0.  1.
         -6    1    1    2    0  503 -0.25336517453E+02  0.10345065888E+03 -0.35874460477E+02  0.20630064191E+03  0.17300000000E+03 0.  1.
<mgrwt>
<rscale>  2 0.20315752E+03</rscale>
<asrwt>0</asrwt>
<pdfrwt beam="1">  1       21 0.10782850E+00 0.20315752E+03</pdfrwt>
<pdfrwt beam="2">  1       21 0.21207211E-01 0.20315752E+03</pdfrwt>
<totfact> 0.14075610E+04</totfact>
</mgrwt>
</event>
<event>
 4    1  0.8126752E-001  0.1736622E+03  0.7546771E-02  0.1174082E+00
         21   -1    0    0  501  502  0.00000000000E+00  0.00000000000E+00  0.27859289578E+03  0.27859289578E+03  0.00000000000E+00 0. -1.
         21   -1    0    0  502  503 -0.00000000000E+00 -0.00000000000E+00 -0.12145720519E+03  0.12145720519E+03  0.00000000000E+00 0. -1.
          6    1    1    2  501    0 -0.14335727912E+02 -0.49049141543E+01  0.12616196078E+02  0.17411990030E+03  0.17300000000E+03 0. -1.
         -6    1    1    2    0  503  0.14335727912E+02  0.49049141543E+01  0.14451949451E+03  0.22593020066E+03  0.17300000000E+03 0. -1.
<mgrwt>
<rscale>  2 0.17366223E+03</rscale>
<asrwt>0</asrwt>
<pdfrwt beam="1">  1       21 0.42860445E-01 0.17366223E+03</pdfrwt>
<pdfrwt beam="2">  1       21 0.18685724E-01 0.17366223E+03</pdfrwt>
<totfact> 0.13803910E+05</totfact>
</mgrwt>
</event>
<event>
 4    1  0.8126752E-001  0.2028295E+03  0.7546771E-02  0.1147374E+00
         21   -1    0    0  501  502  0.00000000000E+00  0.00000000000E+00  0.59225059598E+03  0.59225059598E+03  0.00000000000E+00 0.  1.
         21   -1    0    0  502  503 -0.00000000000E+00 -0.00000000000E+00 -0.11898949520E+03  0.11898949520E+03  0.00000000000E+00 0.  1.
          6    1    1    2  501    0 -0.10464851145E+03  0.16108533791E+02  0.46605967788E+03  0.50828281415E+03  0.17300000000E+03 0.  1.
         -6    1    1    2    0  503  0.10464851145E+03 -0.16108533791E+02  0.72014228963E+01  0.20295727704E+03  0.17300000000E+03 0.  1.
<mgrwt>
<rscale>  2 0.20282947E+03</rscale>
<asrwt>0</asrwt>
<pdfrwt beam="1">  1       21 0.91115475E-01 0.20282947E+03</pdfrwt>
<pdfrwt beam="2">  1       21 0.18306077E-01 0.20282947E+03</pdfrwt>
<totfact> 0.27622600E+04</totfact>
</mgrwt>
</event>
<event>
 4    1  0.8126752E-001  0.1749254E+03  0.7546771E-02  0.1172807E+00
         21   -1    0    0  503  502  0.00000000000E+00  0.00000000000E+00  0.15684886649E+04  0.15684886649E+04  0.00000000000E+00 0.  1.
         21   -1    0    0  501  503 -0.00000000000E+00 -0.00000000000E+00 -0.20883950624E+02  0.20883950624E+02  0.00000000000E+00 0.  1.
          6    1    1    2  501    0  0.52407730763E+00  0.25876806660E+02  0.56985897234E+03  0.59610245104E+03  0.17300000000E+03 0.  1.
         -6    1    1    2    0  502 -0.52407730763E+00 -0.25876806660E+02  0.97774574196E+03  0.99327016451E+03  0.17300000000E+03 0.  1.
<mgrwt>
<rscale>  2 0.17492537E+03</rscale>
<asrwt>0</asrwt>
<pdfrwt beam="1">  1       21 0.24130586E+00 0.17492537E+03</pdfrwt>
<pdfrwt beam="2">  1       21 0.32129167E-02 0.17492537E+03</pdfrwt>
<totfact> 0.42861219E+04</totfact>
</mgrwt>
</event>
<event>
 4    1  0.8126752E-001  0.1840238E+03  0.7546771E-02  0.1163965E+00
         21   -1    0    0  501  502  0.00000000000E+00  0.00000000000E+00  0.33164464360E+03  0.33164464360E+03  0.00000000000E+00 0. -1.
         21   -1    0    0  502  503 -0.00000000000E+00 -0.00000000000E+00 -0.10225903006E+03  0.10225903006E+03  0.00000000000E+00 0. -1.
          6    1    1    2  501    0  0.47033278610E+02  0.41516499233E+02  0.10645375230E+03  0.21259621442E+03  0.17300000000E+03 0. -1.
         -6    1    1    2    0  503 -0.47033278610E+02 -0.41516499233E+02  0.12293186123E+03  0.22130745923E+03  0.17300000000E+03 0. -1.
<mgrwt>
<rscale>  2 0.18402377E+03</rscale>
<asrwt>0</asrwt>
<pdfrwt beam="1">  1       21 0.51022252E-01 0.18402377E+03</pdfrwt>
<pdfrwt beam="2">  1       21 0.15732159E-01 0.18402377E+03</pdfrwt>
<totfact> 0.13174632E+05</totfact>
</mgrwt>
</event>
<event>
 4    1  0.8126752E-001  0.2444834E+03  0.7546771E-02  0.1116842E+00
         21   -1    0    0  503  502  0.00000000000E+00  0.00000000000E+00  0.11983607093E+03  0.11983607093E+03  0.00000000000E+00 0. -1.
         21   -1    0    0  501  503 -0.00000000000E+00 -0.00000000000E+00 -0.71929045096E+03  0.71929045096E+03  0.00000000000E+00 0. -1.
          6    1    1    2  501    0 -0.18287672939E+02  0.17178089141E+03 -0.53203168196E+03  0.58551671560E+03  0.17300000000E+03 0. -1.
         -6    1    1    2    0  502  0.18287672939E+02 -0.17178089141E+03 -0.67422698066E+02  0.25360980629E+03  0.17300000000E+03 0. -1.
<mgrwt>
<rscale>  2 0.24448336E+03</rscale>
<asrwt>0</asrwt>
<pdfrwt beam="1">  1       21 0.18436318E-01 0.24448336E+03</pdfrwt>
<pdfrwt beam="2">  1       21 0.11066007E+00 0.24448336E+03</pdfrwt>
<totfact> 0.16761744E+04</totfact>
</mgrwt>
</event>
<event>
 4    1  0.8126752E-001  0.2245934E+03  0.7546771E-02  0.1130504E+00
         21   -1    0    0  503  502  0.00000000000E+00  0.00000000000E+00  0.24796245012E+03  0.24796245012E+03  0.00000000000E+00 0.  1.
         21   -1    0    0  501  503 -0.00000000000E+00 -0.00000000000E+00 -0.25736313392E+03  0.25736313392E+03  0.00000000000E+00 0.  1.
          6    1    1    2  501    0 -0.14314983852E+03 -0.46149942205E+01 -0.12036731630E+03  0.25481457037E+03  0.17300000000E+03 0. -1.
         -6    1    1    2    0  502  0.14314983852E+03  0.46149942205E+01  0.11096663250E+03  0.25051101367E+03  0.17300000000E+03 0. -1.
<mgrwt>
<rscale>  2 0.22459335E+03</rscale>
<asrwt>0</asrwt>
<pdfrwt beam="1">  1       21 0.38148069E-01 0.22459335E+03</pdfrwt>
<pdfrwt beam="2">  1       21 0.39594328E-01 0.22459335E+03</pdfrwt>
<totfact> 0.40108121E+04</totfact>
</mgrwt>
</event>
<event>
 4    1  0.8126752E-001  0.4713583E+03  0.7546771E-02  0.1021538E+00
         21   -1    0    0  501  502  0.00000000000E+00  0.00000000000E+00  0.47913549784E+03  0.47913549784E+03  0.00000000000E+00 0. -1.
         21   -1    0    0  502  503 -0.00000000000E+00 -0.00000000000E+00 -0.52922695964E+03  0.52922695964E+03  0.00000000000E+00 0.  1.
          6    1    1    2  501    0  0.16254964300E+03 -0.40721890339E+03  0.15235342643E+03  0.49536873969E+03  0.17300000000E+03 0. -1.
         -6    1    1    2    0  503 -0.16254964300E+03  0.40721890339E+03 -0.20244488823E+03  0.51299371779E+03  0.17300000000E+03 0.  1.
<mgrwt>
<rscale>  2 0.47135827E+03</rscale>
<asrwt>0</asrwt>
<pdfrwt beam="1">  1       21 0.73713154E-01 0.47135827E+03</pdfrwt>
<pdfrwt beam="2">  1       21 0.81419532E-01 0.47135827E+03</pdfrwt>
<totfact> 0.18685167E+03</totfact>
</mgrwt>
</event>
<event>
 4    1  0.8126752E-001  0.1908068E+03  0.7546771E-02  0.1157736E+00
         21   -1    0    0  501  502  0.00000000000E+00  0.00000000000E+00  0.96107943431E+02  0.96107943431E+02  0.00000000000E+00 0.  1.
         21   -1    0    0  502  503 -0.00000000000E+00 -0.00000000000E+00 -0.40795427994E+03  0.40795427994E+03  0.00000000000E+00 0.  1.
          6    1    1    2  501    0  0.73430272002E+02  0.32957720676E+02 -0.22327992663E+03  0.29370247162E+03  0.17300000000E+03 0. -1.
         -6    1    1    2    0  503 -0.73430272002E+02 -0.32957720676E+02 -0.88566409877E+02  0.21035975175E+03  0.17300000000E+03 0. -1.
<mgrwt>
<rscale>  2 0.19080675E+03</rscale>
<asrwt>0</asrwt>
<pdfrwt beam="1">  1       21 0.14785837E-01 0.19080675E+03</pdfrwt>
<pdfrwt beam="2">  1       21 0.62762198E-01 0.19080675E+03</pdfrwt>
<totfact> 0.94768517E+04</totfact>
</mgrwt>
</event>
<event>
 4    1  0.8126752E-001  0.2163292E+03  0.7546771E-02  0.1136650E+00
         21   -1    0    0  503  502  0.00000000000E+00  0.00000000000E+00  0.28858798312E+03  0.28858798312E+03  0.00000000000E+00 0. -1.
         21   -1    0    0  501  503 -0.00000000000E+00 -0.00000000000E+00 -0.16611509625E+03  0.16611509625E+03  0.00000000000E+00 0.  1.
          6    1    1    2  501    0 -0.10264860046E+03 -0.79577545796E+02  0.26169186146E+02  0.21790628094E+03  0.17300000000E+03 0. -1.
         -6    1    1    2    0  502  0.10264860046E+03  0.79577545796E+02  0.96303700730E+02  0.23679679843E+03  0.17300000000E+03 0.  1.
<mgrwt>
<rscale>  2 0.21632920E+03</rscale>
<asrwt>0</asrwt>
<pdfrwt beam="1">  1       21 0.44398151E-01 0.21632920E+03</pdfrwt>
<pdfrwt beam="2">  1       21 0.25556169E-01 0.21632920E+03</pdfrwt>
<totfact> 0.70017890E+04</totfact>
</mgrwt>
</event>
<event>
 4    1  0.8126752E-001  0.2106443E+03  0.7546771E-02  0.1141057E+00
         21   -1    0    0  501  502  0.00000000000E+00  0.00000000000E+00  0.54100650653E+03  0.54100650653E+03  0.00000000000E+00 0. -1.
         21   -1    0    0  502  503 -0.00000000000E+00 -0.00000000000E+00 -0.84328018456E+02  0.84328018456E+02  0.00000000000E+00 0.  1.
          6    1    1    2  501    0  0.52514834933E+02  0.10809351843E+03  0.28011448725E+03  0.35047844810E+03  0.17300000000E+03 0.  1.
         -6    1    1    2    0  503 -0.52514834933E+02 -0.10809351843E+03  0.17656400082E+03  0.27485607689E+03  0.17300000000E+03 0.  1.
<mgrwt>
<rscale>  2 0.21064429E+03</rscale>
<asrwt>0</asrwt>
<pdfrwt beam="1">  1       21 0.83231768E-01 0.21064429E+03</pdfrwt>
<pdfrwt beam="2">  1       21 0.12973542E-01 0.21064429E+03</pdfrwt>
<totfact> 0.63599622E+04</totfact>
</mgrwt>
</event>
<event>
 4    1  0.8126752E-001  0.1794003E+03  0.7546771E-02  0.1168385E+00
         21   -1    0    0  501  502  0.00000000000E+00  0.00000000000E+00  0.13273858624E+04  0.13273858624E+04  0.00000000000E+00 0.  1.
         21   -1    0    0  502  503 -0.00000000000E+00 -0.00000000000E+00 -0.59100168999E+02  0.59100168999E+02  0.00000000000E+00 0.  1.
          6    1    1    2  501    0 -0.46019813316E+02 -0.11732366020E+02  0.11665150164E+04  0.11802295350E+04  0.17300000000E+03 0.  1.
         -6    1    1    2    0  503  0.46019813316E+02  0.11732366020E+02  0.10177067696E+03  0.20625649643E+03  0.17300000000E+03 0.  1.
<mgrwt>
<rscale>  2 0.17940031E+03</rscale>
<asrwt>0</asrwt>
<pdfrwt beam="1">  1       21 0.20421319E+00 0.17940031E+03</pdfrwt>
<pdfrwt beam="2">  1       21 0.90923347E-02 0.17940031E+03</pdfrwt>
<totfact> 0.12245580E+04</totfact>
</mgrwt>
</event>
<event>
 4    1  0.8126752E-001  0.1842509E+03  0.7546771E-02  0.1163751E+00
         21   -1    0    0  503  502  0.00000000000E+00  0.00000000000E+00  0.22695174586E+04  0.22695174586E+04  0.00000000000E+00 0.  1.
         21   -1    0    0  501  503 -0.00000000000E+00 -0.00000000000E+00 -0.16246447139E+02  0.16246447139E+02  0.00000000000E+00 0.  1.
          6    1    1    2  501    0  0.18566394818E+02  0.60619206609E+02  0.80483672638E+03  0.82565765022E+03  0.17300000000E+03 0.  1.
         -6    1    1    2    0  502 -0.18566394818E+02 -0.60619206609E+02  0.14484342851E+04  0.14601062556E+04  0.17300000000E+03 0.  1.
<mgrwt>
<rscale>  2 0.18425091E+03</rscale>
<asrwt>0</asrwt>
<pdfrwt beam="1">  1       21 0.34915628E+00 0.18425091E+03</pdfrwt>
<pdfrwt beam="2">  1       21 0.24994552E-02 0.18425091E+03</pdfrwt>
<totfact> 0.15271810E+04</totfact>
</mgrwt>
</event>
<event>
 4    1  0.8126752E-001  0.1946662E+03  0.7546771E-02  0.1154319E+00
         21   -1    0    0  501  502  0.00000000000E+00  0.00000000000E+00  0.43517959164E+02  0.43517959164E+02  0.00000000000E+00 0.  1.
         21   -1    0    0  502  503 -0.00000000000E+00 -0.00000000000E+00 -0.95817090163E+03  0.95817090163E+03  0.00000000000E+00 0.  1.
          6    1    1    2  501    0  0.72568043233E+02 -0.51959755419E+02 -0.30607715414E+03  0.36273704163E+03  0.17300000000E+03 0.  1.
         -6    1    1    2    0  503 -0.72568043233E+02  0.51959755419E+02 -0.60857578833E+03  0.63895181917E+03  0.17300000000E+03 0.  1.
<mgrwt>
<rscale>  2 0.19466622E+03</rscale>
<asrwt>0</asrwt>
<pdfrwt beam="1">  1       21 0.66950705E-02 0.19466622E+03</pdfrwt>
<pdfrwt beam="2">  1       21 0.14741091E+00 0.19466622E+03</pdfrwt>
<totfact> 0.51051963E+04</totfact>
</mgrwt>
</event>
<event>
 4    1  0.8126752E-001  0.3541801E+03  0.7546771E-02  0.1060912E+00
         21   -1    0    0  503  502  0.00000000000E+00  0.00000000000E+00  0.19733516928E+03  0.19733516928E+03  0.00000000000E+00 0.  1.
         21   -1    0    0  501  503 -0.00000000000E+00 -0.00000000000E+00 -0.66157727898E+03  0.66157727898E+03  0.00000000000E+00 0. -1.
          6    1    1    2  501    0  0.27314154484E+03 -0.14459676914E+03 -0.14716554306E+03  0.38353777679E+03  0.17300000000E+03 0.  1.
         -6    1    1    2    0  502 -0.27314154484E+03  0.14459676914E+03 -0.31707656663E+03  0.47537467146E+03  0.17300000000E+03 0. -1.
<mgrwt>
<rscale>  2 0.35418008E+03</rscale>
<asrwt>0</asrwt>
<pdfrwt beam="1">  1       21 0.30359257E-01 0.35418008E+03</pdfrwt>
<pdfrwt beam="2">  1       21 0.10178112E+00 0.35418008E+03</pdfrwt>
<totfact> 0.74999728E+03</totfact>
</mgrwt>
</event>
<event>
 4    1  0.8126752E-001  0.2336704E+03  0.7546771E-02  0.1124083E+00
         21   -1    0    0  503  502  0.00000000000E+00  0.00000000000E+00  0.41649550798E+03  0.41649550798E+03  0.00000000000E+00 0. -1.
         21   -1    0    0  501  503 -0.00000000000E+00 -0.00000000000E+00 -0.13255310186E+03  0.13255310186E+03  0.00000000000E+00 0. -1.
          6    1    1    2  501    0  0.83970206758E+02 -0.13274727857E+03  0.11321086184E+03  0.25965079401E+03  0.17300000000E+03 0. -1.
         -6    1    1    2    0  502 -0.83970206758E+02  0.13274727857E+03  0.17073154428E+03  0.28939781582E+03  0.17300000000E+03 0. -1.
<mgrwt>
<rscale>  2 0.23367036E+03</rscale>
<asrwt>0</asrwt>
<pdfrwt beam="1">  1       21 0.64076231E-01 0.23367036E+03</pdfrwt>
<pdfrwt beam="2">  1       21 0.20392785E-01 0.23367036E+03</pdfrwt>
<totfact> 0.49096684E+04</totfact>
</mgrwt>
</event>
<event>
 4    1  0.8126752E-001  0.2359451E+03  0.7546771E-02  0.1122524E+00
         21   -1    0    0  501  502  0.00000000000E+00  0.00000000000E+00  0.26277308124E+03  0.26277308124E+03  0.00000000000E+00 0. -1.
         21   -1    0    0  502  503 -0.00000000000E+00 -0.00000000000E+00 -0.25665898496E+03  0.25665898496E+03  0.00000000000E+00 0.  1.
          6    1    1    2  501    0  0.14922549602E+03 -0.58930916739E+02  0.11156788663E+03  0.26099328523E+03  0.17300000000E+03 0. -1.
         -6    1    1    2    0  503 -0.14922549602E+03  0.58930916739E+02 -0.10545379035E+03  0.25843878097E+03  0.17300000000E+03 0.  1.
<mgrwt>
<rscale>  2 0.23594512E+03</rscale>
<asrwt>0</asrwt>
<pdfrwt beam="1">  1       21 0.40426628E-01 0.23594512E+03</pdfrwt>
<pdfrwt beam="2">  1       21 0.39485998E-01 0.23594512E+03</pdfrwt>
<totfact> 0.35678465E+04</totfact>
</mgrwt>
</event>
<event>
 4    1  0.8126752E-001  0.2099029E+03  0.7546771E-02  0.1141643E+00
         21   -1    0    0  503  502  0.00000000000E+00  0.00000000000E+00  0.52699026106E+03  0.52699026106E+03  0.00000000000E+00 0.  1.
         21   -1    0    0  501  503 -0.00000000000E+00 -0.00000000000E+00 -0.16789574478E+03  0.16789574478E+03  0.00000000000E+00 0. -1.
          6    1    1    2  501    0  0.95196547606E+02  0.71188728212E+02 -0.66632708341E+02  0.22022519275E+03  0.17300000000E+03 0. -1.
         -6    1    1    2    0  502 -0.95196547606E+02 -0.71188728212E+02  0.42572722462E+03  0.47466081309E+03  0.17300000000E+03 0.  1.
<mgrwt>
<rscale>  2 0.20990288E+03</rscale>
<asrwt>0</asrwt>
<pdfrwt beam="1">  1       21 0.81075424E-01 0.20990288E+03</pdfrwt>
<pdfrwt beam="2">  1       21 0.25830115E-01 0.20990288E+03</pdfrwt>
<totfact> 0.18789153E+04</totfact>
</mgrwt>
</event>
<event>
 4    1  0.8126752E-001  0.1816977E+03  0.7546771E-02  0.1166170E+00
         21   -1    0    0  501  502  0.00000000000E+00  0.00000000000E+00  0.49691813795E+02  0.49691813795E+02  0.00000000000E+00 0.  1.
         21   -1    0    0  502  503 -0.00000000000E+00 -0.00000000000E+00 -0.68845802672E+03  0.68845802672E+03  0.00000000000E+00 0.  1.
          6    1    1    2  501    0  0.51177288774E+02  0.21585355444E+02 -0.25035540517E+03  0.30934102759E+03  0.17300000000E+03 0.  1.
         -6    1    1    2    0  503 -0.51177288774E+02 -0.21585355444E+02 -0.38841080776E+03  0.42880881292E+03  0.17300000000E+03 0.  1.
<mgrwt>
<rscale>  2 0.18169767E+03</rscale>
<asrwt>0</asrwt>
<pdfrwt beam="1">  1       21 0.76448943E-02 0.18169767E+03</pdfrwt>
<pdfrwt beam="2">  1       21 0.10591662E+00 0.18169767E+03</pdfrwt>
<totfact> 0.93348234E+04</totfact>
</mgrwt>
</event>
<event>
 4    1  0.8126752E-001  0.2469259E+03  0.7546771E-02  0.1115263E+00
         21   -1    0    0  503  502  0.00000000000E+00  0.00000000000E+00  0.13386710078E+03  0.13386710078E+03  0.00000000000E+00 0. -1.
         21   -1    0    0  501  503 -0.00000000000E+00 -0.00000000000E+00 -0.64753312714E+03  0.64753312714E+03  0.00000000000E+00 0.  1.
          6    1    1    2  501    0  0.16957101987E+03  0.47844160555E+02 -0.46961506648E+03  0.53057582412E+03  0.17300000000E+03 0.  1.
         -6    1    1    2    0  502 -0.16957101987E+03 -0.47844160555E+02 -0.44050959884E+02  0.25082440381E+03  0.17300000000E+03 0. -1.
<mgrwt>
<rscale>  2 0.24692589E+03</rscale>
<asrwt>0</asrwt>
<pdfrwt beam="1">  1       21 0.20594939E-01 0.24692589E+03</pdfrwt>
<pdfrwt beam="2">  1       21 0.99620480E-01 0.24692589E+03</pdfrwt>
<totfact> 0.17539384E+04</totfact>
</mgrwt>
</event>
<event>
 4    1  0.8126752E-001  0.2572359E+03  0.7546771E-02  0.1108815E+00
         21   -1    0    0  503  502  0.00000000000E+00  0.00000000000E+00  0.34644909638E+02  0.34644909638E+02  0.00000000000E+00 0.  1.
         21   -1    0    0  501  503 -0.00000000000E+00 -0.00000000000E+00 -0.22155242116E+04  0.22155242116E+04  0.00000000000E+00 0. -1.
          6    1    1    2  501    0 -0.16945484292E+03  0.86754725208E+02 -0.15082695380E+04  0.15300481448E+04  0.17300000000E+03 0. -1.
         -6    1    1    2    0  502  0.16945484292E+03 -0.86754725208E+02 -0.67260976394E+03  0.72012097642E+03  0.17300000000E+03 0.  1.
<mgrwt>
<rscale>  2 0.25723593E+03</rscale>
<asrwt>0</asrwt>
<pdfrwt beam="1">  1       21 0.53299867E-02 0.25723593E+03</pdfrwt>
<pdfrwt beam="2">  1       21 0.34084984E+00 0.25723593E+03</pdfrwt>
<totfact> 0.44508883E+03</totfact>
</mgrwt>
</event>
<event>
 4    1  0.8126752E-001  0.2176984E+03  0.7546771E-02  0.1135611E+00
         21   -1    0    0  501  502  0.00000000000E+00  0.00000000000E+00  0.33554955332E+03  0.33554955332E+03  0.00000000000E+00 0. -1.
         21   -1    0    0  502  503 -0.00000000000E+00 -0.00000000000E+00 -0.14798195746E+03  0.14798195746E+03  0.00000000000E+00 0. -1.
          6    1    1    2  501    0 -0.49372791579E+02 -0.12258022080E+03  0.14539277319E+03  0.26178548771E+03  0.17300000000E+03 0. -1.
         -6    1    1    2    0  503  0.49372791579E+02  0.12258022080E+03  0.42174822673E+02  0.22174602307E+03  0.17300000000E+03 0. -1.
<mgrwt>
<rscale>  2 0.21769838E+03</rscale>
<asrwt>0</asrwt>
<pdfrwt beam="1">  1       21 0.51623008E-01 0.21769838E+03</pdfrwt>
<pdfrwt beam="2">  1       21 0.22766455E-01 0.21769838E+03</pdfrwt>
<totfact> 0.63773862E+04</totfact>
</mgrwt>
</event>
<event>
 4    1  0.8126752E-001  0.2164666E+03  0.7546771E-02  0.1136545E+00
         21   -1    0    0  503  502  0.00000000000E+00  0.00000000000E+00  0.23975050749E+02  0.23975050749E+02  0.00000000000E+00 0.  1.
         21   -1    0    0  501  503 -0.00000000000E+00 -0.00000000000E+00 -0.20408989969E+04  0.20408989969E+04  0.00000000000E+00 0.  1.
          6    1    1    2  501    0  0.92381138253E+02 -0.91621648257E+02 -0.12209613209E+04  0.12400017534E+04  0.17300000000E+03 0.  1.
         -6    1    1    2    0  502 -0.92381138253E+02  0.91621648257E+02 -0.79596262527E+03  0.82487229433E+03  0.17300000000E+03 0.  1.
<mgrwt>
<rscale>  2 0.21646663E+03</rscale>
<asrwt>0</asrwt>
<pdfrwt beam="1">  1       21 0.36884681E-02 0.21646663E+03</pdfrwt>
<pdfrwt beam="2">  1       21 0.31398457E+00 0.21646663E+03</pdfrwt>
<totfact> 0.12415140E+04</totfact>
</mgrwt>
</event>
<event>
 4    1  0.8126752E-001  0.2511267E+03  0.7546771E-02  0.1112595E+00
         21   -1    0    0  501  502  0.00000000000E+00  0.00000000000E+00  0.60006220497E+03  0.60006220497E+03  0.00000000000E+00 0. -1.
         21   -1    0    0  502  503 -0.00000000000E+00 -0.00000000000E+00 -0.10616206064E+03  0.10616206064E+03  0.00000000000E+00 0.  1.
          6    1    1    2  501    0 -0.13422461723E+03 -0.12296082605E+03  0.21157823752E+03  0.32837472985E+03  0.17300000000E+03 0.  1.
         -6    1    1    2    0  503  0.13422461723E+03  0.12296082605E+03  0.28232190680E+03  0.37784953576E+03  0.17300000000E+03 0. -1.
<mgrwt>
<rscale>  2 0.25112669E+03</rscale>
<asrwt>0</asrwt>
<pdfrwt beam="1">  1       21 0.92317260E-01 0.25112669E+03</pdfrwt>
<pdfrwt beam="2">  1       21 0.16332625E-01 0.25112669E+03</pdfrwt>
<totfact> 0.32284328E+04</totfact>
</mgrwt>
</event>
<event>
 4    1  0.8126752E-001  0.4177303E+03  0.7546771E-02  0.1037808E+00
         21   -1    0    0  501  502  0.00000000000E+00  0.00000000000E+00  0.28650891680E+03  0.28650891680E+03  0.00000000000E+00 0. -1.
         21   -1    0    0  502  503 -0.00000000000E+00 -0.00000000000E+00 -0.61733508018E+03  0.61733508018E+03  0.00000000000E+00 0.  1.
          6    1    1    2  501    0 -0.22137699075E+03 -0.30913073599E+03 -0.11306252105E+03  0.43276057773E+03  0.17300000000E+03 0. -1.
         -6    1    1    2    0  503  0.22137699075E+03  0.30913073599E+03 -0.21776364233E+03  0.47108341925E+03  0.17300000000E+03 0.  1.
<mgrwt>
<rscale>  2 0.41773028E+03</rscale>
<asrwt>0</asrwt>
<pdfrwt beam="1">  1       21 0.44078295E-01 0.41773028E+03</pdfrwt>
<pdfrwt beam="2">  1       21 0.94974627E-01 0.41773028E+03</pdfrwt>
<totfact> 0.40554812E+03</totfact>
</mgrwt>
</event>
<event>
 4    1  0.8126752E-001  0.1940456E+03  0.7546771E-02  0.1154862E+00
         21   -1    0    0  503  502  0.00000000000E+00  0.00000000000E+00  0.47116222120E+02  0.47116222120E+02  0.00000000000E+00 0. -1.
         21   -1    0    0  501  503 -0.00000000000E+00 -0.00000000000E+00 -0.11285917570E+04  0.11285917570E+04  0.00000000000E+00 0. -1.
          6    1    1    2  501    0  0.14284633384E+02  0.86721551475E+02 -0.85833731318E+03  0.87999808036E+03  0.17300000000E+03 0. -1.
         -6    1    1    2    0  502 -0.14284633384E+02 -0.86721551475E+02 -0.22313822170E+03  0.29570989876E+03  0.17300000000E+03 0. -1.
<mgrwt>
<rscale>  2 0.19404556E+03</rscale>
<asrwt>0</asrwt>
<pdfrwt beam="1">  1       21 0.72486499E-02 0.19404556E+03</pdfrwt>
<pdfrwt beam="2">  1       21 0.17362949E+00 0.19404556E+03</pdfrwt>
<totfact> 0.28638617E+04</totfact>
</mgrwt>
</event>
<event>
 4    1  0.8126752E-001  0.2706796E+03  0.7546771E-02  0.1100891E+00
         21   -1    0    0  503  502  0.00000000000E+00  0.00000000000E+00  0.36078485218E+03  0.36078485218E+03  0.00000000000E+00 0. -1.
         21   -1    0    0  501  503 -0.00000000000E+00 -0.00000000000E+00 -0.27142281812E+03  0.27142281812E+03  0.00000000000E+00 0. -1.
          6    1    1    2  501    0 -0.10957786273E+03 -0.17700607377E+03 -0.11393953403E+03  0.29368295076E+03  0.17300000000E+03 0. -1.
         -6    1    1    2    0  502  0.10957786273E+03  0.17700607377E+03  0.20330156810E+03  0.33852471954E+03  0.17300000000E+03 0. -1.
<mgrwt>
<rscale>  2 0.27067962E+03</rscale>
<asrwt>0</asrwt>
<pdfrwt beam="1">  1       21 0.55505362E-01 0.27067962E+03</pdfrwt>
<pdfrwt beam="2">  1       21 0.41757357E-01 0.27067962E+03</pdfrwt>
<totfact> 0.16187718E+04</totfact>
</mgrwt>
</event>
<event>
 4    1  0.8126752E-001  0.2231090E+03  0.7546771E-02  0.1131586E+00
         21   -1    0    0  501  502  0.00000000000E+00  0.00000000000E+00  0.31597700715E+03  0.31597700715E+03  0.00000000000E+00 0. -1.
         21   -1    0    0  502  503 -0.00000000000E+00 -0.00000000000E+00 -0.16078749746E+03  0.16078749746E+03  0.00000000000E+00 0.  1.
          6    1    1    2  501    0 -0.14058369920E+03  0.92116934484E+01  0.11149597105E+03  0.24941728757E+03  0.17300000000E+03 0. -1.
         -6    1    1    2    0  503  0.14058369920E+03 -0.92116934484E+01  0.43693538637E+02  0.22734721704E+03  0.17300000000E+03 0.  1.
<mgrwt>
<rscale>  2 0.22310901E+03</rscale>
<asrwt>0</asrwt>
<pdfrwt beam="1">  1       21 0.48611847E-01 0.22310901E+03</pdfrwt>
<pdfrwt beam="2">  1       21 0.24736538E-01 0.22310901E+03</pdfrwt>
<totfact> 0.61603062E+04</totfact>
</mgrwt>
</event>
<event>
 4    1  0.8126752E-001  0.2291425E+03  0.7546771E-02  0.1127245E+00
         21   -1    0    0  503  502  0.00000000000E+00  0.00000000000E+00  0.21901610461E+03  0.21901610461E+03  0.00000000000E+00 0. -1.
         21   -1    0    0  501  503 -0.00000000000E+00 -0.00000000000E+00 -0.27724851775E+03  0.27724851775E+03  0.00000000000E+00 0. -1.
          6    1    1    2  501    0  0.14952217431E+03 -0.14845555126E+02 -0.12038679089E+03  0.25884213439E+03  0.17300000000E+03 0. -1.
         -6    1    1    2    0  502 -0.14952217431E+03  0.14845555126E+02  0.62154377759E+02  0.23742248796E+03  0.17300000000E+03 0. -1.
<mgrwt>
<rscale>  2 0.22914247E+03</rscale>
<asrwt>0</asrwt>
<pdfrwt beam="1">  1       21 0.33694785E-01 0.22914247E+03</pdfrwt>
<pdfrwt beam="2">  1       21 0.42653618E-01 0.22914247E+03</pdfrwt>
<totfact> 0.44083407E+04</totfact>
</mgrwt>
</event>
<event>
 4    1  0.8126752E-001  0.1909953E+03  0.7546771E-02  0.1157567E+00
         21   -1    0    0  501  502  0.00000000000E+00  0.00000000000E+00  0.11127109127E+03  0.11127109127E+03  0.00000000000E+00 0.  1.
         21   -1    0    0  502  503 -0.00000000000E+00 -0.00000000000E+00 -0.39774298651E+03  0.39774298651E+03  0.00000000000E+00 0.  1.
          6    1    1    2  501    0  0.66837088978E+02 -0.45639996672E+02 -0.36541000554E+02  0.19445938003E+03  0.17300000000E+03 0.  1.
         -6    1    1    2    0  503 -0.66837088978E+02  0.45639996672E+02 -0.24993089468E+03  0.31455469775E+03  0.17300000000E+03 0.  1.
<mgrwt>
<rscale>  2 0.19099530E+03</rscale>
<asrwt>0</asrwt>
<pdfrwt beam="1">  1       21 0.17118630E-01 0.19099530E+03</pdfrwt>
<pdfrwt beam="2">  1       21 0.61191228E-01 0.19099530E+03</pdfrwt>
<totfact> 0.76561301E+04</totfact>
</mgrwt>
</event>
<event>
 4    1  0.8126752E-001  0.2261569E+03  0.7546771E-02  0.1129374E+00
         21   -1    0    0  503  502  0.00000000000E+00  0.00000000000E+00  0.41156391923E+03  0.41156391923E+03  0.00000000000E+00 0. -1.
         21   -1    0    0  501  503 -0.00000000000E+00 -0.00000000000E+00 -0.12660731616E+03  0.12660731616E+03  0.00000000000E+00 0. -1.
          6    1    1    2  501    0 -0.96448440199E+02 -0.10915884265E+03  0.10595339880E+03  0.24974602552E+03  0.17300000000E+03 0. -1.
         -6    1    1    2    0  502  0.96448440199E+02  0.10915884265E+03  0.17900320428E+03  0.28842520987E+03  0.17300000000E+03 0. -1.
<mgrwt>
<rscale>  2 0.22615692E+03</rscale>
<asrwt>0</asrwt>
<pdfrwt beam="1">  1       21 0.63317525E-01 0.22615692E+03</pdfrwt>
<pdfrwt beam="2">  1       21 0.19478049E-01 0.22615692E+03</pdfrwt>
<totfact> 0.55093353E+04</totfact>
</mgrwt>
</event>
<event>
 4    1  0.8126752E-001  0.3804665E+03  0.7546771E-02  0.1050761E+00
         21   -1    0    0  503  502  0.00000000000E+00  0.00000000000E+00  0.33963181867E+03  0.33963181867E+03  0.00000000000E+00 0. -1.
         21   -1    0    0  501  503 -0.00000000000E+00 -0.00000000000E+00 -0.62995452541E+03  0.62995452541E+03  0.00000000000E+00 0. -1.
          6    1    1    2  501    0  0.66965916972E+01  0.33879333473E+03 -0.42086591815E+03  0.56734723852E+03  0.17300000000E+03 0. -1.
         -6    1    1    2    0  502 -0.66965916972E+01 -0.33879333473E+03  0.13054321141E+03  0.40223910556E+03  0.17300000000E+03 0. -1.
<mgrwt>
<rscale>  2 0.38046651E+03</rscale>
<asrwt>0</asrwt>
<pdfrwt beam="1">  1       21 0.52251050E-01 0.38046651E+03</pdfrwt>
<pdfrwt beam="2">  1       21 0.96916079E-01 0.38046651E+03</pdfrwt>
<totfact> 0.27398273E+03</totfact>
</mgrwt>
</event>
<event>
 4    1  0.8126752E-001  0.1962079E+03  0.7546771E-02  0.1152978E+00
         21   -1    0    0  501  502  0.00000000000E+00  0.00000000000E+00  0.88929081422E+02  0.88929081422E+02  0.00000000000E+00 0. -1.
         21   -1    0    0  502  503 -0.00000000000E+00 -0.00000000000E+00 -0.53530442121E+03  0.53530442121E+03  0.00000000000E+00 0.  1.
          6    1    1    2  501    0  0.92349297057E+02  0.63351976983E+01 -0.86674999230E+02  0.21449961046E+03  0.17300000000E+03 0. -1.
         -6    1    1    2    0  503 -0.92349297057E+02 -0.63351976983E+01 -0.35970034056E+03  0.40973389218E+03  0.17300000000E+03 0.  1.
<mgrwt>
<rscale>  2 0.19620787E+03</rscale>
<asrwt>0</asrwt>
<pdfrwt beam="1">  1       21 0.13681397E-01 0.19620787E+03</pdfrwt>
<pdfrwt beam="2">  1       21 0.82354526E-01 0.19620787E+03</pdfrwt>
<totfact> 0.59597837E+04</totfact>
</mgrwt>
</event>
<event>
 4    1  0.8126752E-001  0.4380139E+03  0.7546771E-02  0.1031358E+00
         21   -1    0    0  503  502  0.00000000000E+00  0.00000000000E+00  0.49923242440E+03  0.49923242440E+03  0.00000000000E+00 0. -1.
         21   -1    0    0  501  503 -0.00000000000E+00 -0.00000000000E+00 -0.45319621925E+03  0.45319621925E+03  0.00000000000E+00 0.  1.
          6    1    1    2  501    0  0.23051195965E+03  0.32983544417E+03 -0.16265528685E+03  0.46723968807E+03  0.17300000000E+03 0.  1.
         -6    1    1    2    0  502 -0.23051195965E+03 -0.32983544417E+03  0.20869149200E+03  0.48518895557E+03  0.17300000000E+03 0. -1.
<mgrwt>
<rscale>  2 0.43801391E+03</rscale>
<asrwt>0</asrwt>
<pdfrwt beam="1">  1       21 0.76804989E-01 0.43801391E+03</pdfrwt>
<pdfrwt beam="2">  1       21 0.69722495E-01 0.43801391E+03</pdfrwt>
<totfact> 0.24543118E+03</totfact>
</mgrwt>
</event>
<event>
 4    1  0.8126752E-001  0.1768003E+03  0.7546771E-02  0.1170936E+00
         21   -1    0    0  501  502  0.00000000000E+00  0.00000000000E+00  0.11358233663E+03  0.11358233663E+03  0.00000000000E+00 0. -1.
         21   -1    0    0  502  503 -0.00000000000E+00 -0.00000000000E+00 -0.28566549961E+03  0.28566549961E+03  0.00000000000E+00 0. -1.
          6    1    1    2  501    0  0.28382783930E+02 -0.22885987140E+02 -0.12424249992E+03  0.21608921680E+03  0.17300000000E+03 0. -1.
         -6    1    1    2    0  503 -0.28382783930E+02  0.22885987140E+02 -0.47840663056E+02  0.18315861943E+03  0.17300000000E+03 0. -1.
<mgrwt>
<rscale>  2 0.17680031E+03</rscale>
<asrwt>0</asrwt>
<pdfrwt beam="1">  1       21 0.17474206E-01 0.17680031E+03</pdfrwt>
<pdfrwt beam="2">  1       21 0.43948539E-01 0.17680031E+03</pdfrwt>
<totfact> 0.14827251E+05</totfact>
</mgrwt>
</event>
<event>
 4    1  0.8126752E-001  0.2032998E+03  0.7546771E-02  0.1146984E+00
         21   -1    0    0  501  502  0.00000000000E+00  0.00000000000E+00  0.17407585892E+03  0.17407585892E+03  0.00000000000E+00 0. -1.
         21   -1    0    0  502  503 -0.00000000000E+00 -0.00000000000E+00 -0.28260180269E+03  0.28260180269E+03  0.00000000000E+00 0.  1.
          6    1    1    2  501    0 -0.96371186856E+02 -0.45982620006E+02  0.37027759841E+02  0.20664428857E+03  0.17300000000E+03 0.  1.
         -6    1    1    2    0  503  0.96371186856E+02  0.45982620006E+02 -0.14555370362E+03  0.25003337304E+03  0.17300000000E+03 0.  1.
<mgrwt>
<rscale>  2 0.20329980E+03</rscale>
<asrwt>0</asrwt>
<pdfrwt beam="1">  1       21 0.26780902E-01 0.20329980E+03</pdfrwt>
<pdfrwt beam="2">  1       21 0.43477200E-01 0.20329980E+03</pdfrwt>
<totfact> 0.67182280E+04</totfact>
</mgrwt>
</event>
<event>
 4    1  0.8126752E-001  0.1847848E+03  0.7546771E-02  0.1163251E+00
         21   -1    0    0  503  502  0.00000000000E+00  0.00000000000E+00  0.30852220663E+02  0.30852220663E+02  0.00000000000E+00 0.  1.
         21   -1    0    0  501  503 -0.00000000000E+00 -0.00000000000E+00 -0.11882777305E+04  0.11882777305E+04  0.00000000000E+00 0.  1.
          6    1    1    2  501    0 -0.60303777553E+02 -0.24080912192E+02 -0.73838744691E+03  0.76115797157E+03  0.17300000000E+03 0.  1.
         -6    1    1    2    0  502  0.60303777553E+02  0.24080912192E+02 -0.41903806296E+03  0.45797197963E+03  0.17300000000E+03 0.  1.
<mgrwt>
<rscale>  2 0.18478484E+03</rscale>
<asrwt>0</asrwt>
<pdfrwt beam="1">  1       21 0.47464954E-02 0.18478484E+03</pdfrwt>
<pdfrwt beam="2">  1       21 0.18281196E+00 0.18478484E+03</pdfrwt>
<totfact> 0.51407737E+04</totfact>
</mgrwt>
</event>
<event>
 4    1  0.8126752E-001  0.2207680E+03  0.7546771E-02  0.1133312E+00
         21   -1    0    0  501  502  0.00000000000E+00  0.00000000000E+00  0.18767667051E+03  0.18767667051E+03  0.00000000000E+00 0. -1.
         21   -1    0    0  502  503 -0.00000000000E+00 -0.00000000000E+00 -0.28980533761E+03  0.28980533761E+03  0.00000000000E+00 0.  1.
          6    1    1    2  501    0 -0.21070091548E+02  0.13551956133E+03  0.25891056317E+02  0.22228100921E+03  0.17300000000E+03 0. -1.
         -6    1    1    2    0  503  0.21070091548E+02 -0.13551956133E+03 -0.12801972342E+03  0.25520099891E+03  0.17300000000E+03 0.  1.
<mgrwt>
<rscale>  2 0.22076798E+03</rscale>
<asrwt>0</asrwt>
<pdfrwt beam="1">  1       21 0.28873334E-01 0.22076798E+03</pdfrwt>
<pdfrwt beam="2">  1       21 0.44585436E-01 0.22076798E+03</pdfrwt>
<totfact> 0.54725824E+04</totfact>
</mgrwt>
</event>
<event>
 4    1  0.8126752E-001  0.1754356E+03  0.7546771E-02  0.1172295E+00
         21   -1    0    0  503  502  0.00000000000E+00  0.00000000000E+00  0.21433283480E+03  0.21433283480E+03  0.00000000000E+00 0. -1.
         21   -1    0    0  501  503 -0.00000000000E+00 -0.00000000000E+00 -0.15793445086E+03  0.15793445086E+03  0.00000000000E+00 0. -1.
          6    1    1    2  501    0  0.13556394509E+01 -0.29100253425E+02  0.84280044549E+02  0.19462987545E+03  0.17300000000E+03 0. -1.
         -6    1    1    2    0  502 -0.13556394509E+01  0.29100253425E+02 -0.27881660603E+02  0.17763741021E+03  0.17300000000E+03 0. -1.
<mgrwt>
<rscale>  2 0.17543564E+03</rscale>
<asrwt>0</asrwt>
<pdfrwt beam="1">  1       21 0.32974282E-01 0.17543564E+03</pdfrwt>
<pdfrwt beam="2">  1       21 0.24297608E-01 0.17543564E+03</pdfrwt>
<totfact> 0.14240799E+05</totfact>
</mgrwt>
</event>
<event>
 4    1  0.8126752E-001  0.1844404E+03  0.7546771E-02  0.1163574E+00
         21   -1    0    0  501  502  0.00000000000E+00  0.00000000000E+00  0.48851351021E+02  0.48851351021E+02  0.00000000000E+00 0. -1.
         21   -1    0    0  502  503 -0.00000000000E+00 -0.00000000000E+00 -0.69776101709E+03  0.69776101709E+03  0.00000000000E+00 0.  1.
          6    1    1    2  501    0  0.63256331573E+02  0.93748363894E+01 -0.30774242628E+03  0.35878078540E+03  0.17300000000E+03 0.  1.
         -6    1    1    2    0  503 -0.63256331573E+02 -0.93748363894E+01 -0.34116723979E+03  0.38783158271E+03  0.17300000000E+03 0.  1.
<mgrwt>
<rscale>  2 0.18444037E+03</rscale>
<asrwt>0</asrwt>
<pdfrwt beam="1">  1       21 0.75155927E-02 0.18444037E+03</pdfrwt>
<pdfrwt beam="2">  1       21 0.10734784E+00 0.18444037E+03</pdfrwt>
<totfact> 0.92987269E+04</totfact>
</mgrwt>
</event>
<event>
 4    1  0.8126752E-001  0.2261889E+03  0.7546771E-02  0.1129351E+00
         21   -1    0    0  501  502  0.00000000000E+00  0.00000000000E+00  0.10491257957E+04  0.10491257957E+04  0.00000000000E+00 0. -1.
         21   -1    0    0  502  503 -0.00000000000E+00 -0.00000000000E+00 -0.60874696444E+02  0.60874696444E+02  0.00000000000E+00 0. -1.
          6    1    1    2  501    0  0.18071311410E+02  0.14458847407E+03  0.74165568120E+03  0.77538026064E+03  0.17300000000E+03 0. -1.
         -6    1    1    2    0  503 -0.18071311410E+02 -0.14458847407E+03  0.24659541806E+03  0.33462023151E+03  0.17300000000E+03 0. -1.
<mgrwt>
<rscale>  2 0.22618886E+03</rscale>
<asrwt>0</asrwt>
<pdfrwt beam="1">  1       21 0.16140396E+00 0.22618886E+03</pdfrwt>
<pdfrwt beam="2">  1       21 0.93653387E-02 0.22618886E+03</pdfrwt>
<totfact> 0.21908080E+04</totfact>
</mgrwt>
</event>
<event>
 4    1  0.8126752E-001  0.1785771E+03  0.7546771E-02  0.1169187E+00
         21   -1    0    0  503  502  0.00000000000E+00  0.00000000000E+00  0.12519611803E+03  0.12519611803E+03  0.00000000000E+00 0. -1.
         21   -1    0    0  501  503 -0.00000000000E+00 -0.00000000000E+00 -0.29166558640E+03  0.29166558640E+03  0.00000000000E+00 0. -1.
          6    1    1    2  501    0  0.15445739866E+02 -0.41499427632E+02 -0.90509084419E+01  0.17880629832E+03  0.17300000000E+03 0.  1.
         -6    1    1    2    0  502 -0.15445739866E+02  0.41499427632E+02 -0.15741855993E+03  0.23805540612E+03  0.17300000000E+03 0.  1.
<mgrwt>
<rscale>  2 0.17857708E+03</rscale>
<asrwt>0</asrwt>
<pdfrwt beam="1">  1       21 0.19260941E-01 0.17857708E+03</pdfrwt>
<pdfrwt beam="2">  1       21 0.44871629E-01 0.17857708E+03</pdfrwt>
<totfact> 0.11862072E+05</totfact>
</mgrwt>
</event>
<event>
 4    1  0.8126752E-001  0.1815617E+03  0.7546771E-02  0.1166300E+00
         21   -1    0    0  503  502  0.00000000000E+00  0.00000000000E+00  0.60431936320E+02  0.60431936320E+02  0.00000000000E+00 0.  1.
         21   -1    0    0  501  503 -0.00000000000E+00 -0.00000000000E+00 -0.63064896064E+03  0.63064896064E+03  0.00000000000E+00 0.  1.
          6    1    1    2  501    0  0.11059755262E+02 -0.53975242423E+02 -0.41208868702E+03  0.45031292559E+03  0.17300000000E+03 0. -1.
         -6    1    1    2    0  502 -0.11059755262E+02  0.53975242423E+02 -0.15812833729E+03  0.24076797137E+03  0.17300000000E+03 0. -1.
<mgrwt>
<rscale>  2 0.18156168E+03</rscale>
<asrwt>0</asrwt>
<pdfrwt beam="1">  1       21 0.92972213E-02 0.18156168E+03</pdfrwt>
<pdfrwt beam="2">  1       21 0.97022913E-01 0.18156168E+03</pdfrwt>
<totfact> 0.81737504E+04</totfact>
</mgrwt>
</event>
<event>
 4    1  0.8126752E-001  0.1822591E+03  0.7546771E-02  0.1165634E+00
         21   -1    0    0  501  502  0.00000000000E+00  0.00000000000E+00  0.16985208650E+03  0.16985208650E+03  0.00000000000E+00 0.  1.
         21   -1    0    0  502  503 -0.00000000000E+00 -0.00000000000E+00 -0.20840241422E+03  0.20840241422E+03  0.00000000000E+00 0.  1.
          6    1    1    2  501    0  0.51897904499E+02  0.24413138363E+02 -0.66201316400E+02  0.19390979374E+03  0.17300000000E+03 0.  1.
         -6    1    1    2    0  503 -0.51897904499E+02 -0.24413138363E+02  0.27650988686E+02  0.18434470698E+03  0.17300000000E+03 0.  1.
<mgrwt>
<rscale>  2 0.18225914E+03</rscale>
<asrwt>0</asrwt>
<pdfrwt beam="1">  1       21 0.26131090E-01 0.18225914E+03</pdfrwt>
<pdfrwt beam="2">  1       21 0.32061910E-01 0.18225914E+03</pdfrwt>
<totfact> 0.13067589E+05</totfact>
</mgrwt>
</event>
<event>
 4    1  0.8126752E-001  0.1904303E+03  0.7546771E-02  0.1158074E+00
         21   -1    0    0  503  502  0.00000000000E+00  0.00000000000E+00  0.15052675592E+04  0.15052675592E+04  0.00000000000E+00 0.  1.
         21   -1    0    0  501  503 -0.00000000000E+00 -0.00000000000E+00 -0.29896227333E+02  0.29896227333E+02  0.00000000000E+00 0.  1.
          6    1    1    2  501    0  0.43157697345E+02 -0.66873846816E+02  0.39945050551E+03  0.44252051318E+03  0.17300000000E+03 0. -1.
         -6    1    1    2    0  502 -0.43157697345E+02  0.66873846816E+02  0.10759208263E+04  0.10926432733E+04  0.17300000000E+03 0. -1.
<mgrwt>
<rscale>  2 0.19043030E+03</rscale>
<asrwt>0</asrwt>
<pdfrwt beam="1">  1       21 0.23157957E+00 0.19043030E+03</pdfrwt>
<pdfrwt beam="2">  1       21 0.45994207E-02 0.19043030E+03</pdfrwt>
<totfact> 0.26553777E+04</totfact>
</mgrwt>
</event>
<event>
 4    1  0.8126752E-001  0.2435553E+03  0.7546771E-02  0.1117447E+00
         21   -1    0    0  501  502  0.00000000000E+00  0.00000000000E+00  0.21197408929E+03  0.21197408929E+03  0.00000000000E+00 0. -1.
         21   -1    0    0  502  503 -0.00000000000E+00 -0.00000000000E+00 -0.28208414536E+03  0.28208414536E+03  0.00000000000E+00 0.  1.
          6    1    1    2  501    0  0.10925313757E+03 -0.13211337310E+03 -0.13029878428E+02  0.24390360627E+03  0.17300000000E+03 0.  1.
         -6    1    1    2    0  503 -0.10925313757E+03  0.13211337310E+03 -0.57080177639E+02  0.25015462838E+03  0.17300000000E+03 0. -1.
<mgrwt>
<rscale>  2 0.24355531E+03</rscale>
<asrwt>0</asrwt>
<pdfrwt beam="1">  1       21 0.32611398E-01 0.24355531E+03</pdfrwt>
<pdfrwt beam="2">  1       21 0.43397561E-01 0.24355531E+03</pdfrwt>
<totfact> 0.45115257E+04</totfact>
</mgrwt>
</event>
<event>
 4    1  0.8126752E-001  0.1774717E+03  0.7546771E-02  0.1170273E+00
         21   -1    0    0  501  502  0.00000000000E+00  0.00000000000E+00  0.18769217739E+03  0.18769217739E+03  0.00000000000E+00 0. -1.
         21   -1    0    0  502  503 -0.00000000000E+00 -0.00000000000E+00 -0.16907632409E+03  0.16907632409E+03  0.00000000000E+00 0. -1.
          6    1    1    2  501    0  0.32201357225E+02 -0.23027579857E+02 -0.61438248665E+01  0.17757799251E+03  0.17300000000E+03 0. -1.
         -6    1    1    2    0  503 -0.32201357225E+02  0.23027579857E+02  0.24759678170E+02  0.17919050897E+03  0.17300000000E+03 0. -1.
<mgrwt>
<rscale>  2 0.17747168E+03</rscale>
<asrwt>0</asrwt>
<pdfrwt beam="1">  1       21 0.28875720E-01 0.17747168E+03</pdfrwt>
<pdfrwt beam="2">  1       21 0.26011742E-01 0.17747168E+03</pdfrwt>
<totfact> 0.16191050E+05</totfact>
</mgrwt>
</event>
<event>
 4    1  0.8126752E-001  0.2461061E+03  0.7546771E-02  0.1115791E+00
         21   -1    0    0  503  502  0.00000000000E+00  0.00000000000E+00  0.19436795627E+03  0.19436795627E+03  0.00000000000E+00 0. -1.
         21   -1    0    0  501  503 -0.00000000000E+00 -0.00000000000E+00 -0.31339142337E+03  0.31339142337E+03  0.00000000000E+00 0. -1.
          6    1    1    2  501    0  0.14541371849E+03 -0.97437583516E+02 -0.40404706678E+02  0.24940082704E+03  0.17300000000E+03 0. -1.
         -6    1    1    2    0  502 -0.14541371849E+03  0.97437583516E+02 -0.78618760427E+02  0.25835855259E+03  0.17300000000E+03 0. -1.
<mgrwt>
<rscale>  2 0.24610614E+03</rscale>
<asrwt>0</asrwt>
<pdfrwt beam="1">  1       21 0.29902763E-01 0.24610614E+03</pdfrwt>
<pdfrwt beam="2">  1       21 0.48214064E-01 0.24610614E+03</pdfrwt>
<totfact> 0.42991342E+04</totfact>
</mgrwt>
</event>
<event>
 4    1  0.8126752E-001  0.2261646E+03  0.7546771E-02  0.1129369E+00
         21   -1    0    0  501  502  0.00000000000E+00  0.00000000000E+00  0.32733602667E+03  0.32733602667E+03  0.00000000000E+00 0.  1.
         21   -1    0    0  502  503 -0.00000000000E+00 -0.00000000000E+00 -0.27586207563E+03  0.27586207563E+03  0.00000000000E+00 0. -1.
          6    1    1    2  501    0 -0.14432856237E+03 -0.19766185879E+02  0.22432282106E+03  0.31854538777E+03  0.17300000000E+03 0.  1.
         -6    1    1    2    0  503  0.14432856237E+03  0.19766185879E+02 -0.17284887003E+03  0.28465271453E+03  0.17300000000E+03 0. -1.
<mgrwt>
<rscale>  2 0.22616462E+03</rscale>
<asrwt>0</asrwt>
<pdfrwt beam="1">  1       21 0.50359389E-01 0.22616462E+03</pdfrwt>
<pdfrwt beam="2">  1       21 0.42440319E-01 0.22616462E+03</pdfrwt>
<totfact> 0.19668123E+04</totfact>
</mgrwt>
</event>
<event>
 4    1  0.8126752E-001  0.1811617E+03  0.7546771E-02  0.1166683E+00
         21   -1    0    0  501  502  0.00000000000E+00  0.00000000000E+00  0.48566626974E+03  0.48566626974E+03  0.00000000000E+00 0.  1.
         21   -1    0    0  502  503 -0.00000000000E+00 -0.00000000000E+00 -0.11366285312E+03  0.11366285312E+03  0.00000000000E+00 0.  1.
          6    1    1    2  501    0  0.41047510092E+02 -0.34722916098E+02  0.37681681018E+03  0.41810344106E+03  0.17300000000E+03 0.  1.
         -6    1    1    2    0  503 -0.41047510092E+02  0.34722916098E+02 -0.48133935575E+01  0.18122568180E+03  0.17300000000E+03 0.  1.
<mgrwt>
<rscale>  2 0.18116175E+03</rscale>
<asrwt>0</asrwt>
<pdfrwt beam="1">  1       21 0.74717887E-01 0.18116175E+03</pdfrwt>
<pdfrwt beam="2">  1       21 0.17486593E-01 0.18116175E+03</pdfrwt>
<totfact> 0.47751987E+04</totfact>
</mgrwt>
</event>
<event>
 4    1  0.8126752E-001  0.1778278E+03  0.7546771E-02  0.1169922E+00
         21   -1    0    0  503  502  0.00000000000E+00  0.00000000000E+00  0.36650075419E+03  0.36650075419E+03  0.00000000000E+00 0.  1.
         21   -1    0    0  501  503 -0.00000000000E+00 -0.00000000000E+00 -0.87152105775E+02  0.87152105775E+02  0.00000000000E+00 0. -1.
          6    1    1    2  501    0  0.22734159810E+01 -0.41091922717E+02  0.11702064346E+03  0.21287683183E+03  0.17300000000E+03 0. -1.
         -6    1    1    2    0  502 -0.22734159810E+01  0.41091922717E+02  0.16232800495E+03  0.24077602813E+03  0.17300000000E+03 0. -1.
<mgrwt>
<rscale>  2 0.17782777E+03</rscale>
<asrwt>0</asrwt>
<pdfrwt beam="1">  1       21 0.56384731E-01 0.17782777E+03</pdfrwt>
<pdfrwt beam="2">  1       21 0.13408016E-01 0.17782777E+03</pdfrwt>
<totfact> 0.14296977E+05</totfact>
</mgrwt>
</event>
<event>
 4    1  0.8126752E-001  0.2273622E+03  0.7546771E-02  0.1128510E+00
         21   -1    0    0  503  502  0.00000000000E+00  0.00000000000E+00  0.78494329134E+02  0.78494329134E+02  0.00000000000E+00 0. -1.
         21   -1    0    0  501  503 -0.00000000000E+00 -0.00000000000E+00 -0.92627570400E+03  0.92627570400E+03  0.00000000000E+00 0. -1.
          6    1    1    2  501    0  0.13187356717E+02 -0.14693756624E+03 -0.69397543693E+03  0.73027081402E+03  0.17300000000E+03 0. -1.
         -6    1    1    2    0  502 -0.13187356717E+02  0.14693756624E+03 -0.15380593794E+03  0.27449921912E+03  0.17300000000E+03 0. -1.
<mgrwt>
<rscale>  2 0.22736217E+03</rscale>
<asrwt>0</asrwt>
<pdfrwt beam="1">  1       21 0.12076051E-01 0.22736217E+03</pdfrwt>
<pdfrwt beam="2">  1       21 0.14250394E+00 0.22736217E+03</pdfrwt>
<totfact> 0.19396349E+04</totfact>
</mgrwt>
</event>
<event>
 4    1  0.8126752E-001  0.2190248E+03  0.7546771E-02  0.1134612E+00
         21   -1    0    0  501  502  0.00000000000E+00  0.00000000000E+00  0.83265976866E+03  0.83265976866E+03  0.00000000000E+00 0. -1.
         21   -1    0    0  502  503 -0.00000000000E+00 -0.00000000000E+00 -0.81296629063E+02  0.81296629063E+02  0.00000000000E+00 0. -1.
          6    1    1    2  501    0 -0.10683051814E+03 -0.81425530268E+02  0.62233377170E+03  0.65975086206E+03  0.17300000000E+03 0. -1.
         -6    1    1    2    0  503  0.10683051814E+03  0.81425530268E+02  0.12902936790E+03  0.25420553567E+03  0.17300000000E+03 0. -1.
<mgrwt>
<rscale>  2 0.21902483E+03</rscale>
<asrwt>0</asrwt>
<pdfrwt beam="1">  1       21 0.12810150E+00 0.21902483E+03</pdfrwt>
<pdfrwt beam="2">  1       21 0.12507174E-01 0.21902483E+03</pdfrwt>
<totfact> 0.24053170E+04</totfact>
</mgrwt>
</event>
<event>
 4    1  0.8126752E-001  0.1758004E+03  0.7546771E-02  0.1171930E+00
         21   -1    0    0  503  502  0.00000000000E+00  0.00000000000E+00  0.49903216817E+02  0.49903216817E+02  0.00000000000E+00 0. -1.
         21   -1    0    0  501  503 -0.00000000000E+00 -0.00000000000E+00 -0.62467602713E+03  0.62467602713E+03  0.00000000000E+00 0. -1.
          6    1    1    2  501    0  0.50284723453E+01 -0.30846093638E+02 -0.31863532610E+03  0.36391515229E+03  0.17300000000E+03 0. -1.
         -6    1    1    2    0  502 -0.50284723453E+01  0.30846093638E+02 -0.25613748421E+03  0.31066409166E+03  0.17300000000E+03 0. -1.
<mgrwt>
<rscale>  2 0.17580036E+03</rscale>
<asrwt>0</asrwt>
<pdfrwt beam="1">  1       21 0.76774182E-02 0.17580036E+03</pdfrwt>
<pdfrwt beam="2">  1       21 0.96104001E-01 0.17580036E+03</pdfrwt>
<totfact> 0.11698717E+05</totfact>
</mgrwt>
</event>
<event>
 4    1  0.8126752E-001  0.1878432E+03  0.7546771E-02  0.1160421E+00
         21   -1    0    0  501  502  0.00000000000E+00  0.00000000000E+00  0.13390242788E+04  0.13390242788E+04  0.00000000000E+00 0. -1.
         21   -1    0    0  502  503 -0.00000000000E+00 -0.00000000000E+00 -0.34064378604E+02  0.34064378604E+02  0.00000000000E+00 0.  1.
          6    1    1    2  501    0 -0.52232385025E+01  0.72998452460E+02  0.97916682352E+03  0.99702192783E+03  0.17300000000E+03 0. -1.
         -6    1    1    2    0  503  0.52232385025E+01 -0.72998452460E+02  0.32579307663E+03  0.37606672953E+03  0.17300000000E+03 0.  1.
<mgrwt>
<rscale>  2 0.18784317E+03</rscale>
<asrwt>0</asrwt>
<pdfrwt beam="1">  1       21 0.20600369E+00 0.18784317E+03</pdfrwt>
<pdfrwt beam="2">  1       21 0.52406747E-02 0.18784317E+03</pdfrwt>
<totfact> 0.30643125E+04</totfact>
</mgrwt>
</event>
<event>
 4    1  0.8126752E-001  0.2434010E+03  0.7546771E-02  0.1117548E+00
         21   -1    0    0  503  502  0.00000000000E+00  0.00000000000E+00  0.27613108248E+03  0.27613108248E+03  0.00000000000E+00 0. -1.
         21   -1    0    0  501  503 -0.00000000000E+00 -0.00000000000E+00 -0.21470440418E+03  0.21470440418E+03  0.00000000000E+00 0. -1.
          6    1    1    2  501    0 -0.15556693814E+03 -0.71512028048E+02  0.37285525166E+02  0.24624023389E+03  0.17300000000E+03 0. -1.
         -6    1    1    2    0  502  0.15556693814E+03  0.71512028048E+02  0.24141153134E+02  0.24459525276E+03  0.17300000000E+03 0. -1.
<mgrwt>
<rscale>  2 0.24340099E+03</rscale>
<asrwt>0</asrwt>
<pdfrwt beam="1">  1       21 0.42481705E-01 0.24340099E+03</pdfrwt>
<pdfrwt beam="2">  1       21 0.33031447E-01 0.24340099E+03</pdfrwt>
<totfact> 0.45956917E+04</totfact>
</mgrwt>
</event>
<event>
 4    1  0.8126752E-001  0.1761675E+03  0.7546771E-02  0.1171565E+00
         21   -1    0    0  503  502  0.00000000000E+00  0.00000000000E+00  0.67159618233E+02  0.67159618233E+02  0.00000000000E+00 0.  1.
         21   -1    0    0  501  503 -0.00000000000E+00 -0.00000000000E+00 -0.67390173405E+03  0.67390173405E+03  0.00000000000E+00 0.  1.
          6    1    1    2  501    0 -0.20008574426E+02 -0.26564144272E+02 -0.95649086138E+02  0.20045883490E+03  0.17300000000E+03 0.  1.
         -6    1    1    2    0  502  0.20008574426E+02  0.26564144272E+02 -0.51109302968E+03  0.54060251738E+03  0.17300000000E+03 0.  1.
<mgrwt>
<rscale>  2 0.17616752E+03</rscale>
<asrwt>0</asrwt>
<pdfrwt beam="1">  1       21 0.10332249E-01 0.17616752E+03</pdfrwt>
<pdfrwt beam="2">  1       21 0.10367719E+00 0.17616752E+03</pdfrwt>
<totfact> 0.58148588E+04</totfact>
</mgrwt>
</event>
<event>
 4    1  0.8126752E-001  0.1778997E+03  0.7546771E-02  0.1169851E+00
         21   -1    0    0  503  502  0.00000000000E+00  0.00000000000E+00  0.71227304525E+02  0.71227304525E+02  0.00000000000E+00 0. -1.
         21   -1    0    0  501  503 -0.00000000000E+00 -0.00000000000E+00 -0.50293041398E+03  0.50293041398E+03  0.00000000000E+00 0. -1.
          6    1    1    2  501    0 -0.15129184029E+01  0.41436781045E+02 -0.31384668528E+03  0.36076036036E+03  0.17300000000E+03 0. -1.
         -6    1    1    2    0  502  0.15129184029E+01 -0.41436781045E+02 -0.11785642418E+03  0.21339735815E+03  0.17300000000E+03 0. -1.
<mgrwt>
<rscale>  2 0.17789968E+03</rscale>
<asrwt>0</asrwt>
<pdfrwt beam="1">  1       21 0.10958047E-01 0.17789968E+03</pdfrwt>
<pdfrwt beam="2">  1       21 0.77373912E-01 0.17789968E+03</pdfrwt>
<totfact> 0.10290213E+05</totfact>
</mgrwt>
</event>
<event>
 4    1  0.8126752E-001  0.1870755E+03  0.7546771E-02  0.1161126E+00
         21   -1    0    0  503  502  0.00000000000E+00  0.00000000000E+00  0.10892452251E+03  0.10892452251E+03  0.00000000000E+00 0.  1.
         21   -1    0    0  501  503 -0.00000000000E+00 -0.00000000000E+00 -0.56556577464E+03  0.56556577464E+03  0.00000000000E+00 0.  1.
          6    1    1    2  501    0 -0.31740642425E+02 -0.63724198536E+02 -0.44995501770E+03  0.48729535173E+03  0.17300000000E+03 0.  1.
         -6    1    1    2    0  502  0.31740642425E+02  0.63724198536E+02 -0.66862344277E+01  0.18719494542E+03  0.17300000000E+03 0.  1.
<mgrwt>
<rscale>  2 0.18707550E+03</rscale>
<asrwt>0</asrwt>
<pdfrwt beam="1">  1       21 0.16757619E-01 0.18707550E+03</pdfrwt>
<pdfrwt beam="2">  1       21 0.87010118E-01 0.18707550E+03</pdfrwt>
<totfact> 0.36486134E+04</totfact>
</mgrwt>
</event>
<event>
 4    1  0.8126752E-001  0.2887476E+03  0.7546771E-02  0.1091005E+00
         21   -1    0    0  501  502  0.00000000000E+00  0.00000000000E+00  0.10435704391E+03  0.10435704391E+03  0.00000000000E+00 0. -1.
         21   -1    0    0  502  503 -0.00000000000E+00 -0.00000000000E+00 -0.80608058102E+03  0.80608058102E+03  0.00000000000E+00 0.  1.
          6    1    1    2  501    0 -0.35880882048E+02 -0.22838286018E+03 -0.30802137118E+03  0.42219940032E+03  0.17300000000E+03 0.  1.
         -6    1    1    2    0  503  0.35880882048E+02  0.22838286018E+03 -0.39370216593E+03  0.48823822462E+03  0.17300000000E+03 0.  1.
<mgrwt>
<rscale>  2 0.28874759E+03</rscale>
<asrwt>0</asrwt>
<pdfrwt beam="1">  1       21 0.16054930E-01 0.28874759E+03</pdfrwt>
<pdfrwt beam="2">  1       21 0.12401240E+00 0.28874759E+03</pdfrwt>
<totfact> 0.15975992E+04</totfact>
</mgrwt>
</event>
<event>
 4    1  0.8126752E-001  0.2044513E+03  0.7546771E-02  0.1146037E+00
         21   -1    0    0  503  502  0.00000000000E+00  0.00000000000E+00  0.83918736369E+02  0.83918736369E+02  0.00000000000E+00 0. -1.
         21   -1    0    0  501  503 -0.00000000000E+00 -0.00000000000E+00 -0.89395734775E+03  0.89395734775E+03  0.00000000000E+00 0.  1.
          6    1    1    2  501    0 -0.96974379879E+02 -0.49672087864E+02 -0.73037769774E+03  0.75845364264E+03  0.17300000000E+03 0.  1.
         -6    1    1    2    0  502  0.96974379879E+02  0.49672087864E+02 -0.79660913639E+02  0.21942244149E+03  0.17300000000E+03 0. -1.
<mgrwt>
<rscale>  2 0.20445133E+03</rscale>
<asrwt>0</asrwt>
<pdfrwt beam="1">  1       21 0.12910575E-01 0.20445133E+03</pdfrwt>
<pdfrwt beam="2">  1       21 0.13753189E+00 0.20445133E+03</pdfrwt>
<totfact> 0.19130656E+04</totfact>
</mgrwt>
</event>
<event>
 4    1  0.8126752E-001  0.1875829E+03  0.7546771E-02  0.1160660E+00
         21   -1    0    0  501  502  0.00000000000E+00  0.00000000000E+00  0.42943658286E+03  0.42943658286E+03  0.00000000000E+00 0.  1.
         21   -1    0    0  502  503 -0.00000000000E+00 -0.00000000000E+00 -0.83358789396E+02  0.83358789396E+02  0.00000000000E+00 0. -1.
          6    1    1    2  501    0  0.27750028610E+01 -0.72461419055E+02  0.13957025731E+03  0.23381021068E+03  0.17300000000E+03 0. -1.
         -6    1    1    2    0  503 -0.27750028610E+01  0.72461419055E+02  0.20650753616E+03  0.27898516158E+03  0.17300000000E+03 0.  1.
<mgrwt>
<rscale>  2 0.18758294E+03</rscale>
<asrwt>0</asrwt>
<pdfrwt beam="1">  1       21 0.66067165E-01 0.18758294E+03</pdfrwt>
<pdfrwt beam="2">  1       21 0.12824429E-01 0.18758294E+03</pdfrwt>
<totfact> 0.10977849E+05</totfact>
</mgrwt>
</event>
<event>
 4    1  0.8126752E-001  0.2235069E+03  0.7546771E-02  0.1131295E+00
         21   -1    0    0  503  502  0.00000000000E+00  0.00000000000E+00  0.62745552717E+02  0.62745552717E+02  0.00000000000E+00 0. -1.
         21   -1    0    0  501  503 -0.00000000000E+00 -0.00000000000E+00 -0.10192915129E+04  0.10192915129E+04  0.00000000000E+00 0. -1.
          6    1    1    2  501    0  0.11200411222E+03  0.86495287426E+02 -0.73140414439E+03  0.76479237596E+03  0.17300000000E+03 0. -1.
         -6    1    1    2    0  502 -0.11200411222E+03 -0.86495287426E+02 -0.22514181583E+03  0.31724468969E+03  0.17300000000E+03 0. -1.
<mgrwt>
<rscale>  2 0.22350695E+03</rscale>
<asrwt>0</asrwt>
<pdfrwt beam="1">  1       21 0.96531632E-02 0.22350695E+03</pdfrwt>
<pdfrwt beam="2">  1       21 0.15681406E+00 0.22350695E+03</pdfrwt>
<totfact> 0.22492144E+04</totfact>
</mgrwt>
</event>
<event>
 4    1  0.8126752E-001  0.2192660E+03  0.7546771E-02  0.1134431E+00
         21   -1    0    0  501  502  0.00000000000E+00  0.00000000000E+00  0.53561726929E+02  0.53561726929E+02  0.00000000000E+00 0. -1.
         21   -1    0    0  502  503 -0.00000000000E+00 -0.00000000000E+00 -0.94937895211E+03  0.94937895211E+03  0.00000000000E+00 0. -1.
          6    1    1    2  501    0 -0.55343890486E+01 -0.13460300603E+03 -0.33080894137E+03  0.39687800945E+03  0.17300000000E+03 0. -1.
         -6    1    1    2    0  503  0.55343890486E+01  0.13460300603E+03 -0.56500828381E+03  0.60606266959E+03  0.17300000000E+03 0. -1.
<mgrwt>
<rscale>  2 0.21926605E+03</rscale>
<asrwt>0</asrwt>
<pdfrwt beam="1">  1       21 0.82402652E-02 0.21926605E+03</pdfrwt>
<pdfrwt beam="2">  1       21 0.14605831E+00 0.21926605E+03</pdfrwt>
<totfact> 0.35967666E+04</totfact>
</mgrwt>
</event>
<event>
 4    1  0.8126752E-001  0.1903923E+03  0.7546771E-02  0.1158108E+00
         21   -1    0    0  501  502  0.00000000000E+00  0.00000000000E+00  0.10208967959E+04  0.10208967959E+04  0.00000000000E+00 0.  1.
         21   -1    0    0  502  503 -0.00000000000E+00 -0.00000000000E+00 -0.39109667660E+02  0.39109667660E+02  0.00000000000E+00 0. -1.
          6    1    1    2  501    0  0.64509056209E+02 -0.46463037861E+02  0.33003884250E+03  0.38101820138E+03  0.17300000000E+03 0. -1.
         -6    1    1    2    0  503 -0.64509056209E+02  0.46463037861E+02  0.65174828574E+03  0.67898826218E+03  0.17300000000E+03 0.  1.
<mgrwt>
<rscale>  2 0.19039231E+03</rscale>
<asrwt>0</asrwt>
<pdfrwt beam="1">  1       21 0.15706103E+00 0.19039231E+03</pdfrwt>
<pdfrwt beam="2">  1       21 0.60168727E-02 0.19039231E+03</pdfrwt>
<totfact> 0.51982844E+04</totfact>
</mgrwt>
</event>
<event>
 4    1  0.8126752E-001  0.2623921E+03  0.7546771E-02  0.1105714E+00
         21   -1    0    0  501  502  0.00000000000E+00  0.00000000000E+00  0.22983210866E+02  0.22983210866E+02  0.00000000000E+00 0.  1.
         21   -1    0    0  502  503 -0.00000000000E+00 -0.00000000000E+00 -0.31599684710E+04  0.31599684710E+04  0.00000000000E+00 0.  1.
          6    1    1    2  501    0 -0.74399135278E+02 -0.18271673801E+03 -0.12055793167E+04  0.12338035202E+04  0.17300000000E+03 0.  1.
         -6    1    1    2    0  503  0.74399135278E+02  0.18271673801E+03 -0.19314059435E+04  0.19491481617E+04  0.17300000000E+03 0.  1.
<mgrwt>
<rscale>  2 0.26239214E+03</rscale>
<asrwt>0</asrwt>
<pdfrwt beam="1">  1       21 0.35358761E-02 0.26239214E+03</pdfrwt>
<pdfrwt beam="2">  1       21 0.48614933E+00 0.26239214E+03</pdfrwt>
<totfact> 0.10370799E+03</totfact>
</mgrwt>
</event>
<event>
 4    1  0.8126752E-001  0.2503654E+03  0.7546771E-02  0.1113074E+00
         21   -1    0    0  501  502  0.00000000000E+00  0.00000000000E+00  0.12036022397E+04  0.12036022397E+04  0.00000000000E+00 0. -1.
         21   -1    0    0  502  503 -0.00000000000E+00 -0.00000000000E+00 -0.58660975258E+02  0.58660975258E+02  0.00000000000E+00 0. -1.
          6    1    1    2  501    0  0.14328605390E+03  0.11055740892E+03  0.78387382810E+03  0.82288578326E+03  0.17300000000E+03 0. -1.
         -6    1    1    2    0  503 -0.14328605390E+03 -0.11055740892E+03  0.36106743639E+03  0.43937743175E+03  0.17300000000E+03 0. -1.
<mgrwt>
<rscale>  2 0.25036540E+03</rscale>
<asrwt>0</asrwt>
<pdfrwt beam="1">  1       21 0.18516956E+00 0.25036540E+03</pdfrwt>
<pdfrwt beam="2">  1       21 0.90247663E-02 0.25036540E+03</pdfrwt>
<totfact> 0.15690730E+04</totfact>
</mgrwt>
</event>
<event>
 4    1  0.8126752E-001  0.2329420E+03  0.7546771E-02  0.1124586E+00
         21   -1    0    0  503  502  0.00000000000E+00  0.00000000000E+00  0.60103073015E+03  0.60103073015E+03  0.00000000000E+00 0. -1.
         21   -1    0    0  501  503 -0.00000000000E+00 -0.00000000000E+00 -0.93693258819E+02  0.93693258819E+02  0.00000000000E+00 0.  1.
          6    1    1    2  501    0 -0.67216594127E+02 -0.14076539734E+03  0.18738361603E+03  0.29895582812E+03  0.17300000000E+03 0.  1.
         -6    1    1    2    0  502  0.67216594127E+02  0.14076539734E+03  0.31995385531E+03  0.39576816085E+03  0.17300000000E+03 0. -1.
<mgrwt>
<rscale>  2 0.23294198E+03</rscale>
<asrwt>0</asrwt>
<pdfrwt beam="1">  1       21 0.92466264E-01 0.23294198E+03</pdfrwt>
<pdfrwt beam="2">  1       21 0.14414348E-01 0.23294198E+03</pdfrwt>
<totfact> 0.40778252E+04</totfact>
</mgrwt>
</event>
<event>
 4    1  0.8126752E-001  0.1769707E+03  0.7546771E-02  0.1170767E+00
         21   -1    0    0  501  502  0.00000000000E+00  0.00000000000E+00  0.19560603285E+02  0.19560603285E+02  0.00000000000E+00 0.  1.
         21   -1    0    0  502  503 -0.00000000000E+00 -0.00000000000E+00 -0.16528883783E+04  0.16528883783E+04  0.00000000000E+00 0.  1.
          6    1    1    2  501    0  0.32089369217E+02 -0.18971086499E+02 -0.66865575239E+03  0.69167849826E+03  0.17300000000E+03 0.  1.
         -6    1    1    2    0  503 -0.32089369217E+02  0.18971086499E+02 -0.96467202260E+03  0.98077048330E+03  0.17300000000E+03 0.  1.
<mgrwt>
<rscale>  2 0.17697070E+03</rscale>
<asrwt>0</asrwt>
<pdfrwt beam="1">  1       21 0.30093234E-02 0.17697070E+03</pdfrwt>
<pdfrwt beam="2">  1       21 0.25429054E+00 0.17697070E+03</pdfrwt>
<totfact> 0.40015941E+04</totfact>
</mgrwt>
</event>
<event>
 4    1  0.8126752E-001  0.1895383E+03  0.7546771E-02  0.1158878E+00
         21   -1    0    0  501  502  0.00000000000E+00  0.00000000000E+00  0.84530969737E+02  0.84530969737E+02  0.00000000000E+00 0.  1.
         21   -1    0    0  502  503 -0.00000000000E+00 -0.00000000000E+00 -0.43059038929E+03  0.43059038929E+03  0.00000000000E+00 0. -1.
          6    1    1    2  501    0 -0.62471726268E+02  0.45750043729E+02 -0.20240431116E+03  0.27729458751E+03  0.17300000000E+03 0. -1.
         -6    1    1    2    0  503  0.62471726268E+02 -0.45750043729E+02 -0.14365510839E+03  0.23782677152E+03  0.17300000000E+03 0. -1.
<mgrwt>
<rscale>  2 0.18953834E+03</rscale>
<asrwt>0</asrwt>
<pdfrwt beam="1">  1       21 0.13004765E-01 0.18953834E+03</pdfrwt>
<pdfrwt beam="2">  1       21 0.66244675E-01 0.18953834E+03</pdfrwt>
<totfact> 0.10635501E+05</totfact>
</mgrwt>
</event>
<event>
 4    1  0.8126752E-001  0.2184267E+03  0.7546771E-02  0.1135061E+00
         21   -1    0    0  501  502  0.00000000000E+00  0.00000000000E+00  0.50575309253E+02  0.50575309253E+02  0.00000000000E+00 0.  1.
         21   -1    0    0  502  503 -0.00000000000E+00 -0.00000000000E+00 -0.10380103521E+04  0.10380103521E+04  0.00000000000E+00 0.  1.
          6    1    1    2  501    0 -0.86059213523E+02  0.10185794423E+03 -0.32935025668E+03  0.39519845725E+03  0.17300000000E+03 0. -1.
         -6    1    1    2    0  503  0.86059213523E+02 -0.10185794423E+03 -0.65808478620E+03  0.69338720414E+03  0.17300000000E+03 0. -1.
<mgrwt>
<rscale>  2 0.21842671E+03</rscale>
<asrwt>0</asrwt>
<pdfrwt beam="1">  1       21 0.77808169E-02 0.21842671E+03</pdfrwt>
<pdfrwt beam="2">  1       21 0.15969390E+00 0.21842671E+03</pdfrwt>
<totfact> 0.31359169E+04</totfact>
</mgrwt>
</event>
<event>
 4    1  0.8126752E-001  0.2094670E+03  0.7546771E-02  0.1141989E+00
         21   -1    0    0  501  502  0.00000000000E+00  0.00000000000E+00  0.11064765309E+03  0.11064765309E+03  0.00000000000E+00 0. -1.
         21   -1    0    0  502  503 -0.00000000000E+00 -0.00000000000E+00 -0.40690421549E+03  0.40690421549E+03  0.00000000000E+00 0. -1.
          6    1    1    2  501    0 -0.72083661724E+02 -0.93548857483E+02 -0.10683267545E+03  0.23513754181E+03  0.17300000000E+03 0. -1.
         -6    1    1    2    0  503  0.72083661724E+02  0.93548857483E+02 -0.18942388695E+03  0.28241432678E+03  0.17300000000E+03 0. -1.
<mgrwt>
<rscale>  2 0.20946705E+03</rscale>
<asrwt>0</asrwt>
<pdfrwt beam="1">  1       21 0.17022716E-01 0.20946705E+03</pdfrwt>
<pdfrwt beam="2">  1       21 0.62600649E-01 0.20946705E+03</pdfrwt>
<totfact> 0.73046804E+04</totfact>
</mgrwt>
</event>
<event>
 4    1  0.8126752E-001  0.1854880E+03  0.7546771E-02  0.1162595E+00
         21   -1    0    0  503  502  0.00000000000E+00  0.00000000000E+00  0.30622395728E+02  0.30622395728E+02  0.00000000000E+00 0.  1.
         21   -1    0    0  501  503 -0.00000000000E+00 -0.00000000000E+00 -0.12155786342E+04  0.12155786342E+04  0.00000000000E+00 0. -1.
          6    1    1    2  501    0 -0.14879204658E+02 -0.65233603588E+02 -0.42103247826E+03  0.46008060329E+03  0.17300000000E+03 0.  1.
         -6    1    1    2    0  502  0.14879204658E+02  0.65233603588E+02 -0.76392376018E+03  0.78612042661E+03  0.17300000000E+03 0.  1.
<mgrwt>
<rscale>  2 0.18548804E+03</rscale>
<asrwt>0</asrwt>
<pdfrwt beam="1">  1       21 0.47111375E-02 0.18548804E+03</pdfrwt>
<pdfrwt beam="2">  1       21 0.18701211E+00 0.18548804E+03</pdfrwt>
<totfact> 0.48781836E+04</totfact>
</mgrwt>
</event>
<event>
 4    1  0.8126752E-001  0.1934550E+03  0.7546771E-02  0.1155382E+00
         21   -1    0    0  503  502  0.00000000000E+00  0.00000000000E+00  0.10897280296E+03  0.10897280296E+03  0.00000000000E+00 0. -1.
         21   -1    0    0  501  503 -0.00000000000E+00 -0.00000000000E+00 -0.10072924054E+04  0.10072924054E+04  0.00000000000E+00 0. -1.
          6    1    1    2  501    0 -0.79654961872E+02 -0.33925346221E+02 -0.90226361066E+03  0.92276999582E+03  0.17300000000E+03 0. -1.
         -6    1    1    2    0  502  0.79654961872E+02  0.33925346221E+02  0.39440082326E+01  0.19349521252E+03  0.17300000000E+03 0. -1.
<mgrwt>
<rscale>  2 0.19345501E+03</rscale>
<asrwt>0</asrwt>
<pdfrwt beam="1">  1       21 0.16765047E-01 0.19345501E+03</pdfrwt>
<pdfrwt beam="2">  1       21 0.15496806E+00 0.19345501E+03</pdfrwt>
<totfact> 0.87716972E+03</totfact>
</mgrwt>
</event>
<event>
 4    1  0.8126752E-001  0.2326598E+03  0.7546771E-02  0.1124782E+00
         21   -1    0    0  501  502  0.00000000000E+00  0.00000000000E+00  0.44818457942E+03  0.44818457942E+03  0.00000000000E+00 0.  1.
         21   -1    0    0  502  503 -0.00000000000E+00 -0.00000000000E+00 -0.16704484503E+03  0.16704484503E+03  0.00000000000E+00 0.  1.
          6    1    1    2  501    0 -0.53205925431E+02 -0.14618726453E+03  0.30246288836E+03  0.38159453042E+03  0.17300000000E+03 0.  1.
         -6    1    1    2    0  503  0.53205925431E+02  0.14618726453E+03 -0.21323153973E+02  0.23363489403E+03  0.17300000000E+03 0.  1.
<mgrwt>
<rscale>  2 0.23265981E+03</rscale>
<asrwt>0</asrwt>
<pdfrwt beam="1">  1       21 0.68951474E-01 0.23265981E+03</pdfrwt>
<pdfrwt beam="2">  1       21 0.25699207E-01 0.23265981E+03</pdfrwt>
<totfact> 0.26938348E+04</totfact>
</mgrwt>
</event>
<event>
 4    1  0.8126752E-001  0.1981063E+03  0.7546771E-02  0.1151347E+00
         21   -1    0    0  503  502  0.00000000000E+00  0.00000000000E+00  0.12725424621E+04  0.12725424621E+04  0.00000000000E+00 0.  1.
         21   -1    0    0  501  503 -0.00000000000E+00 -0.00000000000E+00 -0.30877485447E+02  0.30877485447E+02  0.00000000000E+00 0. -1.
          6    1    1    2  501    0 -0.26102455620E+02  0.92928816076E+02  0.64332607608E+03  0.67313783374E+03  0.17300000000E+03 0.  1.
         -6    1    1    2    0  502  0.26102455620E+02 -0.92928816076E+02  0.59833890057E+03  0.63028211380E+03  0.17300000000E+03 0. -1.
<mgrwt>
<rscale>  2 0.19810629E+03</rscale>
<asrwt>0</asrwt>
<pdfrwt beam="1">  1       21 0.19577572E+00 0.19810629E+03</pdfrwt>
<pdfrwt beam="2">  1       21 0.47503834E-02 0.19810629E+03</pdfrwt>
<totfact> 0.41788919E+04</totfact>
</mgrwt>
</event>
<event>
 4    1  0.8126752E-001  0.2106072E+03  0.7546771E-02  0.1141086E+00
         21   -1    0    0  501  502  0.00000000000E+00  0.00000000000E+00  0.23946753791E+03  0.23946753791E+03  0.00000000000E+00 0.  1.
         21   -1    0    0  502  503 -0.00000000000E+00 -0.00000000000E+00 -0.18848325625E+03  0.18848325625E+03  0.00000000000E+00 0.  1.
          6    1    1    2  501    0  0.12907234134E+02  0.11941444064E+03  0.53624849591E+02  0.21732701125E+03  0.17300000000E+03 0.  1.
         -6    1    1    2    0  503 -0.12907234134E+02 -0.11941444064E+03 -0.26405679354E+01  0.21062378291E+03  0.17300000000E+03 0.  1.
<mgrwt>
<rscale>  2 0.21060723E+03</rscale>
<asrwt>0</asrwt>
<pdfrwt beam="1">  1       21 0.36841160E-01 0.21060723E+03</pdfrwt>
<pdfrwt beam="2">  1       21 0.28997424E-01 0.21060723E+03</pdfrwt>
<totfact> 0.80280383E+04</totfact>
</mgrwt>
</event>
<event>
 4    1  0.8126752E-001  0.1740433E+03  0.7546771E-02  0.1173696E+00
         21   -1    0    0  501  502  0.00000000000E+00  0.00000000000E+00  0.43594382610E+02  0.43594382610E+02  0.00000000000E+00 0.  1.
         21   -1    0    0  502  503 -0.00000000000E+00 -0.00000000000E+00 -0.69486565892E+03  0.69486565892E+03  0.00000000000E+00 0.  1.
          6    1    1    2  501    0  0.53979687337E+01  0.18246336615E+02 -0.32793280971E+03  0.37125596904E+03  0.17300000000E+03 0. -1.
         -6    1    1    2    0  503 -0.53979687337E+01 -0.18246336615E+02 -0.32333846660E+03  0.36720407248E+03  0.17300000000E+03 0. -1.
<mgrwt>
<rscale>  2 0.17404329E+03</rscale>
<asrwt>0</asrwt>
<pdfrwt beam="1">  1       21 0.67068286E-02 0.17404329E+03</pdfrwt>
<pdfrwt beam="2">  1       21 0.10690240E+00 0.17404329E+03</pdfrwt>
<totfact> 0.11481714E+05</totfact>
</mgrwt>
</event>
<event>
 4    1  0.8126752E-001  0.1798112E+03  0.7546771E-02  0.1167986E+00
         21   -1    0    0  501  502  0.00000000000E+00  0.00000000000E+00  0.17830956132E+03  0.17830956132E+03  0.00000000000E+00 0.  1.
         21   -1    0    0  502  503 -0.00000000000E+00 -0.00000000000E+00 -0.23207143375E+03  0.23207143375E+03  0.00000000000E+00 0.  1.
          6    1    1    2  501    0 -0.26670994773E+02  0.41130750615E+02  0.69069461672E+02  0.19262053666E+03  0.17300000000E+03 0.  1.
         -6    1    1    2    0  503  0.26670994773E+02 -0.41130750615E+02 -0.12283133410E+03  0.21776045841E+03  0.17300000000E+03 0.  1.
<mgrwt>
<rscale>  2 0.17981124E+03</rscale>
<asrwt>0</asrwt>
<pdfrwt beam="1">  1       21 0.27432240E-01 0.17981124E+03</pdfrwt>
<pdfrwt beam="2">  1       21 0.35703297E-01 0.17981124E+03</pdfrwt>
<totfact> 0.96349880E+04</totfact>
</mgrwt>
</event>
<event>
 4    1  0.8126752E-001  0.2333659E+03  0.7546771E-02  0.1124293E+00
         21   -1    0    0  503  502  0.00000000000E+00  0.00000000000E+00  0.47968114964E+03  0.47968114964E+03  0.00000000000E+00 0.  1.
         21   -1    0    0  501  503 -0.00000000000E+00 -0.00000000000E+00 -0.12196583421E+03  0.12196583421E+03  0.00000000000E+00 0. -1.
          6    1    1    2  501    0  0.14553699908E+03 -0.57876084406E+02  0.25795800656E+03  0.34785340647E+03  0.17300000000E+03 0.  1.
         -6    1    1    2    0  502 -0.14553699908E+03  0.57876084406E+02  0.99757308861E+02  0.25379357738E+03  0.17300000000E+03 0. -1.
<mgrwt>
<rscale>  2 0.23336593E+03</rscale>
<asrwt>0</asrwt>
<pdfrwt beam="1">  1       21 0.73797099E-01 0.23336593E+03</pdfrwt>
<pdfrwt beam="2">  1       21 0.18763975E-01 0.23336593E+03</pdfrwt>
<totfact> 0.42003554E+04</totfact>
</mgrwt>
</event>
<event>
 4    1  0.8126752E-001  0.1750076E+03  0.7546771E-02  0.1172724E+00
         21   -1    0    0  501  502  0.00000000000E+00  0.00000000000E+00  0.73252490479E+02  0.73252490479E+02  0.00000000000E+00 0. -1.
         21   -1    0    0  502  503 -0.00000000000E+00 -0.00000000000E+00 -0.49223205212E+03  0.49223205212E+03  0.00000000000E+00 0. -1.
          6    1    1    2  501    0  0.26347247907E+02 -0.21187100167E+01 -0.99772051541E+02  0.20145006496E+03  0.17300000000E+03 0. -1.
         -6    1    1    2    0  503 -0.26347247907E+02  0.21187100167E+01 -0.31920751010E+03  0.36403447763E+03  0.17300000000E+03 0. -1.
<mgrwt>
<rscale>  2 0.17500762E+03</rscale>
<asrwt>0</asrwt>
<pdfrwt beam="1">  1       21 0.11269614E-01 0.17500762E+03</pdfrwt>
<pdfrwt beam="2">  1       21 0.75728006E-01 0.17500762E+03</pdfrwt>
<totfact> 0.10284620E+05</totfact>
</mgrwt>
</event>
<event>
 4    1  0.8126752E-001  0.1774899E+03  0.7546771E-02  0.1170255E+00
         21   -1    0    0  503  502  0.00000000000E+00  0.00000000000E+00  0.74502972998E+03  0.74502972998E+03  0.00000000000E+00 0. -1.
         21   -1    0    0  501  503 -0.00000000000E+00 -0.00000000000E+00 -0.49544010849E+02  0.49544010849E+02  0.00000000000E+00 0. -1.
          6    1    1    2  501    0  0.23046039482E+02 -0.32288320411E+02  0.49982721943E+03  0.53040541556E+03  0.17300000000E+03 0. -1.
         -6    1    1    2    0  502 -0.23046039482E+02  0.32288320411E+02  0.19565849970E+03  0.26416832527E+03  0.17300000000E+03 0. -1.
<mgrwt>
<rscale>  2 0.17748987E+03</rscale>
<asrwt>0</asrwt>
<pdfrwt beam="1">  1       21 0.11461995E+00 0.17748987E+03</pdfrwt>
<pdfrwt beam="2">  1       21 0.76221561E-02 0.17748987E+03</pdfrwt>
<totfact> 0.77685585E+04</totfact>
</mgrwt>
</event>
<event>
 4    1  0.8126752E-001  0.1923434E+03  0.7546771E-02  0.1156365E+00
         21   -1    0    0  501  502  0.00000000000E+00  0.00000000000E+00  0.21685388971E+03  0.21685388971E+03  0.00000000000E+00 0. -1.
         21   -1    0    0  502  503 -0.00000000000E+00 -0.00000000000E+00 -0.25605281945E+03  0.25605281945E+03  0.00000000000E+00 0.  1.
          6    1    1    2  501    0  0.63626409708E+02 -0.54942528815E+02  0.11699571269E+03  0.22513106910E+03  0.17300000000E+03 0. -1.
         -6    1    1    2    0  503 -0.63626409708E+02  0.54942528815E+02 -0.15619464242E+03  0.24777564006E+03  0.17300000000E+03 0.  1.
<mgrwt>
<rscale>  2 0.19234345E+03</rscale>
<asrwt>0</asrwt>
<pdfrwt beam="1">  1       21 0.33362137E-01 0.19234345E+03</pdfrwt>
<pdfrwt beam="2">  1       21 0.39392741E-01 0.19234345E+03</pdfrwt>
<totfact> 0.53762880E+04</totfact>
</mgrwt>
</event>
<event>
 4    1  0.8126752E-001  0.3763552E+03  0.7546771E-02  0.1052289E+00
         21   -1    0    0  501  502  0.00000000000E+00  0.00000000000E+00  0.35992598628E+03  0.35992598628E+03  0.00000000000E+00 0. -1.
         21   -1    0    0  502  503 -0.00000000000E+00 -0.00000000000E+00 -0.81914357080E+03  0.81914357080E+03  0.00000000000E+00 0.  1.
          6    1    1    2  501    0 -0.14316737677E+02 -0.33393002077E+03  0.19533838361E+03  0.42402866868E+03  0.17300000000E+03 0. -1.
         -6    1    1    2    0  503  0.14316737677E+02  0.33393002077E+03 -0.65455596812E+03  0.75504088840E+03  0.17300000000E+03 0.  1.
<mgrwt>
<rscale>  2 0.37635519E+03</rscale>
<asrwt>0</asrwt>
<pdfrwt beam="1">  1       21 0.55373229E-01 0.37635519E+03</pdfrwt>
<pdfrwt beam="2">  1       21 0.12602209E+00 0.37635519E+03</pdfrwt>
<totfact> 0.12650028E+03</totfact>
</mgrwt>
</event>
<event>
 4    1  0.8126752E-001  0.1780825E+03  0.7546771E-02  0.1169672E+00
         21   -1    0    0  503  502  0.00000000000E+00  0.00000000000E+00  0.11070974109E+04  0.11070974109E+04  0.00000000000E+00 0.  1.
         21   -1    0    0  501  503 -0.00000000000E+00 -0.00000000000E+00 -0.39428125611E+02  0.39428125611E+02  0.00000000000E+00 0.  1.
          6    1    1    2  501    0 -0.36058565240E+02  0.22003244932E+02  0.23404759818E+03  0.29409461254E+03  0.17300000000E+03 0.  1.
         -6    1    1    2    0  502  0.36058565240E+02 -0.22003244932E+02  0.83362168712E+03  0.85243092398E+03  0.17300000000E+03 0.  1.
<mgrwt>
<rscale>  2 0.17808246E+03</rscale>
<asrwt>0</asrwt>
<pdfrwt beam="1">  1       21 0.17032266E+00 0.17808246E+03</pdfrwt>
<pdfrwt beam="2">  1       21 0.60658663E-02 0.17808246E+03</pdfrwt>
<totfact> 0.41454872E+04</totfact>
</mgrwt>
</event>
<event>
 4    1  0.8126752E-001  0.2311887E+03  0.7546771E-02  0.1125806E+00
         21   -1    0    0  503  502  0.00000000000E+00  0.00000000000E+00  0.47471744590E+03  0.47471744590E+03  0.00000000000E+00 0. -1.
         21   -1    0    0  501  503 -0.00000000000E+00 -0.00000000000E+00 -0.11439815165E+03  0.11439815165E+03  0.00000000000E+00 0. -1.
          6    1    1    2  501    0 -0.31103363494E+02  0.15017254631E+03  0.21719659548E+03  0.31721061454E+03  0.17300000000E+03 0. -1.
         -6    1    1    2    0  502  0.31103363494E+02 -0.15017254631E+03  0.14312269876E+03  0.27190498301E+03  0.17300000000E+03 0. -1.
<mgrwt>
<rscale>  2 0.23118870E+03</rscale>
<asrwt>0</asrwt>
<pdfrwt beam="1">  1       21 0.73033452E-01 0.23118870E+03</pdfrwt>
<pdfrwt beam="2">  1       21 0.17599716E-01 0.23118870E+03</pdfrwt>
<totfact> 0.48473888E+04</totfact>
</mgrwt>
</event>
<event>
 4    1  0.8126752E-001  0.2866979E+03  0.7546771E-02  0.1092086E+00
         21   -1    0    0  503  502  0.00000000000E+00  0.00000000000E+00  0.22643584187E+03  0.22643584187E+03  0.00000000000E+00 0.  1.
         21   -1    0    0  501  503 -0.00000000000E+00 -0.00000000000E+00 -0.36480128511E+03  0.36480128511E+03  0.00000000000E+00 0.  1.
          6    1    1    2  501    0  0.15301579919E+03 -0.16986128081E+03 -0.89968772673E+02  0.30048306038E+03  0.17300000000E+03 0.  1.
         -6    1    1    2    0  502 -0.15301579919E+03  0.16986128081E+03 -0.48396670566E+02  0.29075406659E+03  0.17300000000E+03 0.  1.
<mgrwt>
<rscale>  2 0.28669791E+03</rscale>
<asrwt>0</asrwt>
<pdfrwt beam="1">  1       21 0.34836284E-01 0.28669791E+03</pdfrwt>
<pdfrwt beam="2">  1       21 0.56123274E-01 0.28669791E+03</pdfrwt>
<totfact> 0.22659734E+04</totfact>
</mgrwt>
</event>
<event>
 4    1  0.8126752E-001  0.1792726E+03  0.7546771E-02  0.1168509E+00
         21   -1    0    0  501  502  0.00000000000E+00  0.00000000000E+00  0.61423287635E+03  0.61423287635E+03  0.00000000000E+00 0. -1.
         21   -1    0    0  502  503 -0.00000000000E+00 -0.00000000000E+00 -0.54951673281E+02  0.54951673281E+02  0.00000000000E+00 0. -1.
          6    1    1    2  501    0 -0.21912694818E+02 -0.41587308630E+02  0.35281712034E+03  0.39575066751E+03  0.17300000000E+03 0. -1.
         -6    1    1    2    0  503  0.21912694818E+02  0.41587308630E+02  0.20646408274E+03  0.27343388212E+03  0.17300000000E+03 0. -1.
<mgrwt>
<rscale>  2 0.17927261E+03</rscale>
<asrwt>0</asrwt>
<pdfrwt beam="1">  1       21 0.94497361E-01 0.17927261E+03</pdfrwt>
<pdfrwt beam="2">  1       21 0.84541040E-02 0.17927261E+03</pdfrwt>
<totfact> 0.10277471E+05</totfact>
</mgrwt>
</event>
<event>
 4    1  0.8126752E-001  0.2294149E+03  0.7546771E-02  0.1127052E+00
         21   -1    0    0  503  502  0.00000000000E+00  0.00000000000E+00  0.18630160219E+03  0.18630160219E+03  0.00000000000E+00 0.  1.
         21   -1    0    0  501  503 -0.00000000000E+00 -0.00000000000E+00 -0.42716136942E+03  0.42716136942E+03  0.00000000000E+00 0.  1.
          6    1    1    2  501    0 -0.56820575417E+02 -0.13954791942E+03 -0.29892676231E+03  0.37681349343E+03  0.17300000000E+03 0.  1.
         -6    1    1    2    0  502  0.56820575417E+02  0.13954791942E+03  0.58066995074E+02  0.23664947818E+03  0.17300000000E+03 0.  1.
<mgrwt>
<rscale>  2 0.22941491E+03</rscale>
<asrwt>0</asrwt>
<pdfrwt beam="1">  1       21 0.28661785E-01 0.22941491E+03</pdfrwt>
<pdfrwt beam="2">  1       21 0.65717133E-01 0.22941491E+03</pdfrwt>
<totfact> 0.24282706E+04</totfact>
</mgrwt>
</event>
<event>
 4    1  0.8126752E-001  0.2052674E+03  0.7546771E-02  0.1145369E+00
         21   -1    0    0  503  502  0.00000000000E+00  0.00000000000E+00  0.29991565917E+03  0.29991565917E+03  0.00000000000E+00 0. -1.
         21   -1    0    0  501  503 -0.00000000000E+00 -0.00000000000E+00 -0.14498800915E+03  0.14498800915E+03  0.00000000000E+00 0. -1.
          6    1    1    2  501    0 -0.44138388684E+01  0.11039130340E+03  0.11665147109E+03  0.23609804647E+03  0.17300000000E+03 0. -1.
         -6    1    1    2    0  502  0.44138388684E+01 -0.11039130340E+03  0.38276178934E+02  0.20880562185E+03  0.17300000000E+03 0. -1.
<mgrwt>
<rscale>  2 0.20526744E+03</rscale>
<asrwt>0</asrwt>
<pdfrwt beam="1">  1       21 0.46140871E-01 0.20526744E+03</pdfrwt>
<pdfrwt beam="2">  1       21 0.22305848E-01 0.20526744E+03</pdfrwt>
<totfact> 0.84193555E+04</totfact>
</mgrwt>
</event>
<event>
 4    1  0.8126752E-001  0.1962713E+03  0.7546771E-02  0.1152924E+00
         21   -1    0    0  503  502  0.00000000000E+00  0.00000000000E+00  0.72557942581E+02  0.72557942581E+02  0.00000000000E+00 0. -1.
         21   -1    0    0  501  503 -0.00000000000E+00 -0.00000000000E+00 -0.54252183330E+03  0.54252183330E+03  0.00000000000E+00 0.  1.
          6    1    1    2  501    0  0.57958937694E+02 -0.72347680341E+02 -0.19000749732E+03  0.27317626974E+03  0.17300000000E+03 0. -1.
         -6    1    1    2    0  502 -0.57958937694E+02  0.72347680341E+02 -0.27995639339E+03  0.34190350614E+03  0.17300000000E+03 0. -1.
<mgrwt>
<rscale>  2 0.19627131E+03</rscale>
<asrwt>0</asrwt>
<pdfrwt beam="1">  1       21 0.11162761E-01 0.19627131E+03</pdfrwt>
<pdfrwt beam="2">  1       21 0.83464894E-01 0.19627131E+03</pdfrwt>
<totfact> 0.83271014E+04</totfact>
</mgrwt>
</event>
<event>
 4    1  0.8126752E-001  0.4231544E+03  0.7546771E-02  0.1036045E+00
         21   -1    0    0  501  502  0.00000000000E+00  0.00000000000E+00  0.13837737763E+03  0.13837737763E+03  0.00000000000E+00 0. -1.
         21   -1    0    0  502  503 -0.00000000000E+00 -0.00000000000E+00 -0.15521625487E+04  0.15521625487E+04  0.00000000000E+00 0.  1.
          6    1    1    2  501    0  0.35241398631E+03 -0.15790816989E+03 -0.36216358086E+03  0.55697582279E+03  0.17300000000E+03 0. -1.
         -6    1    1    2    0  503 -0.35241398631E+03  0.15790816989E+03 -0.10516215902E+04  0.11335641035E+04  0.17300000000E+03 0.  1.
<mgrwt>
<rscale>  2 0.42315435E+03</rscale>
<asrwt>0</asrwt>
<pdfrwt beam="1">  1       21 0.21288825E-01 0.42315435E+03</pdfrwt>
<pdfrwt beam="2">  1       21 0.23879426E+00 0.42315435E+03</pdfrwt>
<totfact> 0.13355921E+03</totfact>
</mgrwt>
</event>
<event>
 4    1  0.8126752E-001  0.2068030E+03  0.7546771E-02  0.1144123E+00
         21   -1    0    0  503  502  0.00000000000E+00  0.00000000000E+00  0.10746578056E+04  0.10746578056E+04  0.00000000000E+00 0. -1.
         21   -1    0    0  501  503 -0.00000000000E+00 -0.00000000000E+00 -0.40447274450E+02  0.40447274450E+02  0.00000000000E+00 0. -1.
          6    1    1    2  501    0 -0.10376713240E+03  0.45506517708E+02  0.58783558254E+03  0.62315177367E+03  0.17300000000E+03 0. -1.
         -6    1    1    2    0  502  0.10376713240E+03 -0.45506517708E+02  0.44637494864E+03  0.49195330641E+03  0.17300000000E+03 0. -1.
<mgrwt>
<rscale>  2 0.20680295E+03</rscale>
<asrwt>0</asrwt>
<pdfrwt beam="1">  1       21 0.16533195E+00 0.20680295E+03</pdfrwt>
<pdfrwt beam="2">  1       21 0.62226584E-02 0.20680295E+03</pdfrwt>
<totfact> 0.42294317E+04</totfact>
</mgrwt>
</event>
<event>
 4    1  0.8126752E-001  0.1802438E+03  0.7546771E-02  0.1167567E+00
         21   -1    0    0  503  502  0.00000000000E+00  0.00000000000E+00  0.90944534111E+03  0.90944534111E+03  0.00000000000E+00 0. -1.
         21   -1    0    0  501  503 -0.00000000000E+00 -0.00000000000E+00 -0.36885871496E+02  0.36885871496E+02  0.00000000000E+00 0. -1.
          6    1    1    2  501    0 -0.49904623776E+02 -0.82673619848E+01  0.52030494461E+03  0.55064058707E+03  0.17300000000E+03 0. -1.
         -6    1    1    2    0  502  0.49904623776E+02  0.82673619848E+01  0.35225452501E+03  0.39569062554E+03  0.17300000000E+03 0. -1.
<mgrwt>
<rscale>  2 0.18024378E+03</rscale>
<asrwt>0</asrwt>
<pdfrwt beam="1">  1       21 0.13991465E+00 0.18024378E+03</pdfrwt>
<pdfrwt beam="2">  1       21 0.56747501E-02 0.18024378E+03</pdfrwt>
<totfact> 0.78204333E+04</totfact>
</mgrwt>
</event>
<event>
 4    1  0.8126752E-001  0.1780502E+03  0.7546771E-02  0.1169704E+00
         21   -1    0    0  503  502  0.00000000000E+00  0.00000000000E+00  0.89457663168E+03  0.89457663168E+03  0.00000000000E+00 0. -1.
         21   -1    0    0  501  503 -0.00000000000E+00 -0.00000000000E+00 -0.35468403579E+02  0.35468403579E+02  0.00000000000E+00 0.  1.
          6    1    1    2  501    0 -0.65333044366E+01 -0.41595538712E+02  0.41590574155E+03  0.45241513985E+03  0.17300000000E+03 0. -1.
         -6    1    1    2    0  502  0.65333044366E+01  0.41595538712E+02  0.44320248655E+03  0.47762989541E+03  0.17300000000E+03 0. -1.
<mgrwt>
<rscale>  2 0.17805020E+03</rscale>
<asrwt>0</asrwt>
<pdfrwt beam="1">  1       21 0.13762716E+00 0.17805020E+03</pdfrwt>
<pdfrwt beam="2">  1       21 0.54566781E-02 0.17805020E+03</pdfrwt>
<totfact> 0.87311724E+04</totfact>
</mgrwt>
</event>
<event>
 4    1  0.8126752E-001  0.1885196E+03  0.7546771E-02  0.1159803E+00
         21   -1    0    0  503  502  0.00000000000E+00  0.00000000000E+00  0.11354665028E+04  0.11354665028E+04  0.00000000000E+00 0.  1.
         21   -1    0    0  501  503 -0.00000000000E+00 -0.00000000000E+00 -0.38691571815E+02  0.38691571815E+02  0.00000000000E+00 0.  1.
          6    1    1    2  501    0  0.50743070742E+02  0.55097901513E+02  0.29178029936E+03  0.34738362235E+03  0.17300000000E+03 0.  1.
         -6    1    1    2    0  502 -0.50743070742E+02 -0.55097901513E+02  0.80499463160E+03  0.82677445224E+03  0.17300000000E+03 0.  1.
<mgrwt>
<rscale>  2 0.18851960E+03</rscale>
<asrwt>0</asrwt>
<pdfrwt beam="1">  1       21 0.17468713E+00 0.18851960E+03</pdfrwt>
<pdfrwt beam="2">  1       21 0.59525504E-02 0.18851960E+03</pdfrwt>
<totfact> 0.39660287E+04</totfact>
</mgrwt>
</event>
<event>
 4    1  0.8126752E-001  0.1813068E+03  0.7546771E-02  0.1166544E+00
         21   -1    0    0  503  502  0.00000000000E+00  0.00000000000E+00  0.99450955488E+02  0.99450955488E+02  0.00000000000E+00 0. -1.
         21   -1    0    0  501  503 -0.00000000000E+00 -0.00000000000E+00 -0.33092925729E+03  0.33092925729E+03  0.00000000000E+00 0. -1.
          6    1    1    2  501    0  0.54152056581E+02  0.32741771977E+01 -0.10832525989E+03  0.21120257432E+03  0.17300000000E+03 0.  1.
         -6    1    1    2    0  502 -0.54152056581E+02 -0.32741771977E+01 -0.12315304191E+03  0.21917763846E+03  0.17300000000E+03 0.  1.
<mgrwt>
<rscale>  2 0.18130683E+03</rscale>
<asrwt>0</asrwt>
<pdfrwt beam="1">  1       21 0.15300147E-01 0.18130683E+03</pdfrwt>
<pdfrwt beam="2">  1       21 0.50912193E-01 0.18130683E+03</pdfrwt>
<totfact> 0.13936363E+05</totfact>
</mgrwt>
</event>
<event>
 4    1  0.8126752E-001  0.2438123E+03  0.7546771E-02  0.1117279E+00
         21   -1    0    0  503  502  0.00000000000E+00  0.00000000000E+00  0.91043230245E+03  0.91043230245E+03  0.00000000000E+00 0. -1.
         21   -1    0    0  501  503 -0.00000000000E+00 -0.00000000000E+00 -0.72498580777E+02  0.72498580777E+02  0.00000000000E+00 0.  1.
          6    1    1    2  501    0  0.12536239690E+03 -0.11747209833E+03  0.26402205464E+03  0.35937733621E+03  0.17300000000E+03 0.  1.
         -6    1    1    2    0  502 -0.12536239690E+03  0.11747209833E+03  0.57391166703E+03  0.62355354702E+03  0.17300000000E+03 0. -1.
<mgrwt>
<rscale>  2 0.24381227E+03</rscale>
<asrwt>0</asrwt>
<pdfrwt beam="1">  1       21 0.14006650E+00 0.24381227E+03</pdfrwt>
<pdfrwt beam="2">  1       21 0.11153628E-01 0.24381227E+03</pdfrwt>
<totfact> 0.23183107E+04</totfact>
</mgrwt>
</event>
<event>
 4    1  0.8126752E-001  0.1880537E+03  0.7546771E-02  0.1160229E+00
         21   -1    0    0  501  502  0.00000000000E+00  0.00000000000E+00  0.70799951110E+02  0.70799951110E+02  0.00000000000E+00 0. -1.
         21   -1    0    0  502  503 -0.00000000000E+00 -0.00000000000E+00 -0.50989389889E+03  0.50989389889E+03  0.00000000000E+00 0. -1.
          6    1    1    2  501    0  0.50227151203E+02 -0.53966970209E+02 -0.26101154629E+03  0.32170052516E+03  0.17300000000E+03 0. -1.
         -6    1    1    2    0  503 -0.50227151203E+02  0.53966970209E+02 -0.17808240149E+03  0.25899332484E+03  0.17300000000E+03 0. -1.
<mgrwt>
<rscale>  2 0.18805372E+03</rscale>
<asrwt>0</asrwt>
<pdfrwt beam="1">  1       21 0.10892300E-01 0.18805372E+03</pdfrwt>
<pdfrwt beam="2">  1       21 0.78445215E-01 0.18805372E+03</pdfrwt>
<totfact> 0.10044407E+05</totfact>
</mgrwt>
</event>
<event>
 4    1  0.8126752E-001  0.2321975E+03  0.7546771E-02  0.1125103E+00
         21   -1    0    0  501  502  0.00000000000E+00  0.00000000000E+00  0.58746763315E+03  0.58746763315E+03  0.00000000000E+00 0. -1.
         21   -1    0    0  502  503 -0.00000000000E+00 -0.00000000000E+00 -0.91850148522E+02  0.91850148522E+02  0.00000000000E+00 0. -1.
          6    1    1    2  501    0 -0.13567289210E+03 -0.74696395475E+02  0.23818650325E+03  0.33263868608E+03  0.17300000000E+03 0. -1.
         -6    1    1    2    0  503  0.13567289210E+03  0.74696395475E+02  0.25743098137E+03  0.34667909559E+03  0.17300000000E+03 0. -1.
<mgrwt>
<rscale>  2 0.23219751E+03</rscale>
<asrwt>0</asrwt>
<pdfrwt beam="1">  1       21 0.90379634E-01 0.23219751E+03</pdfrwt>
<pdfrwt beam="2">  1       21 0.14130792E-01 0.23219751E+03</pdfrwt>
<totfact> 0.44610708E+04</totfact>
</mgrwt>
</event>
<event>
 4    1  0.8126752E-001  0.2667989E+03  0.7546771E-02  0.1103126E+00
         21   -1    0    0  503  502  0.00000000000E+00  0.00000000000E+00  0.13989650837E+04  0.13989650837E+04  0.00000000000E+00 0.  1.
         21   -1    0    0  501  503 -0.00000000000E+00 -0.00000000000E+00 -0.52026648835E+02  0.52026648835E+02  0.00000000000E+00 0.  1.
          6    1    1    2  501    0 -0.16977722060E+03  0.11148242488E+03  0.56584085935E+03  0.62558573657E+03  0.17300000000E+03 0.  1.
         -6    1    1    2    0  502  0.16977722060E+03 -0.11148242488E+03  0.78109757550E+03  0.82540599595E+03  0.17300000000E+03 0.  1.
<mgrwt>
<rscale>  2 0.26679887E+03</rscale>
<asrwt>0</asrwt>
<pdfrwt beam="1">  1       21 0.21522537E+00 0.26679887E+03</pdfrwt>
<pdfrwt beam="2">  1       21 0.80041009E-02 0.26679887E+03</pdfrwt>
<totfact> 0.12221548E+04</totfact>
</mgrwt>
</event>
<event>
 4    1  0.8126752E-001  0.2115588E+03  0.7546771E-02  0.1140337E+00
         21   -1    0    0  501  502  0.00000000000E+00  0.00000000000E+00  0.18921001918E+03  0.18921001918E+03  0.00000000000E+00 0. -1.
         21   -1    0    0  502  503 -0.00000000000E+00 -0.00000000000E+00 -0.23835158598E+03  0.23835158598E+03  0.00000000000E+00 0.  1.
          6    1    1    2  501    0  0.51333365318E+02 -0.11042199912E+03 -0.59711653677E+01  0.21164306532E+03  0.17300000000E+03 0.  1.
         -6    1    1    2    0  503 -0.51333365318E+02  0.11042199912E+03 -0.43170401439E+02  0.21591853984E+03  0.17300000000E+03 0. -1.
<mgrwt>
<rscale>  2 0.21155882E+03</rscale>
<asrwt>0</asrwt>
<pdfrwt beam="1">  1       21 0.29109234E-01 0.21155882E+03</pdfrwt>
<pdfrwt beam="2">  1       21 0.36669475E-01 0.21155882E+03</pdfrwt>
<totfact> 0.80398285E+04</totfact>
</mgrwt>
</event>
<event>
 4    1  0.8126752E-001  0.2128057E+03  0.7546771E-02  0.1139363E+00
         21   -1    0    0  503  502  0.00000000000E+00  0.00000000000E+00  0.16112963090E+04  0.16112963090E+04  0.00000000000E+00 0. -1.
         21   -1    0    0  501  503 -0.00000000000E+00 -0.00000000000E+00 -0.32176147268E+02  0.32176147268E+02  0.00000000000E+00 0.  1.
          6    1    1    2  501    0 -0.98075991058E+02  0.75752115117E+02  0.10818388904E+04  0.11025704820E+04  0.17300000000E+03 0. -1.
         -6    1    1    2    0  502  0.98075991058E+02 -0.75752115117E+02  0.49728127136E+03  0.54090197431E+03  0.17300000000E+03 0.  1.
<mgrwt>
<rscale>  2 0.21280574E+03</rscale>
<asrwt>0</asrwt>
<pdfrwt beam="1">  1       21 0.24789168E+00 0.21280574E+03</pdfrwt>
<pdfrwt beam="2">  1       21 0.49501778E-02 0.21280574E+03</pdfrwt>
<totfact> 0.18401246E+04</totfact>
</mgrwt>
</event>
<event>
 4    1  0.8126752E-001  0.2296220E+03  0.7546771E-02  0.1126906E+00
         21   -1    0    0  503  502  0.00000000000E+00  0.00000000000E+00  0.99053907295E+02  0.99053907295E+02  0.00000000000E+00 0. -1.
         21   -1    0    0  501  503 -0.00000000000E+00 -0.00000000000E+00 -0.61585934877E+03  0.61585934877E+03  0.00000000000E+00 0.  1.
          6    1    1    2  501    0 -0.12711346077E+03  0.81482588651E+02 -0.39007187977E+03  0.45263927751E+03  0.17300000000E+03 0.  1.
         -6    1    1    2    0  502  0.12711346077E+03 -0.81482588651E+02 -0.12673356170E+03  0.26227397855E+03  0.17300000000E+03 0. -1.
<mgrwt>
<rscale>  2 0.22962196E+03</rscale>
<asrwt>0</asrwt>
<pdfrwt beam="1">  1       21 0.15239063E-01 0.22962196E+03</pdfrwt>
<pdfrwt beam="2">  1       21 0.94747591E-01 0.22962196E+03</pdfrwt>
<totfact> 0.34844649E+04</totfact>
</mgrwt>
</event>
<event>
 4    1  0.8126752E-001  0.1771080E+03  0.7546771E-02  0.1170632E+00
         21   -1    0    0  503  502  0.00000000000E+00  0.00000000000E+00  0.77250703472E+02  0.77250703472E+02  0.00000000000E+00 0.  1.
         21   -1    0    0  501  503 -0.00000000000E+00 -0.00000000000E+00 -0.42509289414E+03  0.42509289414E+03  0.00000000000E+00 0.  1.
          6    1    1    2  501    0 -0.38500917972E+01 -0.37728411527E+02 -0.22708945613E+03  0.28798763399E+03  0.17300000000E+03 0.  1.
         -6    1    1    2    0  502  0.38500917972E+01  0.37728411527E+02 -0.12075273453E+03  0.21435596362E+03  0.17300000000E+03 0.  1.
<mgrwt>
<rscale>  2 0.17710804E+03</rscale>
<asrwt>0</asrwt>
<pdfrwt beam="1">  1       21 0.11884723E-01 0.17710804E+03</pdfrwt>
<pdfrwt beam="2">  1       21 0.65398909E-01 0.17710804E+03</pdfrwt>
<totfact> 0.12911080E+05</totfact>
</mgrwt>
</event>
<event>
 4    1  0.8126752E-001  0.1733874E+03  0.7546771E-02  0.1174361E+00
         21   -1    0    0  501  502  0.00000000000E+00  0.00000000000E+00  0.85186970629E+03  0.85186970629E+03  0.00000000000E+00 0.  1.
         21   -1    0    0  502  503 -0.00000000000E+00 -0.00000000000E+00 -0.35991767084E+02  0.35991767084E+02  0.00000000000E+00 0.  1.
          6    1    1    2  501    0  0.78330189548E+01 -0.85338185570E+01  0.46989100811E+03  0.50086000214E+03  0.17300000000E+03 0. -1.
         -6    1    1    2    0  503 -0.78330189548E+01  0.85338185570E+01  0.34598693110E+03  0.38700147123E+03  0.17300000000E+03 0. -1.
<mgrwt>
<rscale>  2 0.17338738E+03</rscale>
<asrwt>0</asrwt>
<pdfrwt beam="1">  1       21 0.13105686E+00 0.17338738E+03</pdfrwt>
<pdfrwt beam="2">  1       21 0.55371956E-02 0.17338738E+03</pdfrwt>
<totfact> 0.96624390E+04</totfact>
</mgrwt>
</event>
<event>
 4    1  0.8126752E-001  0.2824533E+03  0.7546771E-02  0.1094356E+00
         21   -1    0    0  503  502  0.00000000000E+00  0.00000000000E+00  0.46729801768E+03  0.46729801768E+03  0.00000000000E+00 0. -1.
         21   -1    0    0  501  503 -0.00000000000E+00 -0.00000000000E+00 -0.17820515259E+03  0.17820515259E+03  0.00000000000E+00 0. -1.
          6    1    1    2  501    0  0.20965728763E+03  0.76776952933E+02  0.21066708032E+03  0.35236415466E+03  0.17300000000E+03 0. -1.
         -6    1    1    2    0  502 -0.20965728763E+03 -0.76776952933E+02  0.78425784773E+02  0.29313901561E+03  0.17300000000E+03 0. -1.
<mgrwt>
<rscale>  2 0.28245332E+03</rscale>
<asrwt>0</asrwt>
<pdfrwt beam="1">  1       21 0.71892002E-01 0.28245332E+03</pdfrwt>
<pdfrwt beam="2">  1       21 0.27416178E-01 0.28245332E+03</pdfrwt>
<totfact> 0.21177218E+04</totfact>
</mgrwt>
</event>
<event>
 4    1  0.8126752E-001  0.2680700E+03  0.7546771E-02  0.1102389E+00
         21   -1    0    0  501  502  0.00000000000E+00  0.00000000000E+00  0.52494799819E+03  0.52494799819E+03  0.00000000000E+00 0.  1.
         21   -1    0    0  502  503 -0.00000000000E+00 -0.00000000000E+00 -0.14309464477E+03  0.14309464477E+03  0.00000000000E+00 0.  1.
          6    1    1    2  501    0 -0.17616283716E+03  0.10439919949E+03  0.26046547253E+03  0.37376971577E+03  0.17300000000E+03 0.  1.
         -6    1    1    2    0  503  0.17616283716E+03 -0.10439919949E+03  0.12138788089E+03  0.29427292719E+03  0.17300000000E+03 0.  1.
<mgrwt>
<rscale>  2 0.26807002E+03</rscale>
<asrwt>0</asrwt>
<pdfrwt beam="1">  1       21 0.80761229E-01 0.26807002E+03</pdfrwt>
<pdfrwt beam="2">  1       21 0.22014561E-01 0.26807002E+03</pdfrwt>
<totfact> 0.24974852E+04</totfact>
</mgrwt>
</event>
<event>
 4    1  0.8126752E-001  0.1816512E+03  0.7546771E-02  0.1166214E+00
         21   -1    0    0  501  502  0.00000000000E+00  0.00000000000E+00  0.11404888173E+03  0.11404888173E+03  0.00000000000E+00 0. -1.
         21   -1    0    0  502  503 -0.00000000000E+00 -0.00000000000E+00 -0.29270184201E+03  0.29270184201E+03  0.00000000000E+00 0. -1.
          6    1    1    2  501    0  0.10267527505E+02  0.54431161174E+02 -0.11117147025E+03  0.21297011346E+03  0.17300000000E+03 0. -1.
         -6    1    1    2    0  503 -0.10267527505E+02 -0.54431161174E+02 -0.67481490028E+02  0.19378061029E+03  0.17300000000E+03 0. -1.
<mgrwt>
<rscale>  2 0.18165124E+03</rscale>
<asrwt>0</asrwt>
<pdfrwt beam="1">  1       21 0.17545982E-01 0.18165124E+03</pdfrwt>
<pdfrwt beam="2">  1       21 0.45031052E-01 0.18165124E+03</pdfrwt>
<totfact> 0.13978099E+05</totfact>
</mgrwt>
</event>
<event>
 4    1  0.8126752E-001  0.1938298E+03  0.7546771E-02  0.1155052E+00
         21   -1    0    0  503  502  0.00000000000E+00  0.00000000000E+00  0.65707415492E+02  0.65707415492E+02  0.00000000000E+00 0.  1.
         21   -1    0    0  501  503 -0.00000000000E+00 -0.00000000000E+00 -0.57804496172E+03  0.57804496172E+03  0.00000000000E+00 0.  1.
          6    1    1    2  501    0 -0.35634570290E+02  0.79819591743E+02 -0.28968620409E+03  0.34855141179E+03  0.17300000000E+03 0. -1.
         -6    1    1    2    0  502  0.35634570290E+02 -0.79819591743E+02 -0.22265134214E+03  0.29520096542E+03  0.17300000000E+03 0. -1.
<mgrwt>
<rscale>  2 0.19382980E+03</rscale>
<asrwt>0</asrwt>
<pdfrwt beam="1">  1       21 0.10108833E-01 0.19382980E+03</pdfrwt>
<pdfrwt beam="2">  1       21 0.88929998E-01 0.19382980E+03</pdfrwt>
<totfact> 0.85939347E+04</totfact>
</mgrwt>
</event>
<event>
 4    1  0.8126752E-001  0.1759094E+03  0.7546771E-02  0.1171822E+00
         21   -1    0    0  503  502  0.00000000000E+00  0.00000000000E+00  0.70947466602E+03  0.70947466602E+03  0.00000000000E+00 0. -1.
         21   -1    0    0  501  503 -0.00000000000E+00 -0.00000000000E+00 -0.50176261006E+02  0.50176261006E+02  0.00000000000E+00 0. -1.
          6    1    1    2  501    0 -0.29441291067E+02  0.12178573921E+02  0.19230468175E+03  0.26062463028E+03  0.17300000000E+03 0. -1.
         -6    1    1    2    0  502  0.29441291067E+02 -0.12178573921E+02  0.46699372326E+03  0.49902629675E+03  0.17300000000E+03 0. -1.
<mgrwt>
<rscale>  2 0.17590937E+03</rscale>
<asrwt>0</asrwt>
<pdfrwt beam="1">  1       21 0.10914994E+00 0.17590937E+03</pdfrwt>
<pdfrwt beam="2">  1       21 0.77194253E-02 0.17590937E+03</pdfrwt>
<totfact> 0.85606901E+04</totfact>
</mgrwt>
</event>
<event>
 4    1  0.8126752E-001  0.1733263E+03  0.7546771E-02  0.1174423E+00
         21   -1    0    0  503  502  0.00000000000E+00  0.00000000000E+00  0.82394150810E+02  0.82394150810E+02  0.00000000000E+00 0. -1.
         21   -1    0    0  501  503 -0.00000000000E+00 -0.00000000000E+00 -0.47839406251E+03  0.47839406251E+03  0.00000000000E+00 0. -1.
          6    1    1    2  501    0  0.92369968755E+01 -0.52606479874E+01 -0.33474467577E+03  0.37695622356E+03  0.17300000000E+03 0.  1.
         -6    1    1    2    0  502 -0.92369968755E+01  0.52606479874E+01 -0.61255235932E+02  0.18383198976E+03  0.17300000000E+03 0.  1.
<mgrwt>
<rscale>  2 0.17332627E+03</rscale>
<asrwt>0</asrwt>
<pdfrwt beam="1">  1       21 0.12676023E-01 0.17332627E+03</pdfrwt>
<pdfrwt beam="2">  1       21 0.73599086E-01 0.17332627E+03</pdfrwt>
<totfact> 0.88902268E+04</totfact>
</mgrwt>
</event>
<event>
 4    1  0.8126752E-001  0.3062079E+03  0.7546771E-02  0.1082178E+00
         21   -1    0    0  501  502  0.00000000000E+00  0.00000000000E+00  0.83210736076E+02  0.83210736076E+02  0.00000000000E+00 0. -1.
         21   -1    0    0  502  503 -0.00000000000E+00 -0.00000000000E+00 -0.11846505647E+04  0.11846505647E+04  0.00000000000E+00 0. -1.
          6    1    1    2  501    0  0.20279304220E+03  0.15069588593E+03 -0.41065260739E+03  0.51224879888E+03  0.17300000000E+03 0. -1.
         -6    1    1    2    0  503 -0.20279304220E+03 -0.15069588593E+03 -0.69078722128E+03  0.75561250194E+03  0.17300000000E+03 0. -1.
<mgrwt>
<rscale>  2 0.30620788E+03</rscale>
<asrwt>0</asrwt>
<pdfrwt beam="1">  1       21 0.12801651E-01 0.30620788E+03</pdfrwt>
<pdfrwt beam="2">  1       21 0.18225395E+00 0.30620788E+03</pdfrwt>
<totfact> 0.85131541E+03</totfact>
</mgrwt>
</event>
<event>
 4    1  0.8126752E-001  0.2326812E+03  0.7546771E-02  0.1124767E+00
         21   -1    0    0  503  502  0.00000000000E+00  0.00000000000E+00  0.34531641474E+02  0.34531641474E+02  0.00000000000E+00 0.  1.
         21   -1    0    0  501  503 -0.00000000000E+00 -0.00000000000E+00 -0.15838834571E+04  0.15838834571E+04  0.00000000000E+00 0.  1.
          6    1    1    2  501    0  0.14239933259E+03 -0.62721218981E+02 -0.85608590124E+03  0.88714350110E+03  0.17300000000E+03 0.  1.
         -6    1    1    2    0  502 -0.14239933259E+03  0.62721218981E+02 -0.69326591439E+03  0.73127159748E+03  0.17300000000E+03 0.  1.
<mgrwt>
<rscale>  2 0.23268116E+03</rscale>
<asrwt>0</asrwt>
<pdfrwt beam="1">  1       21 0.53125622E-02 0.23268116E+03</pdfrwt>
<pdfrwt beam="2">  1       21 0.24367429E+00 0.23268116E+03</pdfrwt>
<totfact> 0.17015336E+04</totfact>
</mgrwt>
</event>
<event>
 4    1  0.8126752E-001  0.2381397E+03  0.7546771E-02  0.1121038E+00
         21   -1    0    0  503  502  0.00000000000E+00  0.00000000000E+00  0.12704811398E+04  0.12704811398E+04  0.00000000000E+00 0.  1.
         21   -1    0    0  501  503 -0.00000000000E+00 -0.00000000000E+00 -0.46122386465E+02  0.46122386465E+02  0.00000000000E+00 0. -1.
          6    1    1    2  501    0 -0.36611757972E+02 -0.15950257925E+03  0.49404242488E+03  0.54844180292E+03  0.17300000000E+03 0. -1.
         -6    1    1    2    0  502  0.36611757972E+02  0.15950257925E+03  0.73031632847E+03  0.76816172336E+03  0.17300000000E+03 0. -1.
<mgrwt>
<rscale>  2 0.23813965E+03</rscale>
<asrwt>0</asrwt>
<pdfrwt beam="1">  1       21 0.19545861E+00 0.23813965E+03</pdfrwt>
<pdfrwt beam="2">  1       21 0.70957527E-02 0.23813965E+03</pdfrwt>
<totfact> 0.20565047E+04</totfact>
</mgrwt>
</event>
<event>
 4    1  0.8126752E-001  0.2273015E+03  0.7546771E-02  0.1128554E+00
         21   -1    0    0  501  502  0.00000000000E+00  0.00000000000E+00  0.15241864474E+03  0.15241864474E+03  0.00000000000E+00 0. -1.
         21   -1    0    0  502  503 -0.00000000000E+00 -0.00000000000E+00 -0.35785657921E+03  0.35785657921E+03  0.00000000000E+00 0. -1.
          6    1    1    2  501    0 -0.14743193189E+03 -0.88539953562E+00 -0.16132611434E+03  0.27873297911E+03  0.17300000000E+03 0. -1.
         -6    1    1    2    0  503  0.14743193189E+03  0.88539953562E+00 -0.44111820129E+02  0.23154224485E+03  0.17300000000E+03 0. -1.
<mgrwt>
<rscale>  2 0.22730147E+03</rscale>
<asrwt>0</asrwt>
<pdfrwt beam="1">  1       21 0.23449022E-01 0.22730147E+03</pdfrwt>
<pdfrwt beam="2">  1       21 0.55054858E-01 0.22730147E+03</pdfrwt>
<totfact> 0.52408947E+04</totfact>
</mgrwt>
</event>
<event>
 4    1  0.8126752E-001  0.1742865E+03  0.7546771E-02  0.1173450E+00
         21   -1    0    0  501  502  0.00000000000E+00  0.00000000000E+00  0.68175258795E+02  0.68175258795E+02  0.00000000000E+00 0. -1.
         21   -1    0    0  502  503 -0.00000000000E+00 -0.00000000000E+00 -0.48232994466E+03  0.48232994466E+03  0.00000000000E+00 0. -1.
          6    1    1    2  501    0  0.17901487855E+02  0.11238624813E+02 -0.13107266691E+03  0.21807295560E+03  0.17300000000E+03 0. -1.
         -6    1    1    2    0  503 -0.17901487855E+02 -0.11238624813E+02 -0.28308201896E+03  0.33243224786E+03  0.17300000000E+03 0. -1.
<mgrwt>
<rscale>  2 0.17428646E+03</rscale>
<asrwt>0</asrwt>
<pdfrwt beam="1">  1       21 0.10488502E-01 0.17428646E+03</pdfrwt>
<pdfrwt beam="2">  1       21 0.74204604E-01 0.17428646E+03</pdfrwt>
<totfact> 0.12225190E+05</totfact>
</mgrwt>
</event>
<event>
 4    1  0.8126752E-001  0.3230753E+03  0.7546771E-02  0.1074243E+00
         21   -1    0    0  503  502  0.00000000000E+00  0.00000000000E+00  0.14099460951E+04  0.14099460951E+04  0.00000000000E+00 0.  1.
         21   -1    0    0  501  503 -0.00000000000E+00 -0.00000000000E+00 -0.23488094160E+03  0.23488094160E+03  0.00000000000E+00 0. -1.
          6    1    1    2  501    0  0.50056426657E+02  0.26822188713E+03 -0.93046836947E+02  0.33620728792E+03  0.17300000000E+03 0. -1.
         -6    1    1    2    0  502 -0.50056426657E+02 -0.26822188713E+03  0.12681119905E+04  0.13086197488E+04  0.17300000000E+03 0.  1.
<mgrwt>
<rscale>  2 0.32307526E+03</rscale>
<asrwt>0</asrwt>
<pdfrwt beam="1">  1       21 0.21691478E+00 0.32307526E+03</pdfrwt>
<pdfrwt beam="2">  1       21 0.36135530E-01 0.32307526E+03</pdfrwt>
<totfact> 0.68833519E+02</totfact>
</mgrwt>
</event>
<event>
 4    1  0.8126752E-001  0.1951777E+03  0.7546771E-02  0.1153873E+00
         21   -1    0    0  501  502  0.00000000000E+00  0.00000000000E+00  0.15423930790E+03  0.15423930790E+03  0.00000000000E+00 0.  1.
         21   -1    0    0  502  503 -0.00000000000E+00 -0.00000000000E+00 -0.30753859775E+03  0.30753859775E+03  0.00000000000E+00 0.  1.
          6    1    1    2  501    0  0.12370908894E+02  0.89511409432E+02  0.25805576110E+02  0.19687625444E+03  0.17300000000E+03 0. -1.
         -6    1    1    2    0  503 -0.12370908894E+02 -0.89511409432E+02 -0.17910486596E+03  0.26490165121E+03  0.17300000000E+03 0. -1.
<mgrwt>
<rscale>  2 0.19517769E+03</rscale>
<asrwt>0</asrwt>
<pdfrwt beam="1">  1       21 0.23729124E-01 0.19517769E+03</pdfrwt>
<pdfrwt beam="2">  1       21 0.47313630E-01 0.19517769E+03</pdfrwt>
<totfact> 0.71412366E+04</totfact>
</mgrwt>
</event>
<event>
 4    1  0.8126752E-001  0.2489214E+03  0.7546771E-02  0.1113988E+00
         21   -1    0    0  503  502  0.00000000000E+00  0.00000000000E+00  0.48686754309E+03  0.48686754309E+03  0.00000000000E+00 0.  1.
         21   -1    0    0  501  503 -0.00000000000E+00 -0.00000000000E+00 -0.14001355969E+03  0.14001355969E+03  0.00000000000E+00 0.  1.
          6    1    1    2  501    0  0.13423501632E+03 -0.11838001123E+03  0.78851785696E+02  0.26111198895E+03  0.17300000000E+03 0.  1.
         -6    1    1    2    0  502 -0.13423501632E+03  0.11838001123E+03  0.26800219770E+03  0.36576911384E+03  0.17300000000E+03 0.  1.
<mgrwt>
<rscale>  2 0.24892141E+03</rscale>
<asrwt>0</asrwt>
<pdfrwt beam="1">  1       21 0.74902698E-01 0.24892141E+03</pdfrwt>
<pdfrwt beam="2">  1       21 0.21540548E-01 0.24892141E+03</pdfrwt>
<totfact> 0.31131334E+04</totfact>
</mgrwt>
</event>
<event>
 4    1  0.8126752E-001  0.2128764E+03  0.7546771E-02  0.1139308E+00
         21   -1    0    0  501  502  0.00000000000E+00  0.00000000000E+00  0.50580202219E+03  0.50580202219E+03  0.00000000000E+00 0. -1.
         21   -1    0    0  502  503 -0.00000000000E+00 -0.00000000000E+00 -0.10453881150E+03  0.10453881150E+03  0.00000000000E+00 0. -1.
          6    1    1    2  501    0  0.11647591754E+03 -0.42669830366E+02  0.31602008413E+03  0.38103155691E+03  0.17300000000E+03 0. -1.
         -6    1    1    2    0  503 -0.11647591754E+03  0.42669830366E+02  0.85243126570E+02  0.22930927678E+03  0.17300000000E+03 0. -1.
<mgrwt>
<rscale>  2 0.21287638E+03</rscale>
<asrwt>0</asrwt>
<pdfrwt beam="1">  1       21 0.77815694E-01 0.21287638E+03</pdfrwt>
<pdfrwt beam="2">  1       21 0.16082894E-01 0.21287638E+03</pdfrwt>
<totfact> 0.50063851E+04</totfact>
</mgrwt>
</event>
<event>
 4    1  0.8126752E-001  0.3253783E+03  0.7546771E-02  0.1073200E+00
         21   -1    0    0  503  502  0.00000000000E+00  0.00000000000E+00  0.19426018840E+04  0.19426018840E+04  0.00000000000E+00 0.  1.
         21   -1    0    0  501  503 -0.00000000000E+00 -0.00000000000E+00 -0.54564724084E+02  0.54564724084E+02  0.00000000000E+00 0. -1.
          6    1    1    2  501    0  0.26330859166E+03 -0.81305578092E+02  0.97851892592E+03  0.10311984774E+04  0.17300000000E+03 0. -1.
         -6    1    1    2    0  502 -0.26330859166E+03  0.81305578092E+02  0.90951823400E+03  0.96596813066E+03  0.17300000000E+03 0.  1.
<mgrwt>
<rscale>  2 0.32537826E+03</rscale>
<asrwt>0</asrwt>
<pdfrwt beam="1">  1       21 0.29886178E+00 0.32537826E+03</pdfrwt>
<pdfrwt beam="2">  1       21 0.83945744E-02 0.32537826E+03</pdfrwt>
<totfact> 0.33896785E+03</totfact>
</mgrwt>
</event>
<event>
 4    1  0.8126752E-001  0.2068606E+03  0.7546771E-02  0.1144076E+00
         21   -1    0    0  503  502  0.00000000000E+00  0.00000000000E+00  0.75316088341E+02  0.75316088341E+02  0.00000000000E+00 0. -1.
         21   -1    0    0  501  503 -0.00000000000E+00 -0.00000000000E+00 -0.67846210701E+03  0.67846210701E+03  0.00000000000E+00 0.  1.
          6    1    1    2  501    0 -0.62505089431E+02  0.94633038854E+02 -0.45354035357E+03  0.49848786400E+03  0.17300000000E+03 0.  1.
         -6    1    1    2    0  502  0.62505089431E+02 -0.94633038854E+02 -0.14960566510E+03  0.25529033134E+03  0.17300000000E+03 0. -1.
<mgrwt>
<rscale>  2 0.20686058E+03</rscale>
<asrwt>0</asrwt>
<pdfrwt beam="1">  1       21 0.11587091E-01 0.20686058E+03</pdfrwt>
<pdfrwt beam="2">  1       21 0.10437878E+00 0.20686058E+03</pdfrwt>
<totfact> 0.45952871E+04</totfact>
</mgrwt>
</event>
<event>
 4    1  0.8126752E-001  0.1886278E+03  0.7546771E-02  0.1159705E+00
         21   -1    0    0  503  502  0.00000000000E+00  0.00000000000E+00  0.60763415304E+02  0.60763415304E+02  0.00000000000E+00 0.  1.
         21   -1    0    0  501  503 -0.00000000000E+00 -0.00000000000E+00 -0.58555804806E+03  0.58555804806E+03  0.00000000000E+00 0.  1.
          6    1    1    2  501    0  0.68636033803E+02  0.30668370869E+02 -0.26200383308E+03  0.32284123444E+03  0.17300000000E+03 0.  1.
         -6    1    1    2    0  502 -0.68636033803E+02 -0.30668370869E+02 -0.26279079967E+03  0.32348022892E+03  0.17300000000E+03 0.  1.
<mgrwt>
<rscale>  2 0.18862782E+03</rscale>
<asrwt>0</asrwt>
<pdfrwt beam="1">  1       21 0.93482182E-02 0.18862782E+03</pdfrwt>
<pdfrwt beam="2">  1       21 0.90085849E-01 0.18862782E+03</pdfrwt>
<totfact> 0.95949645E+04</totfact>
</mgrwt>
</event>
<event>
 4    1  0.8126752E-001  0.1925833E+03  0.7546771E-02  0.1156152E+00
         21   -1    0    0  501  502  0.00000000000E+00  0.00000000000E+00  0.14778611216E+02  0.14778611216E+02  0.00000000000E+00 0.  1.
         21   -1    0    0  502  503 -0.00000000000E+00 -0.00000000000E+00 -0.35101585664E+04  0.35101585664E+04  0.00000000000E+00 0. -1.
          6    1    1    2  501    0 -0.55715320854E+02 -0.63679967156E+02 -0.80671025116E+03  0.82937914401E+03  0.17300000000E+03 0.  1.
         -6    1    1    2    0  503  0.55715320854E+02  0.63679967156E+02 -0.26886697040E+04  0.26955580336E+04  0.17300000000E+03 0. -1.
<mgrwt>
<rscale>  2 0.19258332E+03</rscale>
<asrwt>0</asrwt>
<pdfrwt beam="1">  1       21 0.22736307E-02 0.19258332E+03</pdfrwt>
<pdfrwt beam="2">  1       21 0.54002483E+00 0.19258332E+03</pdfrwt>
<totfact> 0.97223764E+02</totfact>
</mgrwt>
</event>
<event>
 4    1  0.8126752E-001  0.1806016E+03  0.7546771E-02  0.1167222E+00
         21   -1    0    0  501  502  0.00000000000E+00  0.00000000000E+00  0.15701599895E+04  0.15701599895E+04  0.00000000000E+00 0.  1.
         21   -1    0    0  502  503 -0.00000000000E+00 -0.00000000000E+00 -0.21007049230E+02  0.21007049230E+02  0.00000000000E+00 0.  1.
          6    1    1    2  501    0 -0.36581604197E+02  0.36738813403E+02  0.85855042754E+03  0.87734017963E+03  0.17300000000E+03 0.  1.
         -6    1    1    2    0  503  0.36581604197E+02 -0.36738813403E+02  0.69060251275E+03  0.71382685911E+03  0.17300000000E+03 0.  1.
<mgrwt>
<rscale>  2 0.18060164E+03</rscale>
<asrwt>0</asrwt>
<pdfrwt beam="1">  1       21 0.24156298E+00 0.18060164E+03</pdfrwt>
<pdfrwt beam="2">  1       21 0.32318550E-02 0.18060164E+03</pdfrwt>
<totfact> 0.42104254E+04</totfact>
</mgrwt>
</event>
<event>
 4    1  0.8126752E-001  0.2257619E+03  0.7546771E-02  0.1129659E+00
         21   -1    0    0  503  502  0.00000000000E+00  0.00000000000E+00  0.56480829401E+02  0.56480829401E+02  0.00000000000E+00 0. -1.
         21   -1    0    0  501  503 -0.00000000000E+00 -0.00000000000E+00 -0.94636624698E+03  0.94636624698E+03  0.00000000000E+00 0. -1.
          6    1    1    2  501    0  0.56338935040E+02  0.13366130976E+03 -0.55301745472E+03  0.59732464083E+03  0.17300000000E+03 0. -1.
         -6    1    1    2    0  502 -0.56338935040E+02 -0.13366130976E+03 -0.33686796286E+03  0.40552243554E+03  0.17300000000E+03 0. -1.
<mgrwt>
<rscale>  2 0.22576187E+03</rscale>
<asrwt>0</asrwt>
<pdfrwt beam="1">  1       21 0.86893582E-02 0.22576187E+03</pdfrwt>
<pdfrwt beam="2">  1       21 0.14559481E+00 0.22576187E+03</pdfrwt>
<totfact> 0.32929952E+04</totfact>
</mgrwt>
</event>
<event>
 4    1  0.8126752E-001  0.2897627E+03  0.7546771E-02  0.1090473E+00
         21   -1    0    0  501  502  0.00000000000E+00  0.00000000000E+00  0.68012028333E+03  0.68012028333E+03  0.00000000000E+00 0.  1.
         21   -1    0    0  502  503 -0.00000000000E+00 -0.00000000000E+00 -0.16157223752E+03  0.16157223752E+03  0.00000000000E+00 0. -1.
          6    1    1    2  501    0 -0.22929425204E+03 -0.38177869434E+02  0.46369067566E+03  0.54678281468E+03  0.17300000000E+03 0.  1.
         -6    1    1    2    0  503  0.22929425204E+03  0.38177869434E+02  0.54857370152E+02  0.29490970617E+03  0.17300000000E+03 0. -1.
<mgrwt>
<rscale>  2 0.28976267E+03</rscale>
<asrwt>0</asrwt>
<pdfrwt beam="1">  1       21 0.10463389E+00 0.28976267E+03</pdfrwt>
<pdfrwt beam="2">  1       21 0.24857268E-01 0.28976267E+03</pdfrwt>
<totfact> 0.10659697E+04</totfact>
</mgrwt>
</event>
<event>
 4    1  0.8126752E-001  0.2069328E+03  0.7546771E-02  0.1144018E+00
         21   -1    0    0  501  502  0.00000000000E+00  0.00000000000E+00  0.50273554958E+03  0.50273554958E+03  0.00000000000E+00 0.  1.
         21   -1    0    0  502  503 -0.00000000000E+00 -0.00000000000E+00 -0.90685489684E+02  0.90685489684E+02  0.00000000000E+00 0.  1.
          6    1    1    2  501    0  0.11295127254E+03  0.11584234330E+02  0.27915670441E+03  0.34749050357E+03  0.17300000000E+03 0. -1.
         -6    1    1    2    0  503 -0.11295127254E+03 -0.11584234330E+02  0.13289335549E+03  0.24593053569E+03  0.17300000000E+03 0. -1.
<mgrwt>
<rscale>  2 0.20693280E+03</rscale>
<asrwt>0</asrwt>
<pdfrwt beam="1">  1       21 0.77343929E-01 0.20693280E+03</pdfrwt>
<pdfrwt beam="2">  1       21 0.13951614E-01 0.20693280E+03</pdfrwt>
<totfact> 0.65964034E+04</totfact>
</mgrwt>
</event>
<event>
 4    1  0.8126752E-001  0.2248289E+03  0.7546771E-02  0.1130333E+00
         21   -1    0    0  501  502  0.00000000000E+00  0.00000000000E+00  0.84773897966E+03  0.84773897966E+03  0.00000000000E+00 0. -1.
         21   -1    0    0  502  503 -0.00000000000E+00 -0.00000000000E+00 -0.61661528176E+02  0.61661528176E+02  0.00000000000E+00 0. -1.
          6    1    1    2  501    0 -0.63599607521E+02 -0.12874049306E+03  0.47563556801E+03  0.52609620621E+03  0.17300000000E+03 0. -1.
         -6    1    1    2    0  503  0.63599607521E+02  0.12874049306E+03  0.31044188347E+03  0.38330430162E+03  0.17300000000E+03 0. -1.
<mgrwt>
<rscale>  2 0.22482888E+03</rscale>
<asrwt>0</asrwt>
<pdfrwt beam="1">  1       21 0.13042137E+00 0.22482888E+03</pdfrwt>
<pdfrwt beam="2">  1       21 0.94863896E-02 0.22482888E+03</pdfrwt>
<totfact> 0.37505618E+04</totfact>
</mgrwt>
</event>
<event>
 4    1  0.8126752E-001  0.3438325E+03  0.7546771E-02  0.1065175E+00
         21   -1    0    0  501  502  0.00000000000E+00  0.00000000000E+00  0.30744053945E+03  0.30744053945E+03  0.00000000000E+00 0. -1.
         21   -1    0    0  502  503 -0.00000000000E+00 -0.00000000000E+00 -0.39870306797E+03  0.39870306797E+03  0.00000000000E+00 0. -1.
          6    1    1    2  501    0 -0.23266504846E+03  0.18482094260E+03  0.20932143297E+02  0.34446909908E+03  0.17300000000E+03 0. -1.
         -6    1    1    2    0  503  0.23266504846E+03 -0.18482094260E+03 -0.11219467181E+03  0.36167450834E+03  0.17300000000E+03 0. -1.
<mgrwt>
<rscale>  2 0.34383253E+03</rscale>
<asrwt>0</asrwt>
<pdfrwt beam="1">  1       21 0.47298545E-01 0.34383253E+03</pdfrwt>
<pdfrwt beam="2">  1       21 0.61338933E-01 0.34383253E+03</pdfrwt>
<totfact> 0.97651255E+03</totfact>
</mgrwt>
</event>
<event>
 4    1  0.8126752E-001  0.1908740E+03  0.7546771E-02  0.1157675E+00
         21   -1    0    0  501  502  0.00000000000E+00  0.00000000000E+00  0.16696208886E+03  0.16696208886E+03  0.00000000000E+00 0.  1.
         21   -1    0    0  502  503 -0.00000000000E+00 -0.00000000000E+00 -0.23594495743E+03  0.23594495743E+03  0.00000000000E+00 0. -1.
          6    1    1    2  501    0 -0.14446052039E+01 -0.80633650412E+02  0.20739080122E+02  0.19199734870E+03  0.17300000000E+03 0.  1.
         -6    1    1    2    0  503  0.14446052039E+01  0.80633650412E+02 -0.89721948688E+02  0.21090969759E+03  0.17300000000E+03 0. -1.
<mgrwt>
<rscale>  2 0.19087397E+03</rscale>
<asrwt>0</asrwt>
<pdfrwt beam="1">  1       21 0.25686475E-01 0.19087397E+03</pdfrwt>
<pdfrwt beam="2">  1       21 0.36299224E-01 0.19087397E+03</pdfrwt>
<totfact> 0.10533673E+05</totfact>
</mgrwt>
</event>
<event>
 4    1  0.8126752E-001  0.3932917E+03  0.7546771E-02  0.1046128E+00
         21   -1    0    0  501  502  0.00000000000E+00  0.00000000000E+00  0.80402410610E+03  0.80402410610E+03  0.00000000000E+00 0.  1.
         21   -1    0    0  502  503 -0.00000000000E+00 -0.00000000000E+00 -0.21039960918E+03  0.21039960918E+03  0.00000000000E+00 0. -1.
          6    1    1    2  501    0 -0.18796502080E+03  0.29902926031E+03  0.14837709386E+03  0.42034998459E+03  0.17300000000E+03 0. -1.
         -6    1    1    2    0  503  0.18796502080E+03 -0.29902926031E+03  0.44524740306E+03  0.59407373069E+03  0.17300000000E+03 0.  1.
<mgrwt>
<rscale>  2 0.39329168E+03</rscale>
<asrwt>0</asrwt>
<pdfrwt beam="1">  1       21 0.12369601E+00 0.39329168E+03</pdfrwt>
<pdfrwt beam="2">  1       21 0.32369171E-01 0.39329168E+03</pdfrwt>
<totfact> 0.40034658E+03</totfact>
</mgrwt>
</event>
<event>
 4    1  0.8126752E-001  0.2604889E+03  0.7546771E-02  0.1106850E+00
         21   -1    0    0  503  502  0.00000000000E+00  0.00000000000E+00  0.74867637130E+03  0.74867637130E+03  0.00000000000E+00 0. -1.
         21   -1    0    0  501  503 -0.00000000000E+00 -0.00000000000E+00 -0.14356648867E+03  0.14356648867E+03  0.00000000000E+00 0. -1.
          6    1    1    2  501    0  0.14101913603E+03  0.13430966529E+03  0.31664635481E+02  0.26240642534E+03  0.17300000000E+03 0. -1.
         -6    1    1    2    0  502 -0.14101913603E+03 -0.13430966529E+03  0.57344524714E+03  0.62983643463E+03  0.17300000000E+03 0. -1.
<mgrwt>
<rscale>  2 0.26048893E+03</rscale>
<asrwt>0</asrwt>
<pdfrwt beam="1">  1       21 0.11518098E+00 0.26048893E+03</pdfrwt>
<pdfrwt beam="2">  1       21 0.22087153E-01 0.26048893E+03</pdfrwt>
<totfact> 0.10723806E+04</totfact>
</mgrwt>
</event>
<event>
 4    1  0.8126752E-001  0.2486463E+03  0.7546771E-02  0.1114163E+00
         21   -1    0    0  503  502  0.00000000000E+00  0.00000000000E+00  0.25871994587E+02  0.25871994587E+02  0.00000000000E+00 0. -1.
         21   -1    0    0  501  503 -0.00000000000E+00 -0.00000000000E+00 -0.23916247576E+04  0.23916247576E+04  0.00000000000E+00 0. -1.
          6    1    1    2  501    0  0.20539686036E+02  0.17740940691E+03 -0.11481309971E+04  0.11747466803E+04  0.17300000000E+03 0.  1.
         -6    1    1    2    0  502 -0.20539686036E+02 -0.17740940691E+03 -0.12176217660E+04  0.12427500719E+04  0.17300000000E+03 0.  1.
<mgrwt>
<rscale>  2 0.24864629E+03</rscale>
<asrwt>0</asrwt>
<pdfrwt beam="1">  1       21 0.39803087E-02 0.24864629E+03</pdfrwt>
<pdfrwt beam="2">  1       21 0.36794210E+00 0.24864629E+03</pdfrwt>
<totfact> 0.50666001E+03</totfact>
</mgrwt>
</event>
<event>
 4    1  0.8126752E-001  0.2166449E+03  0.7546771E-02  0.1136409E+00
         21   -1    0    0  501  502  0.00000000000E+00  0.00000000000E+00  0.12213968796E+03  0.12213968796E+03  0.00000000000E+00 0. -1.
         21   -1    0    0  502  503 -0.00000000000E+00 -0.00000000000E+00 -0.40036621405E+03  0.40036621405E+03  0.00000000000E+00 0. -1.
          6    1    1    2  501    0  0.12987496025E+03 -0.11769609558E+02 -0.86735258365E+02  0.23336245211E+03  0.17300000000E+03 0. -1.
         -6    1    1    2    0  503 -0.12987496025E+03  0.11769609558E+02 -0.19149126773E+03  0.28914344991E+03  0.17300000000E+03 0. -1.
<mgrwt>
<rscale>  2 0.21664494E+03</rscale>
<asrwt>0</asrwt>
<pdfrwt beam="1">  1       21 0.18790721E-01 0.21664494E+03</pdfrwt>
<pdfrwt beam="2">  1       21 0.61594803E-01 0.21664494E+03</pdfrwt>
<totfact> 0.62804875E+04</totfact>
</mgrwt>
</event>
<event>
 4    1  0.8126752E-001  0.1917641E+03  0.7546771E-02  0.1156880E+00
         21   -1    0    0  501  502  0.00000000000E+00  0.00000000000E+00  0.56199300567E+02  0.56199300567E+02  0.00000000000E+00 0.  1.
         21   -1    0    0  502  503 -0.00000000000E+00 -0.00000000000E+00 -0.67151585572E+03  0.67151585572E+03  0.00000000000E+00 0.  1.
          6    1    1    2  501    0  0.72116887347E+02 -0.40541876003E+02 -0.24946755530E+03  0.31465465244E+03  0.17300000000E+03 0.  1.
         -6    1    1    2    0  503 -0.72116887347E+02  0.40541876003E+02 -0.36584899985E+03  0.41306050385E+03  0.17300000000E+03 0.  1.
<mgrwt>
<rscale>  2 0.19176415E+03</rscale>
<asrwt>0</asrwt>
<pdfrwt beam="1">  1       21 0.86460469E-02 0.19176415E+03</pdfrwt>
<pdfrwt beam="2">  1       21 0.10331012E+00 0.19176415E+03</pdfrwt>
<totfact> 0.79635455E+04</totfact>
</mgrwt>
</event>
<event>
 4    1  0.8126752E-001  0.1829648E+03  0.7546771E-02  0.1164964E+00
         21   -1    0    0  503  502  0.00000000000E+00  0.00000000000E+00  0.66157190269E+03  0.66157190269E+03  0.00000000000E+00 0. -1.
         21   -1    0    0  501  503 -0.00000000000E+00 -0.00000000000E+00 -0.51729933645E+02  0.51729933645E+02  0.00000000000E+00 0. -1.
          6    1    1    2  501    0  0.88512875644E+01 -0.58896346582E+02  0.25223096324E+03  0.31160324734E+03  0.17300000000E+03 0. -1.
         -6    1    1    2    0  502 -0.88512875644E+01  0.58896346582E+02  0.35761100580E+03  0.40169858899E+03  0.17300000000E+03 0. -1.
<mgrwt>
<rscale>  2 0.18296482E+03</rscale>
<asrwt>0</asrwt>
<pdfrwt beam="1">  1       21 0.10178029E+00 0.18296482E+03</pdfrwt>
<pdfrwt beam="2">  1       21 0.79584518E-02 0.18296482E+03</pdfrwt>
<totfact> 0.95707907E+04</totfact>
</mgrwt>
</event>
<event>
 4    1  0.8126752E-001  0.1902294E+03  0.7546771E-02  0.1158255E+00
         21   -1    0    0  503  502  0.00000000000E+00  0.00000000000E+00  0.52088736992E+02  0.52088736992E+02  0.00000000000E+00 0. -1.
         21   -1    0    0  501  503 -0.00000000000E+00 -0.00000000000E+00 -0.69478725540E+03  0.69478725540E+03  0.00000000000E+00 0.  1.
          6    1    1    2  501    0  0.33037048039E+02 -0.71880433553E+02 -0.32494071590E+03  0.37652850107E+03  0.17300000000E+03 0. -1.
         -6    1    1    2    0  502 -0.33037048039E+02  0.71880433553E+02 -0.31775780251E+03  0.37034749132E+03  0.17300000000E+03 0. -1.
<mgrwt>
<rscale>  2 0.19022945E+03</rscale>
<asrwt>0</asrwt>
<pdfrwt beam="1">  1       21 0.80136524E-02 0.19022945E+03</pdfrwt>
<pdfrwt beam="2">  1       21 0.10689034E+00 0.19022945E+03</pdfrwt>
<totfact> 0.83834520E+04</totfact>
</mgrwt>
</event>
<event>
 4    1  0.8126752E-001  0.1927433E+03  0.7546771E-02  0.1156010E+00
         21   -1    0    0  501  502  0.00000000000E+00  0.00000000000E+00  0.32070925109E+03  0.32070925109E+03  0.00000000000E+00 0. -1.
         21   -1    0    0  502  503 -0.00000000000E+00 -0.00000000000E+00 -0.13589011313E+03  0.13589011313E+03  0.00000000000E+00 0. -1.
          6    1    1    2  501    0  0.66625902418E+02  0.52744327895E+02  0.18011026479E+03  0.26379856421E+03  0.17300000000E+03 0. -1.
         -6    1    1    2    0  503 -0.66625902418E+02 -0.52744327895E+02  0.47088731696E+01  0.19280080001E+03  0.17300000000E+03 0. -1.
<mgrwt>
<rscale>  2 0.19274329E+03</rscale>
<asrwt>0</asrwt>
<pdfrwt beam="1">  1       21 0.49339885E-01 0.19274329E+03</pdfrwt>
<pdfrwt beam="2">  1       21 0.20906171E-01 0.19274329E+03</pdfrwt>
<totfact> 0.83230274E+04</totfact>
</mgrwt>
</event>
<event>
 4    1  0.8126752E-001  0.2750807E+03  0.7546771E-02  0.1098406E+00
         21   -1    0    0  503  502  0.00000000000E+00  0.00000000000E+00  0.17806496655E+03  0.17806496655E+03  0.00000000000E+00 0. -1.
         21   -1    0    0  501  503 -0.00000000000E+00 -0.00000000000E+00 -0.65565056476E+03  0.65565056476E+03  0.00000000000E+00 0.  1.
          6    1    1    2  501    0 -0.25851096072E+02  0.21230196926E+03 -0.48606330473E+03  0.55850420009E+03  0.17300000000E+03 0. -1.
         -6    1    1    2    0  502  0.25851096072E+02 -0.21230196926E+03  0.84777065244E+01  0.27521133121E+03  0.17300000000E+03 0. -1.
<mgrwt>
<rscale>  2 0.27508073E+03</rscale>
<asrwt>0</asrwt>
<pdfrwt beam="1">  1       21 0.27394610E-01 0.27508073E+03</pdfrwt>
<pdfrwt beam="2">  1       21 0.10086932E+00 0.27508073E+03</pdfrwt>
<totfact> 0.97206087E+03</totfact>
</mgrwt>
</event>
<event>
 4    1  0.8126752E-001  0.2141003E+03  0.7546771E-02  0.1138359E+00
         21   -1    0    0  501  502  0.00000000000E+00  0.00000000000E+00  0.13033331466E+03  0.13033331466E+03  0.00000000000E+00 0. -1.
         21   -1    0    0  502  503 -0.00000000000E+00 -0.00000000000E+00 -0.36596275859E+03  0.36596275859E+03  0.00000000000E+00 0. -1.
          6    1    1    2  501    0  0.10210687604E+03  0.74055009835E+02 -0.68835863908E+02  0.22489405234E+03  0.17300000000E+03 0. -1.
         -6    1    1    2    0  503 -0.10210687604E+03 -0.74055009835E+02 -0.16679358003E+03  0.27140202091E+03  0.17300000000E+03 0. -1.
<mgrwt>
<rscale>  2 0.21410035E+03</rscale>
<asrwt>0</asrwt>
<pdfrwt beam="1">  1       21 0.20051279E-01 0.21410035E+03</pdfrwt>
<pdfrwt beam="2">  1       21 0.56301962E-01 0.21410035E+03</pdfrwt>
<totfact> 0.67540158E+04</totfact>
</mgrwt>
</event>
<event>
 4    1  0.8126752E-001  0.1984383E+03  0.7546771E-02  0.1151063E+00
         21   -1    0    0  501  502  0.00000000000E+00  0.00000000000E+00  0.38463201813E+03  0.38463201813E+03  0.00000000000E+00 0.  1.
         21   -1    0    0  502  503 -0.00000000000E+00 -0.00000000000E+00 -0.10254340842E+03  0.10254340842E+03  0.00000000000E+00 0.  1.
          6    1    1    2  501    0 -0.26184048742E+02  0.93611810826E+02  0.15083373326E+03  0.24925607440E+03  0.17300000000E+03 0.  1.
         -6    1    1    2    0  503  0.26184048742E+02 -0.93611810826E+02  0.13125487645E+03  0.23791935215E+03  0.17300000000E+03 0.  1.
<mgrwt>
<rscale>  2 0.19843834E+03</rscale>
<asrwt>0</asrwt>
<pdfrwt beam="1">  1       21 0.59174156E-01 0.19843834E+03</pdfrwt>
<pdfrwt beam="2">  1       21 0.15775909E-01 0.19843834E+03</pdfrwt>
<totfact> 0.95281837E+04</totfact>
</mgrwt>
</event>
<event>
 4    1  0.8126752E-001  0.2661758E+03  0.7546771E-02  0.1103488E+00
         21   -1    0    0  501  502  0.00000000000E+00  0.00000000000E+00  0.53369686224E+03  0.53369686224E+03  0.00000000000E+00 0.  1.
         21   -1    0    0  502  503 -0.00000000000E+00 -0.00000000000E+00 -0.28348682090E+03  0.28348682090E+03  0.00000000000E+00 0. -1.
          6    1    1    2  501    0 -0.14020281681E+03 -0.14582079407E+03  0.42304548289E+03  0.49981698092E+03  0.17300000000E+03 0.  1.
         -6    1    1    2    0  503  0.14020281681E+03  0.14582079407E+03 -0.17283544155E+03  0.31736670222E+03  0.17300000000E+03 0. -1.
<mgrwt>
<rscale>  2 0.26617576E+03</rscale>
<asrwt>0</asrwt>
<pdfrwt beam="1">  1       21 0.82107209E-01 0.26617576E+03</pdfrwt>
<pdfrwt beam="2">  1       21 0.43613357E-01 0.26617576E+03</pdfrwt>
<totfact> 0.62425190E+03</totfact>
</mgrwt>
</event>
<event>
 4    1  0.8126752E-001  0.1742571E+03  0.7546771E-02  0.1173480E+00
         21   -1    0    0  503  502  0.00000000000E+00  0.00000000000E+00  0.39132440643E+03  0.39132440643E+03  0.00000000000E+00 0. -1.
         21   -1    0    0  501  503 -0.00000000000E+00 -0.00000000000E+00 -0.78496381934E+02  0.78496381934E+02  0.00000000000E+00 0. -1.
          6    1    1    2  501    0 -0.25463433898E+01  0.20737860806E+02  0.13126709220E+03  0.21816643241E+03  0.17300000000E+03 0. -1.
         -6    1    1    2    0  502  0.25463433898E+01 -0.20737860806E+02  0.18156093229E+03  0.25165435595E+03  0.17300000000E+03 0. -1.
<mgrwt>
<rscale>  2 0.17425712E+03</rscale>
<asrwt>0</asrwt>
<pdfrwt beam="1">  1       21 0.60203754E-01 0.17425712E+03</pdfrwt>
<pdfrwt beam="2">  1       21 0.12076367E-01 0.17425712E+03</pdfrwt>
<totfact> 0.15016857E+05</totfact>
</mgrwt>
</event>
<event>
 4    1  0.8126752E-001  0.2997603E+03  0.7546771E-02  0.1085360E+00
         21   -1    0    0  501  502  0.00000000000E+00  0.00000000000E+00  0.52465382524E+03  0.52465382524E+03  0.00000000000E+00 0.  1.
         21   -1    0    0  502  503 -0.00000000000E+00 -0.00000000000E+00 -0.17481903311E+03  0.17481903311E+03  0.00000000000E+00 0. -1.
          6    1    1    2  501    0  0.20180646787E+03  0.13856912265E+03  0.22476478567E+03  0.37466713374E+03  0.17300000000E+03 0. -1.
         -6    1    1    2    0  503 -0.20180646787E+03 -0.13856912265E+03  0.12507000646E+03  0.32480572462E+03  0.17300000000E+03 0. -1.
<mgrwt>
<rscale>  2 0.29976032E+03</rscale>
<asrwt>0</asrwt>
<pdfrwt beam="1">  1       21 0.80715972E-01 0.29976032E+03</pdfrwt>
<pdfrwt beam="2">  1       21 0.26895236E-01 0.29976032E+03</pdfrwt>
<totfact> 0.16792521E+04</totfact>
</mgrwt>
</event>
<event>
 4    1  0.8126752E-001  0.2282624E+03  0.7546771E-02  0.1127869E+00
         21   -1    0    0  501  502  0.00000000000E+00  0.00000000000E+00  0.25934407260E+03  0.25934407260E+03  0.00000000000E+00 0. -1.
         21   -1    0    0  502  503 -0.00000000000E+00 -0.00000000000E+00 -0.23025630926E+03  0.23025630926E+03  0.00000000000E+00 0. -1.
          6    1    1    2  501    0 -0.69961886453E+02  0.13145370813E+03 -0.72856511822E+02  0.23960762561E+03  0.17300000000E+03 0. -1.
         -6    1    1    2    0  503  0.69961886453E+02 -0.13145370813E+03  0.10194427517E+03  0.24999275625E+03  0.17300000000E+03 0. -1.
<mgrwt>
<rscale>  2 0.22826244E+03</rscale>
<asrwt>0</asrwt>
<pdfrwt beam="1">  1       21 0.39899088E-01 0.22826244E+03</pdfrwt>
<pdfrwt beam="2">  1       21 0.35424048E-01 0.22826244E+03</pdfrwt>
<totfact> 0.45737283E+04</totfact>
</mgrwt>
</event>
<event>
 4    1  0.8126752E-001  0.2122097E+03  0.7546771E-02  0.1139828E+00
         21   -1    0    0  501  502  0.00000000000E+00  0.00000000000E+00  0.14841182258E+03  0.14841182258E+03  0.00000000000E+00 0. -1.
         21   -1    0    0  502  503 -0.00000000000E+00 -0.00000000000E+00 -0.30928192298E+03  0.30928192298E+03  0.00000000000E+00 0. -1.
          6    1    1    2  501    0 -0.11184976975E+03  0.50927271390E+02 -0.11190726644E+03  0.23990872065E+03  0.17300000000E+03 0. -1.
         -6    1    1    2    0  503  0.11184976975E+03 -0.50927271390E+02 -0.48962833956E+02  0.21778502491E+03  0.17300000000E+03 0. -1.
<mgrwt>
<rscale>  2 0.21220970E+03</rscale>
<asrwt>0</asrwt>
<pdfrwt beam="1">  1       21 0.22832588E-01 0.21220970E+03</pdfrwt>
<pdfrwt beam="2">  1       21 0.47581834E-01 0.21220970E+03</pdfrwt>
<totfact> 0.75367975E+04</totfact>
</mgrwt>
</event>
<event>
 4    1  0.8126752E-001  0.2980129E+03  0.7546771E-02  0.1086238E+00
         21   -1    0    0  501  502  0.00000000000E+00  0.00000000000E+00  0.87022159828E+02  0.87022159828E+02  0.00000000000E+00 0. -1.
         21   -1    0    0  502  503 -0.00000000000E+00 -0.00000000000E+00 -0.10356095457E+04  0.10356095457E+04  0.00000000000E+00 0. -1.
          6    1    1    2  501    0  0.20837386312E+03  0.12435028481E+03 -0.40663600834E+03  0.50414730331E+03  0.17300000000E+03 0. -1.
         -6    1    1    2    0  503 -0.20837386312E+03 -0.12435028481E+03 -0.54195137750E+03  0.61848440218E+03  0.17300000000E+03 0. -1.
<mgrwt>
<rscale>  2 0.29801285E+03</rscale>
<asrwt>0</asrwt>
<pdfrwt beam="1">  1       21 0.13388024E-01 0.29801285E+03</pdfrwt>
<pdfrwt beam="2">  1       21 0.15932455E+00 0.29801285E+03</pdfrwt>
<totfact> 0.11499819E+04</totfact>
</mgrwt>
</event>
<event>
 4    1  0.8126752E-001  0.1967778E+03  0.7546771E-02  0.1152486E+00
         21   -1    0    0  501  502  0.00000000000E+00  0.00000000000E+00  0.27398004156E+03  0.27398004156E+03  0.00000000000E+00 0.  1.
         21   -1    0    0  502  503 -0.00000000000E+00 -0.00000000000E+00 -0.14321228373E+03  0.14321228373E+03  0.00000000000E+00 0.  1.
          6    1    1    2  501    0  0.85012118766E+02  0.39565482862E+02  0.89300821920E+02  0.21609286098E+03  0.17300000000E+03 0.  1.
         -6    1    1    2    0  503 -0.85012118766E+02 -0.39565482862E+02  0.41466935904E+02  0.20109946431E+03  0.17300000000E+03 0.  1.
<mgrwt>
<rscale>  2 0.19677776E+03</rscale>
<asrwt>0</asrwt>
<pdfrwt beam="1">  1       21 0.42150776E-01 0.19677776E+03</pdfrwt>
<pdfrwt beam="2">  1       21 0.22032659E-01 0.19677776E+03</pdfrwt>
<totfact> 0.10409685E+05</totfact>
</mgrwt>
</event>
<event>
 4    1  0.8126752E-001  0.1938469E+03  0.7546771E-02  0.1155037E+00
         21   -1    0    0  503  502  0.00000000000E+00  0.00000000000E+00  0.91154999440E+02  0.91154999440E+02  0.00000000000E+00 0.  1.
         21   -1    0    0  501  503 -0.00000000000E+00 -0.00000000000E+00 -0.67284460989E+03  0.67284460989E+03  0.00000000000E+00 0. -1.
          6    1    1    2  501    0  0.12578601951E+01  0.87441639044E+02 -0.52858739345E+03  0.56301088352E+03  0.17300000000E+03 0. -1.
         -6    1    1    2    0  502 -0.12578601951E+01 -0.87441639044E+02 -0.53102216999E+02  0.20098872581E+03  0.17300000000E+03 0.  1.
<mgrwt>
<rscale>  2 0.19384690E+03</rscale>
<asrwt>0</asrwt>
<pdfrwt beam="1">  1       21 0.14023847E-01 0.19384690E+03</pdfrwt>
<pdfrwt beam="2">  1       21 0.10351455E+00 0.19384690E+03</pdfrwt>
<totfact> 0.33490978E+04</totfact>
</mgrwt>
</event>
<event>
 4    1  0.8126752E-001  0.2331962E+03  0.7546771E-02  0.1124410E+00
         21   -1    0    0  501  502  0.00000000000E+00  0.00000000000E+00  0.25502229954E+03  0.25502229954E+03  0.00000000000E+00 0.  1.
         21   -1    0    0  502  503 -0.00000000000E+00 -0.00000000000E+00 -0.34582467693E+03  0.34582467693E+03  0.00000000000E+00 0. -1.
          6    1    1    2  501    0  0.15625333861E+03  0.60286970459E+01  0.14061716630E+03  0.27231165688E+03  0.17300000000E+03 0.  1.
         -6    1    1    2    0  503 -0.15625333861E+03 -0.60286970459E+01 -0.23141954369E+03  0.32853531959E+03  0.17300000000E+03 0. -1.
<mgrwt>
<rscale>  2 0.23319616E+03</rscale>
<asrwt>0</asrwt>
<pdfrwt beam="1">  1       21 0.39234200E-01 0.23319616E+03</pdfrwt>
<pdfrwt beam="2">  1       21 0.53203796E-01 0.23319616E+03</pdfrwt>
<totfact> 0.20480061E+04</totfact>
</mgrwt>
</event>
<event>
 4    1  0.8126752E-001  0.1800511E+03  0.7546771E-02  0.1167754E+00
         21   -1    0    0  503  502  0.00000000000E+00  0.00000000000E+00  0.16672072678E+03  0.16672072678E+03  0.00000000000E+00 0. -1.
         21   -1    0    0  501  503 -0.00000000000E+00 -0.00000000000E+00 -0.21917889801E+03  0.21917889801E+03  0.00000000000E+00 0. -1.
          6    1    1    2  501    0  0.84552406129E+00  0.49886819385E+02  0.38585137211E+02  0.18413913889E+03  0.17300000000E+03 0. -1.
         -6    1    1    2    0  502 -0.84552406129E+00 -0.49886819385E+02 -0.91043308443E+02  0.20176048590E+03  0.17300000000E+03 0. -1.
<mgrwt>
<rscale>  2 0.18005113E+03</rscale>
<asrwt>0</asrwt>
<pdfrwt beam="1">  1       21 0.25649343E-01 0.18005113E+03</pdfrwt>
<pdfrwt beam="2">  1       21 0.33719831E-01 0.18005113E+03</pdfrwt>
<totfact> 0.12272208E+05</totfact>
</mgrwt>
</event>
<event>
 4    1  0.8126752E-001  0.1853933E+03  0.7546771E-02  0.1162683E+00
         21   -1    0    0  503  502  0.00000000000E+00  0.00000000000E+00  0.14534491127E+03  0.14534491127E+03  0.00000000000E+00 0. -1.
         21   -1    0    0  501  503 -0.00000000000E+00 -0.00000000000E+00 -0.24269589614E+03  0.24269589614E+03  0.00000000000E+00 0. -1.
          6    1    1    2  501    0 -0.46538094518E+02 -0.47706165991E+02 -0.79734409460E+02  0.20181240935E+03  0.17300000000E+03 0. -1.
         -6    1    1    2    0  502  0.46538094518E+02  0.47706165991E+02 -0.17616575419E+02  0.18622839806E+03  0.17300000000E+03 0. -1.
<mgrwt>
<rscale>  2 0.18539329E+03</rscale>
<asrwt>0</asrwt>
<pdfrwt beam="1">  1       21 0.22360756E-01 0.18539329E+03</pdfrwt>
<pdfrwt beam="2">  1       21 0.37337830E-01 0.18539329E+03</pdfrwt>
<totfact> 0.12982330E+05</totfact>
</mgrwt>
</event>
<event>
 4    1  0.8126752E-001  0.2133005E+03  0.7546771E-02  0.1138979E+00
         21   -1    0    0  501  502  0.00000000000E+00  0.00000000000E+00  0.46477621142E+03  0.46477621142E+03  0.00000000000E+00 0.  1.
         21   -1    0    0  502  503 -0.00000000000E+00 -0.00000000000E+00 -0.99086821750E+02  0.99086821750E+02  0.00000000000E+00 0.  1.
          6    1    1    2  501    0  0.36798369414E+02  0.11922237551E+03  0.21382539819E+03  0.30202383304E+03  0.17300000000E+03 0.  1.
         -6    1    1    2    0  503 -0.36798369414E+02 -0.11922237551E+03  0.15186399148E+03  0.26183920012E+03  0.17300000000E+03 0.  1.
<mgrwt>
<rscale>  2 0.21330048E+03</rscale>
<asrwt>0</asrwt>
<pdfrwt beam="1">  1       21 0.71504031E-01 0.21330048E+03</pdfrwt>
<pdfrwt beam="2">  1       21 0.15244127E-01 0.21330048E+03</pdfrwt>
<totfact> 0.66712747E+04</totfact>
</mgrwt>
</event>
<event>
 4    1  0.8126752E-001  0.2837950E+03  0.7546771E-02  0.1093634E+00
         21   -1    0    0  501  502  0.00000000000E+00  0.00000000000E+00  0.44796102139E+03  0.44796102139E+03  0.00000000000E+00 0. -1.
         21   -1    0    0  502  503 -0.00000000000E+00 -0.00000000000E+00 -0.24334825954E+03  0.24334825954E+03  0.00000000000E+00 0.  1.
          6    1    1    2  501    0 -0.18840026014E+02 -0.22417778381E+03  0.27895442264E+03  0.39793868277E+03  0.17300000000E+03 0. -1.
         -6    1    1    2    0  503  0.18840026014E+02  0.22417778381E+03 -0.74341660799E+02  0.29337059816E+03  0.17300000000E+03 0.  1.
<mgrwt>
<rscale>  2 0.28379504E+03</rscale>
<asrwt>0</asrwt>
<pdfrwt beam="1">  1       21 0.68917080E-01 0.28379504E+03</pdfrwt>
<pdfrwt beam="2">  1       21 0.37438194E-01 0.28379504E+03</pdfrwt>
<totfact> 0.12539421E+04</totfact>
</mgrwt>
</event>
<event>
 4    1  0.8126752E-001  0.2204109E+03  0.7546771E-02  0.1133577E+00
         21   -1    0    0  501  502  0.00000000000E+00  0.00000000000E+00  0.46728783595E+03  0.46728783595E+03  0.00000000000E+00 0.  1.
         21   -1    0    0  502  503 -0.00000000000E+00 -0.00000000000E+00 -0.10415871018E+03  0.10415871018E+03  0.00000000000E+00 0.  1.
          6    1    1    2  501    0 -0.94197366373E+02 -0.98887904794E+02  0.19392837225E+03  0.29357992968E+03  0.17300000000E+03 0.  1.
         -6    1    1    2    0  503  0.94197366373E+02  0.98887904794E+02  0.16920075352E+03  0.27786661645E+03  0.17300000000E+03 0.  1.
<mgrwt>
<rscale>  2 0.22041089E+03</rscale>
<asrwt>0</asrwt>
<pdfrwt beam="1">  1       21 0.71890435E-01 0.22041089E+03</pdfrwt>
<pdfrwt beam="2">  1       21 0.16024417E-01 0.22041089E+03</pdfrwt>
<totfact> 0.59971262E+04</totfact>
</mgrwt>
</event>
<event>
 4    1  0.8126752E-001  0.2067158E+03  0.7546771E-02  0.1144193E+00
         21   -1    0    0  501  502  0.00000000000E+00  0.00000000000E+00  0.29251398133E+03  0.29251398133E+03  0.00000000000E+00 0. -1.
         21   -1    0    0  502  503 -0.00000000000E+00 -0.00000000000E+00 -0.66226042680E+03  0.66226042680E+03  0.00000000000E+00 0.  1.
          6    1    1    2  501    0 -0.20912211029E+02  0.11119845997E+03  0.23658616763E+03  0.31417261622E+03  0.17300000000E+03 0. -1.
         -6    1    1    2    0  503  0.20912211029E+02 -0.11119845997E+03 -0.60633261311E+03  0.64060179190E+03  0.17300000000E+03 0.  1.
<mgrwt>
<rscale>  2 0.20671579E+03</rscale>
<asrwt>0</asrwt>
<pdfrwt beam="1">  1       21 0.45002152E-01 0.20671579E+03</pdfrwt>
<pdfrwt beam="2">  1       21 0.10188622E+00 0.20671579E+03</pdfrwt>
<totfact> 0.36776482E+03</totfact>
</mgrwt>
</event>
<event>
 4    1  0.8126752E-001  0.2708694E+03  0.7546771E-02  0.1100783E+00
         21   -1    0    0  503  502  0.00000000000E+00  0.00000000000E+00  0.21217686706E+03  0.21217686706E+03  0.00000000000E+00 0. -1.
         21   -1    0    0  501  503 -0.00000000000E+00 -0.00000000000E+00 -0.45807557643E+03  0.45807557643E+03  0.00000000000E+00 0. -1.
          6    1    1    2  501    0  0.29580632926E+01  0.20840466000E+03 -0.28886491603E+03  0.39599645473E+03  0.17300000000E+03 0. -1.
         -6    1    1    2    0  502 -0.29580632926E+01 -0.20840466000E+03  0.42966206661E+02  0.27425598875E+03  0.17300000000E+03 0. -1.
<mgrwt>
<rscale>  2 0.27086944E+03</rscale>
<asrwt>0</asrwt>
<pdfrwt beam="1">  1       21 0.32642595E-01 0.27086944E+03</pdfrwt>
<pdfrwt beam="2">  1       21 0.70473164E-01 0.27086944E+03</pdfrwt>
<totfact> 0.15794570E+04</totfact>
</mgrwt>
</event>
<event>
 4    1  0.8126752E-001  0.2070492E+03  0.7546771E-02  0.1143924E+00
         21   -1    0    0  503  502  0.00000000000E+00  0.00000000000E+00  0.80092768913E+02  0.80092768913E+02  0.00000000000E+00 0.  1.
         21   -1    0    0  501  503 -0.00000000000E+00 -0.00000000000E+00 -0.58357901719E+03  0.58357901719E+03  0.00000000000E+00 0.  1.
          6    1    1    2  501    0 -0.10842230358E+03  0.34423682152E+02 -0.34724075191E+03  0.40428396653E+03  0.17300000000E+03 0.  1.
         -6    1    1    2    0  502  0.10842230358E+03 -0.34423682152E+02 -0.15624549637E+03  0.25938781957E+03  0.17300000000E+03 0.  1.
<mgrwt>
<rscale>  2 0.20704924E+03</rscale>
<asrwt>0</asrwt>
<pdfrwt beam="1">  1       21 0.12321964E-01 0.20704924E+03</pdfrwt>
<pdfrwt beam="2">  1       21 0.89781390E-01 0.20704924E+03</pdfrwt>
<totfact> 0.58716244E+04</totfact>
</mgrwt>
</event>
<event>
 4    1  0.8126752E-001  0.1761552E+03  0.7546771E-02  0.1171577E+00
         21   -1    0    0  503  502  0.00000000000E+00  0.00000000000E+00  0.45065675305E+03  0.45065675305E+03  0.00000000000E+00 0. -1.
         21   -1    0    0  501  503 -0.00000000000E+00 -0.00000000000E+00 -0.69026098875E+02  0.69026098875E+02  0.00000000000E+00 0. -1.
          6    1    1    2  501    0 -0.33109831440E+02 -0.23210889355E+01  0.20369510722E+03  0.26929973096E+03  0.17300000000E+03 0. -1.
         -6    1    1    2    0  502  0.33109831440E+02  0.23210889355E+01  0.17793554695E+03  0.25038312096E+03  0.17300000000E+03 0. -1.
<mgrwt>
<rscale>  2 0.17615518E+03</rscale>
<asrwt>0</asrwt>
<pdfrwt beam="1">  1       21 0.69331806E-01 0.17615518E+03</pdfrwt>
<pdfrwt beam="2">  1       21 0.10619400E-01 0.17615518E+03</pdfrwt>
<totfact> 0.13886164E+05</totfact>
</mgrwt>
</event>
<event>
 4    1  0.8126752E-001  0.1817023E+03  0.7546771E-02  0.1166166E+00
         21   -1    0    0  503  502  0.00000000000E+00  0.00000000000E+00  0.18654752386E+03  0.18654752386E+03  0.00000000000E+00 0.  1.
         21   -1    0    0  501  503 -0.00000000000E+00 -0.00000000000E+00 -0.17703025575E+03  0.17703025575E+03  0.00000000000E+00 0.  1.
          6    1    1    2  501    0 -0.39151241752E+01 -0.55420084610E+02  0.17840845572E+01  0.18171102590E+03  0.17300000000E+03 0.  1.
         -6    1    1    2    0  502  0.39151241752E+01  0.55420084610E+02  0.77331835534E+01  0.18186675371E+03  0.17300000000E+03 0.  1.
<mgrwt>
<rscale>  2 0.18170227E+03</rscale>
<asrwt>0</asrwt>
<pdfrwt beam="1">  1       21 0.28699619E-01 0.18170227E+03</pdfrwt>
<pdfrwt beam="2">  1       21 0.27235424E-01 0.18170227E+03</pdfrwt>
<totfact> 0.14980544E+05</totfact>
</mgrwt>
</event>
<event>
 4    1  0.8126752E-001  0.2369977E+03  0.7546771E-02  0.1121809E+00
         21   -1    0    0  503  502  0.00000000000E+00  0.00000000000E+00  0.47831187214E+03  0.47831187214E+03  0.00000000000E+00 0. -1.
         21   -1    0    0  501  503 -0.00000000000E+00 -0.00000000000E+00 -0.14034977088E+03  0.14034977088E+03  0.00000000000E+00 0. -1.
          6    1    1    2  501    0 -0.17571609769E+02 -0.16102835309E+03  0.43975917147E+02  0.24104309419E+03  0.17300000000E+03 0. -1.
         -6    1    1    2    0  502  0.17571609769E+02  0.16102835309E+03  0.29398618411E+03  0.37761854883E+03  0.17300000000E+03 0. -1.
<mgrwt>
<rscale>  2 0.23699766E+03</rscale>
<asrwt>0</asrwt>
<pdfrwt beam="1">  1       21 0.73586441E-01 0.23699766E+03</pdfrwt>
<pdfrwt beam="2">  1       21 0.21592273E-01 0.23699766E+03</pdfrwt>
<totfact> 0.32422278E+04</totfact>
</mgrwt>
</event>
<event>
 4    1  0.8126752E-001  0.1760476E+03  0.7546771E-02  0.1171684E+00
         21   -1    0    0  501  502  0.00000000000E+00  0.00000000000E+00  0.11076078760E+03  0.11076078760E+03  0.00000000000E+00 0.  1.
         21   -1    0    0  502  503 -0.00000000000E+00 -0.00000000000E+00 -0.28230794049E+03  0.28230794049E+03  0.00000000000E+00 0.  1.
          6    1    1    2  501    0 -0.20643507486E+02 -0.25251082823E+02 -0.10423404266E+03  0.20459107320E+03  0.17300000000E+03 0. -1.
         -6    1    1    2    0  503  0.20643507486E+02  0.25251082823E+02 -0.67313110236E+02  0.18847765490E+03  0.17300000000E+03 0. -1.
<mgrwt>
<rscale>  2 0.17604764E+03</rscale>
<asrwt>0</asrwt>
<pdfrwt beam="1">  1       21 0.17040121E-01 0.17604764E+03</pdfrwt>
<pdfrwt beam="2">  1       21 0.43431991E-01 0.17604764E+03</pdfrwt>
<totfact> 0.15912125E+05</totfact>
</mgrwt>
</event>
<event>
 4    1  0.8126752E-001  0.1799937E+03  0.7546771E-02  0.1167809E+00
         21   -1    0    0  501  502  0.00000000000E+00  0.00000000000E+00  0.23031596185E+03  0.23031596185E+03  0.00000000000E+00 0.  1.
         21   -1    0    0  502  503 -0.00000000000E+00 -0.00000000000E+00 -0.14544826182E+03  0.14544826182E+03  0.00000000000E+00 0.  1.
          6    1    1    2  501    0  0.49498111495E+02  0.43226768357E+01  0.83676655897E+01  0.18018814169E+03  0.17300000000E+03 0.  1.
         -6    1    1    2    0  503 -0.49498111495E+02 -0.43226768357E+01  0.76500034437E+02  0.19557608199E+03  0.17300000000E+03 0.  1.
<mgrwt>
<rscale>  2 0.17999375E+03</rscale>
<asrwt>0</asrwt>
<pdfrwt beam="1">  1       21 0.35433225E-01 0.17999375E+03</pdfrwt>
<pdfrwt beam="2">  1       21 0.22376656E-01 0.17999375E+03</pdfrwt>
<totfact> 0.14415961E+05</totfact>
</mgrwt>
</event>
<event>
 4    1  0.8126752E-001  0.1990048E+03  0.7546771E-02  0.1150581E+00
         21   -1    0    0  503  502  0.00000000000E+00  0.00000000000E+00  0.92761778608E+02  0.92761778608E+02  0.00000000000E+00 0.  1.
         21   -1    0    0  501  503 -0.00000000000E+00 -0.00000000000E+00 -0.53149003765E+03  0.53149003765E+03  0.00000000000E+00 0.  1.
          6    1    1    2  501    0  0.79356799332E+02 -0.58106927479E+02 -0.35780432345E+03  0.40942258181E+03  0.17300000000E+03 0.  1.
         -6    1    1    2    0  502 -0.79356799332E+02  0.58106927479E+02 -0.80923935599E+02  0.21482923445E+03  0.17300000000E+03 0.  1.
<mgrwt>
<rscale>  2 0.19900482E+03</rscale>
<asrwt>0</asrwt>
<pdfrwt beam="1">  1       21 0.14271043E-01 0.19900482E+03</pdfrwt>
<pdfrwt beam="2">  1       21 0.81767696E-01 0.19900482E+03</pdfrwt>
<totfact> 0.56038942E+04</totfact>
</mgrwt>
</event>
<event>
 4    1  0.8126752E-001  0.1840564E+03  0.7546771E-02  0.1163934E+00
         21   -1    0    0  501  502  0.00000000000E+00  0.00000000000E+00  0.11054110589E+03  0.11054110589E+03  0.00000000000E+00 0. -1.
         21   -1    0    0  502  503 -0.00000000000E+00 -0.00000000000E+00 -0.30646508121E+03  0.30646508121E+03  0.00000000000E+00 0. -1.
          6    1    1    2  501    0 -0.33656752113E+01 -0.62740953760E+02 -0.97414068689E+02  0.20824566220E+03  0.17300000000E+03 0. -1.
         -6    1    1    2    0  503  0.33656752113E+01  0.62740953760E+02 -0.98509906639E+02  0.20876052489E+03  0.17300000000E+03 0. -1.
<mgrwt>
<rscale>  2 0.18405639E+03</rscale>
<asrwt>0</asrwt>
<pdfrwt beam="1">  1       21 0.17006324E-01 0.18405639E+03</pdfrwt>
<pdfrwt beam="2">  1       21 0.47148474E-01 0.18405639E+03</pdfrwt>
<totfact> 0.13458477E+05</totfact>
</mgrwt>
</event>
<event>
 4    1  0.8126752E-001  0.2346472E+03  0.7546771E-02  0.1123411E+00
         21   -1    0    0  503  502  0.00000000000E+00  0.00000000000E+00  0.67756746303E+03  0.67756746303E+03  0.00000000000E+00 0.  1.
         21   -1    0    0  501  503 -0.00000000000E+00 -0.00000000000E+00 -0.19695588421E+03  0.19695588421E+03  0.00000000000E+00 0. -1.
          6    1    1    2  501    0 -0.99129748685E+02 -0.12370769124E+03 -0.94825843237E+02  0.25308346547E+03  0.17300000000E+03 0. -1.
         -6    1    1    2    0  502  0.99129748685E+02  0.12370769124E+03  0.57543742206E+03  0.62143988177E+03  0.17300000000E+03 0.  1.
<mgrwt>
<rscale>  2 0.23464718E+03</rscale>
<asrwt>0</asrwt>
<pdfrwt beam="1">  1       21 0.10424115E+00 0.23464718E+03</pdfrwt>
<pdfrwt beam="2">  1       21 0.30300906E-01 0.23464718E+03</pdfrwt>
<totfact> 0.75456850E+03</totfact>
</mgrwt>
</event>
<event>
 4    1  0.8126752E-001  0.2222681E+03  0.7546771E-02  0.1132203E+00
         21   -1    0    0  501  502  0.00000000000E+00  0.00000000000E+00  0.18458046064E+03  0.18458046064E+03  0.00000000000E+00 0.  1.
         21   -1    0    0  502  503 -0.00000000000E+00 -0.00000000000E+00 -0.26946029148E+03  0.26946029148E+03  0.00000000000E+00 0. -1.
          6    1    1    2  501    0 -0.13855979822E+03  0.16591483082E+02 -0.23836008826E+02  0.22354250224E+03  0.17300000000E+03 0. -1.
         -6    1    1    2    0  503  0.13855979822E+03 -0.16591483082E+02 -0.61043822013E+02  0.23049824988E+03  0.17300000000E+03 0. -1.
<mgrwt>
<rscale>  2 0.22226807E+03</rscale>
<asrwt>0</asrwt>
<pdfrwt beam="1">  1       21 0.28396994E-01 0.22226807E+03</pdfrwt>
<pdfrwt beam="2">  1       21 0.41455429E-01 0.22226807E+03</pdfrwt>
<totfact> 0.65569194E+04</totfact>
</mgrwt>
</event>
<event>
 4    1  0.8126752E-001  0.1786075E+03  0.7546771E-02  0.1169158E+00
         21   -1    0    0  501  502  0.00000000000E+00  0.00000000000E+00  0.47769048493E+03  0.47769048493E+03  0.00000000000E+00 0.  1.
         21   -1    0    0  502  503 -0.00000000000E+00 -0.00000000000E+00 -0.76903494061E+02  0.76903494061E+02  0.00000000000E+00 0.  1.
          6    1    1    2  501    0  0.28051505593E+02  0.34420022968E+02  0.99789105590E+02  0.20459347629E+03  0.17300000000E+03 0.  1.
         -6    1    1    2    0  503 -0.28051505593E+02 -0.34420022968E+02  0.30099788528E+03  0.35000050270E+03  0.17300000000E+03 0.  1.
<mgrwt>
<rscale>  2 0.17860746E+03</rscale>
<asrwt>0</asrwt>
<pdfrwt beam="1">  1       21 0.73490842E-01 0.17860746E+03</pdfrwt>
<pdfrwt beam="2">  1       21 0.11831307E-01 0.17860746E+03</pdfrwt>
<totfact> 0.10067652E+05</totfact>
</mgrwt>
</event>
<event>
 4    1  0.8126752E-001  0.2337481E+03  0.7546771E-02  0.1124029E+00
         21   -1    0    0  501  502  0.00000000000E+00  0.00000000000E+00  0.15835383254E+03  0.15835383254E+03  0.00000000000E+00 0. -1.
         21   -1    0    0  502  503 -0.00000000000E+00 -0.00000000000E+00 -0.39191812528E+03  0.39191812528E+03  0.00000000000E+00 0. -1.
          6    1    1    2  501    0  0.31379130688E+02  0.15402761082E+03 -0.21624829043E+02  0.23474622035E+03  0.17300000000E+03 0. -1.
         -6    1    1    2    0  503 -0.31379130688E+02 -0.15402761082E+03 -0.21193946369E+03  0.31552573747E+03  0.17300000000E+03 0. -1.
<mgrwt>
<rscale>  2 0.23374806E+03</rscale>
<asrwt>0</asrwt>
<pdfrwt beam="1">  1       21 0.24362128E-01 0.23374806E+03</pdfrwt>
<pdfrwt beam="2">  1       21 0.60295096E-01 0.23374806E+03</pdfrwt>
<totfact> 0.39987545E+04</totfact>
</mgrwt>
</event>
<event>
 4    1  0.8126752E-001  0.1837066E+03  0.7546771E-02  0.1164263E+00
         21   -1    0    0  501  502  0.00000000000E+00  0.00000000000E+00  0.33011167020E+03  0.33011167020E+03  0.00000000000E+00 0. -1.
         21   -1    0    0  502  503 -0.00000000000E+00 -0.00000000000E+00 -0.15854963240E+03  0.15854963240E+03  0.00000000000E+00 0. -1.
          6    1    1    2  501    0 -0.59718428814E+02 -0.15900702439E+02  0.23139927058E+03  0.29545514973E+03  0.17300000000E+03 0. -1.
         -6    1    1    2    0  503  0.59718428814E+02  0.15900702439E+02 -0.59837232782E+02  0.19320615287E+03  0.17300000000E+03 0. -1.
<mgrwt>
<rscale>  2 0.18370662E+03</rscale>
<asrwt>0</asrwt>
<pdfrwt beam="1">  1       21 0.50786411E-01 0.18370662E+03</pdfrwt>
<pdfrwt beam="2">  1       21 0.24392251E-01 0.18370662E+03</pdfrwt>
<totfact> 0.58784406E+04</totfact>
</mgrwt>
</event>
<event>
 4    1  0.8126752E-001  0.2353940E+03  0.7546771E-02  0.1122900E+00
         21   -1    0    0  503  502  0.00000000000E+00  0.00000000000E+00  0.73959879441E+03  0.73959879441E+03  0.00000000000E+00 0. -1.
         21   -1    0    0  501  503 -0.00000000000E+00 -0.00000000000E+00 -0.74948947390E+02  0.74948947390E+02  0.00000000000E+00 0. -1.
          6    1    1    2  501    0  0.41556742896E+01  0.15957458180E+03  0.32424186360E+03  0.40067830350E+03  0.17300000000E+03 0. -1.
         -6    1    1    2    0  502 -0.41556742896E+01 -0.15957458180E+03  0.34040798343E+03  0.41386943831E+03  0.17300000000E+03 0. -1.
<mgrwt>
<rscale>  2 0.23539396E+03</rscale>
<asrwt>0</asrwt>
<pdfrwt beam="1">  1       21 0.11378442E+00 0.23539396E+03</pdfrwt>
<pdfrwt beam="2">  1       21 0.11530608E-01 0.23539396E+03</pdfrwt>
<totfact> 0.37069635E+04</totfact>
</mgrwt>
</event>
<event>
 4    1  0.8126752E-001  0.1942042E+03  0.7546771E-02  0.1154723E+00
         21   -1    0    0  503  502  0.00000000000E+00  0.00000000000E+00  0.42060000855E+02  0.42060000855E+02  0.00000000000E+00 0.  1.
         21   -1    0    0  501  503 -0.00000000000E+00 -0.00000000000E+00 -0.11287374713E+04  0.11287374713E+04  0.00000000000E+00 0.  1.
          6    1    1    2  501    0  0.47273194547E+02 -0.74508552939E+02 -0.80875813721E+03  0.83174816134E+03  0.17300000000E+03 0.  1.
         -6    1    1    2    0  502 -0.47273194547E+02  0.74508552939E+02 -0.27791933326E+03  0.33904931084E+03  0.17300000000E+03 0.  1.
<mgrwt>
<rscale>  2 0.19420422E+03</rscale>
<asrwt>0</asrwt>
<pdfrwt beam="1">  1       21 0.64707688E-02 0.19420422E+03</pdfrwt>
<pdfrwt beam="2">  1       21 0.17365193E+00 0.19420422E+03</pdfrwt>
<totfact> 0.34818480E+04</totfact>
</mgrwt>
</event>
<event>
 4    1  0.8126752E-001  0.1888457E+03  0.7546771E-02  0.1159507E+00
         21   -1    0    0  501  502  0.00000000000E+00  0.00000000000E+00  0.24119459897E+03  0.24119459897E+03  0.00000000000E+00 0.  1.
         21   -1    0    0  502  503 -0.00000000000E+00 -0.00000000000E+00 -0.14822136733E+03  0.14822136733E+03  0.00000000000E+00 0.  1.
          6    1    1    2  501    0 -0.22382738612E+02  0.72337434132E+02  0.56119431919E+02  0.19700782219E+03  0.17300000000E+03 0.  1.
         -6    1    1    2    0  503  0.22382738612E+02 -0.72337434132E+02  0.36853799722E+02  0.19240814411E+03  0.17300000000E+03 0.  1.
<mgrwt>
<rscale>  2 0.18884568E+03</rscale>
<asrwt>0</asrwt>
<pdfrwt beam="1">  1       21 0.37106861E-01 0.18884568E+03</pdfrwt>
<pdfrwt beam="2">  1       21 0.22803287E-01 0.18884568E+03</pdfrwt>
<totfact> 0.12652149E+05</totfact>
</mgrwt>
</event>
<event>
 4    1  0.8126752E-001  0.1830362E+03  0.7546771E-02  0.1164897E+00
         21   -1    0    0  501  502  0.00000000000E+00  0.00000000000E+00  0.13373583281E+03  0.13373583281E+03  0.00000000000E+00 0.  1.
         21   -1    0    0  502  503 -0.00000000000E+00 -0.00000000000E+00 -0.25202322058E+03  0.25202322058E+03  0.00000000000E+00 0. -1.
          6    1    1    2  501    0 -0.58899761597E+02 -0.10200821300E+02 -0.74086641493E+02  0.19746156365E+03  0.17300000000E+03 0. -1.
         -6    1    1    2    0  503  0.58899761597E+02  0.10200821300E+02 -0.44200746281E+02  0.18829748974E+03  0.17300000000E+03 0.  1.
<mgrwt>
<rscale>  2 0.18303617E+03</rscale>
<asrwt>0</asrwt>
<pdfrwt beam="1">  1       21 0.20574743E-01 0.18303617E+03</pdfrwt>
<pdfrwt beam="2">  1       21 0.38772803E-01 0.18303617E+03</pdfrwt>
<totfact> 0.14085798E+05</totfact>
</mgrwt>
</event>
<event>
 4    1  0.8126752E-001  0.1919708E+03  0.7546771E-02  0.1156696E+00
         21   -1    0    0  501  502  0.00000000000E+00  0.00000000000E+00  0.14128233462E+02  0.14128233462E+02  0.00000000000E+00 0.  1.
         21   -1    0    0  502  503 -0.00000000000E+00 -0.00000000000E+00 -0.31608757532E+04  0.31608757532E+04  0.00000000000E+00 0. -1.
          6    1    1    2  501    0  0.82778183528E+02  0.84582693490E+01 -0.90971000828E+03  0.92974462578E+03  0.17300000000E+03 0.  1.
         -6    1    1    2    0  503 -0.82778183528E+02 -0.84582693490E+01 -0.22370375115E+04  0.22452593609E+04  0.17300000000E+03 0. -1.
<mgrwt>
<rscale>  2 0.19197075E+03</rscale>
<asrwt>0</asrwt>
<pdfrwt beam="1">  1       21 0.21735728E-02 0.19197075E+03</pdfrwt>
<pdfrwt beam="2">  1       21 0.48628893E+00 0.19197075E+03</pdfrwt>
<totfact> 0.25394936E+03</totfact>
</mgrwt>
</event>
<event>
 4    1  0.8126752E-001  0.2204439E+03  0.7546771E-02  0.1133553E+00
         21   -1    0    0  501  502  0.00000000000E+00  0.00000000000E+00  0.22810884704E+03  0.22810884704E+03  0.00000000000E+00 0. -1.
         21   -1    0    0  502  503 -0.00000000000E+00 -0.00000000000E+00 -0.25995415964E+03  0.25995415964E+03  0.00000000000E+00 0. -1.
          6    1    1    2  501    0  0.65132917182E+02 -0.12010087947E+03  0.87750309469E+02  0.23726701195E+03  0.17300000000E+03 0. -1.
         -6    1    1    2    0  503 -0.65132917182E+02  0.12010087947E+03 -0.11959562207E+03  0.25079599472E+03  0.17300000000E+03 0. -1.
<mgrwt>
<rscale>  2 0.22044391E+03</rscale>
<asrwt>0</asrwt>
<pdfrwt beam="1">  1       21 0.35093669E-01 0.22044391E+03</pdfrwt>
<pdfrwt beam="2">  1       21 0.39992948E-01 0.22044391E+03</pdfrwt>
<totfact> 0.46541068E+04</totfact>
</mgrwt>
</event>
<event>
 4    1  0.8126752E-001  0.1886004E+03  0.7546771E-02  0.1159730E+00
         21   -1    0    0  503  502  0.00000000000E+00  0.00000000000E+00  0.11298483909E+03  0.11298483909E+03  0.00000000000E+00 0. -1.
         21   -1    0    0  501  503 -0.00000000000E+00 -0.00000000000E+00 -0.39272018321E+03  0.39272018321E+03  0.00000000000E+00 0.  1.
          6    1    1    2  501    0  0.67243904548E+02  0.33457071787E+02 -0.25248084444E+03  0.31514551426E+03  0.17300000000E+03 0.  1.
         -6    1    1    2    0  502 -0.67243904548E+02 -0.33457071787E+02 -0.27254499674E+02  0.19055950804E+03  0.17300000000E+03 0. -1.
<mgrwt>
<rscale>  2 0.18860042E+03</rscale>
<asrwt>0</asrwt>
<pdfrwt beam="1">  1       21 0.17382283E-01 0.18860042E+03</pdfrwt>
<pdfrwt beam="2">  1       21 0.60418490E-01 0.18860042E+03</pdfrwt>
<totfact> 0.76573932E+04</totfact>
</mgrwt>
</event>
<event>
 4    1  0.8126752E-001  0.1970405E+03  0.7546771E-02  0.1152260E+00
         21   -1    0    0  503  502  0.00000000000E+00  0.00000000000E+00  0.58610747784E+03  0.58610747784E+03  0.00000000000E+00 0. -1.
         21   -1    0    0  501  503 -0.00000000000E+00 -0.00000000000E+00 -0.80839299537E+02  0.80839299537E+02  0.00000000000E+00 0.  1.
          6    1    1    2  501    0  0.67959819847E+02  0.65402045084E+02  0.11092903756E+03  0.22611991507E+03  0.17300000000E+03 0.  1.
         -6    1    1    2    0  502 -0.67959819847E+02 -0.65402045084E+02  0.39433914074E+03  0.44082686231E+03  0.17300000000E+03 0. -1.
<mgrwt>
<rscale>  2 0.19704052E+03</rscale>
<asrwt>0</asrwt>
<pdfrwt beam="1">  1       21 0.90170378E-01 0.19704052E+03</pdfrwt>
<pdfrwt beam="2">  1       21 0.12436816E-01 0.19704052E+03</pdfrwt>
<totfact> 0.57450152E+04</totfact>
</mgrwt>
</event>
<event>
 4    1  0.8126752E-001  0.1871934E+03  0.7546771E-02  0.1161017E+00
         21   -1    0    0  501  502  0.00000000000E+00  0.00000000000E+00  0.59680146623E+03  0.59680146623E+03  0.00000000000E+00 0. -1.
         21   -1    0    0  502  503 -0.00000000000E+00 -0.00000000000E+00 -0.64662460835E+02  0.64662460835E+02  0.00000000000E+00 0. -1.
          6    1    1    2  501    0 -0.51492269289E+02 -0.49607483945E+02  0.36637071305E+03  0.41142296441E+03  0.17300000000E+03 0. -1.
         -6    1    1    2    0  503  0.51492269289E+02  0.49607483945E+02  0.16576829234E+03  0.25004096266E+03  0.17300000000E+03 0. -1.
<mgrwt>
<rscale>  2 0.18719337E+03</rscale>
<asrwt>0</asrwt>
<pdfrwt beam="1">  1       21 0.91815606E-01 0.18719337E+03</pdfrwt>
<pdfrwt beam="2">  1       21 0.99480713E-02 0.18719337E+03</pdfrwt>
<totfact> 0.82334218E+04</totfact>
</mgrwt>
</event>
<event>
 4    1  0.8126752E-001  0.2708906E+03  0.7546771E-02  0.1100771E+00
         21   -1    0    0  503  502  0.00000000000E+00  0.00000000000E+00  0.83986557282E+02  0.83986557282E+02  0.00000000000E+00 0. -1.
         21   -1    0    0  501  503 -0.00000000000E+00 -0.00000000000E+00 -0.87416444951E+03  0.87416444951E+03  0.00000000000E+00 0. -1.
          6    1    1    2  501    0  0.20697574023E+03 -0.24774488909E+02 -0.38443190079E+03  0.47028674092E+03  0.17300000000E+03 0. -1.
         -6    1    1    2    0  502 -0.20697574023E+03  0.24774488909E+02 -0.40574599144E+03  0.48786426587E+03  0.17300000000E+03 0. -1.
<mgrwt>
<rscale>  2 0.27089063E+03</rscale>
<asrwt>0</asrwt>
<pdfrwt beam="1">  1       21 0.12921008E-01 0.27089063E+03</pdfrwt>
<pdfrwt beam="2">  1       21 0.13448684E+00 0.27089063E+03</pdfrwt>
<totfact> 0.19494845E+04</totfact>
</mgrwt>
</event>
<event>
 4    1  0.8126752E-001  0.2834313E+03  0.7546771E-02  0.1093829E+00
         21   -1    0    0  503  502  0.00000000000E+00  0.00000000000E+00  0.23766438334E+03  0.23766438334E+03  0.00000000000E+00 0.  1.
         21   -1    0    0  501  503 -0.00000000000E+00 -0.00000000000E+00 -0.34434453266E+03  0.34434453266E+03  0.00000000000E+00 0. -1.
          6    1    1    2  501    0  0.18821795517E+03  0.12238597860E+03 -0.92804368601E+02  0.29823812171E+03  0.17300000000E+03 0.  1.
         -6    1    1    2    0  502 -0.18821795517E+03 -0.12238597860E+03 -0.13875780721E+02  0.28377079430E+03  0.17300000000E+03 0. -1.
<mgrwt>
<rscale>  2 0.28343134E+03</rscale>
<asrwt>0</asrwt>
<pdfrwt beam="1">  1       21 0.36563751E-01 0.28343134E+03</pdfrwt>
<pdfrwt beam="2">  1       21 0.52976082E-01 0.28343134E+03</pdfrwt>
<totfact> 0.23285488E+04</totfact>
</mgrwt>
</event>
<event>
 4    1  0.8126752E-001  0.1883495E+03  0.7546771E-02  0.1159958E+00
         21   -1    0    0  501  502  0.00000000000E+00  0.00000000000E+00  0.97338179714E+03  0.97338179714E+03  0.00000000000E+00 0. -1.
         21   -1    0    0  502  503 -0.00000000000E+00 -0.00000000000E+00 -0.40847164543E+02  0.40847164543E+02  0.00000000000E+00 0. -1.
          6    1    1    2  501    0  0.74441813089E+02 -0.22236435498E+01  0.29980101251E+03  0.35405674012E+03  0.17300000000E+03 0. -1.
         -6    1    1    2    0  503 -0.74441813089E+02  0.22236435498E+01  0.63273362009E+03  0.66017222156E+03  0.17300000000E+03 0. -1.
<mgrwt>
<rscale>  2 0.18834948E+03</rscale>
<asrwt>0</asrwt>
<pdfrwt beam="1">  1       21 0.14975103E+00 0.18834948E+03</pdfrwt>
<pdfrwt beam="2">  1       21 0.62841799E-02 0.18834948E+03</pdfrwt>
<totfact> 0.54809907E+04</totfact>
</mgrwt>
</event>
<event>
 4    1  0.8126752E-001  0.2182583E+03  0.7546771E-02  0.1135188E+00
         21   -1    0    0  503  502  0.00000000000E+00  0.00000000000E+00  0.23836000060E+02  0.23836000060E+02  0.00000000000E+00 0. -1.
         21   -1    0    0  501  503 -0.00000000000E+00 -0.00000000000E+00 -0.28535943663E+04  0.28535943663E+04  0.00000000000E+00 0. -1.
          6    1    1    2  501    0 -0.13105974924E+03 -0.23044054849E+02 -0.22024344494E+04  0.22132225804E+04  0.17300000000E+03 0. -1.
         -6    1    1    2    0  502  0.13105974924E+03  0.23044054849E+02 -0.62732391683E+03  0.66420778598E+03  0.17300000000E+03 0. -1.
<mgrwt>
<rscale>  2 0.21825830E+03</rscale>
<asrwt>0</asrwt>
<pdfrwt beam="1">  1       21 0.36670776E-02 0.21825830E+03</pdfrwt>
<pdfrwt beam="2">  1       21 0.43901444E+00 0.21825830E+03</pdfrwt>
<totfact> 0.21480376E+03</totfact>
</mgrwt>
</event>
<event>
 4    1  0.8126752E-001  0.2732032E+03  0.7546771E-02  0.1099460E+00
         21   -1    0    0  503  502  0.00000000000E+00  0.00000000000E+00  0.19052834126E+03  0.19052834126E+03  0.00000000000E+00 0. -1.
         21   -1    0    0  501  503 -0.00000000000E+00 -0.00000000000E+00 -0.39244923623E+03  0.39244923623E+03  0.00000000000E+00 0. -1.
          6    1    1    2  501    0  0.21106131084E+03  0.12811259121E+02 -0.11323993957E+03  0.29574193008E+03  0.17300000000E+03 0. -1.
         -6    1    1    2    0  502 -0.21106131084E+03 -0.12811259121E+02 -0.88680955402E+02  0.28723564741E+03  0.17300000000E+03 0. -1.
<mgrwt>
<rscale>  2 0.27320323E+03</rscale>
<asrwt>0</asrwt>
<pdfrwt beam="1">  1       21 0.29312053E-01 0.27320323E+03</pdfrwt>
<pdfrwt beam="2">  1       21 0.60376804E-01 0.27320323E+03</pdfrwt>
<totfact> 0.27402612E+04</totfact>
</mgrwt>
</event>
<event>
 4    1  0.8126752E-001  0.1906356E+03  0.7546771E-02  0.1157889E+00
         21   -1    0    0  501  502  0.00000000000E+00  0.00000000000E+00  0.27650745166E+03  0.27650745166E+03  0.00000000000E+00 0. -1.
         21   -1    0    0  502  503 -0.00000000000E+00 -0.00000000000E+00 -0.13416596994E+03  0.13416596994E+03  0.00000000000E+00 0.  1.
          6    1    1    2  501    0 -0.66102308058E+02 -0.45204191510E+02  0.41859084274E+02  0.19517714261E+03  0.17300000000E+03 0.  1.
         -6    1    1    2    0  503  0.66102308058E+02  0.45204191510E+02  0.10048239744E+03  0.21549627899E+03  0.17300000000E+03 0. -1.
<mgrwt>
<rscale>  2 0.19063561E+03</rscale>
<asrwt>0</asrwt>
<pdfrwt beam="1">  1       21 0.42539608E-01 0.19063561E+03</pdfrwt>
<pdfrwt beam="2">  1       21 0.20640918E-01 0.19063561E+03</pdfrwt>
<totfact> 0.11577130E+05</totfact>
</mgrwt>
</event>
<event>
 4    1  0.8126752E-001  0.1786796E+03  0.7546771E-02  0.1169087E+00
         21   -1    0    0  501  502  0.00000000000E+00  0.00000000000E+00  0.74729307836E+02  0.74729307836E+02  0.00000000000E+00 0.  1.
         21   -1    0    0  502  503 -0.00000000000E+00 -0.00000000000E+00 -0.42971388296E+03  0.42971388296E+03  0.00000000000E+00 0.  1.
          6    1    1    2  501    0  0.28307988480E+02 -0.34584159721E+02 -0.15830616737E+03  0.23872002208E+03  0.17300000000E+03 0.  1.
         -6    1    1    2    0  503 -0.28307988480E+02  0.34584159721E+02 -0.19667840776E+03  0.26572316872E+03  0.17300000000E+03 0.  1.
<mgrwt>
<rscale>  2 0.17867962E+03</rscale>
<asrwt>0</asrwt>
<pdfrwt beam="1">  1       21 0.11496817E-01 0.17867962E+03</pdfrwt>
<pdfrwt beam="2">  1       21 0.66109828E-01 0.17867962E+03</pdfrwt>
<totfact> 0.13371624E+05</totfact>
</mgrwt>
</event>
<event>
 4    1  0.8126752E-001  0.1884221E+03  0.7546771E-02  0.1159892E+00
         21   -1    0    0  501  502  0.00000000000E+00  0.00000000000E+00  0.10938665390E+04  0.10938665390E+04  0.00000000000E+00 0.  1.
         21   -1    0    0  502  503 -0.00000000000E+00 -0.00000000000E+00 -0.38635630448E+02  0.38635630448E+02  0.00000000000E+00 0. -1.
          6    1    1    2  501    0  0.66506443605E+02 -0.33923113708E+02  0.30115885557E+03  0.35524574730E+03  0.17300000000E+03 0.  1.
         -6    1    1    2    0  503 -0.66506443605E+02  0.33923113708E+02  0.75407205293E+03  0.77725642210E+03  0.17300000000E+03 0.  1.
<mgrwt>
<rscale>  2 0.18842209E+03</rscale>
<asrwt>0</asrwt>
<pdfrwt beam="1">  1       21 0.16828714E+00 0.18842209E+03</pdfrwt>
<pdfrwt beam="2">  1       21 0.59439440E-02 0.18842209E+03</pdfrwt>
<totfact> 0.44073832E+04</totfact>
</mgrwt>
</event>
<event>
 4    1  0.8126752E-001  0.2507081E+03  0.7546771E-02  0.1112858E+00
         21   -1    0    0  501  502  0.00000000000E+00  0.00000000000E+00  0.10854006572E+04  0.10854006572E+04  0.00000000000E+00 0. -1.
         21   -1    0    0  502  503 -0.00000000000E+00 -0.00000000000E+00 -0.78018322893E+02  0.78018322893E+02  0.00000000000E+00 0.  1.
          6    1    1    2  501    0  0.11981669393E+03 -0.13626992574E+03  0.79902004110E+03  0.83742913663E+03  0.17300000000E+03 0. -1.
         -6    1    1    2    0  503 -0.11981669393E+03  0.13626992574E+03  0.20836229319E+03  0.32598984345E+03  0.17300000000E+03 0. -1.
<mgrwt>
<rscale>  2 0.25070806E+03</rscale>
<asrwt>0</asrwt>
<pdfrwt beam="1">  1       21 0.16698471E+00 0.25070806E+03</pdfrwt>
<pdfrwt beam="2">  1       21 0.12002820E-01 0.25070806E+03</pdfrwt>
<totfact> 0.12637132E+04</totfact>
</mgrwt>
</event>
<event>
 4    1  0.8126752E-001  0.1766886E+03  0.7546771E-02  0.1171047E+00
         21   -1    0    0  501  502  0.00000000000E+00  0.00000000000E+00  0.42505062350E+03  0.42505062350E+03  0.00000000000E+00 0.  1.
         21   -1    0    0  502  503 -0.00000000000E+00 -0.00000000000E+00 -0.81418164585E+02  0.81418164585E+02  0.00000000000E+00 0. -1.
          6    1    1    2  501    0  0.34249598140E+02  0.10808975321E+02  0.25105024371E+03  0.30699363803E+03  0.17300000000E+03 0.  1.
         -6    1    1    2    0  503 -0.34249598140E+02 -0.10808975321E+02  0.92582215205E+02  0.19947515006E+03  0.17300000000E+03 0. -1.
<mgrwt>
<rscale>  2 0.17668862E+03</rscale>
<asrwt>0</asrwt>
<pdfrwt beam="1">  1       21 0.65392402E-01 0.17668862E+03</pdfrwt>
<pdfrwt beam="2">  1       21 0.12525872E-01 0.17668862E+03</pdfrwt>
<totfact> 0.11758018E+05</totfact>
</mgrwt>
</event>
<event>
 4    1  0.8126752E-001  0.2682471E+03  0.7546771E-02  0.1102287E+00
         21   -1    0    0  503  502  0.00000000000E+00  0.00000000000E+00  0.41818068529E+03  0.41818068529E+03  0.00000000000E+00 0.  1.
         21   -1    0    0  501  503 -0.00000000000E+00 -0.00000000000E+00 -0.17463240061E+03  0.17463240061E+03  0.00000000000E+00 0. -1.
          6    1    1    2  501    0  0.15292753491E+03 -0.13653077686E+03  0.85871877679E+02  0.28165664086E+03  0.17300000000E+03 0. -1.
         -6    1    1    2    0  502 -0.15292753491E+03  0.13653077686E+03  0.15767640700E+03  0.31115644504E+03  0.17300000000E+03 0.  1.
<mgrwt>
<rscale>  2 0.26824706E+03</rscale>
<asrwt>0</asrwt>
<pdfrwt beam="1">  1       21 0.64335490E-01 0.26824706E+03</pdfrwt>
<pdfrwt beam="2">  1       21 0.26866523E-01 0.26824706E+03</pdfrwt>
<totfact> 0.28336454E+04</totfact>
</mgrwt>
</event>
<event>
 4    1  0.8126752E-001  0.2104895E+03  0.7546771E-02  0.1141179E+00
         21   -1    0    0  501  502  0.00000000000E+00  0.00000000000E+00  0.13554374029E+04  0.13554374029E+04  0.00000000000E+00 0.  1.
         21   -1    0    0  502  503 -0.00000000000E+00 -0.00000000000E+00 -0.32721752043E+02  0.32721752043E+02  0.00000000000E+00 0.  1.
          6    1    1    2  501    0  0.86652980164E+02 -0.82874045257E+02  0.68381724756E+03  0.71548017052E+03  0.17300000000E+03 0.  1.
         -6    1    1    2    0  503 -0.86652980164E+02  0.82874045257E+02  0.63889840331E+03  0.67267898443E+03  0.17300000000E+03 0.  1.
<mgrwt>
<rscale>  2 0.21048954E+03</rscale>
<asrwt>0</asrwt>
<pdfrwt beam="1">  1       21 0.20852879E+00 0.21048954E+03</pdfrwt>
<pdfrwt beam="2">  1       21 0.50341167E-02 0.21048954E+03</pdfrwt>
<totfact> 0.31119349E+04</totfact>
</mgrwt>
</event>
<event>
 4    1  0.8126752E-001  0.1782779E+03  0.7546771E-02  0.1169480E+00
         21   -1    0    0  501  502  0.00000000000E+00  0.00000000000E+00  0.16835050510E+03  0.16835050510E+03  0.00000000000E+00 0.  1.
         21   -1    0    0  502  503 -0.00000000000E+00 -0.00000000000E+00 -0.18889409510E+03  0.18889409510E+03  0.00000000000E+00 0.  1.
          6    1    1    2  501    0  0.18072592651E+02 -0.39081703434E+02 -0.60913687975E+01  0.17838190189E+03  0.17300000000E+03 0.  1.
         -6    1    1    2    0  503 -0.18072592651E+02  0.39081703434E+02 -0.14452221204E+02  0.17886269831E+03  0.17300000000E+03 0.  1.
<mgrwt>
<rscale>  2 0.17827787E+03</rscale>
<asrwt>0</asrwt>
<pdfrwt beam="1">  1       21 0.25900078E-01 0.17827787E+03</pdfrwt>
<pdfrwt beam="2">  1       21 0.29060630E-01 0.17827787E+03</pdfrwt>
<totfact> 0.16120045E+05</totfact>
</mgrwt>
</event>
<event>
 4    1  0.8126752E-001  0.1959383E+03  0.7546771E-02  0.1153212E+00
         21   -1    0    0  501  502  0.00000000000E+00  0.00000000000E+00  0.83928094972E+03  0.83928094972E+03  0.00000000000E+00 0.  1.
         21   -1    0    0  502  503 -0.00000000000E+00 -0.00000000000E+00 -0.53523946663E+02  0.53523946663E+02  0.00000000000E+00 0.  1.
          6    1    1    2  501    0 -0.29774782987E+02 -0.87041840985E+02  0.22268261493E+03  0.29661316015E+03  0.17300000000E+03 0.  1.
         -6    1    1    2    0  503  0.29774782987E+02  0.87041840985E+02  0.56307438814E+03  0.59619173624E+03  0.17300000000E+03 0.  1.
<mgrwt>
<rscale>  2 0.19593831E+03</rscale>
<asrwt>0</asrwt>
<pdfrwt beam="1">  1       21 0.12912014E+00 0.19593831E+03</pdfrwt>
<pdfrwt beam="2">  1       21 0.82344539E-02 0.19593831E+03</pdfrwt>
<totfact> 0.50088979E+04</totfact>
</mgrwt>
</event>
<event>
 4    1  0.8126752E-001  0.2672189E+03  0.7546771E-02  0.1102882E+00
         21   -1    0    0  503  502  0.00000000000E+00  0.00000000000E+00  0.93357863147E+03  0.93357863147E+03  0.00000000000E+00 0.  1.
         21   -1    0    0  501  503 -0.00000000000E+00 -0.00000000000E+00 -0.12707434419E+03  0.12707434419E+03  0.00000000000E+00 0. -1.
          6    1    1    2  501    0  0.37536635654E+02 -0.20016972354E+03  0.68642393217E+02  0.27589435547E+03  0.17300000000E+03 0. -1.
         -6    1    1    2    0  502 -0.37536635654E+02  0.20016972354E+03  0.73786189407E+03  0.78475862019E+03  0.17300000000E+03 0.  1.
<mgrwt>
<rscale>  2 0.26721886E+03</rscale>
<asrwt>0</asrwt>
<pdfrwt beam="1">  1       21 0.14362748E+00 0.26721886E+03</pdfrwt>
<pdfrwt beam="2">  1       21 0.19549900E-01 0.26721886E+03</pdfrwt>
<totfact> 0.76670174E+03</totfact>
</mgrwt>
</event>
<event>
 4    1  0.8126752E-001  0.1858086E+03  0.7546771E-02  0.1162297E+00
         21   -1    0    0  501  502  0.00000000000E+00  0.00000000000E+00  0.19922289148E+03  0.19922289148E+03  0.00000000000E+00 0.  1.
         21   -1    0    0  502  503 -0.00000000000E+00 -0.00000000000E+00 -0.22203898359E+03  0.22203898359E+03  0.00000000000E+00 0.  1.
          6    1    1    2  501    0 -0.63824420455E+02  0.22853652268E+02  0.87278179009E+02  0.20528596299E+03  0.17300000000E+03 0.  1.
         -6    1    1    2    0  503  0.63824420455E+02 -0.22853652268E+02 -0.11009427111E+03  0.21597591208E+03  0.17300000000E+03 0.  1.
<mgrwt>
<rscale>  2 0.18580863E+03</rscale>
<asrwt>0</asrwt>
<pdfrwt beam="1">  1       21 0.30649676E-01 0.18580863E+03</pdfrwt>
<pdfrwt beam="2">  1       21 0.34159844E-01 0.18580863E+03</pdfrwt>
<totfact> 0.84620879E+04</totfact>
</mgrwt>
</event>
<event>
 4    1  0.8126752E-001  0.3215558E+03  0.7546771E-02  0.1074936E+00
         21   -1    0    0  503  502  0.00000000000E+00  0.00000000000E+00  0.37598667815E+03  0.37598667815E+03  0.00000000000E+00 0.  1.
         21   -1    0    0  501  503 -0.00000000000E+00 -0.00000000000E+00 -0.39732856047E+03  0.39732856047E+03  0.00000000000E+00 0. -1.
          6    1    1    2  501    0  0.49391628950E+02  0.26651377748E+03 -0.22521039051E+03  0.39257845916E+03  0.17300000000E+03 0. -1.
         -6    1    1    2    0  502 -0.49391628950E+02 -0.26651377748E+03  0.20386850820E+03  0.38073677946E+03  0.17300000000E+03 0.  1.
<mgrwt>
<rscale>  2 0.32155579E+03</rscale>
<asrwt>0</asrwt>
<pdfrwt beam="1">  1       21 0.57844104E-01 0.32155579E+03</pdfrwt>
<pdfrwt beam="2">  1       21 0.61127471E-01 0.32155579E+03</pdfrwt>
<totfact> 0.64721404E+03</totfact>
</mgrwt>
</event>
<event>
 4    1  0.8126752E-001  0.2084337E+03  0.7546771E-02  0.1142812E+00
         21   -1    0    0  501  502  0.00000000000E+00  0.00000000000E+00  0.41989551994E+02  0.41989551994E+02  0.00000000000E+00 0. -1.
         21   -1    0    0  502  503 -0.00000000000E+00 -0.00000000000E+00 -0.15986058200E+04  0.15986058200E+04  0.00000000000E+00 0. -1.
          6    1    1    2  501    0  0.64926674220E+02 -0.96437284126E+02 -0.29109149108E+03  0.35802078009E+03  0.17300000000E+03 0. -1.
         -6    1    1    2    0  503 -0.64926674220E+02  0.96437284126E+02 -0.12655247770E+04  0.12825745919E+04  0.17300000000E+03 0. -1.
<mgrwt>
<rscale>  2 0.20843374E+03</rscale>
<asrwt>0</asrwt>
<pdfrwt beam="1">  1       21 0.64599319E-02 0.20843374E+03</pdfrwt>
<pdfrwt beam="2">  1       21 0.24593932E+00 0.20843374E+03</pdfrwt>
<totfact> 0.12032677E+04</totfact>
</mgrwt>
</event>
<event>
 4    1  0.8126752E-001  0.2055724E+03  0.7546771E-02  0.1145121E+00
         21   -1    0    0  503  502  0.00000000000E+00  0.00000000000E+00  0.31557938239E+03  0.31557938239E+03  0.00000000000E+00 0. -1.
         21   -1    0    0  501  503 -0.00000000000E+00 -0.00000000000E+00 -0.13408476792E+03  0.13408476792E+03  0.00000000000E+00 0.  1.
          6    1    1    2  501    0  0.11022531987E+03  0.13468821489E+02  0.82688963491E+02  0.22157954548E+03  0.17300000000E+03 0.  1.
         -6    1    1    2    0  502 -0.11022531987E+03 -0.13468821489E+02  0.98805650982E+02  0.22808460482E+03  0.17300000000E+03 0. -1.
<mgrwt>
<rscale>  2 0.20557245E+03</rscale>
<asrwt>0</asrwt>
<pdfrwt beam="1">  1       21 0.48550674E-01 0.20557245E+03</pdfrwt>
<pdfrwt beam="2">  1       21 0.20628426E-01 0.20557245E+03</pdfrwt>
<totfact> 0.87772216E+04</totfact>
</mgrwt>
</event>
<event>
 4    1  0.8126752E-001  0.2008432E+03  0.7546771E-02  0.1149030E+00
         21   -1    0    0  503  502  0.00000000000E+00  0.00000000000E+00  0.47551687807E+03  0.47551687807E+03  0.00000000000E+00 0.  1.
         21   -1    0    0  501  503 -0.00000000000E+00 -0.00000000000E+00 -0.87574742488E+02  0.87574742488E+02  0.00000000000E+00 0.  1.
          6    1    1    2  501    0  0.89805419055E+02  0.48414714853E+02  0.14412546134E+03  0.24720466523E+03  0.17300000000E+03 0.  1.
         -6    1    1    2    0  502 -0.89805419055E+02 -0.48414714853E+02  0.24381667424E+03  0.31588695532E+03  0.17300000000E+03 0.  1.
<mgrwt>
<rscale>  2 0.20084322E+03</rscale>
<asrwt>0</asrwt>
<pdfrwt beam="1">  1       21 0.73156441E-01 0.20084322E+03</pdfrwt>
<pdfrwt beam="2">  1       21 0.13473038E-01 0.20084322E+03</pdfrwt>
<totfact> 0.79803776E+04</totfact>
</mgrwt>
</event>
<event>
 4    1  0.8126752E-001  0.1873256E+03  0.7546771E-02  0.1160896E+00
         21   -1    0    0  501  502  0.00000000000E+00  0.00000000000E+00  0.24365698846E+02  0.24365698846E+02  0.00000000000E+00 0. -1.
         21   -1    0    0  502  503 -0.00000000000E+00 -0.00000000000E+00 -0.14884075584E+04  0.14884075584E+04  0.00000000000E+00 0. -1.
          6    1    1    2  501    0  0.55983483828E+02  0.45030233288E+02 -0.86818191418E+03  0.88816142028E+03  0.17300000000E+03 0. -1.
         -6    1    1    2    0  503 -0.55983483828E+02 -0.45030233288E+02 -0.59585994535E+03  0.62461183694E+03  0.17300000000E+03 0. -1.
<mgrwt>
<rscale>  2 0.18732558E+03</rscale>
<asrwt>0</asrwt>
<pdfrwt beam="1">  1       21 0.37485696E-02 0.18732558E+03</pdfrwt>
<pdfrwt beam="2">  1       21 0.22898574E+00 0.18732558E+03</pdfrwt>
<totfact> 0.38901272E+04</totfact>
</mgrwt>
</event>
<event>
 4    1  0.8126752E-001  0.1739899E+03  0.7546771E-02  0.1173750E+00
         21   -1    0    0  501  502  0.00000000000E+00  0.00000000000E+00  0.62070794062E+03  0.62070794062E+03  0.00000000000E+00 0. -1.
         21   -1    0    0  502  503 -0.00000000000E+00 -0.00000000000E+00 -0.50642206965E+02  0.50642206965E+02  0.00000000000E+00 0. -1.
          6    1    1    2  501    0 -0.15824844875E+02 -0.96475184499E+01  0.22050721295E+03  0.28088419552E+03  0.17300000000E+03 0.  1.
         -6    1    1    2    0  503  0.15824844875E+02  0.96475184499E+01  0.34955852071E+03  0.39046595207E+03  0.17300000000E+03 0.  1.
<mgrwt>
<rscale>  2 0.17398994E+03</rscale>
<asrwt>0</asrwt>
<pdfrwt beam="1">  1       21 0.95493524E-01 0.17398994E+03</pdfrwt>
<pdfrwt beam="2">  1       21 0.77911092E-02 0.17398994E+03</pdfrwt>
<totfact> 0.11584118E+05</totfact>
</mgrwt>
</event>
<event>
 4    1  0.8126752E-001  0.1839473E+03  0.7546771E-02  0.1164037E+00
         21   -1    0    0  501  502  0.00000000000E+00  0.00000000000E+00  0.10133994161E+03  0.10133994161E+03  0.00000000000E+00 0.  1.
         21   -1    0    0  502  503 -0.00000000000E+00 -0.00000000000E+00 -0.35168620590E+03  0.35168620590E+03  0.00000000000E+00 0.  1.
          6    1    1    2  501    0  0.62510459362E+02 -0.22582322087E+00 -0.17612421022E+03  0.25466909108E+03  0.17300000000E+03 0. -1.
         -6    1    1    2    0  503 -0.62510459362E+02  0.22582322087E+00 -0.74222054078E+02  0.19835705643E+03  0.17300000000E+03 0. -1.
<mgrwt>
<rscale>  2 0.18394730E+03</rscale>
<asrwt>0</asrwt>
<pdfrwt beam="1">  1       21 0.15590760E-01 0.18394730E+03</pdfrwt>
<pdfrwt beam="2">  1       21 0.54105570E-01 0.18394730E+03</pdfrwt>
<totfact> 0.11842381E+05</totfact>
</mgrwt>
</event>
<event>
 4    1  0.8126752E-001  0.2138597E+03  0.7546771E-02  0.1138545E+00
         21   -1    0    0  503  502  0.00000000000E+00  0.00000000000E+00  0.30280217288E+03  0.30280217288E+03  0.00000000000E+00 0. -1.
         21   -1    0    0  501  503 -0.00000000000E+00 -0.00000000000E+00 -0.15291369137E+03  0.15291369137E+03  0.00000000000E+00 0. -1.
          6    1    1    2  501    0  0.70411903496E+02 -0.10415918392E+03  0.10015058260E+03  0.23614849342E+03  0.17300000000E+03 0. -1.
         -6    1    1    2    0  502 -0.70411903496E+02  0.10415918392E+03  0.49737898902E+02  0.21956737084E+03  0.17300000000E+03 0. -1.
<mgrwt>
<rscale>  2 0.21385970E+03</rscale>
<asrwt>0</asrwt>
<pdfrwt beam="1">  1       21 0.46584950E-01 0.21385970E+03</pdfrwt>
<pdfrwt beam="2">  1       21 0.23525183E-01 0.21385970E+03</pdfrwt>
<totfact> 0.74352472E+04</totfact>
</mgrwt>
</event>
<event>
 4    1  0.8126752E-001  0.2153963E+03  0.7546771E-02  0.1137363E+00
         21   -1    0    0  501  502  0.00000000000E+00  0.00000000000E+00  0.13421142198E+03  0.13421142198E+03  0.00000000000E+00 0. -1.
         21   -1    0    0  502  503 -0.00000000000E+00 -0.00000000000E+00 -0.36348544174E+03  0.36348544174E+03  0.00000000000E+00 0.  1.
          6    1    1    2  501    0 -0.10248613203E+03 -0.77221527829E+02 -0.59576085625E+02  0.22348351527E+03  0.17300000000E+03 0. -1.
         -6    1    1    2    0  503  0.10248613203E+03  0.77221527829E+02 -0.16969793414E+03  0.27421334845E+03  0.17300000000E+03 0.  1.
<mgrwt>
<rscale>  2 0.21539631E+03</rscale>
<asrwt>0</asrwt>
<pdfrwt beam="1">  1       21 0.20647911E-01 0.21539631E+03</pdfrwt>
<pdfrwt beam="2">  1       21 0.55920837E-01 0.21539631E+03</pdfrwt>
<totfact> 0.64820431E+04</totfact>
</mgrwt>
</event>
<event>
 4    1  0.8126752E-001  0.1900273E+03  0.7546771E-02  0.1158437E+00
         21   -1    0    0  501  502  0.00000000000E+00  0.00000000000E+00  0.96327695702E+02  0.96327695702E+02  0.00000000000E+00 0. -1.
         21   -1    0    0  502  503 -0.00000000000E+00 -0.00000000000E+00 -0.43964227240E+03  0.43964227240E+03  0.00000000000E+00 0. -1.
          6    1    1    2  501    0  0.51354567206E+02  0.59532246886E+02 -0.27451923131E+03  0.33387301232E+03  0.17300000000E+03 0. -1.
         -6    1    1    2    0  503 -0.51354567206E+02 -0.59532246886E+02 -0.68795345389E+02  0.20209695579E+03  0.17300000000E+03 0. -1.
<mgrwt>
<rscale>  2 0.19002731E+03</rscale>
<asrwt>0</asrwt>
<pdfrwt beam="1">  1       21 0.14819645E-01 0.19002731E+03</pdfrwt>
<pdfrwt beam="2">  1       21 0.67637273E-01 0.19002731E+03</pdfrwt>
<totfact> 0.80218857E+04</totfact>
</mgrwt>
</event>
<event>
 4    1  0.8126752E-001  0.2120419E+03  0.7546771E-02  0.1139959E+00
         21   -1    0    0  501  502  0.00000000000E+00  0.00000000000E+00  0.13594071447E+04  0.13594071447E+04  0.00000000000E+00 0. -1.
         21   -1    0    0  502  503 -0.00000000000E+00 -0.00000000000E+00 -0.73906248693E+02  0.73906248693E+02  0.00000000000E+00 0. -1.
          6    1    1    2  501    0 -0.49351761711E+02 -0.11223703482E+03  0.11754341754E+04  0.11944066514E+04  0.17300000000E+03 0. -1.
         -6    1    1    2    0  503  0.49351761711E+02  0.11223703482E+03  0.11006672067E+03  0.23890674199E+03  0.17300000000E+03 0. -1.
<mgrwt>
<rscale>  2 0.21204186E+03</rscale>
<asrwt>0</asrwt>
<pdfrwt beam="1">  1       21 0.20913954E+00 0.21204186E+03</pdfrwt>
<pdfrwt beam="2">  1       21 0.11370193E-01 0.21204186E+03</pdfrwt>
<totfact> 0.74639129E+03</totfact>
</mgrwt>
</event>
<event>
 4    1  0.8126752E-001  0.2675852E+03  0.7546771E-02  0.1102670E+00
         21   -1    0    0  503  502  0.00000000000E+00  0.00000000000E+00  0.25752035785E+03  0.25752035785E+03  0.00000000000E+00 0. -1.
         21   -1    0    0  501  503 -0.00000000000E+00 -0.00000000000E+00 -0.57255630444E+03  0.57255630444E+03  0.00000000000E+00 0. -1.
          6    1    1    2  501    0  0.10791502380E+03  0.17328346954E+03 -0.45518541634E+03  0.52801096241E+03  0.17300000000E+03 0. -1.
         -6    1    1    2    0  502 -0.10791502380E+03 -0.17328346954E+03  0.14014946975E+03  0.30206569988E+03  0.17300000000E+03 0. -1.
<mgrwt>
<rscale>  2 0.26758515E+03</rscale>
<asrwt>0</asrwt>
<pdfrwt beam="1">  1       21 0.39618517E-01 0.26758515E+03</pdfrwt>
<pdfrwt beam="2">  1       21 0.88085585E-01 0.26758515E+03</pdfrwt>
<totfact> 0.64560947E+03</totfact>
</mgrwt>
</event>
<event>
 4    1  0.8126752E-001  0.1811511E+03  0.7546771E-02  0.1166694E+00
         21   -1    0    0  503  502  0.00000000000E+00  0.00000000000E+00  0.13969476994E+03  0.13969476994E+03  0.00000000000E+00 0.  1.
         21   -1    0    0  501  503 -0.00000000000E+00 -0.00000000000E+00 -0.23571565919E+03  0.23571565919E+03  0.00000000000E+00 0.  1.
          6    1    1    2  501    0 -0.51938142352E+02  0.13753679265E+02 -0.37038376511E+02  0.18489882547E+03  0.17300000000E+03 0.  1.
         -6    1    1    2    0  502  0.51938142352E+02 -0.13753679265E+02 -0.58982512737E+02  0.19051160367E+03  0.17300000000E+03 0.  1.
<mgrwt>
<rscale>  2 0.18115114E+03</rscale>
<asrwt>0</asrwt>
<pdfrwt beam="1">  1       21 0.21491503E-01 0.18115114E+03</pdfrwt>
<pdfrwt beam="2">  1       21 0.36263947E-01 0.18115114E+03</pdfrwt>
<totfact> 0.14847425E+05</totfact>
</mgrwt>
</event>
<event>
 4    1  0.8126752E-001  0.1905542E+03  0.7546771E-02  0.1157962E+00
         21   -1    0    0  501  502  0.00000000000E+00  0.00000000000E+00  0.10694444064E+03  0.10694444064E+03  0.00000000000E+00 0. -1.
         21   -1    0    0  502  503 -0.00000000000E+00 -0.00000000000E+00 -0.60369449414E+03  0.60369449414E+03  0.00000000000E+00 0. -1.
          6    1    1    2  501    0 -0.97215690721E+01  0.79292989584E+02 -0.13332038070E+02  0.19101997367E+03  0.17300000000E+03 0. -1.
         -6    1    1    2    0  503  0.97215690721E+01 -0.79292989584E+02 -0.48341801543E+03  0.51961896111E+03  0.17300000000E+03 0. -1.
<mgrwt>
<rscale>  2 0.19055416E+03</rscale>
<asrwt>0</asrwt>
<pdfrwt beam="1">  1       21 0.16452991E-01 0.19055416E+03</pdfrwt>
<pdfrwt beam="2">  1       21 0.92876075E-01 0.19055416E+03</pdfrwt>
<totfact> 0.32391138E+04</totfact>
</mgrwt>
</event>
<event>
 4    1  0.8126752E-001  0.1802889E+03  0.7546771E-02  0.1167524E+00
         21   -1    0    0  503  502  0.00000000000E+00  0.00000000000E+00  0.55330243145E+03  0.55330243145E+03  0.00000000000E+00 0.  1.
         21   -1    0    0  501  503 -0.00000000000E+00 -0.00000000000E+00 -0.63210284249E+02  0.63210284249E+02  0.00000000000E+00 0.  1.
          6    1    1    2  501    0  0.79428974591E+01  0.50119717213E+02  0.16312149463E+03  0.24313102987E+03  0.17300000000E+03 0.  1.
         -6    1    1    2    0  502 -0.79428974591E+01 -0.50119717213E+02  0.32697065257E+03  0.37338168583E+03  0.17300000000E+03 0.  1.
<mgrwt>
<rscale>  2 0.18028887E+03</rscale>
<asrwt>0</asrwt>
<pdfrwt beam="1">  1       21 0.85123448E-01 0.18028887E+03</pdfrwt>
<pdfrwt beam="2">  1       21 0.97246595E-02 0.18028887E+03</pdfrwt>
<totfact> 0.10230357E+05</totfact>
</mgrwt>
</event>
<event>
 4    1  0.8126752E-001  0.4128304E+03  0.7546771E-02  0.1039425E+00
         21   -1    0    0  503  502  0.00000000000E+00  0.00000000000E+00  0.81248978673E+02  0.81248978673E+02  0.00000000000E+00 0.  1.
         21   -1    0    0  501  503 -0.00000000000E+00 -0.00000000000E+00 -0.21774281149E+04  0.21774281149E+04  0.00000000000E+00 0. -1.
          6    1    1    2  501    0  0.37477182155E+03 -0.67854677122E+01 -0.12643082621E+04  0.13300016325E+04  0.17300000000E+03 0.  1.
         -6    1    1    2    0  502 -0.37477182155E+03  0.67854677122E+01 -0.83187087409E+03  0.92867546105E+03  0.17300000000E+03 0. -1.
<mgrwt>
<rscale>  2 0.41283043E+03</rscale>
<asrwt>0</asrwt>
<pdfrwt beam="1">  1       21 0.12499845E-01 0.41283043E+03</pdfrwt>
<pdfrwt beam="2">  1       21 0.33498889E+00 0.41283043E+03</pdfrwt>
<totfact> 0.95218948E+02</totfact>
</mgrwt>
</event>
<event>
 4    1  0.8126752E-001  0.1875397E+03  0.7546771E-02  0.1160699E+00
         21   -1    0    0  503  502  0.00000000000E+00  0.00000000000E+00  0.37031537091E+03  0.37031537091E+03  0.00000000000E+00 0. -1.
         21   -1    0    0  501  503 -0.00000000000E+00 -0.00000000000E+00 -0.94990095752E+02  0.94990095752E+02  0.00000000000E+00 0. -1.
          6    1    1    2  501    0  0.56238084825E+02  0.45600751306E+02  0.13484981533E+03  0.23098836205E+03  0.17300000000E+03 0. -1.
         -6    1    1    2    0  502 -0.56238084825E+02 -0.45600751306E+02  0.14047545983E+03  0.23431710462E+03  0.17300000000E+03 0. -1.
<mgrwt>
<rscale>  2 0.18753973E+03</rscale>
<asrwt>0</asrwt>
<pdfrwt beam="1">  1       21 0.56971595E-01 0.18753973E+03</pdfrwt>
<pdfrwt beam="2">  1       21 0.14613861E-01 0.18753973E+03</pdfrwt>
<totfact> 0.11928585E+05</totfact>
</mgrwt>
</event>
<event>
 4    1  0.8126752E-001  0.1750566E+03  0.7546771E-02  0.1172675E+00
         21   -1    0    0  503  502  0.00000000000E+00  0.00000000000E+00  0.69486930381E+02  0.69486930381E+02  0.00000000000E+00 0.  1.
         21   -1    0    0  501  503 -0.00000000000E+00 -0.00000000000E+00 -0.47009607446E+03  0.47009607446E+03  0.00000000000E+00 0.  1.
          6    1    1    2  501    0 -0.26280742602E+02  0.50132304786E+01 -0.26740678052E+03  0.31961100760E+03  0.17300000000E+03 0.  1.
         -6    1    1    2    0  502  0.26280742602E+02 -0.50132304786E+01 -0.13320236355E+03  0.21997199723E+03  0.17300000000E+03 0.  1.
<mgrwt>
<rscale>  2 0.17505659E+03</rscale>
<asrwt>0</asrwt>
<pdfrwt beam="1">  1       21 0.10690297E-01 0.17505659E+03</pdfrwt>
<pdfrwt beam="2">  1       21 0.72322474E-01 0.17505659E+03</pdfrwt>
<totfact> 0.12508991E+05</totfact>
</mgrwt>
</event>
<event>
 4    1  0.8126752E-001  0.1814240E+03  0.7546771E-02  0.1166432E+00
         21   -1    0    0  503  502  0.00000000000E+00  0.00000000000E+00  0.13987398422E+03  0.13987398422E+03  0.00000000000E+00 0. -1.
         21   -1    0    0  501  503 -0.00000000000E+00 -0.00000000000E+00 -0.25207184065E+03  0.25207184065E+03  0.00000000000E+00 0.  1.
          6    1    1    2  501    0  0.14082317758E+02 -0.52795277109E+02 -0.10662445278E+03  0.21043627750E+03  0.17300000000E+03 0.  1.
         -6    1    1    2    0  502 -0.14082317758E+02  0.52795277109E+02 -0.55734036420E+01  0.18150954737E+03  0.17300000000E+03 0.  1.
<mgrwt>
<rscale>  2 0.18142396E+03</rscale>
<asrwt>0</asrwt>
<pdfrwt beam="1">  1       21 0.21519075E-01 0.18142396E+03</pdfrwt>
<pdfrwt beam="2">  1       21 0.38780283E-01 0.18142396E+03</pdfrwt>
<totfact> 0.12951551E+05</totfact>
</mgrwt>
</event>
<event>
 4    1  0.8126752E-001  0.1811338E+03  0.7546771E-02  0.1166710E+00
         21   -1    0    0  503  502  0.00000000000E+00  0.00000000000E+00  0.34030179500E+02  0.34030179500E+02  0.00000000000E+00 0. -1.
         21   -1    0    0  501  503 -0.00000000000E+00 -0.00000000000E+00 -0.19088495102E+04  0.19088495102E+04  0.00000000000E+00 0. -1.
          6    1    1    2  501    0 -0.28845854968E+02 -0.45259058635E+02 -0.16208204933E+04  0.16309103400E+04  0.17300000000E+03 0. -1.
         -6    1    1    2    0  502  0.28845854968E+02  0.45259058635E+02 -0.25399883747E+03  0.31196934973E+03  0.17300000000E+03 0. -1.
<mgrwt>
<rscale>  2 0.18113383E+03</rscale>
<asrwt>0</asrwt>
<pdfrwt beam="1">  1       21 0.52354121E-02 0.18113383E+03</pdfrwt>
<pdfrwt beam="2">  1       21 0.29366916E+00 0.18113383E+03</pdfrwt>
<totfact> 0.93534375E+03</totfact>
</mgrwt>
</event>
<event>
 4    1  0.8126752E-001  0.1890106E+03  0.7546771E-02  0.1159357E+00
         21   -1    0    0  501  502  0.00000000000E+00  0.00000000000E+00  0.77951025706E+02  0.77951025706E+02  0.00000000000E+00 0. -1.
         21   -1    0    0  502  503 -0.00000000000E+00 -0.00000000000E+00 -0.52510872831E+03  0.52510872831E+03  0.00000000000E+00 0.  1.
          6    1    1    2  501    0 -0.65886067782E+02  0.38144938064E+02 -0.11602646885E+03  0.22178176594E+03  0.17300000000E+03 0. -1.
         -6    1    1    2    0  503  0.65886067782E+02 -0.38144938064E+02 -0.33113123375E+03  0.38127798807E+03  0.17300000000E+03 0.  1.
<mgrwt>
<rscale>  2 0.18901061E+03</rscale>
<asrwt>0</asrwt>
<pdfrwt beam="1">  1       21 0.11992466E-01 0.18901061E+03</pdfrwt>
<pdfrwt beam="2">  1       21 0.80785956E-01 0.18901061E+03</pdfrwt>
<totfact> 0.79154763E+04</totfact>
</mgrwt>
</event>
<event>
 4    1  0.8126752E-001  0.2206399E+03  0.7546771E-02  0.1133407E+00
         21   -1    0    0  503  502  0.00000000000E+00  0.00000000000E+00  0.14687148919E+04  0.14687148919E+04  0.00000000000E+00 0. -1.
         21   -1    0    0  501  503 -0.00000000000E+00 -0.00000000000E+00 -0.33881895257E+02  0.33881895257E+02  0.00000000000E+00 0.  1.
          6    1    1    2  501    0 -0.11391961522E+03 -0.75995364761E+02  0.82814172584E+03  0.85703015832E+03  0.17300000000E+03 0. -1.
         -6    1    1    2    0  502  0.11391961522E+03  0.75995364761E+02  0.60669127081E+03  0.64556662884E+03  0.17300000000E+03 0. -1.
<mgrwt>
<rscale>  2 0.22063992E+03</rscale>
<asrwt>0</asrwt>
<pdfrwt beam="1">  1       21 0.22595609E+00 0.22063992E+03</pdfrwt>
<pdfrwt beam="2">  1       21 0.52126004E-02 0.22063992E+03</pdfrwt>
<totfact> 0.22694878E+04</totfact>
</mgrwt>
</event>
<event>
 4    1  0.8126752E-001  0.1961470E+03  0.7546771E-02  0.1153031E+00
         21   -1    0    0  503  502  0.00000000000E+00  0.00000000000E+00  0.11732253343E+03  0.11732253343E+03  0.00000000000E+00 0.  1.
         21   -1    0    0  501  503 -0.00000000000E+00 -0.00000000000E+00 -0.48055261254E+03  0.48055261254E+03  0.00000000000E+00 0.  1.
          6    1    1    2  501    0 -0.66482967794E+02  0.64223650402E+02 -0.35008344190E+03  0.40128802445E+03  0.17300000000E+03 0.  1.
         -6    1    1    2    0  502  0.66482967794E+02 -0.64223650402E+02 -0.13146637210E+02  0.19658712152E+03  0.17300000000E+03 0.  1.
<mgrwt>
<rscale>  2 0.19614704E+03</rscale>
<asrwt>0</asrwt>
<pdfrwt beam="1">  1       21 0.18049620E-01 0.19614704E+03</pdfrwt>
<pdfrwt beam="2">  1       21 0.73931172E-01 0.19614704E+03</pdfrwt>
<totfact> 0.45775917E+04</totfact>
</mgrwt>
</event>
<event>
 4    1  0.8126752E-001  0.2472244E+03  0.7546771E-02  0.1115072E+00
         21   -1    0    0  501  502  0.00000000000E+00  0.00000000000E+00  0.35296182497E+03  0.35296182497E+03  0.00000000000E+00 0.  1.
         21   -1    0    0  502  503 -0.00000000000E+00 -0.00000000000E+00 -0.18217143933E+03  0.18217143933E+03  0.00000000000E+00 0. -1.
          6    1    1    2  501    0 -0.16868995335E+03 -0.52293528295E+02  0.14489528150E+03  0.28655637502E+03  0.17300000000E+03 0. -1.
         -6    1    1    2    0  503  0.16868995335E+03  0.52293528295E+02  0.25895104143E+02  0.24857688928E+03  0.17300000000E+03 0. -1.
<mgrwt>
<rscale>  2 0.24722442E+03</rscale>
<asrwt>0</asrwt>
<pdfrwt beam="1">  1       21 0.54301819E-01 0.24722442E+03</pdfrwt>
<pdfrwt beam="2">  1       21 0.28026375E-01 0.24722442E+03</pdfrwt>
<totfact> 0.37967595E+04</totfact>
</mgrwt>
</event>
<event>
 4    1  0.8126752E-001  0.2539941E+03  0.7546771E-02  0.1110806E+00
         21   -1    0    0  501  502  0.00000000000E+00  0.00000000000E+00  0.73165601850E+03  0.73165601850E+03  0.00000000000E+00 0. -1.
         21   -1    0    0  502  503 -0.00000000000E+00 -0.00000000000E+00 -0.89495793356E+02  0.89495793356E+02  0.00000000000E+00 0. -1.
          6    1    1    2  501    0 -0.18063900920E+03  0.44198961106E+02  0.37097803416E+03  0.44959726604E+03  0.17300000000E+03 0. -1.
         -6    1    1    2    0  503  0.18063900920E+03 -0.44198961106E+02  0.27118219099E+03  0.37155454581E+03  0.17300000000E+03 0. -1.
<mgrwt>
<rscale>  2 0.25399409E+03</rscale>
<asrwt>0</asrwt>
<pdfrwt beam="1">  1       21 0.11256246E+00 0.25399409E+03</pdfrwt>
<pdfrwt beam="2">  1       21 0.13768584E-01 0.25399409E+03</pdfrwt>
<totfact> 0.27389138E+04</totfact>
</mgrwt>
</event>
<event>
 4    1  0.8126752E-001  0.1760406E+03  0.7546771E-02  0.1171691E+00
         21   -1    0    0  503  502  0.00000000000E+00  0.00000000000E+00  0.45752119176E+02  0.45752119176E+02  0.00000000000E+00 0.  1.
         21   -1    0    0  501  503 -0.00000000000E+00 -0.00000000000E+00 -0.89681162995E+03  0.89681162995E+03  0.00000000000E+00 0.  1.
          6    1    1    2  501    0 -0.32568725546E+02 -0.76055993063E+00 -0.65866460978E+03  0.68178396030E+03  0.17300000000E+03 0.  1.
         -6    1    1    2    0  502  0.32568725546E+02  0.76055993063E+00 -0.19239490099E+03  0.26077978883E+03  0.17300000000E+03 0.  1.
<mgrwt>
<rscale>  2 0.17604062E+03</rscale>
<asrwt>0</asrwt>
<pdfrwt beam="1">  1       21 0.70387874E-02 0.17604062E+03</pdfrwt>
<pdfrwt beam="2">  1       21 0.13797102E+00 0.17604062E+03</pdfrwt>
<totfact> 0.56165871E+04</totfact>
</mgrwt>
</event>
<event>
 4    1  0.8126752E-001  0.1748891E+03  0.7546771E-02  0.1172843E+00
         21   -1    0    0  503  502  0.00000000000E+00  0.00000000000E+00  0.62460185839E+02  0.62460185839E+02  0.00000000000E+00 0. -1.
         21   -1    0    0  501  503 -0.00000000000E+00 -0.00000000000E+00 -0.52860598896E+03  0.52860598896E+03  0.00000000000E+00 0.  1.
          6    1    1    2  501    0  0.22570048318E+02 -0.12156712400E+02 -0.31325886647E+03  0.35877194728E+03  0.17300000000E+03 0.  1.
         -6    1    1    2    0  502 -0.22570048318E+02  0.12156712400E+02 -0.15288693665E+03  0.23229422752E+03  0.17300000000E+03 0.  1.
<mgrwt>
<rscale>  2 0.17488909E+03</rscale>
<asrwt>0</asrwt>
<pdfrwt beam="1">  1       21 0.96092596E-02 0.17488909E+03</pdfrwt>
<pdfrwt beam="2">  1       21 0.81323996E-01 0.17488909E+03</pdfrwt>
<totfact> 0.11614690E+05</totfact>
</mgrwt>
</event>
<event>
 4    1  0.8126752E-001  0.1737113E+03  0.7546771E-02  0.1174032E+00
         21   -1    0    0  503  502  0.00000000000E+00  0.00000000000E+00  0.40067087288E+03  0.40067087288E+03  0.00000000000E+00 0. -1.
         21   -1    0    0  501  503 -0.00000000000E+00 -0.00000000000E+00 -0.76047063473E+02  0.76047063473E+02  0.00000000000E+00 0. -1.
          6    1    1    2  501    0  0.43833738909E+01  0.15079443105E+02  0.13888866064E+03  0.22240877596E+03  0.17300000000E+03 0. -1.
         -6    1    1    2    0  502 -0.43833738909E+01 -0.15079443105E+02  0.18573514876E+03  0.25430916039E+03  0.17300000000E+03 0. -1.
<mgrwt>
<rscale>  2 0.17371126E+03</rscale>
<asrwt>0</asrwt>
<pdfrwt beam="1">  1       21 0.61641672E-01 0.17371126E+03</pdfrwt>
<pdfrwt beam="2">  1       21 0.11699548E-01 0.17371126E+03</pdfrwt>
<totfact> 0.15108032E+05</totfact>
</mgrwt>
</event>
<event>
 4    1  0.8126752E-001  0.1963438E+03  0.7546771E-02  0.1152861E+00
         21   -1    0    0  503  502  0.00000000000E+00  0.00000000000E+00  0.22584955723E+02  0.22584955723E+02  0.00000000000E+00 0. -1.
         21   -1    0    0  501  503 -0.00000000000E+00 -0.00000000000E+00 -0.18053421298E+04  0.18053421298E+04  0.00000000000E+00 0. -1.
          6    1    1    2  501    0  0.15366198772E+02 -0.91573837804E+02 -0.11047707063E+04  0.11220825287E+04  0.17300000000E+03 0. -1.
         -6    1    1    2    0  502 -0.15366198772E+02  0.91573837804E+02 -0.67798646780E+03  0.70584455679E+03  0.17300000000E+03 0. -1.
<mgrwt>
<rscale>  2 0.19634380E+03</rscale>
<asrwt>0</asrwt>
<pdfrwt beam="1">  1       21 0.34746082E-02 0.19634380E+03</pdfrwt>
<pdfrwt beam="2">  1       21 0.27774497E+00 0.19634380E+03</pdfrwt>
<totfact> 0.22657292E+04</totfact>
</mgrwt>
</event>
<event>
 4    1  0.8126752E-001  0.2113431E+03  0.7546771E-02  0.1140507E+00
         21   -1    0    0  501  502  0.00000000000E+00  0.00000000000E+00  0.10225702182E+04  0.10225702182E+04  0.00000000000E+00 0.  1.
         21   -1    0    0  502  503 -0.00000000000E+00 -0.00000000000E+00 -0.44065822298E+02  0.44065822298E+02  0.00000000000E+00 0. -1.
          6    1    1    2  501    0  0.92102678933E+02 -0.79082217394E+02  0.43935104575E+03  0.48753999013E+03  0.17300000000E+03 0. -1.
         -6    1    1    2    0  503 -0.92102678933E+02  0.79082217394E+02  0.53915335020E+03  0.57909605041E+03  0.17300000000E+03 0.  1.
<mgrwt>
<rscale>  2 0.21134309E+03</rscale>
<asrwt>0</asrwt>
<pdfrwt beam="1">  1       21 0.15731848E+00 0.21134309E+03</pdfrwt>
<pdfrwt beam="2">  1       21 0.67793580E-02 0.21134309E+03</pdfrwt>
<totfact> 0.41644527E+04</totfact>
</mgrwt>
</event>
<event>
 4    1  0.8126752E-001  0.2133603E+03  0.7546771E-02  0.1138932E+00
         21   -1    0    0  503  502  0.00000000000E+00  0.00000000000E+00  0.28187590327E+03  0.28187590327E+03  0.00000000000E+00 0.  1.
         21   -1    0    0  501  503 -0.00000000000E+00 -0.00000000000E+00 -0.16816049867E+03  0.16816049867E+03  0.00000000000E+00 0. -1.
          6    1    1    2  501    0  0.78359393170E+02 -0.97228706369E+02  0.12071045683E+02  0.21370148802E+03  0.17300000000E+03 0. -1.
         -6    1    1    2    0  502 -0.78359393170E+02  0.97228706369E+02  0.10164435892E+03  0.23633491392E+03  0.17300000000E+03 0.  1.
<mgrwt>
<rscale>  2 0.21336030E+03</rscale>
<asrwt>0</asrwt>
<pdfrwt beam="1">  1       21 0.43365523E-01 0.21336030E+03</pdfrwt>
<pdfrwt beam="2">  1       21 0.25870846E-01 0.21336030E+03</pdfrwt>
<totfact> 0.71865026E+04</totfact>
</mgrwt>
</event>
<event>
 4    1  0.8126752E-001  0.2040137E+03  0.7546771E-02  0.1146396E+00
         21   -1    0    0  503  502  0.00000000000E+00  0.00000000000E+00  0.10139003122E+03  0.10139003122E+03  0.00000000000E+00 0.  1.
         21   -1    0    0  501  503 -0.00000000000E+00 -0.00000000000E+00 -0.43943310365E+03  0.43943310365E+03  0.00000000000E+00 0.  1.
          6    1    1    2  501    0 -0.10811651805E+03  0.18412463950E+01 -0.23839686167E+03  0.31377481626E+03  0.17300000000E+03 0.  1.
         -6    1    1    2    0  502  0.10811651805E+03 -0.18412463950E+01 -0.99646210764E+02  0.22704831861E+03  0.17300000000E+03 0.  1.
<mgrwt>
<rscale>  2 0.20401366E+03</rscale>
<asrwt>0</asrwt>
<pdfrwt beam="1">  1       21 0.15598466E-01 0.20401366E+03</pdfrwt>
<pdfrwt beam="2">  1       21 0.67605092E-01 0.20401366E+03</pdfrwt>
<totfact> 0.72691189E+04</totfact>
</mgrwt>
</event>
<event>
 4    1  0.8126752E-001  0.2397126E+03  0.7546771E-02  0.1119984E+00
         21   -1    0    0  503  502  0.00000000000E+00  0.00000000000E+00  0.67043886896E+03  0.67043886896E+03  0.00000000000E+00 0. -1.
         21   -1    0    0  501  503 -0.00000000000E+00 -0.00000000000E+00 -0.91993327585E+02  0.91993327585E+02  0.00000000000E+00 0.  1.
          6    1    1    2  501    0 -0.73144480657E+02 -0.14893969893E+03  0.18957948491E+03  0.30561827509E+03  0.17300000000E+03 0.  1.
         -6    1    1    2    0  502  0.73144480657E+02  0.14893969893E+03  0.38886605647E+03  0.45681392146E+03  0.17300000000E+03 0. -1.
<mgrwt>
<rscale>  2 0.23971264E+03</rscale>
<asrwt>0</asrwt>
<pdfrwt beam="1">  1       21 0.10314444E+00 0.23971264E+03</pdfrwt>
<pdfrwt beam="2">  1       21 0.14152820E-01 0.23971264E+03</pdfrwt>
<totfact> 0.32429796E+04</totfact>
</mgrwt>
</event>
<event>
 4    1  0.8126752E-001  0.2425115E+03  0.7546771E-02  0.1118131E+00
         21   -1    0    0  501  502  0.00000000000E+00  0.00000000000E+00  0.20118344080E+03  0.20118344080E+03  0.00000000000E+00 0. -1.
         21   -1    0    0  502  503 -0.00000000000E+00 -0.00000000000E+00 -0.29564946875E+03  0.29564946875E+03  0.00000000000E+00 0.  1.
          6    1    1    2  501    0 -0.15271037433E+03 -0.74581172862E+02 -0.20907709803E+02  0.24341105584E+03  0.17300000000E+03 0.  1.
         -6    1    1    2    0  503  0.15271037433E+03  0.74581172862E+02 -0.73558318144E+02  0.25342185372E+03  0.17300000000E+03 0. -1.
<mgrwt>
<rscale>  2 0.24251146E+03</rscale>
<asrwt>0</asrwt>
<pdfrwt beam="1">  1       21 0.30951299E-01 0.24251146E+03</pdfrwt>
<pdfrwt beam="2">  1       21 0.45484533E-01 0.24251146E+03</pdfrwt>
<totfact> 0.45417456E+04</totfact>
</mgrwt>
</event>
<event>
 4    1  0.8126752E-001  0.2530333E+03  0.7546771E-02  0.1111403E+00
         21   -1    0    0  501  502  0.00000000000E+00  0.00000000000E+00  0.16897567850E+03  0.16897567850E+03  0.00000000000E+00 0.  1.
         21   -1    0    0  502  503 -0.00000000000E+00 -0.00000000000E+00 -0.64182757689E+03  0.64182757689E+03  0.00000000000E+00 0. -1.
          6    1    1    2  501    0  0.64682620339E+02 -0.17295377957E+03 -0.49589743955E+03  0.55672266147E+03  0.17300000000E+03 0. -1.
         -6    1    1    2    0  503 -0.64682620339E+02  0.17295377957E+03  0.23045541154E+02  0.25408059392E+03  0.17300000000E+03 0.  1.
<mgrwt>
<rscale>  2 0.25303330E+03</rscale>
<asrwt>0</asrwt>
<pdfrwt beam="1">  1       21 0.25996258E-01 0.25303330E+03</pdfrwt>
<pdfrwt beam="2">  1       21 0.98742707E-01 0.25303330E+03</pdfrwt>
<totfact> 0.11454075E+04</totfact>
</mgrwt>
</event>
<event>
 4    1  0.8126752E-001  0.1857174E+03  0.7546771E-02  0.1162382E+00
         21   -1    0    0  501  502  0.00000000000E+00  0.00000000000E+00  0.16636985027E+03  0.16636985027E+03  0.00000000000E+00 0. -1.
         21   -1    0    0  502  503 -0.00000000000E+00 -0.00000000000E+00 -0.21600559251E+03  0.21600559251E+03  0.00000000000E+00 0. -1.
          6    1    1    2  501    0 -0.57269084394E+02 -0.35808097346E+02  0.13530934254E+02  0.18620970449E+03  0.17300000000E+03 0. -1.
         -6    1    1    2    0  503  0.57269084394E+02  0.35808097346E+02 -0.63166676498E+02  0.19616573830E+03  0.17300000000E+03 0. -1.
<mgrwt>
<rscale>  2 0.18571744E+03</rscale>
<asrwt>0</asrwt>
<pdfrwt beam="1">  1       21 0.25595362E-01 0.18571744E+03</pdfrwt>
<pdfrwt beam="2">  1       21 0.33231630E-01 0.18571744E+03</pdfrwt>
<totfact> 0.12656284E+05</totfact>
</mgrwt>
</event>
<event>
 4    1  0.8126752E-001  0.1958416E+03  0.7546771E-02  0.1153296E+00
         21   -1    0    0  501  502  0.00000000000E+00  0.00000000000E+00  0.32009847596E+03  0.32009847596E+03  0.00000000000E+00 0. -1.
         21   -1    0    0  502  503 -0.00000000000E+00 -0.00000000000E+00 -0.23438329860E+03  0.23438329860E+03  0.00000000000E+00 0. -1.
          6    1    1    2  501    0 -0.89011396467E+02 -0.22402975855E+02  0.23668640621E+03  0.30720412906E+03  0.17300000000E+03 0. -1.
         -6    1    1    2    0  503  0.89011396467E+02  0.22402975855E+02 -0.15097122885E+03  0.24727764551E+03  0.17300000000E+03 0. -1.
<mgrwt>
<rscale>  2 0.19584157E+03</rscale>
<asrwt>0</asrwt>
<pdfrwt beam="1">  1       21 0.49245919E-01 0.19584157E+03</pdfrwt>
<pdfrwt beam="2">  1       21 0.36058969E-01 0.19584157E+03</pdfrwt>
<totfact> 0.29118069E+04</totfact>
</mgrwt>
</event>
<event>
 4    1  0.8126752E-001  0.2216031E+03  0.7546771E-02  0.1132693E+00
         21   -1    0    0  501  502  0.00000000000E+00  0.00000000000E+00  0.41138927861E+03  0.41138927861E+03  0.00000000000E+00 0. -1.
         21   -1    0    0  502  503 -0.00000000000E+00 -0.00000000000E+00 -0.14447849948E+03  0.14447849948E+03  0.00000000000E+00 0. -1.
          6    1    1    2  501    0 -0.86221043108E+02  0.10837378615E+03  0.24931757172E+03  0.33356738055E+03  0.17300000000E+03 0. -1.
         -6    1    1    2    0  503  0.86221043108E+02 -0.10837378615E+03  0.17593207412E+02  0.22230039754E+03  0.17300000000E+03 0. -1.
<mgrwt>
<rscale>  2 0.22160313E+03</rscale>
<asrwt>0</asrwt>
<pdfrwt beam="1">  1       21 0.63290658E-01 0.22160313E+03</pdfrwt>
<pdfrwt beam="2">  1       21 0.22227462E-01 0.22160313E+03</pdfrwt>
<totfact> 0.43100808E+04</totfact>
</mgrwt>
</event>
<event>
 4    1  0.8126752E-001  0.1733871E+03  0.7546771E-02  0.1174361E+00
         21   -1    0    0  501  502  0.00000000000E+00  0.00000000000E+00  0.39907161820E+03  0.39907161820E+03  0.00000000000E+00 0. -1.
         21   -1    0    0  502  503 -0.00000000000E+00 -0.00000000000E+00 -0.14672732166E+03  0.14672732166E+03  0.00000000000E+00 0. -1.
          6    1    1    2  501    0 -0.11224010151E+02  0.28452047436E+01  0.31653424096E+03  0.36091134548E+03  0.17300000000E+03 0. -1.
         -6    1    1    2    0  503  0.11224010151E+02 -0.28452047436E+01 -0.64189944417E+02  0.18488759439E+03  0.17300000000E+03 0. -1.
<mgrwt>
<rscale>  2 0.17338706E+03</rscale>
<asrwt>0</asrwt>
<pdfrwt beam="1">  1       21 0.61395633E-01 0.17338706E+03</pdfrwt>
<pdfrwt beam="2">  1       21 0.22573434E-01 0.17338706E+03</pdfrwt>
<totfact> 0.45781070E+04</totfact>
</mgrwt>
</event>
<event>
 4    1  0.8126752E-001  0.2079987E+03  0.7546771E-02  0.1143161E+00
         21   -1    0    0  503  502  0.00000000000E+00  0.00000000000E+00  0.44373509531E+02  0.44373509531E+02  0.00000000000E+00 0.  1.
         21   -1    0    0  501  503 -0.00000000000E+00 -0.00000000000E+00 -0.10296076941E+04  0.10296076941E+04  0.00000000000E+00 0.  1.
          6    1    1    2  501    0  0.24072794758E+02  0.11293784444E+03 -0.36893072446E+03  0.42352489372E+03  0.17300000000E+03 0.  1.
         -6    1    1    2    0  502 -0.24072794758E+02 -0.11293784444E+03 -0.61630346013E+03  0.65045630992E+03  0.17300000000E+03 0.  1.
<mgrwt>
<rscale>  2 0.20799869E+03</rscale>
<asrwt>0</asrwt>
<pdfrwt beam="1">  1       21 0.68266943E-02 0.20799869E+03</pdfrwt>
<pdfrwt beam="2">  1       21 0.15840117E+00 0.20799869E+03</pdfrwt>
<totfact> 0.40471745E+04</totfact>
</mgrwt>
</event>
<event>
 4    1  0.8126752E-001  0.1740910E+03  0.7546771E-02  0.1173647E+00
         21   -1    0    0  501  502  0.00000000000E+00  0.00000000000E+00  0.11435592380E+04  0.11435592380E+04  0.00000000000E+00 0. -1.
         21   -1    0    0  502  503 -0.00000000000E+00 -0.00000000000E+00 -0.29458626107E+02  0.29458626107E+02  0.00000000000E+00 0. -1.
          6    1    1    2  501    0 -0.17158531262E+02  0.91802476910E+01  0.37127119443E+03  0.41006096127E+03  0.17300000000E+03 0. -1.
         -6    1    1    2    0  503  0.17158531262E+02 -0.91802476910E+01  0.74282941749E+03  0.76295690287E+03  0.17300000000E+03 0. -1.
<mgrwt>
<rscale>  2 0.17409105E+03</rscale>
<asrwt>0</asrwt>
<pdfrwt beam="1">  1       21 0.17593216E+00 0.17409105E+03</pdfrwt>
<pdfrwt beam="2">  1       21 0.45320972E-02 0.17409105E+03</pdfrwt>
<totfact> 0.62302512E+04</totfact>
</mgrwt>
</event>
<event>
 4    1  0.8126752E-001  0.3148566E+03  0.7546771E-02  0.1078041E+00
         21   -1    0    0  501  502  0.00000000000E+00  0.00000000000E+00  0.13585431290E+04  0.13585431290E+04  0.00000000000E+00 0.  1.
         21   -1    0    0  502  503 -0.00000000000E+00 -0.00000000000E+00 -0.82508044630E+02  0.82508044630E+02  0.00000000000E+00 0.  1.
          6    1    1    2  501    0 -0.24952134997E+03  0.83335177079E+02  0.88298104146E+03  0.93743809151E+03  0.17300000000E+03 0.  1.
         -6    1    1    2    0  503  0.24952134997E+03 -0.83335177079E+02  0.39305404286E+03  0.50361308208E+03  0.17300000000E+03 0.  1.
<mgrwt>
<rscale>  2 0.31485656E+03</rscale>
<asrwt>0</asrwt>
<pdfrwt beam="1">  1       21 0.20900662E+00 0.31485656E+03</pdfrwt>
<pdfrwt beam="2">  1       21 0.12693546E-01 0.31485656E+03</pdfrwt>
<totfact> 0.57146568E+03</totfact>
</mgrwt>
</event>
<event>
 4    1  0.8126752E-001  0.1737441E+03  0.7546771E-02  0.1173999E+00
         21   -1    0    0  501  502  0.00000000000E+00  0.00000000000E+00  0.27863774193E+03  0.27863774193E+03  0.00000000000E+00 0. -1.
         21   -1    0    0  502  503 -0.00000000000E+00 -0.00000000000E+00 -0.11625320758E+03  0.11625320758E+03  0.00000000000E+00 0. -1.
          6    1    1    2  501    0  0.92572632582E+01  0.13126777807E+02  0.29671722965E+02  0.17625952559E+03  0.17300000000E+03 0. -1.
         -6    1    1    2    0  503 -0.92572632582E+01 -0.13126777807E+02  0.13271281139E+03  0.21863142392E+03  0.17300000000E+03 0. -1.
<mgrwt>
<rscale>  2 0.17374409E+03</rscale>
<asrwt>0</asrwt>
<pdfrwt beam="1">  1       21 0.42867345E-01 0.17374409E+03</pdfrwt>
<pdfrwt beam="2">  1       21 0.17885109E-01 0.17374409E+03</pdfrwt>
<totfact> 0.14961305E+05</totfact>
</mgrwt>
</event>
<event>
 4    1  0.8126752E-001  0.1755450E+03  0.7546771E-02  0.1172186E+00
         21   -1    0    0  501  502  0.00000000000E+00  0.00000000000E+00  0.19564351201E+03  0.19564351201E+03  0.00000000000E+00 0. -1.
         21   -1    0    0  502  503 -0.00000000000E+00 -0.00000000000E+00 -0.16107526517E+03  0.16107526517E+03  0.00000000000E+00 0. -1.
          6    1    1    2  501    0 -0.26282717315E+02  0.14009213699E+02  0.43815265096E+02  0.18093041965E+03  0.17300000000E+03 0. -1.
         -6    1    1    2    0  503  0.26282717315E+02 -0.14009213699E+02 -0.92470182630E+01  0.17578835753E+03  0.17300000000E+03 0. -1.
<mgrwt>
<rscale>  2 0.17554498E+03</rscale>
<asrwt>0</asrwt>
<pdfrwt beam="1">  1       21 0.30099002E-01 0.17554498E+03</pdfrwt>
<pdfrwt beam="2">  1       21 0.24780810E-01 0.17554498E+03</pdfrwt>
<totfact> 0.16396174E+05</totfact>
</mgrwt>
</event>
<event>
 4    1  0.8126752E-001  0.1758117E+03  0.7546771E-02  0.1171919E+00
         21   -1    0    0  503  502  0.00000000000E+00  0.00000000000E+00  0.51883744670E+03  0.51883744670E+03  0.00000000000E+00 0.  1.
         21   -1    0    0  501  503 -0.00000000000E+00 -0.00000000000E+00 -0.66364570975E+02  0.66364570975E+02  0.00000000000E+00 0.  1.
          6    1    1    2  501    0 -0.29896437233E+02 -0.93245092663E+01  0.13264660257E+03  0.22023819970E+03  0.17300000000E+03 0.  1.
         -6    1    1    2    0  502  0.29896437233E+02  0.93245092663E+01  0.31982627315E+03  0.36496381797E+03  0.17300000000E+03 0.  1.
<mgrwt>
<rscale>  2 0.17581167E+03</rscale>
<asrwt>0</asrwt>
<pdfrwt beam="1">  1       21 0.79821143E-01 0.17581167E+03</pdfrwt>
<pdfrwt beam="2">  1       21 0.10209934E-01 0.17581167E+03</pdfrwt>
<totfact> 0.10882968E+05</totfact>
</mgrwt>
</event>
<event>
 4    1  0.8126752E-001  0.1871729E+03  0.7546771E-02  0.1161036E+00
         21   -1    0    0  501  502  0.00000000000E+00  0.00000000000E+00  0.72098879729E+03  0.72098879729E+03  0.00000000000E+00 0.  1.
         21   -1    0    0  502  503 -0.00000000000E+00 -0.00000000000E+00 -0.48596107131E+02  0.48596107131E+02  0.00000000000E+00 0. -1.
          6    1    1    2  501    0  0.63227123185E+02  0.33272077630E+02  0.34006882044E+03  0.38817586593E+03  0.17300000000E+03 0.  1.
         -6    1    1    2    0  503 -0.63227123185E+02 -0.33272077630E+02  0.33232386971E+03  0.38140903849E+03  0.17300000000E+03 0.  1.
<mgrwt>
<rscale>  2 0.18717292E+03</rscale>
<asrwt>0</asrwt>
<pdfrwt beam="1">  1       21 0.11092135E+00 0.18717292E+03</pdfrwt>
<pdfrwt beam="2">  1       21 0.74763247E-02 0.18717292E+03</pdfrwt>
<totfact> 0.86600754E+04</totfact>
</mgrwt>
</event>
<event>
 4    1  0.8126752E-001  0.1918575E+03  0.7546771E-02  0.1156797E+00
         21   -1    0    0  501  502  0.00000000000E+00  0.00000000000E+00  0.19824483494E+03  0.19824483494E+03  0.00000000000E+00 0. -1.
         21   -1    0    0  502  503 -0.00000000000E+00 -0.00000000000E+00 -0.19805950021E+03  0.19805950021E+03  0.00000000000E+00 0. -1.
          6    1    1    2  501    0  0.82895448948E+02  0.29411467561E+01  0.49640297630E+02  0.19817533890E+03  0.17300000000E+03 0. -1.
         -6    1    1    2    0  503 -0.82895448948E+02 -0.29411467561E+01 -0.49454962903E+02  0.19812899625E+03  0.17300000000E+03 0. -1.
<mgrwt>
<rscale>  2 0.19185751E+03</rscale>
<asrwt>0</asrwt>
<pdfrwt beam="1">  1       21 0.30499206E-01 0.19185751E+03</pdfrwt>
<pdfrwt beam="2">  1       21 0.30470692E-01 0.19185751E+03</pdfrwt>
<totfact> 0.10670450E+05</totfact>
</mgrwt>
</event>
<event>
 4    1  0.8126752E-001  0.1793865E+03  0.7546771E-02  0.1168398E+00
         21   -1    0    0  503  502  0.00000000000E+00  0.00000000000E+00  0.39641409018E+03  0.39641409018E+03  0.00000000000E+00 0. -1.
         21   -1    0    0  501  503 -0.00000000000E+00 -0.00000000000E+00 -0.84240255433E+02  0.84240255433E+02  0.00000000000E+00 0. -1.
          6    1    1    2  501    0 -0.28863144514E+02 -0.37648929802E+02  0.11025505865E+03  0.21056044497E+03  0.17300000000E+03 0. -1.
         -6    1    1    2    0  502  0.28863144514E+02  0.37648929802E+02  0.20191877609E+03  0.27009390064E+03  0.17300000000E+03 0. -1.
<mgrwt>
<rscale>  2 0.17938652E+03</rscale>
<asrwt>0</asrwt>
<pdfrwt beam="1">  1       21 0.60986782E-01 0.17938652E+03</pdfrwt>
<pdfrwt beam="2">  1       21 0.12960040E-01 0.17938652E+03</pdfrwt>
<totfact> 0.12847717E+05</totfact>
</mgrwt>
</event>
<event>
 4    1  0.8126752E-001  0.2251036E+03  0.7546771E-02  0.1130134E+00
         21   -1    0    0  501  502  0.00000000000E+00  0.00000000000E+00  0.33451389748E+02  0.33451389748E+02  0.00000000000E+00 0.  1.
         21   -1    0    0  502  503 -0.00000000000E+00 -0.00000000000E+00 -0.19504525851E+04  0.19504525851E+04  0.00000000000E+00 0.  1.
          6    1    1    2  501    0  0.13191356158E+03  0.57805267146E+02 -0.48968616137E+03  0.53894728246E+03  0.17300000000E+03 0.  1.
         -6    1    1    2    0  503 -0.13191356158E+03 -0.57805267146E+02 -0.14273150340E+04  0.14449566924E+04  0.17300000000E+03 0.  1.
<mgrwt>
<rscale>  2 0.22510361E+03</rscale>
<asrwt>0</asrwt>
<pdfrwt beam="1">  1       21 0.51463686E-02 0.22510361E+03</pdfrwt>
<pdfrwt beam="2">  1       21 0.30006957E+00 0.22510361E+03</pdfrwt>
<totfact> 0.84482906E+03</totfact>
</mgrwt>
</event>
<event>
 4    1  0.8126752E-001  0.3501174E+03  0.7546771E-02  0.1062567E+00
         21   -1    0    0  501  502  0.00000000000E+00  0.00000000000E+00  0.12566685164E+03  0.12566685164E+03  0.00000000000E+00 0. -1.
         21   -1    0    0  502  503 -0.00000000000E+00 -0.00000000000E+00 -0.98877301778E+03  0.98877301778E+03  0.00000000000E+00 0.  1.
          6    1    1    2  501    0 -0.23248232075E+03 -0.19648193750E+03 -0.36688035642E+03  0.50713250453E+03  0.17300000000E+03 0. -1.
         -6    1    1    2    0  503  0.23248232075E+03  0.19648193750E+03 -0.49622580972E+03  0.60730736489E+03  0.17300000000E+03 0. -1.
<mgrwt>
<rscale>  2 0.35011738E+03</rscale>
<asrwt>0</asrwt>
<pdfrwt beam="1">  1       21 0.19333361E-01 0.35011738E+03</pdfrwt>
<pdfrwt beam="2">  1       21 0.15211893E+00 0.35011738E+03</pdfrwt>
<totfact> 0.64401470E+03</totfact>
</mgrwt>
</event>
<event>
 4    1  0.8126752E-001  0.1887999E+03  0.7546771E-02  0.1159548E+00
         21   -1    0    0  503  502  0.00000000000E+00  0.00000000000E+00  0.26378205811E+03  0.26378205811E+03  0.00000000000E+00 0. -1.
         21   -1    0    0  501  503 -0.00000000000E+00 -0.00000000000E+00 -0.14386740963E+03  0.14386740963E+03  0.00000000000E+00 0. -1.
          6    1    1    2  501    0 -0.49015581660E+02  0.57566302547E+02  0.97327310669E+01  0.18905060827E+03  0.17300000000E+03 0. -1.
         -6    1    1    2    0  502  0.49015581660E+02 -0.57566302547E+02  0.11018191742E+03  0.21859885947E+03  0.17300000000E+03 0. -1.
<mgrwt>
<rscale>  2 0.18879991E+03</rscale>
<asrwt>0</asrwt>
<pdfrwt beam="1">  1       21 0.40581855E-01 0.18879991E+03</pdfrwt>
<pdfrwt beam="2">  1       21 0.22133448E-01 0.18879991E+03</pdfrwt>
<totfact> 0.11180229E+05</totfact>
</mgrwt>
</event>
<event>
 4    1  0.8126752E-001  0.1731255E+03  0.7546771E-02  0.1174627E+00
         21   -1    0    0  501  502  0.00000000000E+00  0.00000000000E+00  0.50904932741E+02  0.50904932741E+02  0.00000000000E+00 0.  1.
         21   -1    0    0  502  503 -0.00000000000E+00 -0.00000000000E+00 -0.59174042992E+03  0.59174042992E+03  0.00000000000E+00 0.  1.
          6    1    1    2  501    0  0.65464767915E+01 -0.75298900168E+00 -0.24773674817E+03  0.30223487513E+03  0.17300000000E+03 0.  1.
         -6    1    1    2    0  503 -0.65464767915E+01  0.75298900168E+00 -0.29309874901E+03  0.34041048753E+03  0.17300000000E+03 0.  1.
<mgrwt>
<rscale>  2 0.17312546E+03</rscale>
<asrwt>0</asrwt>
<pdfrwt beam="1">  1       21 0.78315288E-02 0.17312546E+03</pdfrwt>
<pdfrwt beam="2">  1       21 0.91036982E-01 0.17312546E+03</pdfrwt>
<totfact> 0.12834029E+05</totfact>
</mgrwt>
</event>
<event>
 4    1  0.8126752E-001  0.2013126E+03  0.7546771E-02  0.1148636E+00
         21   -1    0    0  503  502  0.00000000000E+00  0.00000000000E+00  0.47500766819E+02  0.47500766819E+02  0.00000000000E+00 0. -1.
         21   -1    0    0  501  503 -0.00000000000E+00 -0.00000000000E+00 -0.10982630391E+04  0.10982630391E+04  0.00000000000E+00 0.  1.
          6    1    1    2  501    0  0.42850066881E+02 -0.93603589486E+02 -0.79600588083E+03  0.82106767231E+03  0.17300000000E+03 0. -1.
         -6    1    1    2    0  502 -0.42850066881E+02  0.93603589486E+02 -0.25475639146E+03  0.32469613362E+03  0.17300000000E+03 0.  1.
<mgrwt>
<rscale>  2 0.20131259E+03</rscale>
<asrwt>0</asrwt>
<pdfrwt beam="1">  1       21 0.73078108E-02 0.20131259E+03</pdfrwt>
<pdfrwt beam="2">  1       21 0.16896353E+00 0.20131259E+03</pdfrwt>
<totfact> 0.30297725E+04</totfact>
</mgrwt>
</event>
<event>
 4    1  0.8126752E-001  0.1853530E+03  0.7546771E-02  0.1162721E+00
         21   -1    0    0  501  502  0.00000000000E+00  0.00000000000E+00  0.42231884846E+02  0.42231884846E+02  0.00000000000E+00 0.  1.
         21   -1    0    0  502  503 -0.00000000000E+00 -0.00000000000E+00 -0.98185457652E+03  0.98185457652E+03  0.00000000000E+00 0.  1.
          6    1    1    2  501    0 -0.15174709331E+02 -0.64780163556E+02 -0.68183892756E+03  0.70658337408E+03  0.17300000000E+03 0.  1.
         -6    1    1    2    0  503  0.15174709331E+02  0.64780163556E+02 -0.25778376412E+03  0.31750308729E+03  0.17300000000E+03 0.  1.
<mgrwt>
<rscale>  2 0.18535302E+03</rscale>
<asrwt>0</asrwt>
<pdfrwt beam="1">  1       21 0.64972133E-02 0.18535302E+03</pdfrwt>
<pdfrwt beam="2">  1       21 0.15105454E+00 0.18535302E+03</pdfrwt>
<totfact> 0.50677315E+04</totfact>
</mgrwt>
</event>
<event>
 4    1  0.8126752E-001  0.1888971E+03  0.7546771E-02  0.1159460E+00
         21   -1    0    0  501  502  0.00000000000E+00  0.00000000000E+00  0.60797639332E+02  0.60797639332E+02  0.00000000000E+00 0.  1.
         21   -1    0    0  502  503 -0.00000000000E+00 -0.00000000000E+00 -0.63991171841E+03  0.63991171841E+03  0.00000000000E+00 0.  1.
          6    1    1    2  501    0  0.75500863478E+02 -0.72606396331E+01 -0.18871622594E+03  0.26701294202E+03  0.17300000000E+03 0.  1.
         -6    1    1    2    0  503 -0.75500863478E+02  0.72606396331E+01 -0.39039785314E+03  0.43369641572E+03  0.17300000000E+03 0.  1.
<mgrwt>
<rscale>  2 0.18889705E+03</rscale>
<asrwt>0</asrwt>
<pdfrwt beam="1">  1       21 0.93534827E-02 0.18889705E+03</pdfrwt>
<pdfrwt beam="2">  1       21 0.98447959E-01 0.18889705E+03</pdfrwt>
<totfact> 0.77899250E+04</totfact>
</mgrwt>
</event>
